Membrane in water
40167
    1TCq1    O1    1   2.445   1.388  11.173 -0.4810  0.1593 -0.4133
    1TCq1    C1    2   2.372   1.433  11.069 -0.1016 -0.1290 -0.8005
    1TCq1    O2    3   2.416   1.484  10.967  0.1025 -0.1107 -0.2626
    1TCq1    C2    4   2.246   1.479  11.130 -0.2016 -0.1193  0.4367
    1TCq1    C3    5   2.193   1.589  11.091  0.2986  0.2306 -0.3869
    1TCq1    C4    6   2.055   1.610  11.105 -1.3850  0.3339  0.0247
    1TCq1    C5    7   1.969   1.513  11.153 -0.8582  0.9495  0.7668
    1TCq1    C6    8   2.035   1.402  11.191 -0.3183 -0.7202 -0.5173
    1TCq1    C7    9   2.167   1.380  11.189  0.0041 -0.4176 -0.4127
    1TCq1    C8   10   1.950   1.297  11.254  0.7365  0.6081  0.4831
    1TCq1    O4   11   2.010   1.204  11.314 -0.2685 -0.7374  0.3020
    1TCq1    C9   12   2.008   1.744  11.077  0.0933 -0.2927  0.0717
    1TCq1    O5   13   2.091   1.830  11.036  0.1407 -0.6409 -0.1094
    1TCq1    O6   14   1.890   1.774  11.074  0.0035  0.1295 -0.0772
    1TCq1    H1   15   2.396   1.394  11.258 -1.3568  1.9606 -1.0576
    1TCq1    H2   16   2.252   1.671  11.054  0.7410  0.8412  1.6382
    1TCq1    H3   17   1.863   1.536  11.151 -0.9651  0.3187 -0.5143
    1TCq1    H4   18   2.212   1.282  11.193  0.0224 -0.4077 -0.3768
    2MPD2     C   19   1.577   1.203  11.575 -0.1829  0.6227  0.2732
    2MPD2    C1   20   1.575   1.337  11.543  0.4694  0.2617  0.6240
    2MPD2    C2   21   1.649   1.371  11.432 -0.2694 -0.3162  0.9485
    2MPD2    C3   22   1.735   1.286  11.375 -0.3460 -0.0873 -0.8848
    2MPD2    C4   23   1.738   1.153  11.407  0.2371  0.3707  1.3573
    2MPD2    C5   24   1.659   1.119  11.511  0.1835 -0.1997  0.4664
    2MPD2     H   25   1.665   1.475  11.405  2.6664 -1.3116 -1.1860
    2MPD2    H1   26   1.803   1.082  11.356  0.1590  0.7515  0.7314
    2MPD2    H2   27   1.518   1.173  11.661  0.9969 -0.4575  0.7013
    2MPD2    H3   28   1.681   1.017  11.543  1.1703 -0.0100  0.3897
    2MPD2     N   29   1.825   1.349  11.286 -0.5145 -0.1272  0.2714
    2MPD2    H5   30   1.807   1.448  11.270 -1.0442 -0.2791 -0.0763
    2MPD2    N1   31   1.499   1.439  11.616 -0.0933 -0.0901  1.3096
    2MPD2    H7   32   1.503   1.532  11.576 -1.6400  0.4866  2.4948
    3TCq1    O1   33   1.619   3.216  10.304  0.4248 -0.0822 -0.2372
    3TCq1    C1   34   1.678   3.131  10.392  0.4303 -0.4128 -0.1862
    3TCq1    O2   35   1.701   3.156  10.508  0.0400 -0.1550 -0.1434
    3TCq1    C2   36   1.660   3.004  10.332  0.3394 -1.2647  0.1084
    3TCq1    C3   37   1.680   2.987  10.196  0.4576 -0.6580 -0.5173
    3TCq1    C4   38   1.669   2.859  10.147  0.2624  0.0046  0.4685
    3TCq1    C5   39   1.627   2.759  10.225 -0.6085  0.4589  0.2732
    3TCq1    C6   40   1.594   2.779  10.360 -0.0162 -0.6868  0.3881
    3TCq1    C7   41   1.620   2.902  10.412 -0.3202  0.3144  0.4898
    3TCq1    C8   42   1.533   2.669  10.424  0.1882  0.1230  0.2112
    3TCq1    O4   43   1.553   2.556  10.386  0.4634 -0.0876  0.2676
    3TCq1    C9   44   1.676   2.834  10.003 -0.9001  0.7750 -0.2297
    3TCq1    O5   45   1.643   2.722   9.954 -0.0097  0.3448 -0.2676
    3TCq1    O6   46   1.717   2.924   9.927  0.1877 -0.3917 -0.4118
    3TCq1    H1   47   1.570   3.163  10.238 -1.0120  0.8260  0.0932
    3TCq1    H2   48   1.709   3.062  10.124  0.4936 -0.3836 -0.2175
    3TCq1    H3   49   1.614   2.665  10.174 -0.7577  1.7186 -2.0324
    3TCq1    H4   50   1.620   2.909  10.521 -0.4410 -0.6184  0.5516
    4MPD2     C   51   1.186   2.514  10.773  0.1276  0.2542  0.1860
    4MPD2    C1   52   1.196   2.653  10.777  0.1357  0.6725  0.1053
    4MPD2    C2   53   1.287   2.716  10.689 -0.5899 -0.6823  0.4888
    4MPD2    C3   54   1.367   2.642  10.605 -1.4124  0.0532 -0.4353
    4MPD2    C4   55   1.354   2.508  10.603  0.8722  0.4109 -0.4381
    4MPD2    C5   56   1.268   2.446  10.687  0.2262  0.4394  0.0412
    4MPD2     H   57   1.304   2.822  10.698 -0.9187 -0.5199 -0.7469
    4MPD2    H1   58   1.405   2.451  10.526 -2.5130 -2.5905 -0.4588
    4MPD2    H2   59   1.124   2.454  10.839 -1.7662  1.8295 -0.1701
    4MPD2    H3   60   1.261   2.340  10.667 -0.6048  0.4924  0.0462
    4MPD2     N   61   1.459   2.715  10.527 -0.4027 -0.3721 -0.7330
    4MPD2    H5   62   1.462   2.816  10.543  2.2984 -0.4998 -0.4236
    4MPD2    N1   63   1.122   2.732  10.864  0.2013 -0.8196  0.2773
    4MPD2    H7   64   1.133   2.833  10.864 -0.3996 -0.7560 -1.4142
    5TCq1    O1   65   2.275   4.392  11.067  0.2332 -0.2237  0.0245
    5TCq1    C1   66   2.156   4.418  11.123 -0.4922 -0.9128  0.4264
    5TCq1    O2   67   2.140   4.511  11.204 -0.3929  0.4394 -0.3933
    5TCq1    C2   68   2.056   4.378  11.025  0.2513  0.5897 -0.5598
    5TCq1    C3   69   1.946   4.457  11.006  1.0069 -0.5808  0.9632
    5TCq1    C4   70   1.864   4.435  10.902 -0.1072 -0.2332 -1.0363
    5TCq1    C5   71   1.897   4.336  10.811 -0.3824 -0.0626 -0.1063
    5TCq1    C6   72   2.011   4.257  10.836 -0.5374 -0.3313 -0.2827
    5TCq1    C7   73   2.092   4.276  10.946 -0.2228  0.4812  0.3601
    5TCq1    C8   74   2.051   4.158  10.737 -0.3894 -0.3076 -0.5486
    5TCq1    O4   75   2.130   4.076  10.778  0.1726 -0.4618  0.0004
    5TCq1    C9   76   1.762   4.527  10.861  0.5198  1.1720 -0.4461
    5TCq1    O5   77   1.774   4.646  10.905 -0.1412  0.0280 -0.2590
    5TCq1    O6   78   1.685   4.484  10.771  0.5637 -0.5176 -0.4015
    5TCq1    H1   79   2.264   4.332  10.990 -1.8419  1.5270 -1.0142
    5TCq1    H2   80   1.936   4.551  11.058 -0.5266 -0.4866  0.4765
    5TCq1    H3   81   1.826   4.319  10.732 -0.2363  0.0060 -0.2535
    5TCq1    H4   82   2.171   4.204  10.965 -0.1331  0.6335  0.5750
    6MPD2     C   83   1.969   4.128  10.380  0.2908  0.0382 -0.5792
    6MPD2    C1   84   2.005   4.081  10.503 -0.1872  0.4103  0.0427
    6MPD2    C2   85   2.050   3.952  10.512 -0.0344 -0.4744 -0.2758
    6MPD2    C3   86   2.048   3.869  10.402  0.1957  0.2604 -0.1118
    6MPD2    C4   87   2.008   3.922  10.279 -0.3816  0.5156 -0.4478
    6MPD2    C5   88   1.973   4.052  10.271  0.3648  0.4879 -0.1058
    6MPD2     H   89   2.062   3.914  10.613  0.6197  0.8337  0.1258
    6MPD2    H1   90   2.004   3.870  10.184 -0.0078  0.8034 -0.6167
    6MPD2    H2   91   1.945   4.234  10.380  1.1404  0.2200  0.5085
    6MPD2    H3   92   1.944   4.092  10.174 -0.0448  3.3435  1.2085
    6MPD2     N   93   2.080   3.735  10.420  0.0165  0.6891 -0.1684
    6MPD2    H5   94   2.093   3.708  10.518 -1.2377  3.0538  0.6407
    6MPD2    N1   95   1.993   4.173  10.614 -0.5066 -1.3202 -0.0449
    6MPD2    H7   96   1.946   4.261  10.592  1.9515  0.0250  0.0827
    7TCq1    O1   97   0.084   0.310  14.085  0.0597  0.5576 -0.4119
    7TCq1    C1   98   0.099   0.401  13.989 -0.0156 -0.3916  0.0423
    7TCq1    O2   99   0.115   0.520  14.003  0.7466  0.7990 -0.2507
    7TCq1    C2  100   0.154   0.319  13.885  0.2167  0.0213  0.0485
    7TCq1    C3  101   0.287   0.330  13.859 -0.3476  0.5286 -0.0541
    7TCq1    C4  102   0.343   0.254  13.758 -0.1898 -0.3104  0.8845
    7TCq1    C5  103   0.265   0.163  13.685  0.4013 -0.7668  0.2541
    7TCq1    C6  104   0.129   0.163  13.708 -0.4448 -0.6511  0.1491
    7TCq1    C7  105   0.076   0.244  13.806  0.2633 -0.3531 -0.7192
    7TCq1    C8  106   0.039   0.098  13.615 -0.0187 -1.0020  0.1225
    7TCq1    O4  107   4.642   0.096  13.638  0.1280  0.1224  0.0923
    7TCq1    C9  108   0.492   0.259  13.734 -0.1766 -0.7876 -0.4903
    7TCq1    O5  109   0.536   0.204  13.628 -0.0301 -0.4069 -0.1280
    7TCq1    O6  110   0.556   0.324  13.822 -0.3159 -0.3016 -0.4314
    7TCq1    H1  111   0.126   0.226  14.057  1.2348  2.0266 -3.0320
    7TCq1    H2  112   0.351   0.407  13.902  1.4287 -0.6111 -0.6445
    7TCq1    H3  113   0.312   0.093  13.617  1.1012 -2.0190  2.0158
    7TCq1    H4  114   4.693   0.237  13.825  0.4388  1.3514  0.9038
    8MPD2     C  115   4.717   4.540  13.203  0.4883  0.0340 -0.2962
    8MPD2    C1  116   4.628   4.550  13.306  0.5114  0.1811 -0.5592
    8MPD2    C2  117   4.662   4.647  13.395  0.4703 -0.3522  0.2508
    8MPD2    C3  118   0.055   0.001  13.392  1.2007  0.2160 -0.7370
    8MPD2    C4  119   0.142   4.706  13.296 -0.2739 -0.8879 -0.0531
    8MPD2    C5  120   0.113   4.616  13.195  0.2721  0.2898  0.2637
    8MPD2     H  121   4.586   4.667  13.469 -0.3278 -2.3959  0.0028
    8MPD2    H1  122   0.239   0.030  13.286  0.2180 -1.7854  0.4535
    8MPD2    H2  123   4.699   4.474  13.119  0.5020  0.6035 -0.7478
    8MPD2    H3  124   0.195   4.580  13.134 -1.3852  0.3772 -2.0551
    8MPD2     N  125   0.103   0.082  13.501  0.1760  0.1680 -0.5399
    8MPD2    H5  126   0.190   0.132  13.487 -0.3171  1.8208  2.3947
    8MPD2    N1  127   4.523   4.457  13.301  0.0650 -0.3334 -0.2538
    8MPD2    H7  128   4.524   4.391  13.225  0.4670 -0.8031  0.1599
    9TCq1    O1  129   2.748   2.378  10.942 -0.5377 -0.1890 -0.1834
    9TCq1    C1  130   2.705   2.338  11.062  0.0649 -0.4779  0.8444
    9TCq1    O2  131   2.704   2.218  11.088 -0.0229  0.3169  0.1829
    9TCq1    C2  132   2.588   2.418  11.089 -0.5231 -0.1678 -0.5037
    9TCq1    C3  133   2.602   2.555  11.082 -0.2551  0.2405 -0.2378
    9TCq1    C4  134   2.480   2.623  11.085  0.5885  0.4357 -0.1809
    9TCq1    C5  135   2.356   2.563  11.106  0.0828 -0.0342  0.0137
    9TCq1    C6  136   2.362   2.424  11.131  0.8732 -0.8596  0.6399
    9TCq1    C7  137   2.472   2.350  11.114 -0.7327  0.0011  0.3703
    9TCq1    C8  138   2.239   2.344  11.133  0.7204 -0.7621 -0.2489
    9TCq1    O4  139   2.259   2.226  11.141 -0.0177  0.0300 -0.4220
    9TCq1    C9  140   2.495   2.770  11.067 -0.4400  0.0584 -0.2713
    9TCq1    O5  141   2.612   2.816  11.041 -0.6074 -0.1848  0.9487
    9TCq1    O6  142   2.395   2.845  11.094  0.1090  0.3536  0.2163
    9TCq1    H1  143   2.742   2.474  10.922 -0.3594 -0.2051 -0.3179
    9TCq1    H2  144   2.697   2.608  11.072  0.2763 -0.8951 -1.2007
    9TCq1    H3  145   2.265   2.621  11.120 -1.7088 -2.4542 -1.5575
    9TCq1    H4  146   2.477   2.246  11.143  0.0287  0.3220  1.3743
   10MPD2     C  147   1.971   2.221  11.151 -0.0435 -0.3890  0.2470
   10MPD2    C1  148   1.998   2.351  11.185  0.0539  0.6871  0.1586
   10MPD2    C2  149   1.896   2.425  11.234 -0.3321 -0.2792  0.3512
   10MPD2    C3  150   1.771   2.374  11.263  0.0563 -0.2460 -0.1276
   10MPD2    C4  151   1.747   2.243  11.235  0.0061  0.1315  0.6833
   10MPD2    C5  152   1.853   2.164  11.186  0.4848 -0.2040 -0.1102
   10MPD2     H  153   1.911   2.529  11.259 -1.3641 -0.1981  0.6407
   10MPD2    H1  154   1.649   2.200  11.256  0.0994  0.3451  1.5372
   10MPD2    H2  155   2.043   2.153  11.105 -1.3546 -1.1206 -0.7140
   10MPD2    H3  156   1.850   2.056  11.179  0.5275 -0.2897  1.1298
   10MPD2     N  157   1.670   2.447  11.328 -0.4631  0.1707 -0.1840
   10MPD2    H5  158   1.580   2.401  11.343  0.1975 -1.4996 -1.2906
   10MPD2    N1  159   2.124   2.413  11.163 -0.4717  0.0582  0.3540
   10MPD2    H7  160   2.128   2.513  11.178  0.5380  0.2631 -1.2061
   11TCq1    O1  161   2.946   2.955  14.168  0.3054  0.2326  0.3450
   11TCq1    C1  162   2.960   3.079  14.211 -0.2907 -1.4089 -0.0284
   11TCq1    O2  163   3.067   3.129  14.242  0.4064 -0.2047  0.5371
   11TCq1    C2  164   2.844   3.153  14.165 -0.9045  0.5815  0.7072
   11TCq1    C3  165   2.852   3.238  14.063  0.7010  0.1408  0.7516
   11TCq1    C4  166   2.739   3.308  14.025  0.7047 -0.1717  0.5364
   11TCq1    C5  167   2.622   3.284  14.087 -0.5491  0.3623 -0.1769
   11TCq1    C6  168   2.612   3.190  14.180 -0.4405 -1.2809  0.2429
   11TCq1    C7  169   2.723   3.122  14.223 -0.4632  0.1237 -0.4624
   11TCq1    C8  170   2.501   3.199  14.274  0.0239  0.0959 -0.0438
   11TCq1    O4  171   2.520   3.255  14.380  0.8899  0.3547 -0.4400
   11TCq1    C9  172   2.748   3.401  13.916  0.1425 -0.2895 -0.0169
   11TCq1    O5  173   2.861   3.441  13.873 -0.7317  0.4628  0.0246
   11TCq1    O6  174   2.643   3.469  13.889  0.1390  0.0049 -0.9461
   11TCq1    H1  175   2.856   2.933  14.136  0.4099  2.2306 -1.2660
   11TCq1    H2  176   2.948   3.235  14.013  0.5262 -2.0118  0.5608
   11TCq1    H3  177   2.533   3.341  14.063  0.0513  0.4653 -2.1668
   11TCq1    H4  178   2.720   3.058  14.310  1.8313  0.0938 -0.3948
   12MPD2     C  179   2.217   3.227  14.342 -0.0487 -0.2179 -0.0994
   12MPD2    C1  180   2.266   3.129  14.266  0.3976 -0.1167 -0.5017
   12MPD2    C2  181   2.176   3.039  14.213 -0.1348 -0.3161 -0.1380
   12MPD2    C3  182   2.039   3.048  14.234  0.5637  0.4392 -0.4337
   12MPD2    C4  183   1.996   3.166  14.294  0.2403 -0.2404 -0.6272
   12MPD2    C5  184   2.086   3.252  14.349 -0.0709 -0.8618 -0.5785
   12MPD2     H  185   2.222   2.960  14.154 -1.0132 -0.3598 -0.7613
   12MPD2    H1  186   1.892   3.194  14.302  0.8490  1.3503  1.5911
   12MPD2    H2  187   2.290   3.297  14.381  2.3376 -2.2607 -0.8185
   12MPD2    H3  188   2.069   3.347  14.399  3.3175 -0.3128 -0.4445
   12MPD2     N  189   1.952   2.959  14.180 -0.0462  0.0249  0.3503
   12MPD2    H5  190   1.991   2.876  14.136 -3.0818 -0.5090 -1.3706
   12MPD2    N1  191   2.400   3.122  14.227 -0.0236 -0.3271 -0.5719
   12MPD2    H7  192   2.415   3.065  14.145  1.5823  2.9572 -2.5749
   13TCq1    O1  193   1.763   2.370  10.389 -0.3308 -0.1775 -0.7302
   13TCq1    C1  194   1.742   2.235  10.370 -0.2532 -0.0081  0.2458
   13TCq1    O2  195   1.789   2.132  10.420 -0.3322  0.0947  0.8735
   13TCq1    C2  196   1.605   2.230  10.331  0.0480 -0.7011 -0.0333
   13TCq1    C3  197   1.567   2.288  10.216  0.0990  0.1196  0.0357
   13TCq1    C4  198   1.429   2.291  10.183 -0.5689 -0.3527  0.0563
   13TCq1    C5  199   1.336   2.239  10.267  0.6688  0.0043  0.1228
   13TCq1    C6  200   1.385   2.183  10.384  0.9038 -0.4515  0.2064
   13TCq1    C7  201   1.520   2.167  10.409  0.0649  0.0498  0.0802
   13TCq1    C8  202   1.290   2.127  10.480 -0.4196  0.1653  0.4507
   13TCq1    O4  203   1.331   2.120  10.595 -0.0456  0.6017 -0.0686
   13TCq1    C9  204   1.384   2.372  10.073 -0.2969  0.6272 -0.0432
   13TCq1    O5  205   1.469   2.440  10.006  0.0126 -0.3497  0.6166
   13TCq1    O6  206   1.260   2.385  10.054  0.3055  0.1764 -0.1737
   13TCq1    H1  207   1.684   2.418  10.358  0.2062  1.1429 -0.0840
   13TCq1    H2  208   1.643   2.333  10.153  0.7705 -0.4461  0.4365
   13TCq1    H3  209   1.231   2.257  10.244  0.4415 -0.6116  0.6755
   13TCq1    H4  210   1.547   2.123  10.504 -0.5943 -0.7017 -0.0773
   14MPD2     C  211   0.954   1.981  10.439  0.6394  0.6375  0.6979
   14MPD2    C1  212   1.059   2.041  10.508  0.0434  0.6109  0.6310
   14MPD2    C2  213   1.054   2.059  10.645 -0.2055 -0.2340  0.6756
   14MPD2    C3  214   0.942   2.021  10.713 -0.1059  0.2648  0.4337
   14MPD2    C4  215   0.840   1.959  10.643 -0.8260 -0.0600  0.1056
   14MPD2    C5  216   0.842   1.942  10.512 -0.7411 -0.5247  1.1115
   14MPD2     H  217   1.133   2.117  10.691  0.9127  0.0669 -1.6113
   14MPD2    H1  218   0.749   1.924  10.691 -0.9849  0.5222  0.2221
   14MPD2    H2  219   0.951   2.001  10.332  0.0676 -0.7307  0.4650
   14MPD2    H3  220   0.750   1.915  10.461  1.1362 -1.8727 -1.5812
   14MPD2     N  221   0.948   2.040  10.852 -0.1766  0.2969 -0.2330
   14MPD2    H5  222   1.037   2.059  10.896 -0.0631  2.4385 -1.3651
   14MPD2    N1  223   1.168   2.084  10.432 -0.3217  0.2622  0.3140
   14MPD2    H7  224   1.165   2.071  10.331  0.8618  1.2229  0.1567
   15TCq1    O1  225   2.614   3.523   1.902  0.4907 -0.1702 -0.3406
   15TCq1    C1  226   2.749   3.504   1.910  0.1618  0.2099 -0.0683
   15TCq1    O2  227   2.821   3.601   1.919  0.1436 -0.2231 -0.1296
   15TCq1    C2  228   2.786   3.372   1.859  1.0122  0.3526  0.0074
   15TCq1    C3  229   2.730   3.269   1.923 -0.2973  0.3107  0.6758
   15TCq1    C4  230   2.790   3.148   1.916 -0.6471 -0.2922  0.0245
   15TCq1    C5  231   2.907   3.126   1.850  1.3446  1.0004  0.1406
   15TCq1    C6  232   2.970   3.235   1.798 -0.0621 -0.6623  0.2980
   15TCq1    C7  233   2.909   3.357   1.794  0.7496  0.4729  0.4807
   15TCq1    C8  234   3.086   3.202   1.720  0.1290 -0.7085 -0.7320
   15TCq1    O4  235   3.138   3.092   1.730  0.3172 -0.3800  0.4421
   15TCq1    C9  236   2.718   3.040   1.966  0.2004  0.2983  0.6889
   15TCq1    O5  237   2.594   3.058   1.973 -0.3098  0.3268 -0.4463
   15TCq1    O6  238   2.791   2.942   1.999 -0.2483  0.3285  0.0730
   15TCq1    H1  239   2.580   3.449   1.847 -2.7271  2.0485 -1.3598
   15TCq1    H2  240   2.638   3.281   1.980  0.5157 -1.6120  2.3737
   15TCq1    H3  241   2.958   3.031   1.856  3.2943  1.9548 -1.1924
   15TCq1    H4  242   2.950   3.448   1.752  0.6269  0.5228  0.4701
   16MPD2     C  243   3.314   3.391   1.511  0.4137 -0.5813  0.5156
   16MPD2    C1  244   3.250   3.283   1.562  0.2710  0.0807 -0.2488
   16MPD2    C2  245   3.265   3.164   1.496  0.1264 -0.0292  0.5445
   16MPD2    C3  246   3.345   3.146   1.386  0.5308 -0.4312  0.0850
   16MPD2    C4  247   3.404   3.259   1.336 -0.1912  0.6509  0.5888
   16MPD2    C5  248   3.395   3.378   1.402 -0.6715 -0.3306  0.2894
   16MPD2     H  249   3.200   3.083   1.527 -1.9354  0.3596 -2.7837
   16MPD2    H1  250   3.467   3.247   1.248 -0.4672 -3.8602  1.0373
   16MPD2    H2  251   3.307   3.492   1.549 -2.2590 -0.7443  0.4437
   16MPD2    H3  252   3.442   3.465   1.359 -1.9084  1.0841  1.8095
   16MPD2     N  253   3.351   3.016   1.326 -0.4592  0.6307  0.1205
   16MPD2    H5  254   3.307   2.940   1.377  0.5976  0.1079  0.2418
   16MPD2    N1  255   3.153   3.300   1.657  0.2260  0.3247  0.0868
   16MPD2    H7  256   3.138   3.395   1.692  4.7292  1.4708 -0.9873
   17TCq1    O1  257   2.166   0.786  11.413  0.4481 -0.1470 -0.2299
   17TCq1    C1  258   2.153   0.693  11.319 -0.5604  0.2642  0.1551
   17TCq1    O2  259   2.235   0.611  11.283  0.3322  0.2602 -0.1744
   17TCq1    C2  260   2.031   0.710  11.241 -0.1728 -0.8950  0.0651
   17TCq1    C3  261   1.967   0.596  11.220  0.9006 -0.4171  0.0184
   17TCq1    C4  262   1.842   0.602  11.163 -0.5660 -0.4476 -0.0467
   17TCq1    C5  263   1.795   0.719  11.109 -0.5242 -0.3917 -0.1872
   17TCq1    C6  264   1.883   0.824  11.114 -0.3106  0.6693 -0.3669
   17TCq1    C7  265   2.000   0.827  11.190 -0.3614  0.1688  0.6581
   17TCq1    C8  266   1.842   0.935  11.034  0.6429 -0.2919  0.2634
   17TCq1    O4  267   1.726   0.932  10.992  0.0327  0.3369  0.3342
   17TCq1    C9  268   1.764   0.478  11.160 -0.4380 -0.0902  0.5965
   17TCq1    O5  269   1.803   0.385  11.240  0.2946 -0.0095 -0.0881
   17TCq1    O6  270   1.676   0.458  11.073  0.2259 -0.5063  0.2716
   17TCq1    H1  271   2.090   0.848  11.418  1.4193  1.0053  0.2522
   17TCq1    H2  272   1.998   0.501  11.263 -1.2945 -1.3946 -0.5223
   17TCq1    H3  273   1.700   0.722  11.056  0.3598  0.8385 -1.6879
   17TCq1    H4  274   2.065   0.912  11.205  1.8217 -1.4150  0.1248
   18MPD2     C  275   1.779   1.218  10.950  0.4590 -0.1818  0.1803
   18MPD2    C1  276   1.909   1.161  10.948 -0.8458 -0.5337 -0.3859
   18MPD2    C2  277   2.012   1.233  10.889 -0.4724  0.0654  0.0324
   18MPD2    C3  278   1.990   1.360  10.836 -0.7822  0.3026  0.0962
   18MPD2    C4  279   1.866   1.414  10.848 -0.1295 -0.2488 -0.4265
   18MPD2    C5  280   1.763   1.344  10.908  0.0353  0.0037 -0.2445
   18MPD2     H  281   2.105   1.180  10.871 -0.7113  0.0614 -1.2056
   18MPD2    H1  282   1.843   1.508  10.800 -2.0096 -0.8743 -0.7449
   18MPD2    H2  283   1.692   1.174  10.998  0.2087 -0.0382 -0.1442
   18MPD2    H3  284   1.664   1.384  10.923 -0.7381 -1.0383 -2.5649
   18MPD2     N  285   2.080   1.443  10.769 -0.0587  0.4264 -0.5624
   18MPD2    H5  286   2.051   1.536  10.742  0.9806  0.5877 -1.1359
   18MPD2    N1  287   1.932   1.033  11.009  0.2210  0.0509 -0.0518
   18MPD2    H7  288   2.027   1.013  11.040 -0.2025 -0.9130  0.6017
   19TMC2    C1  289   3.643   2.604  13.472 -1.4467  0.1383  0.5587
   19TMC2    C2  290   3.649   2.628  13.336  0.0776  0.4534  0.0001
   19TMC2    C3  291   3.558   2.564  13.260 -0.5424 -0.5750  0.5642
   19TMC2    C4  292   3.544   2.536  13.534  0.1378  0.9573  0.1927
   19TMC2    C5  293   3.455   2.471  13.449  0.1628 -0.1422  0.2515
   19TMC2    C6  294   3.458   2.488  13.311  0.8920  0.5321  0.2923
   19TMC2     C  295   3.725   2.701  13.544  0.0653  0.4436 -0.2876
   19TMC2     O  296   3.778   2.793  13.481  0.5855  0.0464 -0.6657
   19TMC2     H  297   3.727   2.684  13.284  1.9086 -0.2077  2.0235
   19TMC2    H1  298   3.538   2.509  13.639  1.4039 -1.1375 -0.2667
   19TMC2    H2  299   3.388   2.435  13.247 -0.4073  3.1757 -0.4784
   19TMC2    C7  300   3.366   2.370  13.503  0.6240  0.6352  0.4311
   19TMC2    C8  301   3.596   2.544  13.123  0.1773 -0.6309  0.2141
   19TMC2    O1  302   3.315   2.395  13.612 -0.3542  0.7062  0.5094
   19TMC2    O2  303   3.588   2.440  13.063 -0.2054 -0.5253 -0.2583
   19TMC2    O5  304   3.561   2.661  13.068 -0.1516 -0.1324 -0.0787
   19TMC2    H5  305   3.552   2.741  13.123  0.2410  1.0752 -1.7869
   20MPD2     C  306   3.836   2.877  13.756  0.2999 -0.4484  0.2951
   20MPD2    C1  307   3.778   2.755  13.785  0.0098  0.3176 -0.5177
   20MPD2    C2  308   3.766   2.707  13.919 -0.4129  0.1918 -0.8954
   20MPD2    C3  309   3.827   2.776  14.025  0.0217  1.1626  0.1291
   20MPD2    C4  310   3.884   2.901  13.995  0.1613 -0.6163 -0.1839
   20MPD2    C5  311   3.886   2.952  13.865  0.5685 -0.7369 -0.4615
   20MPD2     H  312   3.706   2.619  13.938 -2.7675  1.9338 -0.2963
   20MPD2    H1  313   3.938   2.953  14.074  0.4921 -1.0544 -0.1224
   20MPD2    H2  314   3.845   2.923  13.658 -0.5615 -0.4712  0.2059
   20MPD2    H3  315   3.935   3.046  13.842 -1.4313  0.1108 -1.2580
   20MPD2     N  316   3.816   2.745  14.159 -0.0276  0.2454  0.7265
   20MPD2    H5  317   3.855   2.807  14.229 -1.0982  0.0910  1.4564
   20MPD2    N1  318   3.729   2.673  13.678 -0.1544  0.0490 -0.3576
   20MPD2    H7  319   3.679   2.589  13.705 -2.2035  1.1043 -0.8831
   21MPD2     C  320   1.129   3.611  13.942  0.1297  0.8842 -1.0149
   21MPD2    C1  321   1.159   3.604  14.078  0.8405  0.1584  0.1287
   21MPD2    C2  322   1.108   3.701  14.159 -0.0579  0.5251 -0.0043
   21MPD2    C3  323   1.031   3.807  14.107 -1.2681 -0.8633  0.1892
   21MPD2    C4  324   1.006   3.810  13.973 -0.3864 -0.5350  0.9928
   21MPD2    C5  325   1.068   3.720  13.890 -0.2812  0.1370 -0.3936
   21MPD2     H  326   1.133   3.694  14.264  1.3911  0.4728 -0.3451
   21MPD2    H1  327   0.951   3.891  13.927  1.4698 -0.4230 -1.0619
   21MPD2    H2  328   1.164   3.538  13.869  0.1317 -0.0579 -0.0751
   21MPD2    H3  329   1.058   3.733  13.783  0.6855  0.6383 -0.4226
   21MPD2     N  330   0.960   3.896  14.190  0.2114  0.3007 -0.1433
   21MPD2    H5  331   0.898   3.961  14.143 -0.3273  0.7317  1.1557
   21MPD2    N1  332   1.243   3.507  14.141  0.1421  0.3447 -0.0738
   21MPD2    H7  333   1.255   3.514  14.241 -2.6371  0.5942  0.2428
   22TCq2    C1  334   0.962   3.893  14.331  0.0503  0.5307  0.0161
   22TCq2    O2  335   1.018   3.821  14.413 -0.2155  0.4841 -0.0429
   22TCq2    C2  336   0.881   4.000  14.392  0.2581 -0.1871 -0.7676
   22TCq2    C3  337   0.830   3.978  14.512 -0.2644  0.4122  0.6471
   22TCq2    C4  338   0.715   4.041  14.538  0.2886  0.0311  0.3531
   22TCq2    C5  339   0.648   4.120  14.454 -0.2993 -0.6843 -0.5838
   22TCq2    C6  340   0.714   4.145  14.332 -0.6466  0.1068 -0.3728
   22TCq2    C7  341   0.829   4.086  14.306 -0.0128 -0.2415  0.5128
   22TCq2    C8  342   0.655   4.188  14.208 -0.1513 -0.6061  0.1342
   22TCq2    O4  343   0.734   4.228  14.125 -0.2984 -0.7204 -0.5906
   22TCq2    C9  344   0.647   4.008  14.659  0.4832  0.6166 -0.6449
   22TCq2    O5  345   0.521   4.015  14.669 -0.0771 -0.0647 -0.2505
   22TCq2    O6  346   0.711   3.969  14.762 -0.1798  0.3606 -0.6521
   22TCq2    H2  347   0.863   3.900  14.580 -0.6817 -0.8801 -0.6149
   22TCq2    H3  348   0.551   4.163  14.473  0.9817  2.0798 -0.1851
   22TCq2    H4  349   0.889   4.126  14.225 -0.3434  1.1673  0.9562
   23MPD2     C  350   2.916   4.593  15.434  0.2665 -0.3395 -0.5376
   23MPD2    C1  351   2.873   4.487  15.363  0.4083 -0.3893  0.1375
   23MPD2    C2  352   2.789   4.504  15.255 -0.6756  0.0230  0.2434
   23MPD2    C3  353   2.755   4.630  15.211 -1.0069 -0.0909  0.1197
   23MPD2    C4  354   2.805   0.015  15.274  0.0250  0.7955  0.0315
   23MPD2    C5  355   2.890   4.717  15.386  0.0450 -0.7227  1.1980
   23MPD2     H  356   2.745   4.415  15.212 -2.3634  1.4346 -0.9198
   23MPD2    H1  357   2.790   0.118  15.246 -0.1873  1.4975  2.7686
   23MPD2    H2  358   2.971   4.578  15.526  1.7207  0.5760 -1.2583
   23MPD2    H3  359   2.936   0.080  15.434  0.8719 -0.7473  0.4541
   23MPD2     N  360   2.673   4.656  15.097  0.1092 -0.0965  0.4278
   23MPD2    H5  361   2.661   0.032  15.081 -1.1779 -0.4261 -0.6907
   23MPD2    N1  362   2.907   4.359  15.412  0.1474  0.2267 -0.1468
   23MPD2    H7  363   2.941   4.357  15.508 -3.4806  1.5149  1.1634
   24TCq2    C1  364   2.610   4.568  15.013  0.0528  0.3276  0.3132
   24TCq2    O2  365   2.628   4.445  15.020 -0.4992 -0.1338 -0.3243
   24TCq2    C2  366   2.537   4.625  14.906 -0.1032  0.7090  0.1726
   24TCq2    C3  367   2.562   0.028  14.860  0.3807 -0.5140 -0.1751
   24TCq2    C4  368   2.508   0.060  14.738  0.2485  1.0763 -0.4427
   24TCq2    C5  369   2.413   4.709  14.676  0.0851 -0.5711 -0.3361
   24TCq2    C6  370   2.397   4.579  14.720  0.1575  0.2580 -0.2229
   24TCq2    C7  371   2.463   4.534  14.833 -0.4734  0.5374 -0.1214
   24TCq2    C8  372   2.327   4.474  14.640 -0.1920  0.4895  0.2940
   24TCq2    O4  373   2.353   4.355  14.647 -0.1573  0.4012  0.4927
   24TCq2    C9  374   2.543   0.190  14.679  0.0208 -0.3275  0.7589
   24TCq2    O5  375   2.485   0.220  14.571 -1.2289  0.6529 -0.7331
   24TCq2    O6  376   2.659   0.233  14.694  0.7245 -0.2613 -0.5426
   24TCq2    H2  377   2.625   0.103  14.906  0.6175  0.4282 -2.0110
   24TCq2    H3  378   2.367   0.018  14.583 -0.0102 -2.2412 -0.8656
   24TCq2    H4  379   2.459   4.429  14.859  1.7659  0.6159  0.5400
   25TMC2    C1  380   1.542   0.981  11.880  0.6573  0.5143  0.3839
   25TMC2    C2  381   1.662   1.012  11.939  0.5264  0.1400  0.0855
   25TMC2    C3  382   1.666   1.049  12.071  0.3254  0.2134  0.1485
   25TMC2    C4  383   1.423   1.006  11.943  0.4108 -0.3716 -0.5096
   25TMC2    C5  384   1.430   1.062  12.069  0.6138 -0.0526  0.8087
   25TMC2    C6  385   1.550   1.074  12.134  0.5526 -0.7647 -0.2087
   25TMC2     C  386   1.551   0.907  11.755 -0.2604 -0.0581  0.1615
   25TMC2     O  387   1.657   0.857  11.732 -0.1070  0.2414 -0.4954
   25TMC2     H  388   1.746   1.017  11.870  0.2055  1.1645 -0.2426
   25TMC2    H1  389   1.327   0.964  11.916  1.5048 -2.5896 -0.9424
   25TMC2    H2  390   1.546   1.126  12.229  2.1761  2.4047 -1.9097
   25TMC2    C7  391   1.319   1.141  12.121 -0.4945 -0.5759  0.4614
   25TMC2    C8  392   1.780   1.111  12.138  0.0346  0.6863 -0.2232
   25TMC2    O1  393   1.315   1.163  12.242 -0.0472  0.1053  0.6771
   25TMC2    O2  394   1.769   1.212  12.206  0.4838  0.1851 -0.2557
   25TMC2    O5  395   1.889   1.053  12.076  0.4542  0.2493  0.5824
   25TMC2    H5  396   1.892   0.956  12.063  0.1182  0.7920 -3.2828
   26MPD2     C  397   1.369   0.650  11.347  0.6046 -0.2270  0.0643
   26MPD2    C1  398   1.263   0.729  11.395 -0.0359 -0.2024  0.4138
   26MPD2    C2  399   1.291   0.823  11.497  0.0668  0.0440  0.3648
   26MPD2    C3  400   1.418   0.838  11.551 -0.1219 -0.0399 -0.3827
   26MPD2    C4  401   1.520   0.774  11.483  0.4764  0.0644  0.2422
   26MPD2    C5  402   1.498   0.685  11.387 -0.4271 -0.2249 -0.6430
   26MPD2     H  403   1.217   0.885  11.547  2.2661  2.4279  0.6906
   26MPD2    H1  404   1.619   0.783  11.526  0.2105 -1.9096  1.2574
   26MPD2    H2  405   1.350   0.568  11.279  1.2132  0.0387 -0.4246
   26MPD2    H3  406   1.580   0.634  11.338 -0.9205 -2.7231  1.1362
   26MPD2     N  407   1.434   0.908  11.675  0.3422  0.3056 -0.0738
   26MPD2    H5  408   1.364   0.974  11.709  1.7125  1.0329  1.3526
   26MPD2    N1  409   1.127   0.697  11.358  0.5538 -0.5259  0.1313
   26MPD2    H7  410   1.100   0.630  11.287 -1.1009 -0.9932  1.1820
   27TMC2    C1  411   0.315   3.169  11.779 -0.1887  0.3661  1.2639
   27TMC2    C2  412   0.214   3.238  11.724  0.8787 -0.3356  0.2708
   27TMC2    C3  413   0.237   3.362  11.672  0.0217  0.0350  0.3996
   27TMC2    C4  414   0.442   3.225  11.797  0.2864  0.0465 -0.4586
   27TMC2    C5  415   0.453   3.358  11.776  0.4233 -0.0852  0.2019
   27TMC2    C6  416   0.356   3.424  11.703  0.0637  0.0185 -0.0642
   27TMC2     C  417   0.270   3.090  11.893  0.2732  0.2337 -0.2175
   27TMC2     O  418   0.340   2.994  11.926  0.2410 -0.2562  0.1000
   27TMC2     H  419   0.117   3.191  11.713  0.7070  0.2583 -0.7606
   27TMC2    H1  420   0.515   3.165  11.851 -0.3049  0.2873  0.6231
   27TMC2    H2  421   0.381   3.525  11.671 -0.8786  0.0875 -0.5596
   27TMC2    C7  422   0.478   3.424  11.905  0.2458 -0.9404 -0.2025
   27TMC2    C8  423   0.152   3.413  11.569  0.3543 -0.1448 -0.7843
   27TMC2    O1  424   0.476   3.356  12.003 -0.3982  0.0827  0.3601
   27TMC2    O2  425   0.153   3.531  11.539 -0.1356  0.1515 -0.0178
   27TMC2    O5  426   0.130   3.315  11.484  0.1551 -0.1029  0.0750
   27TMC2    H5  427   0.184   3.234  11.501  1.7049  0.3705 -2.5691
   28MPD2     C  428   4.712   3.005  12.308 -0.5304  0.4439  0.2834
   28MPD2    C1  429   4.705   3.144  12.282 -0.6076  0.0739 -0.6774
   28MPD2    C2  430   0.055   3.189  12.175 -1.4726  0.1231  0.3232
   28MPD2    C3  431   0.118   3.097  12.089 -0.0357  0.4424  0.2905
   28MPD2    C4  432   0.119   2.961  12.110 -0.2416 -0.6100 -0.2918
   28MPD2    C5  433   0.063   2.919  12.226 -0.0632  0.6092 -0.0068
   28MPD2     H  434   0.053   3.295  12.151 -1.6365 -0.5779 -2.7247
   28MPD2    H1  435   0.165   2.881  12.053 -2.0785 -0.3693 -2.0942
   28MPD2    H2  436   4.638   2.967  12.377  0.3656 -0.6465  0.6471
   28MPD2    H3  437   0.056   2.812  12.240  0.0458  0.5165 -0.6834
   28MPD2     N  438   0.172   3.152  11.968 -0.0687  0.5469  0.3162
   28MPD2    H5  439   0.140   3.246  11.946  0.9796  0.8071 -0.1120
   28MPD2    N1  440   4.612   3.216  12.360 -0.7597  0.1095 -0.1848
   28MPD2    H7  441   4.553   3.171  12.430  0.4984 -0.7924  0.2921
   29MPD2     C  442   4.361   1.436  13.963 -0.8636  0.0598  0.5313
   29MPD2    C1  443   4.407   1.389  14.086  0.4180 -0.5588 -0.2932
   29MPD2    C2  444   4.413   1.469  14.196 -0.1198 -0.6303  0.6880
   29MPD2    C3  445   4.353   1.595  14.192  0.4149  0.3899 -0.1009
   29MPD2    C4  446   4.293   1.639  14.075  0.1711  0.6626 -0.1713
   29MPD2    C5  447   4.305   1.563  13.960 -0.2867  0.0431 -0.4118
   29MPD2     H  448   4.446   1.425  14.289  0.7262 -1.2932  0.0696
   29MPD2    H1  449   4.247   1.737  14.073 -3.3187 -0.9836 -0.5351
   29MPD2    H2  450   4.385   1.386  13.870  0.4560  0.2480  0.7775
   29MPD2    H3  451   4.277   1.602  13.863 -2.9285  2.5536  1.3743
   29MPD2     N  452   4.343   1.668  14.308 -0.1454  0.1113  0.4568
   29MPD2    H5  453   4.300   1.759  14.294 -1.3101 -0.8091 -1.9131
   29MPD2    N1  454   4.462   1.262  14.093  0.4811 -0.4251 -0.2765
   29MPD2    H7  455   4.504   1.230  14.179 -0.5799 -2.0659 -0.3699
   30TCq2    C1  456   4.388   1.638  14.435 -0.6143 -0.7254 -0.4373
   30TCq2    O2  457   4.456   1.544  14.474  0.0606  0.4191  0.0967
   30TCq2    C2  458   4.360   1.739  14.535 -0.2734 -0.3095  0.0232
   30TCq2    C3  459   4.415   1.732  14.656 -0.1911 -0.4070  0.6144
   30TCq2    C4  460   4.387   1.828  14.748  0.3138  0.6559 -0.1303
   30TCq2    C5  461   4.303   1.936  14.723 -0.0094  0.5983 -0.9209
   30TCq2    C6  462   4.260   1.943  14.595 -0.0625  0.4083 -0.1021
   30TCq2    C7  463   4.285   1.851  14.500 -0.6837  0.5753 -0.0112
   30TCq2    C8  464   4.210   2.077  14.559 -0.9657 -0.0494  0.1385
   30TCq2    O4  465   4.152   2.088  14.449  1.0890 -0.3767  0.3032
   30TCq2    C9  466   4.449   1.838  14.874 -0.4938  0.2709  0.2320
   30TCq2    O5  467   4.465   1.734  14.941 -0.5756 -0.3537  0.0198
   30TCq2    O6  468   4.458   1.960  14.919  0.0927 -0.1744 -0.1230
   30TCq2    H2  469   4.485   1.654  14.683  0.1807 -0.6767 -1.1135
   30TCq2    H3  470   4.280   2.008  14.800 -0.9076  0.8947 -1.4638
   30TCq2    H4  471   4.238   1.868  14.404 -1.3251  2.7928  0.7023
   31MPD2     C  472   2.217   0.295  14.817 -0.1973  0.4267 -0.2593
   31MPD2    C1  473   2.097   0.356  14.793 -0.4895  0.2927 -0.2681
   31MPD2    C2  474   2.009   0.345  14.894 -0.4035 -0.5996  0.3387
   31MPD2    C3  475   2.029   0.278  15.020  0.5006 -0.4881  0.9490
   31MPD2    C4  476   2.149   0.208  15.029 -0.0907 -0.0335 -0.5799
   31MPD2    C5  477   2.240   0.223  14.933 -0.5567 -0.1612 -0.1291
   31MPD2     H  478   1.917   0.403  14.889  0.5344  0.7221 -1.3733
   31MPD2    H1  479   2.163   0.150  15.119 -0.3638 -0.1186 -0.5924
   31MPD2    H2  480   2.296   0.293  14.742 -0.8480  0.3332 -0.9460
   31MPD2    H3  481   2.331   0.165  14.944 -0.2255  0.3274 -0.2742
   31MPD2     N  482   1.943   0.262  15.131  0.1736  0.4888 -0.3071
   31MPD2    H5  483   1.976   0.204  15.207 -0.7444  0.6555  0.2228
   31MPD2    N1  484   2.075   0.422  14.669 -0.0651 -1.5156  0.2552
   31MPD2    H7  485   2.148   0.450  14.605  0.0523 -1.5390  0.3783
   32TCq2    C1  486   1.828   0.325  15.156  0.1800  0.2037  0.1759
   32TCq2    O2  487   1.777   0.406  15.080 -0.2019  0.0992  0.6731
   32TCq2    C2  488   1.772   0.298  15.287  0.7118  0.2526  0.4463
   32TCq2    C3  489   1.644   0.351  15.308  0.3124  0.1300 -0.4351
   32TCq2    C4  490   1.585   0.314  15.426 -0.5165  1.2258 -0.6365
   32TCq2    C5  491   1.641   0.234  15.523  1.1128  0.3460  0.5560
   32TCq2    C6  492   1.763   0.177  15.497  0.0471  0.1734 -0.0583
   32TCq2    C7  493   1.827   0.209  15.379 -0.6964  0.8081 -0.1795
   32TCq2    C8  494   1.856   0.148  15.611  0.2974 -0.0382 -0.3872
   32TCq2    O4  495   1.970   0.137  15.569 -0.8357  0.1066 -0.2337
   32TCq2    C9  496   1.456   0.364  15.447  0.2086  0.3589 -0.5193
   32TCq2    O5  497   1.386   0.313  15.538 -0.0942 -0.2257  0.0772
   32TCq2    O6  498   1.422   0.457  15.377  0.4088  0.2522 -0.0852
   32TCq2    H2  499   1.601   0.429  15.245 -0.0914 -1.1144 -1.7018
   32TCq2    H3  500   1.599   0.230  15.623 -1.3265  2.4222 -0.4026
   32TCq2    H4  501   1.929   0.173  15.367 -1.4484 -2.0293  1.8926
   33MPD2     C  502   2.318   2.009  10.199 -0.3127 -0.0268  0.2595
   33MPD2    C1  503   2.216   1.916  10.219 -0.4479 -0.0610  0.3158
   33MPD2    C2  504   2.083   1.937  10.184  0.0585 -0.8552 -0.3561
   33MPD2    C3  505   2.054   2.051  10.105 -0.3843 -0.0020 -0.0713
   33MPD2    C4  506   2.156   2.139  10.080  0.5734 -0.2290  1.1653
   33MPD2    C5  507   2.283   2.126  10.132  0.4574 -0.5745 -0.1998
   33MPD2     H  508   2.005   1.865  10.204 -0.5830  0.5065  2.1334
   33MPD2    H1  509   2.147   2.224  10.013  0.6065 -1.1522 -0.0198
   33MPD2    H2  510   2.420   1.995  10.232 -0.1206  0.8371  0.0317
   33MPD2    H3  511   2.359   2.195  10.099 -1.3008  0.5211 -1.9907
   33MPD2     N  512   1.933   2.060  10.025  0.3525 -0.9599  0.0797
   33MPD2    H5  513   1.921   2.134   9.957  0.0748 -1.6113 -0.5804
   33MPD2    N1  514   2.254   1.798  10.284 -0.3655  0.1143 -0.5894
   33MPD2    H7  515   2.350   1.768  10.272  0.7767  2.6164  2.5535
   34TCq2    C1  516   1.827   1.973  10.022 -0.3370 -0.3006  0.3847
   34TCq2    O2  517   1.789   1.891  10.104 -0.4012 -0.2656 -0.3073
   34TCq2    C2  518   1.731   2.026   9.924 -0.0009  0.5138 -0.5306
   34TCq2    C3  519   1.601   1.990   9.951  0.5274  0.2545  0.0614
   34TCq2    C4  520   1.504   2.042   9.862 -0.5981  0.4423  0.3532
   34TCq2    C5  521   1.534   2.116   9.751  0.1762 -0.5736 -0.4491
   34TCq2    C6  522   1.667   2.141   9.729  1.4652 -0.0385  0.1266
   34TCq2    C7  523   1.771   2.093   9.816  0.5658 -0.1206  0.1806
   34TCq2    C8  524   1.714   2.225   9.617 -0.4326 -0.0942  0.1533
   34TCq2    O4  525   1.834   2.242   9.624 -0.4212  0.1358  0.6212
   34TCq2    C9  526   1.370   2.034   9.911 -0.2685 -0.0476 -0.3476
   34TCq2    O5  527   1.347   1.936   9.990  0.6406 -0.5388 -0.3294
   34TCq2    O6  528   1.289   2.119   9.861 -0.4465 -0.1014  0.1147
   34TCq2    H2  529   1.564   1.947  10.044 -0.1179  0.5958 -0.0454
   34TCq2    H3  530   1.456   2.165   9.695  1.3661  1.2713 -0.4973
   34TCq2    H4  531   1.874   2.109   9.789  0.2859  0.6227 -0.4611
   35MPD2     C  532   4.222   4.010  11.563 -0.5121  0.2322 -0.2553
   35MPD2    C1  533   4.165   3.923  11.647  0.1882  0.0226  0.4141
   35MPD2    C2  534   4.033   3.876  11.621  0.5856 -0.4659 -0.7990
   35MPD2    C3  535   3.962   3.927  11.518 -0.4601  0.2371 -0.3863
   35MPD2    C4  536   4.018   4.018  11.433 -0.3392  0.1359  0.0327
   35MPD2    C5  537   4.149   4.058  11.454  1.1467 -0.4520 -0.4488
   35MPD2     H  538   3.988   3.805  11.689  1.2785 -0.5309 -0.4092
   35MPD2    H1  539   3.959   4.061  11.353 -0.3315 -1.4046 -0.7851
   35MPD2    H2  540   4.320   4.050  11.583 -0.2113 -0.1170 -1.0080
   35MPD2    H3  541   4.181   4.140  11.391  0.9357 -0.4822 -0.5996
   35MPD2     N  542   3.834   3.875  11.491  0.4218 -0.1539 -0.2710
   35MPD2    H5  543   3.805   3.788  11.534 -0.4524  0.7862  1.0654
   35MPD2    N1  544   4.237   3.879  11.755  0.0366  0.2002  0.2646
   35MPD2    H7  545   4.313   3.937  11.787  1.0121 -0.8914 -0.0894
   36TCq2    C1  546   3.730   3.952  11.432 -0.7029  0.2879 -0.5702
   36TCq2    O2  547   3.729   4.071  11.416 -0.3129  0.2140  0.2133
   36TCq2    C2  548   3.606   3.888  11.409 -0.5160  0.1742  0.3534
   36TCq2    C3  549   3.509   3.964  11.348  0.2009 -0.0369 -0.4027
   36TCq2    C4  550   3.401   3.899  11.306  0.3394 -0.8327  0.8002
   36TCq2    C5  551   3.369   3.771  11.339 -0.5839  0.1885 -0.1148
   36TCq2    C6  552   3.456   3.707  11.426 -0.3897  0.4359  0.3583
   36TCq2    C7  553   3.577   3.764  11.459  0.2351 -0.1173 -0.0562
   36TCq2    C8  554   3.429   3.574  11.456  0.4673 -0.1239  1.0218
   36TCq2    O4  555   3.357   3.511  11.381  0.5432  0.5341  0.3859
   36TCq2    C9  556   3.315   3.969  11.214 -0.4126  0.0633 -0.9724
   36TCq2    O5  557   3.229   3.893  11.156 -0.3203  0.3538  0.5235
   36TCq2    O6  558   3.368   4.073  11.170 -0.3501  0.0855 -0.1633
   36TCq2    H2  559   3.522   4.070  11.329  0.4876 -0.0472 -0.2635
   36TCq2    H3  560   3.283   3.722  11.295 -1.5600 -0.0119  1.9784
   36TCq2    H4  561   3.643   3.707  11.523 -0.7081 -2.4056 -1.1227
   37TMC2    C1  562   0.994   3.317  11.679  0.2869 -0.5097 -0.3826
   37TMC2    C2  563   0.948   3.192  11.650  0.0755  0.2565  0.8516
   37TMC2    C3  564   0.997   3.133  11.541  0.0855  0.6215 -0.1412
   37TMC2    C4  565   1.099   3.372  11.615  0.3301  0.7735  0.2874
   37TMC2    C5  566   1.145   3.312  11.501  0.0900 -0.3317 -0.3832
   37TMC2    C6  567   1.086   3.193  11.456  0.1752 -0.0989 -0.3117
   37TMC2     C  568   0.931   3.386  11.790 -0.0437  0.3916  0.5695
   37TMC2     O  569   0.822   3.343  11.831  0.2520  0.0493  0.0937
   37TMC2     H  570   0.852   3.166  11.692  1.0141  0.4261  3.1167
   37TMC2    H1  571   1.136   3.471  11.640 -2.0529  1.0727  2.5668
   37TMC2    H2  572   1.145   3.124  11.396 -1.0830 -1.4897  0.0457
   37TMC2    C7  573   1.262   3.377  11.438  0.5151 -0.1543 -0.2592
   37TMC2    C8  574   0.935   3.009  11.506  0.2541  0.7872 -0.5519
   37TMC2    O1  575   1.318   3.471  11.491  0.0882 -0.3414  0.4111
   37TMC2    O2  576   0.845   2.951  11.567 -0.6945 -0.5081  0.2212
   37TMC2    O5  577   0.958   2.985  11.377  0.6986  0.3791  0.5855
   37TMC2    H5  578   1.018   3.047  11.332 -1.1193  0.7234 -1.4001
   38MPD2     C  579   0.934   3.695  12.205  0.1076  0.7319 -0.6095
   38MPD2    C1  580   1.064   3.690  12.154 -0.5446  0.8563 -1.2822
   38MPD2    C2  581   1.093   3.606  12.045 -0.0304  0.3197 -0.0745
   38MPD2    C3  582   0.988   3.544  11.977  0.5759 -0.3544  0.3829
   38MPD2    C4  583   0.857   3.558  12.027 -0.3784  0.3045  0.0795
   38MPD2    C5  584   0.835   3.624  12.139 -0.4319  0.5679  0.5509
   38MPD2     H  585   1.199   3.608  12.023  0.2205 -1.7550  1.0139
   38MPD2    H1  586   0.773   3.513  11.976  0.7662 -1.5479 -0.1630
   38MPD2    H2  587   0.905   3.758  12.288  0.5252  1.2450 -0.8559
   38MPD2    H3  588   0.738   3.642  12.183 -0.3359  1.1080  0.5448
   38MPD2     N  589   1.020   3.464  11.863  0.1002  0.2221  0.0663
   38MPD2    H5  590   1.118   3.458  11.837 -0.0899  1.5638 -0.9978
   38MPD2    N1  591   1.165   3.767  12.206 -0.1815 -0.4727 -0.2680
   38MPD2    H7  592   1.258   3.757  12.166  0.4114 -0.1876  1.0356
   39MPD2     C  593   3.585   1.942   2.231 -0.7675  0.0602  0.1006
   39MPD2    C1  594   3.687   1.967   2.150  0.2448  0.0174  0.7860
   39MPD2    C2  595   3.663   1.978   2.013  0.2202  0.5403 -0.2545
   39MPD2    C3  596   3.535   1.962   1.965 -0.0048  0.3065 -0.2309
   39MPD2    C4  597   3.425   1.949   2.057  0.0824 -0.3614 -0.3838
   39MPD2    C5  598   3.454   1.928   2.190 -0.1104 -0.1686 -0.0632
   39MPD2     H  599   3.737   2.012   1.942 -0.1876  0.8358 -0.5419
   39MPD2    H1  600   3.325   1.928   2.021  0.1852  0.3920 -1.1065
   39MPD2    H2  601   3.599   1.912   2.335 -0.8702 -0.4376 -0.0259
   39MPD2    H3  602   3.378   1.901   2.263 -0.2342 -0.4377 -0.2914
   39MPD2     N  603   3.502   1.975   1.827 -0.2010  0.2466  0.2339
   39MPD2    H5  604   3.403   1.975   1.803 -0.5126  0.9432  1.5100
   39MPD2    N1  605   3.816   1.973   2.211 -0.3212 -0.0448 -0.1077
   39MPD2    H7  606   3.831   1.932   2.302  1.0834 -1.6377 -1.0371
   40TCq2    C1  607   3.939   2.006   2.145  0.3299 -0.8071  0.2108
   40TCq2    O2  608   3.951   2.050   2.030  0.0418 -0.0837  0.0712
   40TCq2    C2  609   4.051   2.013   2.231 -0.0483  0.2868  0.0289
   40TCq2    C3  610   4.036   2.013   2.366 -0.0572  0.0047  0.3407
   40TCq2    C4  611   4.137   1.968   2.448  0.0191  0.2498  0.7304
   40TCq2    C5  612   4.259   1.933   2.395  0.0127  0.1892 -0.1330
   40TCq2    C6  613   4.274   1.952   2.258  0.3777  0.2950 -0.1567
   40TCq2    C7  614   4.169   1.985   2.175  0.1924  0.8496  0.2529
   40TCq2    C8  615   4.389   1.872   2.202  0.3589  0.6613 -0.7832
   40TCq2    O4  616   4.464   1.815   2.276 -0.4067 -0.6701 -0.1682
   40TCq2    C9  617   4.111   1.957   2.588 -0.5281  0.5652 -0.1034
   40TCq2    O5  618   4.220   1.938   2.648  0.0088 -0.3959 -0.7634
   40TCq2    O6  619   3.992   1.936   2.624 -0.0989 -0.0438 -0.1347
   40TCq2    H2  620   3.940   2.028   2.412  0.8098 -2.4619  2.9077
   40TCq2    H3  621   4.339   1.893   2.456  0.2406 -0.0057 -0.5647
   40TCq2    H4  622   4.175   1.999   2.068 -0.8002  0.2826  0.1239
   41TMC2    C1  623   3.154   4.097  13.569  0.2753  0.6145  0.6997
   41TMC2    C2  624   3.287   4.110  13.583 -0.0081  0.0151 -0.1056
   41TMC2    C3  625   3.361   4.063  13.472 -0.0449 -0.0883 -0.5700
   41TMC2    C4  626   3.095   4.040  13.462  0.4293  0.2095  0.9444
   41TMC2    C5  627   3.178   4.010  13.349 -0.6729 -0.1981  0.4175
   41TMC2    C6  628   3.312   4.017  13.355 -0.4572 -0.3259 -0.2800
   41TMC2     C  629   3.075   4.084  13.690  0.2806 -0.1492  0.2284
   41TMC2     O  630   2.995   3.992  13.705 -0.0301 -0.2801  0.5697
   41TMC2     H  631   3.332   4.136  13.679 -0.3874  1.8794 -0.4357
   41TMC2    H1  632   2.992   4.004  13.464 -0.2742  2.1963 -0.5246
   41TMC2    H2  633   3.379   3.984  13.277  0.3057  0.7972 -0.1133
   41TMC2    C7  634   3.107   3.945  13.237 -0.2022 -0.5718  0.3458
   41TMC2    C8  635   3.504   4.068  13.464  0.1679  0.5208  0.3901
   41TMC2    O1  636   2.992   3.900  13.251 -0.1951  0.7180  0.8165
   41TMC2    O2  637   3.558   4.101  13.362  0.3571  0.2650  0.3174
   41TMC2    O5  638   3.559   4.064  13.586  0.0416  0.2258  0.0153
   41TMC2    H5  639   3.496   4.039  13.657  0.7750  1.0478  0.9667
   42MPD2     C  640   2.983   4.116  13.972 -0.0862  0.4736 -0.3690
   42MPD2    C1  641   3.051   4.214  13.901  0.6210 -0.3983 -0.0550
   42MPD2    C2  642   3.065   4.339  13.953 -0.0095  0.5483 -0.7953
   42MPD2    C3  643   3.012   4.372  14.074  0.2341  0.5784  0.0107
   42MPD2    C4  644   2.938   4.278  14.139 -0.2424 -0.0915 -0.7338
   42MPD2    C5  645   2.926   4.150  14.093 -0.3053 -0.2503 -0.2787
   42MPD2     H  646   3.123   4.412  13.897  0.1295 -1.2849 -3.0164
   42MPD2    H1  647   2.890   4.296  14.235  1.0101 -1.7319  0.1923
   42MPD2    H2  648   2.963   4.015  13.938 -1.9337  0.7480 -0.0858
   42MPD2    H3  649   2.873   4.075  14.151 -0.6961 -1.3093 -2.0035
   42MPD2     N  650   3.010   4.496  14.134  0.4974 -0.3775  0.2304
   42MPD2    H5  651   2.940   4.506  14.207 -0.5510 -0.8480 -0.7034
   42MPD2    N1  652   3.101   4.188  13.772  0.1353  0.5990 -0.1126
   42MPD2    H7  653   3.140   4.273  13.733 -0.2021  1.2895  1.0597
   43MPD2     C  654   4.187   3.274   0.695 -0.0446 -0.3768  0.8634
   43MPD2    C1  655   4.231   3.206   0.811  0.3271 -0.2859 -0.1371
   43MPD2    C2  656   4.280   3.277   0.916  0.3807  0.3069  0.0665
   43MPD2    C3  657   4.291   3.415   0.913  0.3063  0.3560 -0.5304
   43MPD2    C4  658   4.248   3.479   0.799  0.1785  0.1827  0.5111
   43MPD2    C5  659   4.196   3.408   0.698  0.4633 -0.3573 -0.0720
   43MPD2     H  660   4.287   3.211   1.001 -4.1639 -0.2485  0.0203
   43MPD2    H1  661   4.247   3.587   0.787  1.0227 -0.0414 -1.5819
   43MPD2    H2  662   4.154   3.223   0.606  1.3516 -0.5485  0.4491
   43MPD2    H3  663   4.172   3.460   0.606  1.3937  1.4274  0.6839
   43MPD2     N  664   4.326   3.491   1.028 -0.1261  0.2074 -0.1497
   43MPD2    H5  665   4.319   3.592   1.021 -1.4938  0.0207 -1.3933
   43MPD2    N1  666   4.230   3.067   0.815  0.1523 -0.0055 -0.0186
   43MPD2    H7  667   4.259   3.022   0.901 -1.3455  0.7487  0.8931
   44TCq2    C1  668   4.473   3.892   1.259  0.3999  0.0763 -0.4155
   44TCq2    O2  669   4.497   3.913   1.142 -0.2514 -0.2417 -0.2782
   44TCq2    C2  670   4.421   3.763   1.304  0.3934 -0.3889  0.4409
   44TCq2    C3  671   4.372   3.745   1.429 -0.1565  0.5919  0.5127
   44TCq2    C4  672   4.308   3.632   1.464  0.1058 -0.2079 -0.1108
   44TCq2    C5  673   4.296   3.530   1.375 -0.4026  0.6068 -0.2899
   44TCq2    C6  674   4.340   3.550   1.247 -0.3854  0.4524 -1.0918
   44TCq2    C7  675   4.401   3.668   1.209 -0.0647  0.4521 -0.2764
   44TCq2    C8  676   4.333   3.443   1.155  0.2958 -0.3565  0.5221
   44TCq2    O4  677   4.305   3.329   1.200 -0.2656  0.5227  0.4087
   44TCq2    C9  678   4.256   3.610   1.601 -0.2692  0.6190  0.0002
   44TCq2    O5  679   4.215   3.494   1.617  0.1148 -0.0903 -0.1130
   44TCq2    O6  680   4.272   3.697   1.689 -0.1247  0.6154  0.3253
   44TCq2    H2  681   4.379   3.822   1.505  0.5003  0.2178  0.8194
   44TCq2    H3  682   4.243   3.437   1.395  0.5297  0.8688  3.5195
   44TCq2    H4  683   4.444   3.689   1.112 -1.5202 -3.1246 -1.6820
   45TMC2    C1  684   0.040   4.469   9.254  1.2762 -0.0343 -0.2147
   45TMC2    C2  685   4.701   4.547   9.156 -0.0700  0.1473 -0.8975
   45TMC2    C3  686   4.670   4.677   9.189  0.2754  0.1940  0.0021
   45TMC2    C4  687   0.086   4.530   9.366  0.0407 -0.1539 -0.7514
   45TMC2    C5  688   0.040   4.653   9.393 -0.0668 -0.4297  0.3836
   45TMC2    C6  689   4.692   0.007   9.308 -0.3452 -0.7185  0.4215
   45TMC2     C  690   0.069   4.331   9.217  0.0275 -0.3047  0.9984
   45TMC2     O  691   0.010   4.296   9.113  0.5024  0.4425 -0.4550
   45TMC2     H  692   4.665   4.506   9.063  0.1446 -0.9503 -0.4926
   45TMC2    H1  693   0.134   4.471   9.444  0.3291 -0.0168 -0.8252
   45TMC2    H2  694   4.666   0.111   9.326 -2.2890 -0.8883 -1.4735
   45TMC2    C7  695   0.039   4.703   9.531 -0.1022 -0.9727  0.4027
   45TMC2    C8  696   4.592   0.026   9.095 -0.0685 -0.1958  0.3441
   45TMC2    O1  697   0.124   4.651   9.608 -0.7063 -0.1146  0.3639
   45TMC2    O2  698   4.503   4.691   9.030 -0.0960  0.0838  0.1066
   45TMC2    O5  699   4.681   0.115   9.051 -0.1296 -0.7275 -0.0850
   45TMC2    H5  700   0.038   0.114   9.108 -0.4138 -1.0363  0.3094
   46MPD2     C  701   0.350   4.118   9.282  0.5011  0.6015 -0.1328
   46MPD2    C1  702   0.219   4.150   9.255  0.0759  0.7791  0.2669
   46MPD2    C2  703   0.138   4.047   9.205  0.3054  0.3480 -0.5149
   46MPD2    C3  704   0.193   3.920   9.189  0.4127 -0.0592  0.9689
   46MPD2    C4  705   0.325   3.895   9.219 -0.2512  0.7118  0.7240
   46MPD2    C5  706   0.401   3.991   9.269 -0.0041 -0.9468 -0.0579
   46MPD2     H  707   0.035   4.055   9.174  0.5867 -0.1834 -1.5904
   46MPD2    H1  708   0.366   3.795   9.225  0.1088  0.9290  1.8056
   46MPD2    H2  709   0.415   4.193   9.327  1.7026 -0.5245  0.0010
   46MPD2    H3  710   0.498   3.963   9.309  0.7517  4.0489  1.6692
   46MPD2     N  711   0.106   3.818   9.145  0.3006 -0.0770 -0.1871
   46MPD2    H5  712   0.012   3.849   9.124 -0.3048 -1.9239 -0.2213
   46MPD2    N1  713   0.175   4.286   9.279 -0.2240  0.2663 -0.3154
   46MPD2    H7  714   0.238   4.343   9.334  0.2511 -0.5242 -0.0373
   47TMC2    C1  715   2.510   4.217   8.805 -0.1952 -0.5809  0.3584
   47TMC2    C2  716   2.517   4.097   8.735 -0.4130 -0.4142 -0.1330
   47TMC2    C3  717   2.444   4.087   8.622  0.0330 -0.2710  0.2743
   47TMC2    C4  718   2.431   4.317   8.758  0.2396 -0.1363  0.0130
   47TMC2    C5  719   2.372   4.308   8.640  0.2968 -0.2575 -0.0496
   47TMC2    C6  720   2.375   4.191   8.571 -0.3040 -0.0322  0.6427
   47TMC2     C  721   2.544   4.214   8.948 -0.0562 -0.3520 -0.1920
   47TMC2     O  722   2.519   4.315   9.014  0.6490 -0.0165  0.3958
   47TMC2     H  723   2.590   4.019   8.753  1.7632  1.9037  0.9507
   47TMC2    H1  724   2.420   4.401   8.826 -1.2715 -0.7237  0.4838
   47TMC2    H2  725   2.334   4.193   8.471 -0.3370 -1.3046  0.6310
   47TMC2    C7  726   2.268   4.406   8.617 -0.6731  0.2500  0.4602
   47TMC2    C8  727   2.488   3.982   8.531  0.2742 -0.4940 -0.1304
   47TMC2    O1  728   2.223   4.459   8.718 -0.2855 -0.1003  0.2512
   47TMC2    O2  729   2.462   3.863   8.535  0.6679  0.1896 -0.4443
   47TMC2    O5  730   2.607   4.029   8.517  0.1966  0.9972 -0.1406
   47TMC2    H5  731   2.629   4.124   8.525 -2.9737  1.8346 -1.5090
   48MPD2     C  732   2.590   4.148   9.243 -1.1659 -0.1361 -0.2379
   48MPD2    C1  733   2.631   4.071   9.135 -0.8546  0.2053  0.4129
   48MPD2    C2  734   2.702   3.953   9.159 -0.4867 -0.3426 -0.2988
   48MPD2    C3  735   2.741   3.923   9.287  0.0459  0.0905 -1.2082
   48MPD2    C4  736   2.701   3.999   9.390 -0.3065  0.4251 -0.6643
   48MPD2    C5  737   2.627   4.109   9.371 -0.7343 -0.3141 -0.4757
   48MPD2     H  738   2.758   3.901   9.082  1.6512  1.0656  0.3261
   48MPD2    H1  739   2.734   3.974   9.490  0.4325  1.1979 -0.7123
   48MPD2    H2  740   2.537   4.242   9.237 -0.8800  0.0185 -0.3548
   48MPD2    H3  741   2.612   4.174   9.457  0.2759  0.0323 -0.5543
   48MPD2     N  742   2.816   3.802   9.302 -0.7689 -0.0205  0.4841
   48MPD2    H5  743   2.843   3.746   9.222 -2.3346  0.0462 -0.0875
   48MPD2    N1  744   2.607   4.097   8.999  0.0825  0.1008 -0.1173
   48MPD2    H7  745   2.640   4.033   8.927 -0.5440 -1.1608  0.7019
   49MPD2     C  746   1.246   1.530  10.086 -0.3262 -0.3092  0.5950
   49MPD2    C1  747   1.111   1.520  10.114  0.3873 -0.3007 -0.7214
   49MPD2    C2  748   1.082   1.532  10.250 -0.9076  0.1143 -0.1689
   49MPD2    C3  749   1.179   1.565  10.344 -0.6266  0.0975 -0.8072
   49MPD2    C4  750   1.311   1.575  10.306  0.3872  0.4384 -0.2781
   49MPD2    C5  751   1.345   1.552  10.178  0.7016  0.5809  0.1929
   49MPD2     H  752   0.976   1.533  10.273  0.1010 -0.2380  4.4953
   49MPD2    H1  753   1.396   1.593  10.371 -1.2627  2.0809  1.4208
   49MPD2    H2  754   1.274   1.508   9.983  0.6597 -0.2290  0.8437
   49MPD2    H3  755   1.448   1.554  10.146  0.3137  0.0813 -1.0606
   49MPD2     N  756   1.156   1.592  10.476 -0.6862 -0.4495 -0.2441
   49MPD2    H5  757   1.235   1.618  10.535 -1.7272  2.0409  0.0802
   49MPD2    N1  758   1.008   1.516  10.021  0.3347 -0.5665  0.1446
   49MPD2    H7  759   0.912   1.507  10.054  0.3690  1.5249  0.8733
   50TCq2    C1  760   1.016   1.551   9.891  0.0365  0.2036  0.2456
   50TCq2    O2  761   1.107   1.614   9.840  0.5703  0.1484  0.1335
   50TCq2    C2  762   0.887   1.542   9.818 -0.2099 -0.6870  0.1194
   50TCq2    C3  763   0.865   1.644   9.732  0.7178 -0.2817  0.1368
   50TCq2    C4  764   0.737   1.659   9.692 -0.6748 -0.9161 -0.3781
   50TCq2    C5  765   0.634   1.589   9.746  0.9387  0.2598  0.0925
   50TCq2    C6  766   0.665   1.483   9.827  0.6474 -0.0306  0.0284
   50TCq2    C7  767   0.794   1.457   9.862  0.2161 -0.6597 -0.3647
   50TCq2    C8  768   0.552   1.394   9.856  0.0118  0.1939 -0.1063
   50TCq2    O4  769   0.448   1.410   9.790  0.0600  0.6847 -0.0601
   50TCq2    C9  770   0.709   1.765   9.597  0.2981 -0.5303 -0.5178
   50TCq2    O5  771   0.802   1.795   9.514  0.6314  0.2785 -0.5007
   50TCq2    O6  772   0.588   1.810   9.598 -0.0191  0.5946  0.1748
   50TCq2    H2  773   0.945   1.708   9.699 -0.5370  1.4685  0.5113
   50TCq2    H3  774   0.532   1.621   9.728  0.6409 -0.6831  0.0931
   50TCq2    H4  775   0.829   1.365   9.907 -0.6389 -0.5312  0.5683
   51MPD2     C  776   0.429   1.041   1.051 -0.5927  0.4491 -0.6524
   51MPD2    C1  777   0.553   1.054   0.989 -0.0310  0.9363 -0.2095
   51MPD2    C2  778   0.598   1.177   0.964  0.2766  0.2378 -0.7473
   51MPD2    C3  779   0.526   1.291   0.993  0.4111 -0.2152  0.2812
   51MPD2    C4  780   0.408   1.280   1.064  0.8462  0.1248  0.8919
   51MPD2    C5  781   0.361   1.151   1.090 -0.3455 -0.3883  0.1893
   51MPD2     H  782   0.696   1.190   0.917  1.0041 -2.3213  0.0731
   51MPD2    H1  783   0.344   1.362   1.094 -1.6309 -1.2383 -0.6199
   51MPD2    H2  784   0.393   0.949   1.095 -2.0446  1.6097  0.5687
   51MPD2    H3  785   0.266   1.148   1.143  1.0020 -2.5696  2.5012
   51MPD2     N  786   0.563   1.424   0.958  0.0261  0.1063  1.1455
   51MPD2    H5  787   0.503   1.505   0.971  0.6533  0.9511 -1.3531
   51MPD2    N1  788   0.641   0.947   0.966 -0.1844  0.9864  0.0814
   51MPD2    H7  789   0.728   0.966   0.917 -1.7103  1.0493 -2.6165
   52TCq2    C1  790   0.683   1.453   0.896 -0.1090 -0.3270  0.0866
   52TCq2    O2  791   0.784   1.385   0.898 -0.1941  0.2812 -0.0509
   52TCq2    C2  792   0.694   1.593   0.852 -0.7037 -0.1930 -0.5082
   52TCq2    C3  793   0.578   1.669   0.862  0.3177  0.2069 -0.2331
   52TCq2    C4  794   0.594   1.801   0.853  0.7122  0.4525  0.2941
   52TCq2    C5  795   0.713   1.865   0.828 -0.2997  0.4127 -0.0500
   52TCq2    C6  796   0.827   1.786   0.828 -0.4488 -0.0342 -0.4211
   52TCq2    C7  797   0.819   1.642   0.839  0.5657  0.4232  0.3656
   52TCq2    C8  798   0.959   1.853   0.821  0.4615  0.0073 -0.1492
   52TCq2    O4  799   1.054   1.771   0.827  0.0768 -0.4024  0.6182
   52TCq2    C9  800   0.473   1.878   0.847 -0.5174  0.6546 -0.1449
   52TCq2    O5  801   0.365   1.818   0.868  0.1566 -0.4852  0.2188
   52TCq2    O6  802   0.487   1.995   0.810 -0.1705 -0.3119  0.0967
   52TCq2    H2  803   0.479   1.625   0.851 -0.0850  1.2711 -0.8713
   52TCq2    H3  804   0.711   1.972   0.815  1.3834  0.1202 -2.6718
   52TCq2    H4  805   0.908   1.581   0.827  1.3679  1.5448  0.6587
   53TMC2    C1  806   1.835   3.714  11.167 -0.1996 -0.6478  0.4401
   53TMC2    C2  807   1.952   3.654  11.195  0.4705  0.2757  0.4433
   53TMC2    C3  808   2.001   3.667  11.320  0.7934  0.5991 -0.6961
   53TMC2    C4  809   1.764   3.785  11.262 -0.2709  0.1433 -1.1484
   53TMC2    C5  810   1.821   3.799  11.389  0.3568  0.0108  0.0182
   53TMC2    C6  811   1.935   3.734  11.416  0.1186 -0.2811  1.0612
   53TMC2     C  812   1.751   3.622  11.096  0.5692  0.5717  0.4617
   53TMC2     O  813   1.798   3.571  10.994  0.2167 -0.0375  0.4510
   53TMC2     H  814   2.008   3.597  11.122 -0.4606  0.0467 -0.0854
   53TMC2    H1  815   1.676   3.844  11.237 -1.9827 -0.3378  3.7628
   53TMC2    H2  816   1.973   3.709  11.514  2.5770 -0.4777  0.0739
   53TMC2    C7  817   1.716   3.819  11.485 -0.6363 -0.2479  0.1586
   53TMC2    C8  818   2.146   3.641  11.335 -0.8054 -0.6595 -0.5081
   53TMC2    O1  819   1.598   3.802  11.460 -0.0620 -0.6580 -0.3626
   53TMC2    O2  820   2.215   3.704  11.416  0.4152 -0.6438  0.6356
   53TMC2    O5  821   2.174   3.520  11.286 -0.3496  0.6336 -0.2259
   53TMC2    H5  822   2.093   3.483  11.243 -0.1643  1.0205 -0.9207
   54MPD2     C  823   1.529   3.441  11.008  0.4197  0.3641  0.1748
   54MPD2    C1  824   1.544   3.487  11.134  0.0128  0.1241  0.2108
   54MPD2    C2  825   1.450   3.460  11.236 -0.1233  0.2535 -0.4426
   54MPD2    C3  826   1.341   3.383  11.204 -0.3570  0.5221  0.8660
   54MPD2    C4  827   1.318   3.345  11.072 -0.0841 -0.0894  0.3252
   54MPD2    C5  828   1.413   3.377  10.973 -0.5343 -0.0153  0.4975
   54MPD2     H  829   1.465   3.495  11.337 -0.0466 -0.9104 -0.0542
   54MPD2    H1  830   1.225   3.295  11.049  0.2239  0.4376 -2.0397
   54MPD2    H2  831   1.595   3.459  10.924  0.8989 -0.3571  0.3998
   54MPD2    H3  832   1.385   3.343  10.874 -1.3092 -0.9576  1.0419
   54MPD2     N  833   1.252   3.346  11.304 -0.5961  0.0509 -0.0699
   54MPD2    H5  834   1.174   3.286  11.277  0.1555 -0.4471 -1.1739
   54MPD2    N1  835   1.647   3.578  11.169 -0.1976  0.1191  0.8048
   54MPD2    H7  836   1.630   3.636  11.251 -0.2671 -3.2740  3.1819
   55MPD2     C  837   2.591   2.076  17.244  0.0081 -0.2241  0.1956
   55MPD2    C1  838   2.574   2.065  17.385 -0.3825 -0.7599  1.2208
   55MPD2    C2  839   2.476   2.140  17.438 -0.5176 -0.5509 -0.2948
   55MPD2    C3  840   2.389   2.199  17.355  0.6853  0.4275 -0.4241
   55MPD2    C4  841   2.395   2.196  17.222 -0.2778 -0.6968 -0.5344
   55MPD2    C5  842   2.501   2.140  17.164 -0.4920  0.0995  0.0759
   55MPD2     H  843   2.467   2.157  17.544  3.8407  2.4143 -0.4065
   55MPD2    H1  844   2.325   2.244  17.155  2.1701  3.7874  0.1285
   55MPD2    H2  845   2.682   2.034  17.202  0.6302 -0.6426  1.9852
   55MPD2    H3  846   2.506   2.132  17.056 -3.3297  1.7017 -0.1900
   55MPD2     N  847   2.303   2.290  17.427  0.4694  0.0010 -0.0483
   55MPD2    H5  848   2.310   2.304  17.527  0.8188 -0.8351  0.0512
   55MPD2    N1  849   2.681   2.016  17.464 -0.3565 -0.1087  0.1040
   55MPD2    H7  850   2.762   1.980  17.415  0.2106 -1.1765  1.8374
   56TCq2    C1  851   2.662   1.964  17.593  0.6355  0.2598  0.0358
   56TCq2    O2  852   2.565   1.967  17.668 -0.1627  0.4467  0.1060
   56TCq2    C2  853   2.787   1.916  17.641 -0.6135 -0.1602 -0.2755
   56TCq2    C3  854   2.874   1.848  17.564  0.7284 -0.3885  0.3075
   56TCq2    C4  855   3.002   1.848  17.614 -0.2670 -0.3755  0.2511
   56TCq2    C5  856   3.046   1.919   0.027 -0.0088  0.7991  0.4362
   56TCq2    C6  857   2.954   1.988   0.100  0.0647 -0.6660 -0.0154
   56TCq2    C7  858   2.823   1.994   0.052  0.5466 -0.6318 -0.5193
   56TCq2    C8  859   2.977   2.023   0.234 -0.7100 -0.0582 -0.0045
   56TCq2    O4  860   3.087   1.998   0.278 -0.3000  0.4715  0.2964
   56TCq2    C9  861   3.103   1.767  17.548  0.0457 -0.3012  0.3988
   56TCq2    O5  862   3.228   1.781  17.572  0.7225 -0.1777 -0.0545
   56TCq2    O6  863   3.071   1.724  17.438  0.2980 -0.3146  0.0989
   56TCq2    H2  864   2.848   1.781  17.483 -0.1967  2.4358 -1.7542
   56TCq2    H3  865   3.151   1.911   0.054 -0.5589 -0.1818  2.2787
   56TCq2    H4  866   2.756   2.068   0.095  2.1338  1.5620 -1.8434
   57TMC2    C1  867   1.656   3.178  13.539 -0.1357  0.2104 -0.2402
   57TMC2    C2  868   1.732   3.130  13.641 -0.3724 -0.1142 -0.4407
   57TMC2    C3  869   1.830   3.045  13.616  0.0324  0.5174  0.2214
   57TMC2    C4  870   1.694   3.150  13.412 -0.0718  0.6097 -0.6752
   57TMC2    C5  871   1.808   3.083  13.386  0.1889  0.0960 -0.0898
   57TMC2    C6  872   1.877   3.023  13.487 -0.4876 -0.6799 -0.4539
   57TMC2     C  873   1.517   3.223  13.567 -0.3028 -0.3153 -0.3795
   57TMC2     O  874   1.465   3.301  13.485  0.4362 -0.5955  0.0142
   57TMC2     H  875   1.711   3.149  13.746  0.8199  0.2750 -0.2709
   57TMC2    H1  876   1.631   3.187  13.331 -0.9841  1.4194  0.4095
   57TMC2    H2  877   1.976   2.985  13.467  0.2496  0.5330  0.9331
   57TMC2    C7  878   1.833   3.056  13.245 -0.6807  0.2180 -0.5759
   57TMC2    C8  879   1.925   2.993  13.719 -0.3416 -0.3445  0.2388
   57TMC2    O1  880   1.758   3.113  13.167 -0.5202 -0.1589 -0.3123
   57TMC2    O2  881   1.933   3.046  13.830 -0.4269 -0.4004  0.2884
   57TMC2    O5  882   1.943   2.863  13.686 -0.4029  0.4415  0.2787
   57TMC2    H5  883   1.884   2.835  13.613 -0.5105  1.3502  0.0237
   58MPD2     C  884   1.068   3.183  13.814  0.4039  0.7803 -0.0439
   58MPD2    C1  885   1.114   3.277  13.723  0.0443 -0.0675  0.3791
   58MPD2    C2  886   1.237   3.258  13.659 -0.1911 -0.6698 -0.4320
   58MPD2    C3  887   1.329   3.158  13.702 -0.1050 -0.1278  0.1472
   58MPD2    C4  888   1.279   3.066  13.794  0.0961  0.0623  0.1590
   58MPD2    C5  889   1.156   3.088  13.852  1.3339 -0.6292 -0.0709
   58MPD2     H  890   1.262   3.333  13.586  0.2468  0.1677  0.5729
   58MPD2    H1  891   1.347   2.991  13.834 -1.3330 -1.4325 -0.1822
   58MPD2    H2  892   0.970   3.185  13.861  0.2410  1.2314 -0.3940
   58MPD2    H3  893   1.127   3.019  13.931 -0.6605  1.0416  0.6327
   58MPD2     N  894   1.461   3.148  13.664 -0.6536 -0.2771  0.0871
   58MPD2    H5  895   1.507   3.064  13.697  0.7862 -0.2587 -1.9147
   58MPD2    N1  896   1.027   3.373  13.675  0.5692  0.2069  0.3902
   58MPD2    H7  897   1.053   3.421  13.589  0.8971  0.6079  0.7127
   59MPD2     C  898   3.895   3.068  12.770 -0.4157  0.3553  0.1678
   59MPD2    C1  899   4.030   3.027  12.764 -0.9782 -0.4150 -0.2364
   59MPD2    C2  900   4.123   3.099  12.835  0.3549  0.1003  0.0921
   59MPD2    C3  901   4.081   3.193  12.932 -0.3019 -0.5764 -0.4457
   59MPD2    C4  902   3.951   3.235  12.930  0.6011 -0.4732 -0.3641
   59MPD2    C5  903   3.859   3.174  12.843 -0.3816  0.2897 -0.9649
   59MPD2     H  904   4.226   3.071  12.817  0.2540  0.0205 -0.3798
   59MPD2    H1  905   3.919   3.319  12.990 -1.3921 -0.1027 -1.9462
   59MPD2    H2  906   3.813   3.018  12.719 -1.0146 -0.0754  1.5512
   59MPD2    H3  907   3.754   3.197  12.859  0.2012  1.0439  1.7997
   59MPD2     N  908   4.165   3.267  13.017  1.3431 -0.2791 -0.3700
   59MPD2    H5  909   4.123   3.331  13.083 -0.1340  1.2665 -2.7702
   59MPD2    N1  910   4.082   2.914  12.691 -0.4304 -0.3896  0.3415
   59MPD2    H7  911   4.182   2.899  12.691 -0.1300  1.5475  2.4172
   60TCq2    C1  912   3.999   2.824  12.625  0.3827  0.3081 -0.1748
   60TCq2    O2  913   3.883   2.798  12.648 -0.4015  0.2793  0.2939
   60TCq2    C2  914   4.068   2.736  12.532  0.7240  0.6721  0.4017
   60TCq2    C3  915   4.001   2.627  12.501 -0.1268 -0.4628  0.1591
   60TCq2    C4  916   4.022   2.557  12.389  0.1546  0.1810 -0.2031
   60TCq2    C5  917   4.127   2.601  12.316 -0.0956 -0.0282  0.3532
   60TCq2    C6  918   4.196   2.718  12.337 -0.0668 -0.0885 -0.4263
   60TCq2    C7  919   4.168   2.787  12.452 -0.0087  0.7984  0.5843
   60TCq2    C8  920   4.270   2.777  12.230 -0.5248 -0.3208  0.1209
   60TCq2    O4  921   4.319   2.706  12.141  0.1763 -0.3695  0.5877
   60TCq2    C9  922   3.924   2.451  12.351  0.2749  0.3080 -0.5518
   60TCq2    O5  923   3.944   2.401  12.241  0.0332 -0.1289 -0.4736
   60TCq2    O6  924   3.868   2.393  12.450 -0.6977  0.3576 -0.1869
   60TCq2    H2  925   3.922   2.584  12.562  0.6725 -1.3062  0.6012
   60TCq2    H3  926   4.151   2.548  12.224 -0.5360 -1.3246  0.9893
   60TCq2    H4  927   4.218   2.881  12.474  1.1732  0.3789 -0.3076
   61MPD2     C  928   4.075   4.519  14.960 -0.3171  0.5978  0.0216
   61MPD2    C1  929   3.969   4.551  14.875  0.4561  0.2436 -0.0556
   61MPD2    C2  930   3.987   4.633  14.765 -0.2043  0.3272  0.6316
   61MPD2    C3  931   4.114   4.685  14.739  0.0799 -0.1533  0.2223
   61MPD2    C4  932   4.219   4.649  14.815 -0.2035 -0.4295  0.4157
   61MPD2    C5  933   4.201   4.569  14.929  0.0695 -0.3649  0.3630
   61MPD2     H  934   3.906   4.651  14.695 -1.2575 -1.4652  1.3815
   61MPD2    H1  935   4.318   4.676  14.782 -0.5850  0.6599  0.1712
   61MPD2    H2  936   4.069   4.453  15.046 -0.5151  1.7557  0.8910
   61MPD2    H3  937   4.288   4.545  14.990  0.5728  1.0172  0.1892
   61MPD2     N  938   4.148   0.036  14.623  0.4793 -0.3643 -0.0126
   61MPD2    H5  939   4.245   0.063  14.612  0.6787 -0.6750  1.0312
   61MPD2    N1  940   3.843   4.486  14.884  0.7009 -0.3888 -0.1041
   61MPD2    H7  941   3.772   4.517  14.818  1.5766 -0.4057 -1.0584
   62TCq2    C1  942   3.817   4.371  14.951  0.3801 -0.5816 -0.7083
   62TCq2    O2  943   3.898   4.293  14.992  0.5118 -0.1993  0.1711
   62TCq2    C2  944   3.674   4.340  14.949 -0.1415 -0.0701  0.4955
   62TCq2    C3  945   3.625   4.211  14.948 -0.6462 -0.6668  0.3510
   62TCq2    C4  946   3.490   4.198  14.963  1.1216  0.3568 -0.4364
   62TCq2    C5  947   3.405   4.302  14.984 -0.1305  0.1931 -0.1465
   62TCq2    C6  948   3.456   4.429  14.989  1.0291 -0.7989  0.1518
   62TCq2    C7  949   3.592   4.451  14.978  0.4735 -0.5444 -0.4274
   62TCq2    C8  950   3.373   4.551  14.981 -0.4237  0.1415  0.4902
   62TCq2    O4  951   3.424   4.661  15.007 -0.2643 -0.1616  0.2148
   62TCq2    C9  952   3.433   4.065  14.945 -0.4812 -0.2077 -0.2779
   62TCq2    O5  953   3.310   4.068  14.951 -0.2482 -0.5400 -0.1941
   62TCq2    O6  954   3.509   3.968  14.924  0.1507 -0.0123  0.3567
   62TCq2    H2  955   3.688   4.125  14.933  2.5258  1.5298  1.1559
   62TCq2    H3  956   3.300   4.279  14.998 -0.2843 -0.1409 -1.8000
   62TCq2    H4  957   3.638   4.542  15.014 -0.2021 -1.2914  2.3194
   63TMC2    C1  958   2.397   3.843  10.321 -0.9537  0.1528  0.7370
   63TMC2    C2  959   2.390   3.888  10.447 -0.1562  0.0827  1.0191
   63TMC2    C3  960   2.357   4.023  10.456 -0.4874  0.3007  0.7846
   63TMC2    C4  961   2.377   3.920  10.206 -0.1462  0.0021 -0.0162
   63TMC2    C5  962   2.351   4.055  10.218  0.1535  0.8086  0.0653
   63TMC2    C6  963   2.339   4.109  10.346 -0.5923 -0.5838  0.3499
   63TMC2     C  964   2.470   3.717  10.306  0.6405  0.3966  0.2313
   63TMC2     O  965   2.519   3.679  10.411 -0.1628 -0.3367  0.2918
   63TMC2     H  966   2.412   3.820  10.529  0.8895  0.3024  0.9198
   63TMC2    H1  967   2.414   3.884  10.111  1.4012  0.3010  0.4778
   63TMC2    H2  968   2.304   4.210  10.365  0.3780  0.0953 -1.4635
   63TMC2    C7  969   2.377   4.150  10.111  0.6432  0.0954  0.3059
   63TMC2    C8  970   2.412   4.097  10.571 -0.1964  0.0062 -0.2508
   63TMC2    O1  971   2.446   4.105  10.021 -0.2667 -0.7175 -0.2270
   63TMC2    O2  972   2.459   4.213  10.556  0.1288  0.2066  0.0108
   63TMC2    O5  973   2.422   4.029  10.685  0.3204  0.1858 -0.0442
   63TMC2    H5  974   2.351   3.961  10.692 -1.0706  1.5828 -0.6585
   64MPD2     C  975   2.480   3.229  10.136  0.3594  0.4149 -0.4655
   64MPD2    C1  976   2.490   3.279  10.265 -0.0130 -0.6155 -0.2019
   64MPD2    C2  977   2.487   3.420  10.280  0.3857  0.5622  0.2829
   64MPD2    C3  978   2.470   3.508  10.176  0.1262 -0.3046  1.0826
   64MPD2    C4  979   2.466   3.454  10.048 -1.3573  0.3675  0.0438
   64MPD2    C5  980   2.476   3.317  10.034 -0.6709 -0.0541  0.1844
   64MPD2     H  981   2.501   3.455  10.382 -0.1885 -2.7173  1.4937
   64MPD2    H1  982   2.459   3.525   9.967 -0.6103  0.4026  0.0030
   64MPD2    H2  983   2.477   3.121  10.122 -0.3351  0.0147  2.5990
   64MPD2    H3  984   2.474   3.284   9.931 -2.3774 -0.2001  0.2683
   64MPD2     N  985   2.445   3.643  10.191  0.2677  0.5085  0.3493
   64MPD2    H5  986   2.395   3.698  10.122  1.2377  1.8253  0.6747
   64MPD2    N1  987   2.518   3.199  10.374  0.3309 -0.2792  0.1555
   64MPD2    H7  988   2.535   3.252  10.459  0.2137 -1.2946  0.8057
   65MPD2     C  989   3.769   4.202  15.666  0.0056 -0.3021  0.6977
   65MPD2    C1  990   3.877   4.157  15.593 -0.4510 -0.4089 -0.0867
   65MPD2    C2  991   3.881   4.024  15.557 -0.1765  0.3931 -0.0768
   65MPD2    C3  992   3.788   3.932  15.606 -0.6800  0.1161  0.9136
   65MPD2    C4  993   3.686   3.982  15.685 -0.3391 -0.5592  0.1671
   65MPD2    C5  994   3.675   4.115  15.709 -0.8051  0.9219  0.2504
   65MPD2     H  995   3.974   4.001  15.506  0.8906  2.6423  0.8541
   65MPD2    H1  996   3.613   3.913  15.726 -1.5957  0.3186 -0.6078
   65MPD2    H2  997   3.751   4.306  15.689  1.0013 -0.0658  0.4065
   65MPD2    H3  998   3.587   4.151  15.762 -1.5973 -0.4468 -0.1385
   65MPD2     N  999   3.794   3.791  15.583 -0.3314  0.8455 -0.7982
   65MPD2    H5 1000   3.723   3.737  15.631  1.7655 -1.0203  0.1930
   65MPD2    N1 1001   3.984   4.237  15.550 -1.0511 -0.1173 -0.5131
   65MPD2    H7 1002   4.060   4.196  15.496  0.4249 -0.3051  1.7219
   66TCq2    C1 1003   3.994   4.372  15.571 -0.2789 -0.0769 -0.5056
   66TCq2    O2 1004   3.928   4.455  15.633 -0.5736  0.2239  0.4906
   66TCq2    C2 1005   4.112   4.424  15.506  0.5606  0.7126  0.2925
   66TCq2    C3 1006   4.173   4.354  15.405 -0.2104 -0.5800  0.4882
   66TCq2    C4 1007   4.240   4.421  15.304 -0.4977 -0.1593  0.8870
   66TCq2    C5 1008   4.233   4.550  15.302  0.6035  1.1398  0.1809
   66TCq2    C6 1009   4.187   4.631  15.406 -0.4078  0.0056  0.1471
   66TCq2    C7 1010   4.125   4.562  15.509 -0.2103  0.1254 -0.7058
   66TCq2    C8 1011   4.238   0.051  15.415 -0.5030  0.2486  1.0288
   66TCq2    O4 1012   4.278   0.104  15.311  0.3138  0.5009  0.1992
   66TCq2    C9 1013   4.306   4.344  15.198  0.8570 -0.4812 -0.7805
   66TCq2    O5 1014   4.407   4.388  15.142 -0.6854  0.5534  0.8263
   66TCq2    O6 1015   4.257   4.232  15.169  0.0679  0.8139  0.0421
   66TCq2    H2 1016   4.171   4.246  15.394  2.4823 -0.5507 -0.3974
   66TCq2    H3 1017   4.279   4.598  15.217  0.6364 -1.7524 -1.4274
   66TCq2    H4 1018   4.085   4.610  15.597 -0.2980  0.0271 -0.6936
   67MPD2     C 1019   3.947   3.354  13.881 -0.2864 -0.6679  0.1301
   67MPD2    C1 1020   3.888   3.453  13.955 -0.4099  0.7136  0.1989
   67MPD2    C2 1021   3.778   3.525  13.894 -0.0335  1.4038 -0.2517
   67MPD2    C3 1022   3.715   3.475  13.778  0.6295  0.6987 -0.0950
   67MPD2    C4 1023   3.773   3.370  13.710  0.1034 -0.2072  0.5542
   67MPD2    C5 1024   3.896   3.321  13.759 -0.6278 -0.8231 -0.3834
   67MPD2     H 1025   3.735   3.608  13.950 -2.0003  0.0269  0.2701
   67MPD2    H1 1026   3.735   3.328  13.618  0.5111  0.7554 -0.0505
   67MPD2    H2 1027   4.046   3.314  13.901  0.8690  2.3972  0.6456
   67MPD2    H3 1028   3.952   3.248  13.701  2.0369 -0.2097  1.4518
   67MPD2     N 1029   3.595   3.525  13.727 -0.5733  0.4996 -0.1036
   67MPD2    H5 1030   3.561   3.473  13.646 -1.6253  0.3292  0.4515
   67MPD2    N1 1031   3.929   3.493  14.086 -0.2628  0.2642 -0.3818
   67MPD2    H7 1032   3.895   3.587  14.106  0.3528  0.6867 -1.3046
   68TCq2    C1 1033   4.038   3.448  14.164 -0.8647 -0.5831 -0.3677
   68TCq2    O2 1034   4.130   3.376  14.128 -0.2993  0.3479 -0.6602
   68TCq2    C2 1035   4.052   3.529  14.282  0.0322  0.3585 -0.1130
   68TCq2    C3 1036   3.964   3.626  14.314  0.3900 -0.4467  0.2454
   68TCq2    C4 1037   3.992   3.700  14.422  0.4655  0.7514  0.6842
   68TCq2    C5 1038   4.074   3.658  14.525 -0.2822 -0.4699 -0.0983
   68TCq2    C6 1039   4.158   3.553  14.493 -0.1266  0.4814  0.4559
   68TCq2    C7 1040   4.157   3.494  14.365  0.4733 -0.5715 -0.2114
   68TCq2    C8 1041   4.271   3.517  14.586 -0.1938  0.3046 -0.4680
   68TCq2    O4 1042   4.316   3.406  14.567 -0.4970 -0.3605  0.3792
   68TCq2    C9 1043   3.915   3.817  14.443 -0.2710 -0.9789 -0.1354
   68TCq2    O5 1044   3.879   3.885  14.347  0.1479 -0.0616 -0.1211
   68TCq2    O6 1045   3.896   3.846  14.563  0.5663  0.5644  0.3254
   68TCq2    H2 1046   3.870   3.657  14.270  0.2764 -1.3455 -0.1316
   68TCq2    H3 1047   4.069   3.708  14.622  0.6443  1.3651 -0.9945
   68TCq2    H4 1048   4.232   3.418  14.350  1.5596  0.7501 -1.4294
   69TMC2    C1 1049   1.600   4.536  11.891  0.1078  0.2931  0.3358
   69TMC2    C2 1050   1.520   4.625  11.820  0.9831 -0.1413 -0.5673
   69TMC2    C3 1051   1.557   4.650  11.685  0.4258 -0.0875 -0.1876
   69TMC2    C4 1052   1.677   4.437  11.824  0.0476  0.0607  0.6415
   69TMC2    C5 1053   1.697   4.463  11.690  0.3893  0.2693  0.7514
   69TMC2    C6 1054   1.640   4.563  11.612  0.8698  0.1788  0.2648
   69TMC2     C 1055   1.597   4.525  12.035  0.0017 -0.3673  0.0341
   69TMC2     O 1056   1.635   4.417  12.086 -0.2563  0.3611 -0.2783
   69TMC2     H 1057   1.444   4.685  11.868  0.2960 -1.3509 -0.1533
   69TMC2    H1 1058   1.735   4.359  11.873 -0.1030  0.8849  2.1353
   69TMC2    H2 1059   1.664   4.572  11.507  0.2603  0.7360  0.1770
   69TMC2    C7 1060   1.763   4.360  11.618  0.4429  0.0077  0.1378
   69TMC2    C8 1061   1.484   0.023  11.604  0.4057 -0.0189  0.2342
   69TMC2    O1 1062   1.863   4.308  11.668 -0.2555 -0.1524 -0.2786
   69TMC2    O2 1063   1.451   4.706  11.496  0.0256  0.1749 -0.5451
   69TMC2    O5 1064   1.415   0.099  11.690 -0.0158  0.3735  0.1392
   69TMC2    H5 1065   1.462   0.121  11.773 -2.0924  2.0472  0.8926
   70MPD2     C 1066   1.435   0.011  12.282 -0.1066 -0.1668  1.0738
   70MPD2    C1 1067   1.520   4.639  12.237 -0.0577  0.0469 -0.2002
   70MPD2    C2 1068   1.589   4.564  12.333 -0.1436  0.6196  0.0661
   70MPD2    C3 1069   1.563   4.566  12.467 -0.2414  0.2400 -0.3744
   70MPD2    C4 1070   1.458   4.648  12.497  1.1190 -0.5004  0.0808
   70MPD2    C5 1071   1.392   0.001  12.407  0.4317  0.6386  0.4438
   70MPD2     H 1072   1.654   4.487  12.295 -0.5253  0.9673 -1.3189
   70MPD2    H1 1073   1.407   4.637  12.592 -0.7409  0.1697 -0.8311
   70MPD2    H2 1074   1.381   0.071  12.209 -0.8642 -0.6874  1.2177
   70MPD2    H3 1075   1.302   0.055  12.436  0.7593  0.8027  1.1687
   70MPD2     N 1076   1.621   4.478  12.562  0.3393  0.4908 -0.3036
   70MPD2    H5 1077   1.583   4.484  12.656  2.0412 -0.3989  0.4460
   70MPD2    N1 1078   1.526   4.629  12.095 -0.0521  0.3993 -0.8268
   70MPD2    H7 1079   1.480   4.699  12.037  0.3625  1.4665  0.1372
   71TMC2    C1 1080   4.368   1.202   1.465 -0.0501  0.1799  0.1148
   71TMC2    C2 1081   4.500   1.177   1.448 -0.8901  0.2254 -0.2376
   71TMC2    C3 1082   4.567   1.077   1.525 -0.4239  0.3213 -0.1677
   71TMC2    C4 1083   4.298   1.120   1.547 -0.0349  0.0949 -0.0578
   71TMC2    C5 1084   4.367   1.017   1.605  0.0687 -0.0423  0.3402
   71TMC2    C6 1085   4.498   0.988   1.593  0.1329  0.8479 -0.2903
   71TMC2     C 1086   4.315   1.333   1.418  0.6248 -0.0502 -0.2624
   71TMC2     O 1087   4.397   1.407   1.366 -0.6202  0.7763 -0.0216
   71TMC2     H 1088   4.566   1.249   1.401 -1.7928  1.4622  0.3677
   71TMC2    H1 1089   4.190   1.131   1.552 -0.2351  0.2624 -4.7798
   71TMC2    H2 1090   4.546   0.907   1.646 -1.0079  3.0758  4.1310
   71TMC2    C7 1091   4.306   0.905   1.666 -0.0695  0.9083 -0.5890
   71TMC2    C8 1092   4.707   1.057   1.496 -0.1001  0.1742 -0.1112
   71TMC2    O1 1093   4.376   0.830   1.734  0.4034  0.2153  0.0474
   71TMC2    O2 1094   0.055   1.145   1.447  0.1711  0.0299  0.1855
   71TMC2    O5 1095   0.030   0.944   1.552 -0.7309 -0.0071 -0.4684
   71TMC2    H5 1096   4.696   0.864   1.545 -0.5214 -0.4145  2.5276
   72MPD2     C 1097   4.008   1.720   1.493 -0.7891 -0.2190 -0.9216
   72MPD2    C1 1098   4.086   1.697   1.380  0.6500 -0.3229  0.1561
   72MPD2    C2 1099   4.149   1.574   1.372  0.4789  0.3394 -0.0499
   72MPD2    C3 1100   4.132   1.480   1.475 -0.2213 -0.0799 -0.2635
   72MPD2    C4 1101   4.040   1.492   1.570  0.1505  1.4367  0.6219
   72MPD2    C5 1102   3.982   1.618   1.580  0.3737 -0.1511 -0.5717
   72MPD2     H 1103   4.220   1.556   1.292  1.9734  1.0291  1.1339
   72MPD2    H1 1104   4.032   1.430   1.659  1.7362 -1.0105 -0.9648
   72MPD2    H2 1105   3.966   1.816   1.519 -2.1630 -1.3919  1.2537
   72MPD2    H3 1106   3.913   1.625   1.664  0.1778 -0.3019 -0.7205
   72MPD2     N 1107   4.195   1.356   1.474  0.6157 -0.2849 -0.3072
   72MPD2    H5 1108   4.160   1.296   1.547  1.0345 -0.5096 -0.2902
   72MPD2    N1 1109   4.097   1.784   1.272  0.7943 -0.1127  0.1497
   72MPD2    H7 1110   4.131   1.746   1.184 -1.5677  0.6882 -1.1209
   73TMC2    C1 1111   3.461   1.944  13.776  0.0121 -0.4810 -0.2375
   73TMC2    C2 1112   3.340   2.013  13.794  0.7967 -0.3161  0.0529
   73TMC2    C3 1113   3.348   2.146  13.832 -0.1467 -0.3962 -0.3812
   73TMC2    C4 1114   3.583   2.008  13.778  0.2907  0.2192  0.2429
   73TMC2    C5 1115   3.587   2.140  13.815 -0.3580  1.1634 -0.0942
   73TMC2    C6 1116   3.470   2.211  13.840 -0.1139 -0.3033  0.8836
   73TMC2     C 1117   3.462   1.851  13.664  0.3199 -0.2391 -0.1743
   73TMC2     O 1118   3.568   1.851  13.605  0.1301  0.3099  0.1226
   73TMC2     H 1119   3.248   1.955  13.799  0.0198  0.7572 -1.6673
   73TMC2    H1 1120   3.675   1.953  13.762 -0.7022 -1.6041  0.7434
   73TMC2    H2 1121   3.478   2.313  13.876  0.4513  0.4801 -1.4946
   73TMC2    C7 1122   3.664   2.216  13.722 -0.2135 -1.1374  1.5239
   73TMC2    C8 1123   3.231   2.193  13.902 -0.9910 -0.4393 -0.6655
   73TMC2    O1 1124   3.688   2.337  13.737  0.6351  0.0317  0.3274
   73TMC2    O2 1125   3.219   2.313  13.912 -0.1711 -0.0739 -0.4090
   73TMC2    O5 1126   3.188   2.104  13.997 -0.2127 -0.1452  0.1006
   73TMC2    H5 1127   3.258   2.044  14.032 -1.0512 -0.2155  1.6636
   74MPD2     C 1128   3.242   1.546  13.324 -0.0526  0.4635 -0.4528
   74MPD2    C1 1129   3.341   1.645  13.312  0.2611  0.8731  0.1161
   74MPD2    C2 1130   3.384   1.708  13.425  0.4299  0.2632  0.1170
   74MPD2    C3 1131   3.315   1.699  13.539 -0.2819 -0.1253  0.2208
   74MPD2    C4 1132   3.210   1.608  13.543  0.4352  0.8819 -0.1493
   74MPD2    C5 1133   3.180   1.522  13.438  0.1599  0.1620 -0.2427
   74MPD2     H 1134   3.469   1.775  13.422  0.8958 -0.3346  0.1181
   74MPD2    H1 1135   3.146   1.605  13.630 -0.5750  1.1594 -0.8921
   74MPD2    H2 1136   3.242   1.468  13.248  0.6742 -0.4052  0.4369
   74MPD2    H3 1137   3.097   1.452  13.443  0.5394 -0.2973 -0.4808
   74MPD2     N 1138   3.346   1.769  13.652 -0.3795  0.6226  0.1018
   74MPD2    H5 1139   3.272   1.780  13.720  0.3176  1.7643  0.6814
   74MPD2    N1 1140   3.404   1.663  13.187  0.6106 -1.1818  0.5761
   74MPD2    H7 1141   3.371   1.606  13.109 -1.9446 -3.0318  3.0326
   75TCq2    C1 1142   3.528   3.630  13.776 -0.1634  0.4661 -0.3779
   75TCq2    O2 1143   3.552   3.711  13.864 -0.0654  0.2569  0.7710
   75TCq2    C2 1144   3.401   3.655  13.698  0.1226  0.4850 -0.1775
   75TCq2    C3 1145   3.289   3.692  13.770  0.3713 -0.5313 -0.1351
   75TCq2    C4 1146   3.177   3.697  13.697  0.1493 -0.2103 -0.6835
   75TCq2    C5 1147   3.164   3.682  13.557 -0.5498  0.9089  0.0309
   75TCq2    C6 1148   3.283   3.652  13.493 -0.9147 -0.5602 -0.6137
   75TCq2    C7 1149   3.398   3.627  13.564  0.7358  0.0760 -0.3216
   75TCq2    C8 1150   3.283   3.654  13.347 -0.2102  0.0116 -0.0251
   75TCq2    O4 1151   3.180   3.627  13.285  0.3500 -0.3587 -0.1477
   75TCq2    C9 1152   3.047   3.702  13.765  0.1811 -0.8535  0.8669
   75TCq2    O5 1153   2.954   3.636  13.713  0.9329  0.1709  0.1106
   75TCq2    O6 1154   3.042   3.720  13.886 -0.0280  0.7032 -0.2938
   75TCq2    H2 1155   3.297   3.687  13.878 -2.1905  3.4024  0.2339
   75TCq2    H3 1156   3.064   3.679  13.515  0.4253 -0.3534 -2.1557
   75TCq2    H4 1157   3.490   3.602  13.513 -0.0471  2.4738 -2.9329
   76MPD2     C 1158   2.724   3.849  11.799 -0.4711 -0.2623  1.2029
   76MPD2    C1 1159   2.692   3.761  11.699  0.1755 -0.2221  0.1578
   76MPD2    C2 1160   2.755   3.637  11.705 -0.1896  0.3317  0.6663
   76MPD2    C3 1161   2.856   3.604  11.796 -0.0750  0.2469  0.9546
   76MPD2    C4 1162   2.884   3.691  11.895 -0.6640  0.4942 -0.5385
   76MPD2    C5 1163   2.810   3.808  11.898 -0.5132 -0.3105  0.8155
   76MPD2     H 1164   2.728   3.576  11.619  1.2768 -0.6707  0.9295
   76MPD2    H1 1165   2.958   3.666  11.970 -1.3185  0.7516  0.1961
   76MPD2    H2 1166   2.677   3.946  11.804 -1.6306 -0.6810 -2.0451
   76MPD2    H3 1167   2.843   3.879  11.973 -0.4502  0.7904 -0.2477
   76MPD2     N 1168   2.927   3.488  11.786 -0.2808  0.0361 -0.4127
   76MPD2    H5 1169   3.005   3.487  11.851 -1.1434  0.0201  0.6222
   76MPD2    N1 1170   2.604   3.785  11.591 -0.1292 -0.9744 -0.4761
   76MPD2    H7 1171   2.584   3.703  11.534 -2.0266 -2.0756  1.7797
   77TCq2    C1 1172   2.900   3.388  11.696  0.2206  0.3922  0.5600
   77TCq2    O2 1173   2.824   3.376  11.600 -0.3852 -0.1815 -0.5730
   77TCq2    C2 1174   2.975   3.272  11.733  0.2928 -0.0227  0.1056
   77TCq2    C3 1175   2.923   3.153  11.701  0.3098  0.1980  0.4181
   77TCq2    C4 1176   2.994   3.037  11.723 -0.2708  0.4488 -0.5129
   77TCq2    C5 1177   3.113   3.042  11.792  0.2968  0.0437 -0.2407
   77TCq2    C6 1178   3.149   3.166  11.845 -0.1995  0.2897 -0.1874
   77TCq2    C7 1179   3.094   3.282  11.806 -0.0531  0.4332 -0.4216
   77TCq2    C8 1180   3.273   3.163  11.929 -0.1198  0.0449  0.4159
   77TCq2    O4 1181   3.312   3.056  11.972  0.3978  0.1125 -0.1091
   77TCq2    C9 1182   2.943   2.909  11.669  0.0634  0.1320 -0.1682
   77TCq2    O5 1183   3.000   2.799  11.693  0.1610 -0.1454  0.3134
   77TCq2    O6 1184   2.829   2.922  11.626 -0.5247  0.0130 -0.3637
   77TCq2    H2 1185   2.835   3.151  11.637  1.0921 -1.9077 -0.5937
   77TCq2    H3 1186   3.164   2.952  11.825 -1.0181 -0.1693  1.1972
   77TCq2    H4 1187   3.138   3.378  11.830  0.3145  0.7432 -2.3370
   78MPD1     C 1188   3.377   4.056   1.454  0.0862  0.1251 -0.3091
   78MPD1    C1 1189   3.513   4.060   1.428  0.0476  0.0335  0.6561
   78MPD1    C2 1190   3.587   4.135   1.517  0.8106 -0.0792 -0.6869
   78MPD1    C3 1191   3.528   4.214   1.614  0.0766  0.4345 -0.4225
   78MPD1    C4 1192   3.393   4.212   1.627  0.2852  0.5559 -0.5969
   78MPD1    C5 1193   3.319   4.130   1.547 -0.4190 -0.4670  0.3522
   78MPD1     H 1194   3.696   4.134   1.513  0.8365 -1.5981  0.6385
   78MPD1    H1 1195   3.346   4.283   1.694 -1.5361  0.1672 -1.4784
   78MPD1    H2 1196   3.309   4.013   1.382 -0.5828 -1.8389  1.5176
   78MPD1    H3 1197   3.212   4.134   1.562 -0.4174  1.9892 -0.1780
   78MPD1     N 1198   3.602   4.292   1.709  0.7935  0.3773  0.0261
   78MPD1    H5 1199   3.545   4.323   1.787  2.4939  3.2168  0.1231
   78MPD1    N1 1200   3.569   3.972   1.338 -0.5169  0.0690  0.4827
   78MPD1    H6 1201   3.519   3.975   1.249  1.1403  0.2429 -0.4304
   78MPD1    H7 1202   3.658   4.015   1.316 -0.3996  1.2719  3.2250
   79TCq2    C1 1203   3.738   4.327   1.704  0.2371 -0.6155  0.8922
   79TCq2    O2 1204   3.823   4.281   1.628  0.2990  0.2290  0.2328
   79TCq2    C2 1205   3.770   4.423   1.811  0.1323  0.9762  0.1243
   79TCq2    C3 1206   3.706   4.418   1.932 -0.4632 -0.4754  0.0292
   79TCq2    C4 1207   3.747   4.488   2.042  0.0326  0.5326 -0.8523
   79TCq2    C5 1208   3.859   4.565   2.032  0.5513  0.7697 -0.8291
   79TCq2    C6 1209   3.929   4.564   1.911 -0.7015  0.3812 -0.1843
   79TCq2    C7 1210   3.892   4.490   1.802  0.4239 -0.2345  0.4840
   79TCq2    C8 1211   4.027   4.672   1.890  0.3908  0.1126  0.3404
   79TCq2    O4 1212   4.106   4.648   1.799 -0.3218 -0.2817  0.1560
   79TCq2    C9 1213   3.676   4.489   2.165 -0.1792  0.1314 -0.7587
   79TCq2    O5 1214   3.694   4.577   2.247  0.3570  0.5289 -0.3561
   79TCq2    O6 1215   3.601   4.387   2.177  0.3388 -0.6786  0.7541
   79TCq2    H2 1216   3.611   4.366   1.941  0.2000 -1.4338  1.4699
   79TCq2    H3 1217   3.888   4.624   2.118  1.1400  0.5182 -0.8598
   79TCq2    H4 1218   3.953   4.492   1.713  0.0280  2.0119  0.2827
   80MPD2     C 1219   1.955   3.584  11.878 -0.8965  0.3477  0.4425
   80MPD2    C1 1220   1.827   3.584  11.838 -0.5630  0.3276  0.0298
   80MPD2    C2 1221   1.735   3.646  11.922 -0.0695 -0.1888 -0.6230
   80MPD2    C3 1222   1.773   3.715  12.037  0.0574 -0.9489 -0.1302
   80MPD2    C4 1223   1.903   3.717  12.071 -0.0349  0.0778 -0.1442
   80MPD2    C5 1224   1.989   3.659  11.985 -0.0512  0.4724  1.0548
   80MPD2     H 1225   1.630   3.633  11.897  0.0945 -3.4477  0.3612
   80MPD2    H1 1226   1.935   3.771  12.159 -1.3859  0.3515  0.1808
   80MPD2    H2 1227   2.036   3.535  11.826 -1.2699  0.5302 -0.3054
   80MPD2    H3 1228   2.092   3.655  12.020  0.0552 -1.2149  0.5734
   80MPD2     N 1229   1.684   3.771  12.137  0.2816 -1.4624 -0.1262
   80MPD2    H5 1230   1.724   3.809  12.222 -1.3655 -0.2634  0.1181
   80MPD2    N1 1231   1.782   3.502  11.730 -0.2991 -0.0277  1.0146
   80MPD2    H7 1232   1.682   3.498  11.711 -0.2992  0.6393  0.8595
   81TCq2    C1 1233   1.866   3.452  11.632 -0.7220  0.8264  0.3505
   81TCq2    O2 1234   1.979   3.486  11.619 -0.6319  0.3868  0.1898
   81TCq2    C2 1235   1.801   3.384  11.518  0.1654  0.1294 -0.9942
   81TCq2    C3 1236   1.872   3.378  11.401 -0.7472  0.0765  0.4026
   81TCq2    C4 1237   1.826   3.305  11.300 -0.0325 -0.0421 -0.2386
   81TCq2    C5 1238   1.714   3.227  11.308  0.3869 -1.3102 -0.0433
   81TCq2    C6 1239   1.650   3.228  11.432 -0.3828  0.1161 -0.9819
   81TCq2    C7 1240   1.683   3.314  11.535  0.6706 -0.0609 -0.3712
   81TCq2    C8 1241   1.534   3.132  11.442 -0.1706  0.3856 -0.3590
   81TCq2    O4 1242   1.479   3.098  11.337  0.1931 -0.0630 -0.2285
   81TCq2    C9 1243   1.899   3.300  11.176 -0.6697  0.0438  0.4514
   81TCq2    O5 1244   2.008   3.362  11.180 -0.5643  0.3173 -0.3911
   81TCq2    O6 1245   1.864   3.226  11.084 -0.3487  0.1921  0.1767
   81TCq2    H2 1246   1.967   3.430  11.397 -1.5900  1.4131 -2.4239
   81TCq2    H3 1247   1.678   3.188  11.214  0.2398  1.6133 -1.2096
   81TCq2    H4 1248   1.635   3.312  11.632 -0.5047  1.9817 -0.8962
   82MPD2     C 1249   4.613   3.262  10.329 -0.4207  0.5491  0.7624
   82MPD2    C1 1250   4.571   3.147  10.381  0.4370 -0.0053  0.3415
   82MPD2    C2 1251   4.659   3.067  10.459 -0.0783  0.4245 -0.1344
   82MPD2    C3 1252   0.072   3.102  10.475 -0.1673 -0.0739  0.3839
   82MPD2    C4 1253   0.109   3.224  10.421  0.3567 -0.1319  0.6971
   82MPD2    C5 1254   0.020   3.302  10.343 -0.2185  0.3043  0.0053
   82MPD2     H 1255   4.617   2.985  10.515 -1.7393  1.5976  0.3504
   82MPD2    H1 1256   0.212   3.253  10.436  0.0440  0.0400  2.5416
   82MPD2    H2 1257   4.548   3.325  10.268  2.4312  0.3408 -2.4856
   82MPD2    H3 1258   0.054   3.396  10.302 -1.0335 -0.0084 -1.3939
   82MPD2     N 1259   0.173   3.021  10.545  0.2262  0.3070  0.0700
   82MPD2    H5 1260   0.267   3.057  10.548 -0.0644  1.1031 -0.3871
   82MPD2    N1 1261   4.438   3.099  10.358 -0.5751 -0.0060  0.5074
   82MPD2    H7 1262   4.391   3.155  10.287  0.1889 -0.5397 -0.4330
   83TCq2    C1 1263   0.144   2.915  10.624  0.1373  0.1356 -0.2440
   83TCq2    O2 1264   0.034   2.856  10.637  0.1320 -0.1171 -0.6136
   83TCq2    C2 1265   0.246   2.868  10.710  0.1038 -0.1500  0.1713
   83TCq2    C3 1266   0.371   2.843  10.655 -0.3995 -0.0573  0.0404
   83TCq2    C4 1267   0.430   2.733  10.709 -0.8028 -0.0199 -1.0622
   83TCq2    C5 1268   0.374   2.646  10.808 -0.6195  1.0349 -0.4487
   83TCq2    C6 1269   0.251   2.686  10.864 -0.8311  0.0474  0.1631
   83TCq2    C7 1270   0.188   2.787  10.808  0.1119  0.6559  0.4857
   83TCq2    C8 1271   0.163   2.579  10.906  0.0089  0.0586 -0.0927
   83TCq2    O4 1272   0.207   2.497  10.993 -0.3708 -0.1466 -0.5570
   83TCq2    C9 1273   0.560   2.694  10.661  0.1014  0.4802  0.8161
   83TCq2    O5 1274   0.630   2.611  10.732  0.0318  0.8493  0.0503
   83TCq2    O6 1275   0.605   2.759  10.559 -0.0360 -0.5665 -0.3326
   83TCq2    H2 1276   0.403   2.892  10.564 -0.9003 -1.3292 -0.8170
   83TCq2    H3 1277   0.420   2.560  10.854  0.0899  0.7013 -1.7946
   83TCq2    H4 1278   0.089   2.810  10.845 -1.2534 -2.2804 -1.2653
   84TCq2    C1 1279   1.033   1.595  10.526 -0.1844  0.0147  0.2109
   84TCq2    O2 1280   0.928   1.540  10.486  0.0559  0.9567  0.2166
   84TCq2    C2 1281   1.029   1.652  10.664 -0.2370  0.3138 -0.4383
   84TCq2    C3 1282   1.134   1.721  10.722  0.4086 -0.2140 -0.1220
   84TCq2    C4 1283   1.130   1.750  10.857  0.0689  0.6017 -0.4359
   84TCq2    C5 1284   1.032   1.715  10.943  0.1063 -0.3495 -0.2407
   84TCq2    C6 1285   0.927   1.644  10.883 -0.3676  0.6831 -0.3768
   84TCq2    C7 1286   0.923   1.614  10.749 -0.0685  0.4874  0.2575
   84TCq2    C8 1287   0.821   1.582  10.963 -0.0743 -0.7801  0.5718
   84TCq2    O4 1288   0.831   1.586  11.082 -0.0731  0.1778 -0.2456
   84TCq2    C9 1289   1.244   1.820  10.917 -0.5561 -0.7434  1.0262
   84TCq2    O5 1290   1.303   1.915  10.852  0.1279 -0.1292  0.1682
   84TCq2    O6 1291   1.263   1.796  11.038 -0.6023 -0.5588  0.2802
   84TCq2    H2 1292   1.214   1.757  10.658 -0.4131  2.1273  0.1650
   84TCq2    H3 1293   1.037   1.735  11.050 -1.0725 -3.8767  0.4753
   84TCq2    H4 1294   0.836   1.560  10.711  0.3660 -0.7582  1.0443
   85MPD2     C 1295   1.432   0.362  16.291  0.6111  0.1622  0.2416
   85MPD2    C1 1296   1.471   0.328  16.159  0.1740  0.5825  0.3838
   85MPD2    C2 1297   1.535   0.428  16.090  0.8049  0.0941  0.0198
   85MPD2    C3 1298   1.553   0.556  16.136  0.5811  0.3807 -0.0093
   85MPD2    C4 1299   1.503   0.588  16.264  0.0649  0.1279 -0.3770
   85MPD2    C5 1300   1.462   0.485  16.348  0.1440 -0.3346  0.0973
   85MPD2     H 1301   1.556   0.411  15.985 -0.2527 -0.9162 -0.0184
   85MPD2    H1 1302   1.504   0.689  16.305 -1.0492 -0.3084  0.7296
   85MPD2    H2 1303   1.382   0.297  16.361 -2.0080  2.0259  0.1024
   85MPD2    H3 1304   1.428   0.502  16.449  1.5280  0.1841  0.4745
   85MPD2     N 1305   1.601   0.649  16.052 -0.0425  0.1330 -0.3469
   85MPD2    H5 1306   1.641   0.613  15.966 -0.3152 -0.6716 -0.1368
   85MPD2    N1 1307   1.432   0.209  16.094  0.4514 -0.2239 -0.5104
   85MPD2    H7 1308   1.455   0.198  15.996 -0.1753  2.4046 -0.9364
   86TCq2    C1 1309   1.552   0.773  16.046 -0.1643  0.1888 -0.1378
   86TCq2    O2 1310   1.467   0.833  16.107 -0.3331  0.2412 -0.1511
   86TCq2    C2 1311   1.609   0.841  15.934 -0.5109  0.5104 -0.3641
   86TCq2    C3 1312   1.550   0.962  15.901  0.6448 -0.3512 -0.5094
   86TCq2    C4 1313   1.611   1.041  15.805  0.3173 -0.7288 -0.0439
   86TCq2    C5 1314   1.741   1.023  15.772  0.1660  0.7336 -0.0557
   86TCq2    C6 1315   1.803   0.910  15.815  0.4662  0.5193  0.9315
   86TCq2    C7 1316   1.736   0.815  15.896  0.0421  0.0915 -0.5882
   86TCq2    C8 1317   1.928   0.867  15.746  0.1001 -0.0252  0.0637
   86TCq2    O4 1318   1.987   0.763  15.776 -0.0146  0.6743  0.2722
   86TCq2    C9 1319   1.546   1.156  15.742 -0.3194  1.1257 -0.2877
   86TCq2    O5 1320   1.420   1.164  15.748 -0.7177 -0.1693  0.3724
   86TCq2    O6 1321   1.625   1.252  15.731  0.0410  0.1075 -0.1685
   86TCq2    H2 1322   1.448   0.984  15.931  0.8599 -0.5173  0.3607
   86TCq2    H3 1323   1.795   1.098  15.715  2.6163 -1.6667 -0.9445
   86TCq2    H4 1324   1.793   0.731  15.933  0.3499  0.5435 -0.0346
   87MPD2     C 1325   3.235   4.304   0.843  0.4755 -0.1401 -0.2493
   87MPD2    C1 1326   3.256   4.441   0.847  0.2466 -0.4695 -1.1571
   87MPD2    C2 1327   3.162   4.534   0.797 -0.1573 -0.0280 -0.0310
   87MPD2    C3 1328   3.046   4.480   0.741 -0.1063  0.0971 -0.6394
   87MPD2    C4 1329   3.023   4.347   0.740 -0.2578  0.1337  0.1356
   87MPD2    C5 1330   3.121   4.262   0.786  0.0560  0.4888 -0.4072
   87MPD2     H 1331   3.171   4.641   0.812 -0.1863 -0.0306  0.0067
   87MPD2    H1 1332   2.939   4.308   0.683 -0.5743  0.8880  0.0839
   87MPD2    H2 1333   3.303   4.222   0.863  1.8532  1.4364  1.4856
   87MPD2    H3 1334   3.086   4.160   0.773  0.8821  0.0328  0.9226
   87MPD2     N 1335   2.948   4.561   0.680 -0.2927  0.4459  0.3549
   87MPD2    H5 1336   2.876   4.517   0.624 -0.3166  1.2042 -0.2231
   87MPD2    N1 1337   3.382   4.483   0.901  0.4116 -0.6952 -0.5523
   87MPD2    H7 1338   3.453   4.414   0.921  0.7908 -0.4909 -1.1997
   88TCq2    C1 1339   3.422   4.609   0.932 -0.2856  0.2013 -0.0188
   88TCq2    O2 1340   3.363   4.713   0.915 -0.1564  0.1338  0.2228
   88TCq2    C2 1341   3.562   4.621   0.978 -0.3265 -0.5703 -0.3178
   88TCq2    C3 1342   3.597   0.021   1.027  0.4631 -0.7267  0.1186
   88TCq2    C4 1343   3.720   0.028   1.087  0.8434 -0.2502  0.2733
   88TCq2    C5 1344   3.806   4.639   1.091 -0.2360 -1.0182  0.5620
   88TCq2    C6 1345   3.760   4.518   1.031 -0.7130 -0.2548  0.6778
   88TCq2    C7 1346   3.638   4.510   0.969 -0.1730 -0.0269 -0.1980
   88TCq2    C8 1347   3.856   4.412   0.997  0.7142  0.0104  0.7744
   88TCq2    O4 1348   3.815   4.318   0.929  0.1958 -0.4682 -0.0005
   88TCq2    C9 1349   3.772   0.156   1.139 -0.1896  0.4099 -0.4236
   88TCq2    O5 1350   3.689   0.247   1.153  0.1788  0.2425  0.5605
   88TCq2    O6 1351   3.898   0.173   1.152  0.1135  0.3805  0.3782
   88TCq2    H2 1352   3.536   0.110   1.030 -0.0140 -1.1219  2.7520
   88TCq2    H3 1353   3.907   4.646   1.129  0.3106 -2.4120 -0.6266
   88TCq2    H4 1354   3.601   4.415   0.932 -1.9314  0.0854  1.3080
   89MPD2     C 1355   4.582   1.738   2.026  0.0074  0.4834  0.5734
   89MPD2    C1 1356   4.502   1.835   1.984  0.0596  0.2109 -0.4070
   89MPD2    C2 1357   4.525   1.894   1.859  0.2419 -0.2181  0.0768
   89MPD2    C3 1358   4.630   1.841   1.782  0.0944  0.3383 -0.3434
   89MPD2    C4 1359   4.716   1.749   1.826  0.7778 -0.2526 -0.8842
   89MPD2    C5 1360   4.684   1.689   1.944  0.2238  0.2399  0.1042
   89MPD2     H 1361   4.449   1.961   1.819  0.0884  0.0878  0.8788
   89MPD2    H1 1362   0.061   1.698   1.759 -1.0886 -0.7312 -2.4067
   89MPD2    H2 1363   4.566   1.684   2.119 -2.6702  0.3709  0.0476
   89MPD2    H3 1364   0.017   1.601   1.975 -0.7385 -0.6897 -0.7972
   89MPD2     N 1365   4.652   1.899   1.656 -0.5239 -0.3769 -0.0085
   89MPD2    H5 1366   4.574   1.956   1.622  0.5043  0.7240 -0.5415
   89MPD2    N1 1367   4.403   1.894   2.067 -0.2248  0.3975  0.1321
   89MPD2    H7 1368   4.333   1.951   2.020  0.0943  2.1009  1.6829
   90TCq2    C1 1369   0.030   1.884   1.565  0.3385 -0.4977 -0.1672
   90TCq2    O2 1370   0.131   1.810   1.580  0.1929  0.1020  0.5361
   90TCq2    C2 1371   0.038   1.972   1.452 -0.0603 -0.1555 -0.3731
   90TCq2    C3 1372   0.113   1.937   1.343 -0.4685  0.4061  0.6217
   90TCq2    C4 1373   0.115   2.015   1.232  0.2914  1.0316 -0.0280
   90TCq2    C5 1374   0.049   2.140   1.227 -0.5272  0.0946  0.0440
   90TCq2    C6 1375   4.701   2.169   1.336  0.9116  0.2594 -0.3023
   90TCq2    C7 1376   4.681   2.085   1.444 -0.5036 -0.1625  0.3509
   90TCq2    C8 1377   4.675   2.308   1.364 -0.1218  0.7477  0.0453
   90TCq2    O4 1378   4.594   2.331   1.451  0.2813 -0.1347  0.2015
   90TCq2    C9 1379   0.191   1.974   1.129 -0.2243 -0.0666  0.3388
   90TCq2    O5 1380   0.214   2.061   1.046 -0.0468 -0.0216 -0.1345
   90TCq2    O6 1381   0.245   1.861   1.140  0.6440 -0.6748  0.5324
   90TCq2    H2 1382   0.164   1.841   1.340  0.7438  0.9709  2.7694
   90TCq2    H3 1383   0.055   2.203   1.139 -0.2848 -1.1214 -0.8239
   90TCq2    H4 1384   4.651   2.128   1.539  1.5373  1.8527  0.0758
   91TMC2    C1 1385   1.641   1.491  16.531  0.2216 -0.4394 -0.1430
   91TMC2    C2 1386   1.658   1.593  16.438  0.1765 -0.2409  0.2093
   91TMC2    C3 1387   1.570   1.592  16.333  0.4918 -0.0617  0.0787
   91TMC2    C4 1388   1.539   1.399  16.515  0.3611 -0.2892  0.8111
   91TMC2    C5 1389   1.444   1.418  16.415  0.2447  0.1996 -0.1360
   91TMC2    C6 1390   1.462   1.515  16.317 -0.2844 -0.6852 -0.1442
   91TMC2     C 1391   1.740   1.456  16.622  0.0969 -0.3321 -0.2579
   91TMC2     O 1392   1.720   1.375  16.718 -0.0795 -0.0046  0.0913
   91TMC2     H 1393   1.730   1.673  16.449 -0.4836  0.4892 -0.6941
   91TMC2    H1 1394   1.514   1.321  16.586  0.7246 -1.5822 -0.4569
   91TMC2    H2 1395   1.385   1.540  16.246  0.4158 -2.6318 -1.5931
   91TMC2    C7 1396   1.307   1.365  16.441 -0.1483  0.7799 -0.2294
   91TMC2    C8 1397   1.567   1.714  16.256 -0.2098  0.3563 -0.7989
   91TMC2    O1 1398   1.290   1.287  16.534  0.0841  0.4381 -0.3251
   91TMC2    O2 1399   1.466   1.765  16.213 -0.1611 -0.5239 -0.4064
   91TMC2    O5 1400   1.696   1.737  16.219  0.0799 -0.1351  0.4547
   91TMC2    H5 1401   1.770   1.686  16.257 -0.3694 -1.4056 -0.3787
   92MPD2     C 1402   2.019   1.436  16.743  0.7161  0.9692 -0.8302
   92MPD2    C1 1403   1.988   1.507  16.629 -0.3351 -0.6462  1.0165
   92MPD2    C2 1404   2.086   1.580  16.567 -0.8373  0.7033  0.4862
   92MPD2    C3 1405   2.216   1.581  16.616 -0.6449 -0.0455 -0.4678
   92MPD2    C4 1406   2.244   1.508  16.726  0.5571 -0.2772 -0.9142
   92MPD2    C5 1407   2.149   1.437  16.786 -0.1929 -0.3125  0.6878
   92MPD2     H 1408   2.064   1.642  16.480 -0.1717 -0.4410 -0.4951
   92MPD2    H1 1409   2.345   1.501  16.766  0.6157  0.0548 -1.0109
   92MPD2    H2 1410   1.957   1.367  16.799  0.2008  0.5347 -1.9168
   92MPD2    H3 1411   2.186   1.368  16.860 -0.8833 -1.5469 -0.1202
   92MPD2     N 1412   2.305   1.677  16.553 -0.7030 -0.1463 -0.1064
   92MPD2    H5 1413   2.259   1.745  16.494  1.3207  0.3692 -1.1044
   92MPD2    N1 1414   1.856   1.507  16.572 -0.4587 -0.4800  0.5368
   92MPD2    H7 1415   1.846   1.540  16.477 -0.8255 -0.9542  0.4105
   93MPD2     C 1416   3.047   1.161  13.719 -0.5826 -0.7492 -0.2775
   93MPD2    C1 1417   3.060   1.296  13.766  0.1579  1.0674 -0.2991
   93MPD2    C2 1418   2.952   1.386  13.762  0.1874  0.3496  0.5543
   93MPD2    C3 1419   2.836   1.342  13.707 -0.7109  0.3332  0.3160
   93MPD2    C4 1420   2.821   1.213  13.665 -0.4727  0.1255 -0.1480
   93MPD2    C5 1421   2.925   1.125  13.670  0.0777 -0.7993 -0.0544
   93MPD2     H 1422   2.971   1.491  13.784 -0.6597  0.4667  0.7369
   93MPD2    H1 1423   2.729   1.175  13.622 -1.5240  0.0914  2.1067
   93MPD2    H2 1424   3.130   1.091  13.727 -1.2081 -1.5105 -0.3956
   93MPD2    H3 1425   2.905   1.028  13.625  1.4897  0.1293 -2.7404
   93MPD2     N 1426   2.731   1.434  13.669  0.1952 -0.7339  0.3641
   93MPD2    H5 1427   2.652   1.399  13.616  0.1304 -1.1427  0.7252
   93MPD2    N1 1428   3.184   1.344  13.815  0.1491 -0.2789  0.3926
   93MPD2    H7 1429   3.187   1.430  13.867  1.2965  0.6748 -1.2446
   94TCq2    C1 1430   3.308   1.280  13.794 -0.5820 -0.2013  0.0399
   94TCq2    O2 1431   3.335   1.194  13.713  0.4206 -0.1198  0.1132
   94TCq2    C2 1432   3.415   1.357  13.857  0.2265 -0.7426 -0.1785
   94TCq2    C3 1433   3.388   1.476  13.931 -0.6720 -0.0386 -0.0773
   94TCq2    C4 1434   3.498   1.545  13.971  0.3230  0.7433  0.7473
   94TCq2    C5 1435   3.622   1.512  13.924 -0.5261 -0.6558  0.5067
   94TCq2    C6 1436   3.649   1.397  13.858 -0.3223 -0.8509 -0.7258
   94TCq2    C7 1437   3.544   1.316  13.822  0.5231  0.0727  0.6260
   94TCq2    C8 1438   3.775   1.370  13.784 -0.8725 -0.1876  0.2363
   94TCq2    O4 1439   3.800   1.257  13.739 -0.1370 -0.9408 -0.2112
   94TCq2    C9 1440   3.485   1.676  14.033 -0.2722  0.2964  0.1469
   94TCq2    O5 1441   3.368   1.719  14.042  0.3716  0.6814 -0.3198
   94TCq2    O6 1442   3.586   1.724  14.096 -0.1712 -0.0851 -0.5774
   94TCq2    H2 1443   3.292   1.512  13.965 -0.5586  0.0674  0.1344
   94TCq2    H3 1444   3.713   1.562  13.957 -1.1322 -0.5380  1.9682
   94TCq2    H4 1445   3.558   1.217  13.782 -0.2246  0.9720 -1.8438
   95TMC2    C1 1446   3.179   2.923  15.873  0.2832  0.1870 -0.8029
   95TMC2    C2 1447   3.231   2.944  15.998 -0.0661 -0.0943 -0.2806
   95TMC2    C3 1448   3.159   2.887  16.099  0.8397 -0.1300 -0.6892
   95TMC2    C4 1449   3.055   2.868  15.852 -1.1413 -0.8827 -0.3888
   95TMC2    C5 1450   2.990   2.809  15.958  0.2693  1.0163  0.2240
   95TMC2    C6 1451   3.042   2.815  16.082 -0.1195  0.5572  0.0821
   95TMC2     C 1452   3.249   3.006  15.774 -0.8673  0.2255  0.2923
   95TMC2     O 1453   3.355   3.051  15.811 -0.1739  0.2088 -0.0124
   95TMC2     H 1454   3.317   3.004  16.025 -1.1995  0.8072  1.3157
   95TMC2    H1 1455   3.023   2.850  15.750  1.1379 -1.2680 -1.0303
   95TMC2    H2 1456   2.990   2.773  16.167  2.3439  2.2061  2.4454
   95TMC2    C7 1457   2.865   2.745  15.943  0.1297 -0.4515 -0.1317
   95TMC2    C8 1458   3.196   2.926  16.234 -0.4639  0.1277 -0.6059
   95TMC2    O1 1459   2.853   2.645  16.010  0.1178  0.3925 -0.4460
   95TMC2    O2 1460   3.119   2.921  16.324 -0.3005  0.4387  0.4544
   95TMC2    O5 1461   3.329   2.897  16.245  0.0582  0.1422  0.5393
   95TMC2    H5 1462   3.361   2.856  16.161 -1.4888  2.3060 -1.1093
   96MPD2     C 1463   3.267   3.314  15.373 -0.1597  0.1803  0.5258
   96MPD2    C1 1464   3.368   3.271  15.459 -0.1859 -0.0022  0.0394
   96MPD2    C2 1465   3.342   3.168  15.550 -0.4452 -0.6785  0.4848
   96MPD2    C3 1466   3.209   3.117  15.561  0.4666 -0.0328 -0.1114
   96MPD2    C4 1467   3.113   3.171  15.483  0.0346 -0.1114  0.3924
   96MPD2    C5 1468   3.142   3.262  15.383  0.2721  0.0806  0.8251
   96MPD2     H 1469   3.427   3.128  15.605 -1.0576  0.4002  2.1906
   96MPD2    H1 1470   3.010   3.140  15.494 -0.2679  1.1700  1.1202
   96MPD2    H2 1471   3.280   3.399  15.307  0.3462 -1.2635 -1.2057
   96MPD2    H3 1472   3.060   3.308  15.330 -0.0027 -2.6865 -1.1355
   96MPD2     N 1473   3.170   3.027  15.660  0.0360  0.5231  0.7456
   96MPD2    H5 1474   3.073   2.997  15.664 -0.1075  1.0032  0.9297
   96MPD2    N1 1475   3.503   3.315  15.449  0.5509 -0.2409 -0.5784
   96MPD2    H7 1476   3.574   3.254  15.490 -1.5997 -1.1555  1.7597
   97MPD2     C 1477   4.533   1.316   1.090  0.1778 -0.0080  0.5075
   97MPD2    C1 1478   4.648   1.386   1.119 -0.2681 -0.3473 -0.4374
   97MPD2    C2 1479   0.022   1.400   1.019  0.0650  0.4572  0.9954
   97MPD2    C3 1480   0.007   1.341   0.899  0.6662 -0.2386  0.1688
   97MPD2    C4 1481   4.618   1.260   0.877  0.5588  0.1867  0.2431
   97MPD2    C5 1482   4.521   1.253   0.971 -0.1658  0.1417  0.3605
   97MPD2     H 1483   0.117   1.447   1.045  2.0529 -0.9681 -3.6880
   97MPD2    H1 1484   4.606   1.202   0.786  1.1619 -1.0003  0.9203
   97MPD2    H2 1485   4.449   1.303   1.157 -0.1886 -3.4497 -0.5922
   97MPD2    H3 1486   4.430   1.200   0.945  2.2040 -2.0280 -3.5396
   97MPD2     N 1487   0.108   1.333   0.802 -0.7397 -0.4302  0.4509
   97MPD2    H5 1488   0.097   1.261   0.731  0.4769 -1.8145  1.6445
   97MPD2    N1 1489   4.650   1.453   1.243 -0.1445  0.4795  0.3896
   97MPD2    H7 1490   4.562   1.451   1.293 -0.2209  0.9855  0.2733
   98TCq2    C1 1491   0.215   1.418   0.791 -0.2823  0.2738 -0.4079
   98TCq2    O2 1492   0.222   1.534   0.826  0.3296 -0.5589 -0.4429
   98TCq2    C2 1493   0.308   1.370   0.691  0.2074  0.2017  0.5679
   98TCq2    C3 1494   0.333   1.231   0.686  0.2016  0.6097 -0.0560
   98TCq2    C4 1495   0.450   1.184   0.637 -0.5022 -0.2042  0.2563
   98TCq2    C5 1496   0.540   1.269   0.590  0.1265  0.4888  0.0244
   98TCq2    C6 1497   0.518   1.405   0.592 -0.4020  0.7632  0.8366
   98TCq2    C7 1498   0.402   1.459   0.643 -0.7710  0.6065  0.3562
   98TCq2    C8 1499   0.629   1.493   0.556 -0.2924 -0.1646 -0.2008
   98TCq2    O4 1500   0.738   1.441   0.552  0.0025  0.4299 -0.2171
   98TCq2    C9 1501   0.478   1.043   0.639 -0.7885 -0.0412  0.6593
   98TCq2    O5 1502   0.380   0.968   0.664 -0.0049  0.1295  0.5543
   98TCq2    O6 1503   0.587   1.004   0.593 -0.3206  0.0806  0.1509
   98TCq2    H2 1504   0.268   1.154   0.725 -0.5296  1.6147  0.6960
   98TCq2    H3 1505   0.638   1.228   0.571 -0.7688 -0.9755 -1.4501
   98TCq2    H4 1506   0.395   1.565   0.663  0.0123  0.6932  0.1512
   99MPD2     C 1507   4.712   4.331   1.372 -0.0162  0.2755 -0.1954
   99MPD2    C1 1508   4.644   4.288   1.486 -0.0075 -0.6862 -0.4090
   99MPD2    C2 1509   4.563   4.180   1.475  0.5017  0.0372  0.3161
   99MPD2    C3 1510   4.554   4.104   1.364  0.2958  0.2973  0.4494
   99MPD2    C4 1511   4.625   4.144   1.247 -0.4672  0.0878 -0.6650
   99MPD2    C5 1512   4.706   4.258   1.259 -0.3823 -0.0607  0.7085
   99MPD2     H 1513   4.507   4.152   1.562  1.5163 -1.7625  0.3796
   99MPD2    H1 1514   4.641   4.082   1.159  1.1166  0.1136 -0.3952
   99MPD2    H2 1515   0.049   4.420   1.385 -0.6950  0.4122  2.0693
   99MPD2    H3 1516   0.050   4.283   1.178 -0.4858  0.3496  0.7497
   99MPD2     N 1517   4.479   3.980   1.367  0.3919  0.4527  0.4683
   99MPD2    H5 1518   4.439   3.950   1.456  0.2568  0.4232  0.3989
   99MPD2    N1 1519   4.644   4.343   1.619  0.2288  0.2273  0.9256
   99MPD2    H7 1520   4.572   4.309   1.682 -1.0852  0.6291 -0.3604
  100TCq2    C1 1521   0.010   4.435   1.671  0.2846 -0.0660  0.4566
  100TCq2    O2 1522   0.111   4.463   1.610  0.5980  0.2991  0.2857
  100TCq2    C2 1523   4.718   4.461   1.819  0.6839  0.6763 -1.1025
  100TCq2    C3 1524   0.103   4.491   1.895  0.4977 -0.4322  0.0594
  100TCq2    C4 1525   0.080   4.538   2.027 -0.4189  0.2494 -0.0833
  100TCq2    C5 1526   4.679   4.531   2.083 -0.8235  0.0541  0.3586
  100TCq2    C6 1527   4.573   4.481   2.007 -0.3436  0.4629  0.3264
  100TCq2    C7 1528   4.591   4.453   1.878  0.1910  0.4771  0.4227
  100TCq2    C8 1529   4.443   4.467   2.075 -0.7015  0.0651  0.4892
  100TCq2    O4 1530   4.424   4.506   2.190 -0.1707 -0.0345  0.4699
  100TCq2    C9 1531   0.179   4.609   2.099 -0.0457  0.5560 -0.2463
  100TCq2    O5 1532   0.299   4.575   2.068  0.2256 -0.9598  0.2228
  100TCq2    O6 1533   0.148   4.657   2.210 -0.1899  0.4334 -0.4530
  100TCq2    H2 1534   0.204   4.503   1.855  0.4102 -1.1804 -0.3898
  100TCq2    H3 1535   4.654   4.579   2.176 -2.6104  0.8857 -0.5493
  100TCq2    H4 1536   4.508   4.433   1.811  0.1793  2.5646 -0.2023
  101MPD2     C 1537   0.329   3.666  12.757 -0.7316 -0.9757 -0.5706
  101MPD2    C1 1538   0.233   3.763  12.782  0.6167 -0.0475 -0.0077
  101MPD2    C2 1539   0.136   3.738  12.884  0.4718 -0.2906  0.1936
  101MPD2    C3 1540   0.134   3.608  12.948  0.5603 -0.5523 -0.3465
  101MPD2    C4 1541   0.234   3.518  12.934 -0.3678  0.0238 -0.1840
  101MPD2    C5 1542   0.335   3.549  12.834  0.2521  0.1827  0.7501
  101MPD2     H 1543   0.050   3.803  12.895  2.4364  2.2381  0.6339
  101MPD2    H1 1544   0.240   3.425  12.990  1.2867 -0.4825 -1.1736
  101MPD2    H2 1545   0.407   3.675  12.681 -2.4958  0.0958 -2.2593
  101MPD2    H3 1546   0.416   3.479  12.817  0.7386  0.7496  0.7103
  101MPD2     N 1547   0.031   3.591  13.044  0.1453  0.3477  0.1364
  101MPD2    H5 1548   4.681   3.658  13.064 -0.2242 -0.7911  2.5698
  101MPD2    N1 1549   0.230   3.871  12.690  0.3203  0.3561  0.3780
  101MPD2    H7 1550   0.313   3.875  12.632  0.1482  1.0346  0.1753
  102TCq2    C1 1551   0.397   4.171  12.329 -0.4025 -0.5109  0.1912
  102TCq2    O2 1552   0.490   4.095  12.359 -0.5326 -0.1906  0.1820
  102TCq2    C2 1553   0.286   4.189  12.427 -0.0087  0.6692 -0.4971
  102TCq2    C3 1554   0.183   4.285  12.409 -0.7870  0.1664 -0.6242
  102TCq2    C4 1555   0.063   4.261  12.474 -0.5909 -0.5888  0.1572
  102TCq2    C5 1556   0.054   4.164  12.564  0.1526  0.0858  0.0229
  102TCq2    C6 1557   0.159   4.077  12.593 -0.5204  0.1024 -0.0515
  102TCq2    C7 1558   0.276   4.085  12.518  0.3581  0.6868  0.0144
  102TCq2    C8 1559   0.127   3.961  12.679 -0.3378 -0.3690 -0.6111
  102TCq2    O4 1560   0.012   3.960  12.718  0.1536  0.2415 -0.4723
  102TCq2    C9 1561   4.657   4.332  12.447 -0.9298 -0.0557  0.4416
  102TCq2    O5 1562   4.642   4.379  12.335  0.2210 -0.9600  0.0018
  102TCq2    O6 1563   4.595   4.365  12.548 -0.3059 -0.0495 -0.3467
  102TCq2    H2 1564   0.194   4.370  12.343 -1.2527  0.9021  0.2352
  102TCq2    H3 1565   4.679   4.160  12.610 -0.1947 -0.5737 -0.7721
  102TCq2    H4 1566   0.349   4.006  12.534 -0.3914  0.0808  0.3986
  103TMC2    C1 1567   3.454   3.849  12.319  0.8612 -0.3436  0.3535
  103TMC2    C2 1568   3.574   3.905  12.290  0.3563  0.0201  0.1126
  103TMC2    C3 1569   3.606   4.022  12.360  0.6959 -0.1096  1.0080
  103TMC2    C4 1570   3.379   3.896  12.423  0.4372  0.2385 -0.5210
  103TMC2    C5 1571   3.434   3.990  12.509 -0.9195 -0.4383 -0.1073
  103TMC2    C6 1572   3.544   4.064  12.472  0.5483  0.1565  0.4419
  103TMC2     C 1573   3.418   3.723  12.248  0.4063 -0.6824  0.0717
  103TMC2     O 1574   3.296   3.701  12.248  0.1441  0.6915 -0.5777
  103TMC2     H 1575   3.628   3.867  12.204  2.4649 -0.9611  1.8598
  103TMC2    H1 1576   3.289   3.840  12.445 -0.5547  2.4269  0.9595
  103TMC2    H2 1577   3.576   4.147  12.535 -2.9161 -0.4859  3.0513
  103TMC2    C7 1578   3.365   4.005  12.640  0.2143 -0.3441  0.7184
  103TMC2    C8 1579   3.676   4.132  12.286 -0.5430  0.6286 -0.3427
  103TMC2    O1 1580   3.425   4.067  12.726 -0.1126  0.1384 -0.2057
  103TMC2    O2 1581   3.725   4.118  12.176  0.8646 -0.0627  0.0691
  103TMC2    O5 1582   3.604   4.238  12.327  0.9202 -0.6390 -0.5121
  103TMC2    H5 1583   3.630   4.312  12.269 -1.4400 -0.2090 -1.0227
  104MPD2     C 1584   3.624   3.434  12.199 -0.6089 -0.5063 -0.8350
  104MPD2    C1 1585   3.511   3.507  12.185 -0.0926  0.1187  0.1335
  104MPD2    C2 1586   3.404   3.453  12.114 -0.2441  0.5079 -0.2397
  104MPD2    C3 1587   3.411   3.331  12.049  0.5850 -0.1331  0.0373
  104MPD2    C4 1588   3.522   3.254  12.066 -0.2750 -0.7775 -0.2371
  104MPD2    C5 1589   3.628   3.309  12.133  0.1903  0.4798 -0.4458
  104MPD2     H 1590   3.320   3.519  12.096 -1.5932 -1.4266 -1.0381
  104MPD2    H1 1591   3.533   3.153  12.028 -1.3507  0.0386 -2.6977
  104MPD2    H2 1592   3.700   3.471  12.267  0.3537 -0.5165 -1.9030
  104MPD2    H3 1593   3.722   3.259  12.154  0.8002  2.2039  0.8620
  104MPD2     N 1594   3.304   3.292  11.968 -0.2543 -0.3322  0.4250
  104MPD2    H5 1595   3.250   3.372  11.938  2.3693  1.4444  0.4250
  104MPD2    N1 1596   3.514   3.625  12.253 -0.6768  0.3972 -0.6679
  104MPD2    H7 1597   3.604   3.651  12.291 -1.4631 -2.3727  3.0603
  105MPD2     C 1598   4.686   3.660  17.552 -0.0022 -0.0095  0.1892
  105MPD2    C1 1599   4.571   3.727  17.516 -0.4778  0.0293 -0.6434
  105MPD2    C2 1600   4.501   3.793  17.617  0.0189 -0.4010  0.6694
  105MPD2    C3 1601   4.542   3.788   0.055 -0.8728 -0.1183  0.2667
  105MPD2    C4 1602   4.663   3.735   0.087 -0.1245  0.4602  0.1935
  105MPD2    C5 1603   0.005   3.662  17.684  0.4693  0.6179 -0.2684
  105MPD2     H 1604   4.413   3.846  17.580 -0.7508 -1.2012  1.3463
  105MPD2    H1 1605   4.703   3.727   0.188  0.7279 -2.1844 -0.3557
  105MPD2    H2 1606   0.040   3.636  17.480  1.4438 -1.7824  2.3212
  105MPD2    H3 1607   0.106   3.637   0.020  0.2263 -1.4061 -1.1814
  105MPD2     N 1608   4.458   3.862   0.145 -0.2579 -0.1156  0.1479
  105MPD2    H5 1609   4.373   3.901   0.104  0.5624  1.9394  0.4273
  105MPD2    N1 1610   4.533   3.729  17.385  0.0180  0.0018  0.2788
  105MPD2    H7 1611   4.444   3.776  17.369  1.4609  2.2049 -1.2694
  106TCq2    C1 1612   4.478   3.880   0.278  0.1602 -1.0178  0.2500
  106TCq2    O2 1613   4.569   3.834   0.342 -0.0807 -0.0989 -0.2710
  106TCq2    C2 1614   4.382   3.968   0.342  0.0072  0.3638  0.3070
  106TCq2    C3 1615   4.264   4.013   0.280 -0.0716 -0.7013  0.0220
  106TCq2    C4 1616   4.193   4.114   0.342  0.1358  0.3128  0.0188
  106TCq2    C5 1617   4.228   4.157   0.469  0.4568  0.2714 -0.1056
  106TCq2    C6 1618   4.335   4.102   0.530 -0.1016  0.9654 -0.3675
  106TCq2    C7 1619   4.416   4.007   0.466  0.2418 -0.6006  0.8044
  106TCq2    C8 1620   4.346   4.122   0.672  0.7409 -1.0817  0.0578
  106TCq2    O4 1621   4.440   4.058   0.722  0.1880 -0.2858  0.5413
  106TCq2    C9 1622   4.085   4.175   0.267  0.0080 -0.3497 -0.1668
  106TCq2    O5 1623   4.015   4.254   0.335  0.0140 -0.5472  0.1647
  106TCq2    O6 1624   4.069   4.136   0.148  0.0551  0.4048  0.0899
  106TCq2    H2 1625   4.226   3.968   0.189  1.9048 -0.5240 -0.9063
  106TCq2    H3 1626   4.170   4.241   0.505  0.4316  0.7280 -1.1980
  106TCq2    H4 1627   4.500   3.964   0.519  0.4905 -2.4043 -1.0532
  107TMC2    C1 1628   0.359   1.437  11.612 -0.4241 -1.0170 -0.0152
  107TMC2    C2 1629   0.348   1.338  11.704  0.1502 -0.2686 -0.3293
  107TMC2    C3 1630   0.351   1.208  11.666 -0.4092  0.4293 -0.1948
  107TMC2    C4 1631   0.360   1.402  11.478  0.7507  0.2139  0.0826
  107TMC2    C5 1632   0.377   1.269  11.438 -0.0500  0.8868 -0.1989
  107TMC2    C6 1633   0.370   1.171  11.538 -0.1141 -0.2108  0.6370
  107TMC2     C 1634   0.365   1.577  11.649  0.0877  0.3523 -0.5413
  107TMC2     O 1635   0.360   1.590  11.769  0.2011  0.5943 -0.8121
  107TMC2     H 1636   0.325   1.367  11.806 -0.4980  1.9137 -1.1106
  107TMC2    H1 1637   0.372   1.479  11.403 -0.5727 -2.0236 -2.4311
  107TMC2    H2 1638   0.387   1.064  11.525 -1.7798 -0.3553 -0.3848
  107TMC2    C7 1639   0.385   1.232  11.298 -0.7395  0.7164  0.1736
  107TMC2    C8 1640   0.351   1.100  11.761  0.3636 -0.2080 -0.4174
  107TMC2    O1 1641   0.354   1.118  11.264 -0.5056  0.4116 -0.0547
  107TMC2    O2 1642   0.318   0.984  11.726 -0.5712  0.1298  0.5630
  107TMC2    O5 1643   0.346   1.141  11.888 -0.3528 -0.1262  0.1546
  107TMC2    H5 1644   0.396   1.225  11.895  2.0328 -1.5212 -0.3153
  108MPD2     C 1645   0.412   1.877  11.438 -0.0386  0.5871  0.3732
  108MPD2    C1 1646   0.397   1.804  11.558 -0.2600 -0.1903  0.6709
  108MPD2    C2 1647   0.375   1.869  11.676 -0.0400 -0.3012  0.3424
  108MPD2    C3 1648   0.373   2.007  11.680 -0.3490 -0.3623 -0.3090
  108MPD2    C4 1649   0.393   2.080  11.559  0.2826  0.5010 -0.1190
  108MPD2    C5 1650   0.428   2.015  11.443 -0.2432  0.0203  0.2074
  108MPD2     H 1651   0.354   1.815  11.768 -0.5036 -3.0567 -1.4048
  108MPD2    H1 1652   0.396   2.188  11.565  1.2883  0.3993  1.0945
  108MPD2    H2 1653   0.446   1.825  11.349 -0.2899  0.5265  0.3121
  108MPD2    H3 1654   0.463   2.080  11.364  0.4965  2.2326  2.3644
  108MPD2     N 1655   0.348   2.089  11.796 -0.0485  0.1959 -0.3456
  108MPD2    H5 1656   0.350   2.188  11.775  0.7478  0.0630 -0.8687
  108MPD2    N1 1657   0.394   1.666  11.546 -0.3494 -0.1831 -0.6656
  108MPD2    H7 1658   0.394   1.629  11.451 -2.9497 -0.4480 -0.5825
  109MPD2     C 1659   0.417   0.414   1.466 -0.1888 -0.6789 -0.0593
  109MPD2    C1 1660   0.311   0.443   1.555 -0.5805  0.7971  0.8268
  109MPD2    C2 1661   0.346   0.511   1.667  0.2326 -0.7980 -0.0039
  109MPD2    C3 1662   0.477   0.542   1.706 -0.6056  0.2353  0.5336
  109MPD2    C4 1663   0.576   0.512   1.620 -0.5979  0.0315 -0.1265
  109MPD2    C5 1664   0.546   0.454   1.504  0.4132 -0.4570 -0.9331
  109MPD2     H 1665   0.269   0.528   1.743  0.9167 -2.0929  0.9774
  109MPD2    H1 1666   0.680   0.533   1.639 -0.5318  0.0850 -0.5520
  109MPD2    H2 1667   0.410   0.351   1.377  0.8602 -0.1069 -0.5483
  109MPD2    H3 1668   0.623   0.411   1.442  0.6904 -0.0225 -0.8882
  109MPD2     N 1669   0.498   0.607   1.828  0.2119  0.0655  0.6647
  109MPD2    H5 1670   0.417   0.623   1.886  1.7355  2.3302  2.1350
  109MPD2    N1 1671   0.175   0.410   1.519  0.0644 -0.1590 -0.0845
  109MPD2    H7 1672   0.162   0.359   1.432  1.5748  1.7108 -1.3963
  110TCq2    C1 1673   0.622   0.641   1.877  0.0874 -0.5612 -0.7969
  110TCq2    O2 1674   0.732   0.608   1.846  0.2565 -0.5966  0.0156
  110TCq2    C2 1675   0.619   0.723   2.001 -0.2368  0.2704  0.2312
  110TCq2    C3 1676   0.742   0.745   2.067 -0.2571 -0.2367 -0.1346
  110TCq2    C4 1677   0.756   0.869   2.131 -0.4954  0.0818  0.3568
  110TCq2    C5 1678   0.663   0.965   2.135 -0.1473 -0.7195  0.3231
  110TCq2    C6 1679   0.542   0.936   2.071 -1.4107 -0.5863 -0.3255
  110TCq2    C7 1680   0.517   0.814   2.009  0.7100  0.7222 -0.0616
  110TCq2    C8 1681   0.470   1.057   2.014 -0.0647 -0.3975  0.5825
  110TCq2    O4 1682   0.364   1.027   1.960  0.0027 -0.5231 -0.1951
  110TCq2    C9 1683   0.886   0.894   2.185  0.6162  0.2250  0.9317
  110TCq2    O5 1684   0.901   1.011   2.225 -0.2578  0.1600  0.4485
  110TCq2    O6 1685   0.970   0.800   2.191  0.2756  0.0857 -0.1324
  110TCq2    H2 1686   0.824   0.675   2.066 -0.0526  0.0122 -0.6836
  110TCq2    H3 1687   0.683   1.060   2.183  2.1130 -0.5125 -1.0231
  110TCq2    H4 1688   0.425   0.795   1.955  0.6641  0.3308  0.1521
  111TMC2    C1 1689   0.489   3.254  11.174  0.4252 -0.8838  1.1144
  111TMC2    C2 1690   0.421   3.183  11.267  0.4538  0.1260 -0.3440
  111TMC2    C3 1691   0.491   3.143  11.375  0.4983 -0.5227  0.6963
  111TMC2    C4 1692   0.619   3.302  11.201 -0.0510  0.4151  0.0984
  111TMC2    C5 1693   0.689   3.248  11.314 -0.1896  0.2101  0.4773
  111TMC2    C6 1694   0.619   3.183  11.404  0.1820 -0.0657  0.4961
  111TMC2     C 1695   0.418   3.358  11.102 -0.3213 -0.6594 -0.4727
  111TMC2     O 1696   0.468   3.387  10.993  1.2475  0.2620 -1.0378
  111TMC2     H 1697   0.318   3.156  11.246  0.1686  2.6830 -2.1505
  111TMC2    H1 1698   0.669   3.372  11.135 -2.6151 -0.7558 -3.0993
  111TMC2    H2 1699   0.661   3.160  11.501  2.2252 -2.1286 -0.8973
  111TMC2    C7 1700   0.754   3.359  11.372 -0.6017  0.4374 -0.0282
  111TMC2    C8 1701   0.404   3.079  11.472 -0.1949 -0.2407 -0.1710
  111TMC2    O1 1702   0.722   3.385  11.489 -0.1217 -0.3608 -0.5166
  111TMC2    O2 1703   0.287   3.111  11.470  0.1638 -0.6593  0.4736
  111TMC2    O5 1704   0.469   2.982  11.545  0.0608 -0.1870  0.2836
  111TMC2    H5 1705   0.544   2.950  11.491  1.4843  2.9286  0.4198
  112MPD2     C 1706   0.044   3.709  11.057 -0.1534 -0.2040 -0.1704
  112MPD2    C1 1707   0.126   3.660  10.963 -0.0083  0.4639 -0.0576
  112MPD2    C2 1708   0.228   3.567  10.993  0.0633  0.1633 -0.0825
  112MPD2    C3 1709   0.221   3.510  11.118 -0.3524 -0.4112  0.0724
  112MPD2    C4 1710   0.141   3.560  11.212  0.2177 -0.6218  0.0092
  112MPD2    C5 1711   0.053   3.661  11.183 -0.4303 -0.2078  0.0861
  112MPD2     H 1712   0.304   3.535  10.922  1.1240 -0.8200  1.4965
  112MPD2    H1 1713   0.140   3.523  11.314  0.3578 -1.0145 -0.1340
  112MPD2    H2 1714   4.700   3.794  11.054 -1.1284 -1.0339 -1.9133
  112MPD2    H3 1715   4.702   3.695  11.254  1.5482  0.9895  1.5845
  112MPD2     N 1716   0.304   3.400  11.165 -0.1940  0.0509 -0.9542
  112MPD2    H5 1717   0.286   3.359  11.256 -2.3277 -0.8687 -1.7810
  112MPD2    N1 1718   0.137   3.726  10.835  0.0415  0.5095  0.8523
  112MPD2    H7 1719   0.230   3.715  10.796 -0.5981  0.8618 -0.7433
  113MPD2     C 1720   3.402   4.092   1.061 -0.2705  0.2138  0.1075
  113MPD2    C1 1721   3.291   4.112   1.127  0.4890  0.3219  0.2926
  113MPD2    C2 1722   3.196   4.008   1.133  0.1302 -0.2882  0.6360
  113MPD2    C3 1723   3.223   3.894   1.067  1.0628  0.0208  0.4273
  113MPD2    C4 1724   3.344   3.873   0.997  0.5889  0.3571 -0.9546
  113MPD2    C5 1725   3.432   3.977   0.994 -0.3720 -0.2498  0.6751
  113MPD2     H 1726   3.107   4.021   1.193 -0.4414  2.8522 -0.8839
  113MPD2    H1 1727   3.373   3.781   0.948  3.6208  0.8330 -0.0721
  113MPD2    H2 1728   3.484   4.159   1.036 -0.8471  0.2513 -1.6784
  113MPD2    H3 1729   3.513   3.975   0.922 -2.5448 -0.5797 -1.7935
  113MPD2     N 1730   3.132   3.781   1.066  0.1921 -0.3944 -0.7078
  113MPD2    H5 1731   3.162   3.708   1.002  3.4047 -1.0349  1.5317
  113MPD2    N1 1732   3.274   4.237   1.198  0.1658  0.1742 -0.4824
  113MPD2    H7 1733   3.187   4.253   1.248  0.5882  0.5388  0.1397
  114TCq2    C1 1734   3.013   3.774   1.137 -0.0192  0.0749  0.1203
  114TCq2    O2 1735   2.955   3.858   1.206 -0.7168  0.3197  0.8827
  114TCq2    C2 1736   2.942   3.648   1.103 -0.0112  0.4873 -0.0107
  114TCq2    C3 1737   2.814   3.639   1.139 -0.5288  0.3608 -0.4025
  114TCq2    C4 1738   2.747   3.521   1.137  0.3755 -0.4729 -0.1745
  114TCq2    C5 1739   2.819   3.410   1.092 -0.2799  0.5289 -0.0955
  114TCq2    C6 1740   2.947   3.425   1.053  0.2139  0.1437 -0.4685
  114TCq2    C7 1741   3.017   3.540   1.073 -0.8668  0.3391  0.1231
  114TCq2    C8 1742   3.025   3.299   1.040  0.6065  0.4386 -0.1854
  114TCq2    O4 1743   3.147   3.305   1.009  0.1235  0.1731 -0.2889
  114TCq2    C9 1744   2.608   3.515   1.167 -1.3761  0.3418  0.2009
  114TCq2    O5 1745   2.561   3.605   1.242  0.3844  0.5282  0.0244
  114TCq2    O6 1746   2.549   3.408   1.146  0.0646  0.6252 -0.3165
  114TCq2    H2 1747   2.756   3.724   1.174  1.9989  1.6241  0.6600
  114TCq2    H3 1748   2.756   3.323   1.077 -0.6632  0.4202  2.0982
  114TCq2    H4 1749   3.120   3.542   1.042 -0.7381 -1.3283  0.4028
  115TMC2    C1 1750   4.137   0.720  17.669  0.2153 -0.0980 -0.5668
  115TMC2    C2 1751   4.202   0.616   0.049 -0.1643  0.0102 -0.9915
  115TMC2    C3 1752   4.284   0.649   0.155  0.9171  0.0327 -0.7924
  115TMC2    C4 1753   4.170   0.851   0.001  0.1577  0.1470 -0.8393
  115TMC2    C5 1754   4.263   0.876   0.098 -0.2248 -0.1415  0.1988
  115TMC2    C6 1755   4.324   0.778   0.172  0.4553 -0.4515  0.4669
  115TMC2     C 1756   4.039   0.691  17.564  0.8062 -0.0067 -0.0776
  115TMC2     O 1757   4.028   0.575  17.527 -0.7282 -0.1877 -0.1886
  115TMC2     H 1758   4.156   0.518   0.041 -2.9310  1.2174 -0.1446
  115TMC2    H1 1759   4.125   0.935  17.644  1.5985  2.4997  1.8216
  115TMC2    H2 1760   4.371   0.796   0.268  0.9145 -0.7788  0.3017
  115TMC2    C7 1761   4.283   1.015   0.149  0.3533 -0.6637  0.3174
  115TMC2    C8 1762   4.349   0.540   0.221 -0.7722  0.8014  0.0988
  115TMC2    O1 1763   4.287   1.019   0.270 -0.1501  0.3398 -0.0511
  115TMC2    O2 1764   4.376   0.434   0.170 -0.3428  0.4705 -0.2911
  115TMC2    O5 1765   4.352   0.565   0.352 -0.3535 -0.1251  0.4875
  115TMC2    H5 1766   4.295   0.641   0.376  0.2185  0.4665 -0.0244
  116MPD2     C 1767   3.563   0.713  17.398 -0.5095 -0.2406 -0.3878
  116MPD2    C1 1768   3.666   0.648  17.348  0.0124  0.8631 -0.5510
  116MPD2    C2 1769   3.791   0.663  17.405  0.0010 -0.8121 -0.1354
  116MPD2    C3 1770   3.812   0.754  17.512  0.0429 -0.3596 -0.6524
  116MPD2    C4 1771   3.699   0.822  17.560  0.7513  0.6077  0.3420
  116MPD2    C5 1772   3.577   0.800  17.504  0.2883 -0.0702  0.2684
  116MPD2     H 1773   3.876   0.612  17.362 -0.3405 -1.0550 -0.5243
  116MPD2    H1 1774   3.707   0.889  17.645 -2.4202 -0.8720  1.8183
  116MPD2    H2 1775   3.467   0.700  17.350  0.3792 -1.6642 -1.7820
  116MPD2    H3 1776   3.488   0.842  17.548 -0.3790 -0.7912 -0.3910
  116MPD2     N 1777   3.933   0.781  17.572 -0.0253 -0.6893  0.5011
  116MPD2    H5 1778   3.940   0.852  17.645 -1.8833 -1.1376  1.1167
  116MPD2    N1 1779   3.632   0.573  17.236 -0.1724 -0.4463  0.1323
  116MPD2    H7 1780   3.544   0.588  17.187  0.0364 -2.0154 -0.6948
  117TMC2    C1 1781   2.600   2.263  13.887  0.0058 -0.3610  0.1748
  117TMC2    C2 1782   2.613   2.362  13.984  0.1689  0.1308  0.3042
  117TMC2    C3 1783   2.742   2.413  13.995  0.2646 -0.4522 -0.0172
  117TMC2    C4 1784   2.699   2.216  13.810  0.2683  0.1588  0.1376
  117TMC2    C5 1785   2.826   2.269  13.830  0.1188  0.2744  0.1650
  117TMC2    C6 1786   2.846   2.366  13.923  0.5154  0.4769  0.7363
  117TMC2     C 1787   2.474   2.188  13.889 -0.3715 -0.9168 -0.2565
  117TMC2     O 1788   2.479   2.064  13.906 -0.3700  0.3954 -0.0994
  117TMC2     H 1789   2.530   2.399  14.044 -0.2848 -0.9184  0.3338
  117TMC2    H1 1790   2.681   2.149  13.726  0.9457  0.1176  0.0254
  117TMC2    H2 1791   2.947   2.404  13.933  0.9626 -0.4175 -0.3246
  117TMC2    C7 1792   2.929   2.265  13.729  0.5190  0.5891 -0.0458
  117TMC2    C8 1793   2.769   2.485  14.116  0.1120 -0.3661 -0.0627
  117TMC2    O1 1794   3.005   2.362  13.721 -0.3730 -0.5227 -0.0316
  117TMC2    O2 1795   2.865   2.467  14.188 -0.3087  0.6449  0.2381
  117TMC2    O5 1796   2.675   2.586  14.122 -0.1898 -0.0491  0.3523
  117TMC2    H5 1797   2.631   2.591  14.034 -0.6759 -0.2728  0.5798
  118MPD2     C 1798   3.046   1.980  13.517  0.4584 -1.1755  1.0559
  118MPD2    C1 1799   3.045   2.109  13.570 -0.3666 -0.5672  0.0167
  118MPD2    C2 1800   3.137   2.198  13.521 -0.3229 -0.0054  0.7426
  118MPD2    C3 1801   3.241   2.166  13.436  0.9419 -0.7303  1.0283
  118MPD2    C4 1802   3.246   2.035  13.389 -0.1399  0.5468 -0.2087
  118MPD2    C5 1803   3.149   1.939  13.432 -0.9399  0.3272 -0.5670
  118MPD2     H 1804   3.113   2.303  13.534 -0.4936 -0.1635  1.7054
  118MPD2    H1 1805   3.322   1.995  13.322  0.2639 -0.5684  0.9048
  118MPD2    H2 1806   2.959   1.915  13.526 -1.3197  1.2199  0.9744
  118MPD2    H3 1807   3.147   1.838  13.393 -0.1975  0.4282 -0.8768
  118MPD2     N 1808   3.344   2.267  13.418 -0.8246  1.0776 -0.3936
  118MPD2    H5 1809   3.397   2.253  13.333 -0.6214 -0.1457 -0.0718
  118MPD2    N1 1810   2.940   2.146  13.654 -0.3042  0.4242  0.1027
  118MPD2    H7 1811   2.880   2.071  13.688  0.9312  0.0280  1.4524
  119MPD2     C 1812   1.183   3.711  13.189 -0.0980  0.1447  0.1418
  119MPD2    C1 1813   1.043   3.725  13.205 -0.4259 -0.1877  0.2762
  119MPD2    C2 1814   0.966   3.765  13.094  0.4784 -0.2382  0.9146
  119MPD2    C3 1815   1.023   3.753  12.970 -0.4216  0.3084 -0.4150
  119MPD2    C4 1816   1.157   3.736  12.954 -0.4691 -0.3706 -0.4104
  119MPD2    C5 1817   1.237   3.719  13.063  0.5574  0.0492  0.3090
  119MPD2     H 1818   0.859   3.778  13.093  0.3971 -0.8460  1.9749
  119MPD2    H1 1819   1.200   3.749  12.856 -0.9786 -2.7529 -0.9407
  119MPD2    H2 1820   1.245   3.694  13.277  0.6360 -0.5743 -0.5260
  119MPD2    H3 1821   1.343   3.708  13.041  1.2184  1.6667  2.6062
  119MPD2     N 1822   0.944   3.763  12.854  0.5346  0.1126  0.3778
  119MPD2    H5 1823   0.989   3.792  12.767 -0.4316  1.3447  0.2899
  119MPD2    N1 1824   0.993   3.700  13.333  0.2131 -0.1372 -0.2499
  119MPD2    H7 1825   1.052   3.662  13.407  4.2912  1.1163 -2.8694
  120TCq2    C1 1826   0.809   3.751  12.841 -0.4468  0.0684  0.2605
  120TCq2    O2 1827   0.744   3.807  12.749  0.0462  0.5788  0.3799
  120TCq2    C2 1828   0.740   3.646  12.922  1.0227 -0.2490 -0.3781
  120TCq2    C3 1829   0.794   3.526  12.952 -0.0788 -0.1823 -0.0290
  120TCq2    C4 1830   0.733   3.447  13.047 -0.5537  0.0726  0.5486
  120TCq2    C5 1831   0.621   3.484  13.112  0.4560  0.8293 -0.2130
  120TCq2    C6 1832   0.564   3.608  13.080 -0.6914  0.4066  0.7183
  120TCq2    C7 1833   0.621   3.687  12.983  0.0217  0.1012 -0.1684
  120TCq2    C8 1834   0.450   3.663  13.155 -0.4295  0.3905  0.5453
  120TCq2    O4 1835   0.396   3.765  13.114 -0.5114 -0.7552  0.6668
  120TCq2    C9 1836   0.792   3.321  13.084 -0.0172  0.3000 -0.2680
  120TCq2    O5 1837   0.862   3.261  12.999 -0.7295 -0.0572  0.2066
  120TCq2    O6 1838   0.772   3.277  13.200  0.5644  0.1615  0.1196
  120TCq2    H2 1839   0.873   3.476  12.897  1.4896 -0.3484  2.3306
  120TCq2    H3 1840   0.574   3.410  13.176 -0.5061  0.3419 -1.4695
  120TCq2    H4 1841   0.575   3.784  12.964  0.3952  0.2253 -0.4414
  121TMC2    C1 1842   2.282   0.391  14.094 -0.0254  0.4749  0.1807
  121TMC2    C2 1843   2.274   0.253  14.137 -0.2200 -0.0541  0.0668
  121TMC2    C3 1844   2.150   0.211  14.156  0.1922 -0.0988  0.7497
  121TMC2    C4 1845   2.186   0.482  14.081  0.9010 -0.2697 -0.4966
  121TMC2    C5 1846   2.061   0.427  14.105  0.3691 -0.1939 -0.3952
  121TMC2    C6 1847   2.041   0.295  14.133  0.3611  1.2052  0.3452
  121TMC2     C 1848   2.400   0.421  14.015  0.4937 -0.0886  0.4397
  121TMC2     O 1849   2.496   0.352  14.040  0.5083  0.4077 -0.0469
  121TMC2     H 1850   2.359   0.186  14.131 -1.1405 -1.3186  1.2510
  121TMC2    H1 1851   2.209   0.583  14.049  0.6236 -0.3714 -1.0241
  121TMC2    H2 1852   1.940   0.264  14.156  0.5758  0.2968  0.0403
  121TMC2    C7 1853   1.961   0.504  14.036  0.0547  0.0562 -0.1996
  121TMC2    C8 1854   2.118   0.073  14.141 -0.0103 -0.4835 -0.3324
  121TMC2    O1 1855   1.959   0.629  14.051  0.2327  0.5177  0.0182
  121TMC2    O2 1856   2.016   0.042  14.076  0.3661 -0.3336 -0.1038
  121TMC2    O5 1857   2.227   0.000  14.166 -0.1173 -0.5137  0.2073
  121TMC2    H5 1858   2.290   0.053  14.220  2.1355  0.0994 -3.0272
  122MPD2     C 1859   2.590   0.514  13.820  0.2924 -0.5454  0.6360
  122MPD2    C1 1860   2.457   0.542  13.806  0.4676  0.4909 -0.1363
  122MPD2    C2 1861   2.416   0.629  13.710 -0.3785 -0.6962 -0.5138
  122MPD2    C3 1862   2.501   0.681  13.611  0.1131  0.9696 -0.1602
  122MPD2    C4 1863   2.629   0.653  13.629 -0.5173 -0.3634  0.5637
  122MPD2    C5 1864   2.679   0.586  13.742  0.1962  0.4682 -0.3580
  122MPD2     H 1865   2.309   0.648  13.714  0.4478  3.2916  2.3964
  122MPD2    H1 1866   2.697   0.711  13.569 -0.8451  1.2013  1.7088
  122MPD2    H2 1867   2.638   0.439  13.883  3.0463  0.5473 -0.1402
  122MPD2    H3 1868   2.787   0.574  13.749  0.0019 -1.1249 -0.0171
  122MPD2     N 1869   2.455   0.751  13.501  0.1965 -1.0693 -0.6595
  122MPD2    H5 1870   2.525   0.788  13.438  0.9289 -0.3554  0.5713
  122MPD2    N1 1871   2.362   0.488  13.897 -0.1682 -0.0885  0.8336
  122MPD2    H7 1872   2.265   0.508  13.879 -0.1793 -1.0277 -0.1485
  123MPD2     C 1873   0.281   3.260   9.352 -0.6256 -0.1933  0.2588
  123MPD2    C1 1874   0.356   3.146   9.354  0.1292 -0.0347  0.2084
  123MPD2    C2 1875   0.494   3.159   9.327 -0.2761 -0.9389 -0.6023
  123MPD2    C3 1876   0.552   3.276   9.296  0.0823 -0.1796 -0.2804
  123MPD2    C4 1877   0.478   3.393   9.302  0.0660 -0.1401 -0.3727
  123MPD2    C5 1878   0.348   3.381   9.337 -0.0459 -0.1360  0.3449
  123MPD2     H 1879   0.550   3.069   9.304 -0.8594 -1.1637 -1.1554
  123MPD2    H1 1880   0.515   3.493   9.282 -1.0523  0.2833 -0.3059
  123MPD2    H2 1881   0.173   3.257   9.350 -0.7249  3.2265  1.7647
  123MPD2    H3 1882   0.292   3.474   9.340  2.4390  1.3952 -0.6600
  123MPD2     N 1883   0.690   3.277   9.276  0.1070 -0.5241 -0.1375
  123MPD2    H5 1884   0.731   3.186   9.257 -0.7920 -0.9583  0.0005
  123MPD2    N1 1885   0.293   3.019   9.382 -0.1503  0.0016  0.3075
  123MPD2    H7 1886   0.195   3.028   9.406 -0.9321 -0.5052 -2.6550
  124TCq2    C1 1887   0.777   3.381   9.280 -0.6331  0.2015 -0.2169
  124TCq2    O2 1888   0.750   3.500   9.285 -0.3305  0.3682 -0.5249
  124TCq2    C2 1889   0.912   3.343   9.264  0.2437  1.0116  0.2880
  124TCq2    C3 1890   0.980   3.390   9.159  0.0902 -0.6459 -0.2620
  124TCq2    C4 1891   1.080   3.312   9.101 -0.2805  0.2154  0.8160
  124TCq2    C5 1892   1.126   3.199   9.173  0.1152  0.3498  0.1115
  124TCq2    C6 1893   1.059   3.154   9.280  0.1073  0.5303  0.1883
  124TCq2    C7 1894   0.952   3.226   9.323  0.0885 -0.2395 -0.4985
  124TCq2    C8 1895   1.073   3.025   9.349  0.8058 -0.5353  0.1551
  124TCq2    O4 1896   0.983   2.988   9.425 -0.5185 -0.7796  0.1075
  124TCq2    C9 1897   1.153   3.354   8.982 -0.0240 -0.4151 -0.6065
  124TCq2    O5 1898   1.130   3.473   8.937 -0.3847 -0.8769  0.0541
  124TCq2    O6 1899   1.223   3.261   8.930  0.2304  0.3696 -0.0868
  124TCq2    H2 1900   0.948   3.476   9.100 -0.7447 -0.3560  0.6179
  124TCq2    H3 1901   1.208   3.137   9.137  1.7671  1.3144  2.2142
  124TCq2    H4 1902   0.887   3.195   9.404 -0.6214 -2.9031 -2.0770
  125TMC2    C1 1903   1.655   0.262   8.797  0.6416 -0.2157 -0.0850
  125TMC2    C2 1904   1.578   0.362   8.755  0.8626  0.1082 -0.0195
  125TMC2    C3 1905   1.566   0.382   8.624  0.0549 -0.0777  0.0141
  125TMC2    C4 1906   1.724   0.175   8.706 -0.7971 -0.1686  0.0340
  125TMC2    C5 1907   1.720   0.214   8.574  0.5635 -0.3343 -0.2011
  125TMC2    C6 1908   1.640   0.321   8.531  0.3022 -0.3229 -0.2743
  125TMC2     C 1909   1.643   0.212   8.934 -0.4019 -0.0214  0.0724
  125TMC2     O 1910   1.714   0.120   8.966  0.1616  0.5825 -0.7634
  125TMC2     H 1911   1.522   0.424   8.823 -0.6695 -1.2264 -0.0706
  125TMC2    H1 1912   1.793   0.104   8.750  1.4865 -0.4138 -3.9515
  125TMC2    H2 1913   1.616   0.344   8.428  0.7999  0.5844 -0.1874
  125TMC2    C7 1914   1.823   0.182   8.475 -1.0687 -0.0756  0.4559
  125TMC2    C8 1915   1.468   0.476   8.582  0.2840  0.3795 -0.1053
  125TMC2    O1 1916   1.836   0.263   8.381  0.0592 -0.0263 -0.2740
  125TMC2    O2 1917   1.483   0.546   8.478 -0.1666 -0.3884  0.1682
  125TMC2    O5 1918   1.353   0.460   8.647 -0.3372 -0.3650  0.4724
  125TMC2    H5 1919   1.354   0.378   8.699 -0.7111 -0.1906  0.7533
  126MPD1     C 1920   1.453   0.158   9.407 -0.5562  0.2698 -0.1165
  126MPD1    C1 1921   1.455   0.292   9.377  0.6388 -0.1857 -0.3268
  126MPD1    C2 1922   1.490   0.336   9.248  0.7216 -0.2571 -0.0356
  126MPD1    C3 1923   1.539   0.243   9.154  0.0021  0.3574  0.0127
  126MPD1    C4 1924   1.549   0.111   9.185 -1.1540  0.0528 -0.3674
  126MPD1    C5 1925   1.504   0.073   9.311 -0.4742  0.3338  0.3548
  126MPD1     H 1926   1.494   0.441   9.223  3.2999 -0.4900 -0.5615
  126MPD1    H1 1927   1.576   0.030   9.118  0.0751 -1.1514  1.5938
  126MPD1    H2 1928   1.427   0.111   9.501 -1.0970  2.0729  0.6247
  126MPD1    H3 1929   1.499   4.690   9.332 -0.9184  0.5105  1.1374
  126MPD1     N 1930   1.572   0.289   9.025 -0.0648 -0.0360 -0.1385
  126MPD1    H5 1931   1.537   0.377   8.991 -2.1127 -1.2523 -1.1944
  126MPD1    N1 1932   1.366   0.372   9.459  0.0661 -0.3236  0.5847
  126MPD1    H6 1933   1.384   0.341   9.554  0.8717 -0.2094  0.4684
  126MPD1    H7 1934   1.381   0.473   9.451  2.0788 -0.5790  1.1519
  127MPD2     C 1935   2.394   3.087   8.940  0.4157 -0.4998  0.8608
  127MPD2    C1 1936   2.359   3.122   9.070 -0.3039  0.0768 -0.3377
  127MPD2    C2 1937   2.447   3.194   9.148  0.1229 -0.6297  0.0657
  127MPD2    C3 1938   2.563   3.231   9.097 -0.1010  0.2110 -0.6849
  127MPD2    C4 1939   2.605   3.184   8.978  0.2502  0.8021 -0.7944
  127MPD2    C5 1940   2.520   3.111   8.896 -0.2922  0.2677 -0.2678
  127MPD2     H 1941   2.430   3.219   9.252 -0.3942 -0.3651 -0.0819
  127MPD2    H1 1942   2.692   3.223   8.926  1.1836 -0.6719 -0.3330
  127MPD2    H2 1943   2.321   3.026   8.887  0.9006 -0.1572 -0.2131
  127MPD2    H3 1944   2.553   3.063   8.805 -1.1210  1.0057 -0.9555
  127MPD2     N 1945   2.647   3.326   9.168 -0.5944 -0.3086  0.2890
  127MPD2    H5 1946   2.602   3.371   9.246 -0.6693 -1.1082  0.7086
  127MPD2    N1 1947   2.230   3.074   9.107  0.1073  0.2944  0.1532
  127MPD2    H7 1948   2.178   3.016   9.042 -1.5842 -0.2135  1.9334
  128TCq2    C1 1949   2.159   3.114   9.223 -0.1676 -0.1256  0.1683
  128TCq2    O2 1950   2.195   3.195   9.308 -0.4533 -0.3883 -0.1138
  128TCq2    C2 1951   2.031   3.046   9.242 -0.1191 -1.3111  0.0460
  128TCq2    C3 1952   1.997   3.071   9.370  0.1148 -0.4315 -0.1808
  128TCq2    C4 1953   1.941   2.975   9.448 -0.0028  0.2796 -0.2093
  128TCq2    C5 1954   1.927   2.848   9.400 -0.2419 -0.4575 -0.2409
  128TCq2    C6 1955   1.972   2.815   9.274 -0.7054  0.5133  0.0594
  128TCq2    C7 1956   2.020   2.917   9.192 -0.5060 -0.2230 -0.5672
  128TCq2    C8 1957   1.899   2.705   9.207 -0.1150 -0.1216 -0.1643
  128TCq2    O4 1958   1.879   2.699   9.086 -0.7088  0.0474 -0.0831
  128TCq2    C9 1959   1.880   3.005   9.574  0.4363 -0.0043  0.1132
  128TCq2    O5 1960   1.844   2.909   9.647 -1.1258  0.4240 -0.0116
  128TCq2    O6 1961   1.876   3.124   9.607  0.7029  0.4554  0.7680
  128TCq2    H2 1962   2.003   3.171   9.413 -2.2999 -0.4173  0.1455
  128TCq2    H3 1963   1.885   2.781   9.474  2.3126  0.3377  1.9592
  128TCq2    H4 1964   2.041   2.892   9.089 -1.0297 -0.3598 -0.6386
  129MPD2     C 1965   1.548   0.721   1.256  0.0167 -0.3215  0.1428
  129MPD2    C1 1966   1.459   0.632   1.320 -0.2921 -0.3106 -0.2005
  129MPD2    C2 1967   1.333   0.627   1.262  0.3139 -0.3327 -0.0844
  129MPD2    C3 1968   1.294   0.689   1.150  0.3497 -0.2428  0.0142
  129MPD2    C4 1969   1.380   0.779   1.089 -0.0053  0.2610  0.0865
  129MPD2    C5 1970   1.510   0.789   1.147 -0.0185 -0.2667 -0.5769
  129MPD2     H 1971   1.261   0.565   1.315 -0.2561  1.9736  1.8353
  129MPD2    H1 1972   1.363   0.824   0.992 -1.0252  1.6740  0.9190
  129MPD2    H2 1973   1.641   0.754   1.300 -0.5016  0.2672  0.8101
  129MPD2    H3 1974   1.580   0.862   1.107  2.0864 -0.4946  2.6952
  129MPD2     N 1975   1.160   0.669   1.102 -0.4356 -0.7142 -0.1840
  129MPD2    H5 1976   1.101   0.596   1.142 -1.6553  0.3503 -0.0518
  129MPD2    N1 1977   1.482   0.577   1.447  0.2494  0.0771  0.4548
  129MPD2    H7 1978   1.403   0.523   1.480  2.2029 -1.6107  2.3508
  130TCq2    C1 1979   1.597   0.561   1.514 -0.5057 -0.3947 -0.8441
  130TCq2    O2 1980   1.708   0.606   1.483  0.0911 -0.0009  0.4358
  130TCq2    C2 1981   1.586   0.469   1.627 -0.6990 -0.5179 -0.2167
  130TCq2    C3 1982   1.697   0.400   1.669 -0.6485 -0.3957 -0.9407
  130TCq2    C4 1983   1.703   0.358   1.799  0.3473 -0.5480 -0.2804
  130TCq2    C5 1984   1.596   0.366   1.882 -0.3742  0.0342  0.2593
  130TCq2    C6 1985   1.486   0.434   1.834  0.0392 -0.1975  0.2015
  130TCq2    C7 1986   1.474   0.486   1.703 -0.0287 -0.2176  0.2864
  130TCq2    C8 1987   1.362   0.373   1.873 -0.7848  0.0707  0.4364
  130TCq2    O4 1988   1.293   0.329   1.784 -0.1007  0.6273  0.0943
  130TCq2    C9 1989   1.821   0.288   1.846  0.0247 -0.4157 -0.3128
  130TCq2    O5 1990   1.926   0.342   1.801  0.3192 -0.4481  0.7813
  130TCq2    O6 1991   1.804   0.237   1.965  0.2730 -1.1357  0.0570
  130TCq2    H2 1992   1.778   0.390   1.597  2.0956 -0.1381  2.1414
  130TCq2    H3 1993   1.605   0.328   1.983  1.4346  0.3976  0.2325
  130TCq2    H4 1994   1.390   0.551   1.684  0.4509  0.8861  2.0147
  131MPD2     C 1995   0.797   2.450   9.884  0.5761 -0.7015 -0.4729
  131MPD2    C1 1996   0.802   2.557   9.791 -0.5616 -0.8552  0.8359
  131MPD2    C2 1997   0.695   2.575   9.706 -0.8237  0.0258  0.2866
  131MPD2    C3 1998   0.581   2.499   9.714 -0.1455 -0.3392  0.1398
  131MPD2    C4 1999   0.576   2.401   9.813 -0.4189  0.2412  0.5881
  131MPD2    C5 2000   0.680   2.384   9.897  0.8580 -0.3484 -0.3321
  131MPD2     H 2001   0.695   2.651   9.629  2.0907  0.1775  0.4306
  131MPD2    H1 2002   0.486   2.343   9.830 -0.9596  0.9661  0.2189
  131MPD2    H2 2003   0.864   2.437   9.969  2.2864  1.6899 -1.4468
  131MPD2    H3 2004   0.670   2.316   9.981  1.4307 -1.0771 -0.8523
  131MPD2     N 2005   0.474   2.541   9.635 -0.5493  0.1587  0.3057
  131MPD2    H5 2006   0.485   2.633   9.593  1.3594  0.4799  1.5245
  131MPD2    N1 2007   0.925   2.635   9.794 -0.0106 -0.6447  0.1726
  131MPD2    H7 2008   0.991   2.606   9.865  2.5884 -1.1853 -2.4658
  132TCq2    C1 2009   1.076   3.185   9.716 -0.0166 -0.5837  0.9392
  132TCq2    O2 2010   0.993   3.233   9.796 -0.7565  0.0964  0.8080
  132TCq2    C2 2011   1.121   3.056   9.744  0.3593 -0.0508 -0.1144
  132TCq2    C3 2012   1.253   3.023   9.721 -0.2949  0.0001  0.3450
  132TCq2    C4 2013   1.272   2.885   9.717  0.3217 -0.5901 -0.3144
  132TCq2    C5 2014   1.175   2.788   9.730  0.7975 -0.4213 -0.0054
  132TCq2    C6 2015   1.050   2.833   9.765 -0.5546  0.4996 -0.5693
  132TCq2    C7 2016   1.024   2.967   9.769 -0.2303  0.0845  0.3974
  132TCq2    C8 2017   0.935   2.755   9.727 -0.4746  0.1457  0.3132
  132TCq2    O4 2018   0.852   2.811   9.660 -0.1058  0.2914  0.8168
  132TCq2    C9 2019   1.405   2.842   9.695 -0.2269  0.2482  0.6535
  132TCq2    O5 2020   1.490   2.933   9.656  0.2830 -0.0562  0.6414
  132TCq2    O6 2021   1.432   2.733   9.742  0.5985  0.1942  0.0751
  132TCq2    H2 2022   1.333   3.096   9.715 -0.7050  0.2139 -2.4578
  132TCq2    H3 2023   1.193   2.682   9.719 -0.8474 -0.6921 -0.1098
  132TCq2    H4 2024   0.920   2.997   9.773 -0.1699  0.4788 -1.1412
  133MPD2     C 2025   0.276   2.830   8.933  0.0724  0.1632  0.1730
  133MPD2    C1 2026   0.169   2.826   9.017 -0.1882 -0.5572  0.0661
  133MPD2    C2 2027   0.097   2.943   9.036  0.6114  0.3127  0.0109
  133MPD2    C3 2028   0.142   3.066   8.987 -0.1015  0.0102  0.9276
  133MPD2    C4 2029   0.242   3.063   8.892  0.4934 -0.2458  0.4190
  133MPD2    C5 2030   0.311   2.944   8.861  0.1097  0.1597 -0.0655
  133MPD2     H 2031   0.009   2.949   9.099  1.4418 -1.4632  1.3619
  133MPD2    H1 2032   0.275   3.147   8.833  0.9740 -0.2022  0.7464
  133MPD2    H2 2033   0.317   2.732   8.912  1.7527  0.8280  0.3109
  133MPD2    H3 2034   0.389   2.942   8.787 -0.3715 -0.4706 -0.5577
  133MPD2     N 2035   0.084   3.193   9.015 -0.4539  0.3020  0.1031
  133MPD2    H5 2036   0.137   3.269   8.974 -0.3007  0.6311  0.9110
  133MPD2    N1 2037   0.145   2.705   9.088  0.3139  0.0023  0.3995
  133MPD2    H7 2038   0.217   2.633   9.088 -0.4799 -0.7800  1.4424
  134TCq2    C1 2039   0.040   2.681   9.167  0.2628 -0.3715 -0.0816
  134TCq2    O2 2040   4.673   2.754   9.198 -0.1277 -0.8222  0.2975
  134TCq2    C2 2041   0.013   2.543   9.187  0.9505 -0.4922  0.1461
  134TCq2    C3 2042   0.109   2.454   9.156 -0.2709 -0.1725 -0.0131
  134TCq2    C4 2043   0.105   2.337   9.222 -0.2026 -0.4402  0.2829
  134TCq2    C5 2044   0.014   2.299   9.314 -0.7412  0.3193 -0.7533
  134TCq2    C6 2045   4.642   2.393   9.340  0.0374 -0.0395  0.1658
  134TCq2    C7 2046   4.640   2.521   9.285 -0.1758 -0.8532 -0.4751
  134TCq2    C8 2047   4.526   2.354   9.430 -0.8710  0.6252  0.8630
  134TCq2    O4 2048   4.543   2.253   9.499  0.2401  0.4628  0.2741
  134TCq2    C9 2049   0.206   2.245   9.176 -0.1946 -0.7333 -0.9792
  134TCq2    O5 2050   0.276   2.276   9.071  0.2709  0.2710 -0.0210
  134TCq2    O6 2051   0.211   2.129   9.222 -0.2073  0.3255  0.3130
  134TCq2    H2 2052   0.164   2.467   9.064  0.3254 -1.5494  0.1579
  134TCq2    H3 2053   0.019   2.206   9.368 -0.3158  1.1179  0.5887
  134TCq2    H4 2054   4.569   2.594   9.320 -0.4579 -0.9658 -0.8173
  135MPD2     C 2055   1.946   0.439   8.751  0.0212  0.4652 -0.0473
  135MPD2    C1 2056   1.965   0.402   8.884 -0.3425  0.0611 -0.3285
  135MPD2    C2 2057   2.050   0.297   8.907  0.2638  0.0656  0.1212
  135MPD2    C3 2058   2.127   0.245   8.805 -0.0401 -0.6028  0.0697
  135MPD2    C4 2059   2.117   0.295   8.675 -0.5011  0.7083  0.2644
  135MPD2    C5 2060   2.017   0.382   8.654  0.0714 -0.0625 -0.2269
  135MPD2     H 2061   2.075   0.272   9.009 -2.1409  2.2338  1.2340
  135MPD2    H1 2062   2.163   0.244   8.591 -0.5775 -0.3079  0.8405
  135MPD2    H2 2063   1.877   0.519   8.725  2.1145  1.7698 -1.6198
  135MPD2    H3 2064   1.989   0.403   8.551  0.2775 -0.2043 -0.3131
  135MPD2     N 2065   2.236   0.155   8.829  0.6663  0.4492 -0.0537
  135MPD2    H5 2066   2.300   0.139   8.752  1.0712  0.6135  0.2527
  135MPD2    N1 2067   1.890   0.451   8.997  0.5833  0.0636 -0.1890
  135MPD2    H7 2068   1.907   0.420   9.092 -0.8827  0.7002  0.2740
  136TCq2    C1 2069   1.801   0.551   8.981 -0.3104 -0.3988 -0.0442
  136TCq2    O2 2070   1.747   0.598   8.883 -0.6621  0.1921 -0.1585
  136TCq2    C2 2071   1.753   0.618   9.102  0.0495  0.3084 -0.2760
  136TCq2    C3 2072   1.648   0.703   9.087 -0.2883  0.0153  0.0128
  136TCq2    C4 2073   1.574   0.740   9.190  0.1592  0.6985  0.0621
  136TCq2    C5 2074   1.609   0.704   9.313 -0.3614 -0.3805 -0.0163
  136TCq2    C6 2075   1.724   0.632   9.330  0.2344  0.3891 -0.8742
  136TCq2    C7 2076   1.796   0.586   9.227  0.2311  0.7871 -0.6126
  136TCq2    C8 2077   1.752   0.586   9.467 -0.6621 -0.4028 -0.5525
  136TCq2    O4 2078   1.724   0.668   9.551 -0.2824 -0.0278 -0.4377
  136TCq2    C9 2079   1.453   0.812   9.171 -0.7868 -0.9971 -0.4855
  136TCq2    O5 2080   1.416   0.823   9.052 -0.0223  0.3867 -0.6733
  136TCq2    O6 2081   1.382   0.834   9.271 -0.1294  0.0317  0.5978
  136TCq2    H2 2082   1.616   0.729   8.987 -1.1953  0.6278  0.4550
  136TCq2    H3 2083   1.554   0.734   9.401  0.0516  2.2471 -0.6360
  136TCq2    H4 2084   1.883   0.527   9.254  0.8579  0.8247 -2.5629
  137MPD2     C 2085   1.659   2.905   9.009  0.6749  0.0220 -0.1989
  137MPD2    C1 2086   1.738   2.974   8.920 -0.2861  0.5892 -0.2193
  137MPD2    C2 2087   1.789   3.094   8.962  0.3087 -0.2478  0.1717
  137MPD2    C3 2088   1.771   3.144   9.089 -0.7487  0.5027 -0.3749
  137MPD2    C4 2089   1.704   3.065   9.182  0.2473  0.0158  0.0172
  137MPD2    C5 2090   1.645   2.946   9.132  0.4241 -0.2233 -0.2322
  137MPD2     H 2091   1.834   3.164   8.893  1.9147 -1.7338 -0.2708
  137MPD2    H1 2092   1.683   3.090   9.286 -2.1896 -1.1949 -0.1851
  137MPD2    H2 2093   1.607   2.815   8.979 -0.7380  1.2412 -1.3691
  137MPD2    H3 2094   1.575   2.893   9.196  2.1951  0.1398  1.9975
  137MPD2     N 2095   1.829   3.262   9.130  0.2860 -0.3551 -0.2591
  137MPD2    H5 2096   1.888   3.319   9.069 -0.0267 -0.2431 -0.4550
  137MPD2    N1 2097   1.741   2.931   8.787  0.4267 -0.2400  0.6554
  137MPD2    H7 2098   1.707   2.836   8.778  2.0454 -0.7069 -0.5905
  138TCq2    C1 2099   1.805   2.988   8.676 -0.3081  0.3227 -0.7054
  138TCq2    O2 2100   1.870   3.087   8.681 -0.5173 -0.0780 -0.0769
  138TCq2    C2 2101   1.779   2.941   8.548  0.1493  0.3363  0.1189
  138TCq2    C3 2102   1.654   2.884   8.529 -0.7246  0.0471 -0.1366
  138TCq2    C4 2103   1.594   2.907   8.408  0.1373  0.0119  0.1612
  138TCq2    C5 2104   1.642   2.973   8.298 -0.8765 -0.4567 -0.5971
  138TCq2    C6 2105   1.765   3.029   8.321 -0.2027 -0.1715 -0.5534
  138TCq2    C7 2106   1.830   3.016   8.449  0.1383  0.3494  0.2172
  138TCq2    C8 2107   1.753   3.170   8.284  0.2067 -0.1522  1.0762
  138TCq2    O4 2108   1.700   3.201   8.175 -0.3113  0.3300  0.0879
  138TCq2    C9 2109   1.466   2.847   8.394  0.2425  0.7116 -0.2438
  138TCq2    O5 2110   1.436   2.762   8.482  0.4498  0.3536  0.1527
  138TCq2    O6 2111   1.401   2.867   8.283 -0.2399 -0.2291 -0.4434
  138TCq2    H2 2112   1.609   2.829   8.611  0.3088  1.6408  1.5195
  138TCq2    H3 2113   1.578   2.996   8.213  0.2759 -0.1840 -1.3867
  138TCq2    H4 2114   1.931   3.056   8.453  0.4536 -0.3890 -0.2663
  139TMC2    C1 2115   2.517   3.124  12.979  0.1246  0.0077  0.3414
  139TMC2    C2 2116   2.483   3.121  12.845 -1.2173 -0.0760  0.0082
  139TMC2    C3 2117   2.357   3.132  12.800  0.0325 -0.6017 -0.0533
  139TMC2    C4 2118   2.418   3.152  13.075 -0.0595  0.6846  0.7746
  139TMC2    C5 2119   2.294   3.173  13.019  0.6854 -0.1066  0.7230
  139TMC2    C6 2120   2.259   3.154  12.892 -0.0359  0.2376  0.1544
  139TMC2     C 2121   2.633   3.051  13.027  0.9086 -0.8020  0.6673
  139TMC2     O 2122   2.725   3.032  12.955  0.1995 -0.7747 -0.3154
  139TMC2     H 2123   2.558   3.092  12.773 -1.1453 -0.2253  0.1431
  139TMC2    H1 2124   2.443   3.180  13.176 -3.2929 -0.9507  2.0410
  139TMC2    H2 2125   2.155   3.151  12.862 -0.3429  0.6096  1.1920
  139TMC2    C7 2126   2.197   3.228  13.116  0.3005  0.5960  0.5950
  139TMC2    C8 2127   2.333   3.060  12.669 -0.9491  1.0411  0.1876
  139TMC2    O1 2128   2.118   3.311  13.075 -0.6232  0.2663 -0.2610
  139TMC2    O2 2129   2.399   2.961  12.631 -0.8094  0.5541 -0.2952
  139TMC2    O5 2130   2.202   3.076  12.634 -0.0764  0.2680 -0.3752
  139TMC2    H5 2131   2.172   3.165  12.663  0.0982  0.4662 -0.7999
  140MPD2     C 2132   2.704   2.923  13.357  0.2148 -0.1036  1.0256
  140MPD2    C1 2133   2.712   2.926  13.219 -0.1581 -0.1301 -0.0982
  140MPD2    C2 2134   2.814   2.850  13.164  1.0662 -0.1654  0.0108
  140MPD2    C3 2135   2.895   2.766  13.240  0.1258  0.4824  0.5842
  140MPD2    C4 2136   2.882   2.777  13.376  0.0550  0.0164  0.1682
  140MPD2    C5 2137   2.795   2.857  13.435 -0.1588 -0.0161 -0.7483
  140MPD2     H 2138   2.834   2.845  13.057  1.3288 -0.3927  0.0704
  140MPD2    H1 2139   2.943   2.723  13.448 -1.0647 -0.1315  1.0002
  140MPD2    H2 2140   2.629   2.987  13.404 -1.0237 -0.7330 -0.1034
  140MPD2    H3 2141   2.795   2.876  13.542 -1.2377 -1.0519 -0.5583
  140MPD2     N 2142   2.994   2.687  13.174 -0.2507  0.0346  0.4068
  140MPD2    H5 2143   2.994   2.686  13.073  1.5542 -4.7817  0.4608
  140MPD2    N1 2144   2.619   3.008  13.156 -0.4130  0.5066 -0.4019
  140MPD2    H7 2145   2.540   3.030  13.216  0.7009  0.2806  1.1538
  141TCq2    C1 2146   3.079   4.605  14.088  0.0635 -0.1410  0.5918
  141TCq2    O2 2147   3.170   4.630  14.008  0.5235 -0.0101  0.0875
  141TCq2    C2 2148   3.037   0.005  14.148  0.1761 -0.4222  0.0395
  141TCq2    C3 2149   2.904   0.027  14.187  0.5333 -0.7632 -0.0500
  141TCq2    C4 2150   2.866   0.154  14.231 -0.0746 -0.3935 -0.2799
  141TCq2    C5 2151   2.955   0.258  14.214 -0.4902 -0.6451 -0.4191
  141TCq2    C6 2152   3.088   0.231  14.188 -0.9778  0.0268  1.0615
  141TCq2    C7 2153   3.133   0.106  14.145 -0.1836 -0.6186 -0.4794
  141TCq2    C8 2154   3.180   0.342  14.176 -0.1115 -0.0231  0.0495
  141TCq2    O4 2155   3.125   0.448  14.154  0.0874 -1.0887  1.0290
  141TCq2    C9 2156   2.734   0.177  14.272 -0.1396  0.2164 -0.1732
  141TCq2    O5 2157   2.695   0.292  14.282  0.1181  0.7327  0.2674
  141TCq2    O6 2158   2.667   0.068  14.282  0.0408 -0.1145 -0.4892
  141TCq2    H2 2159   2.832   4.669  14.176 -0.5474  0.0145  1.4282
  141TCq2    H3 2160   2.926   0.352  14.259  1.2473 -0.7973  1.0350
  141TCq2    H4 2161   3.239   0.082  14.154 -0.0979 -0.0115  0.1452
  142MPD2     C 2162   0.810   1.827  10.104  0.2315  0.0981  0.1824
  142MPD2    C1 2163   0.688   1.852  10.043  0.6726 -0.1784 -0.2851
  142MPD2    C2 2164   0.677   1.932   9.932  0.3524  0.2091 -0.2501
  142MPD2    C3 2165   0.797   1.987   9.882  0.2138  0.0063  0.7602
  142MPD2    C4 2166   0.919   1.941   9.932 -0.8296 -0.2501  0.0075
  142MPD2    C5 2167   0.921   1.868  10.045 -0.0067 -0.1845  0.3443
  142MPD2     H 2168   0.581   1.953   9.885 -0.1009  1.6838  1.3858
  142MPD2    H1 2169   1.013   1.990   9.909 -1.9932  2.4576  0.9469
  142MPD2    H2 2170   0.817   1.760  10.189 -3.0290 -3.4211 -2.3670
  142MPD2    H3 2171   1.012   1.840  10.097 -0.9871 -1.5818  1.3051
  142MPD2     N 2172   0.786   2.064   9.765 -0.1229  0.0832  0.5000
  142MPD2    H5 2173   0.699   2.071   9.713  0.9680 -1.0942 -1.5019
  142MPD2    N1 2174   0.580   1.784  10.109  0.0439 -0.1915  0.5089
  142MPD2    H7 2175   0.608   1.736  10.193  0.3490 -1.5261 -0.3580
  143TCq2    C1 2176   0.887   2.131   9.712 -0.0824  0.0064  0.2959
  143TCq2    O2 2177   0.987   2.170   9.774 -0.0885 -0.2757 -0.2291
  143TCq2    C2 2178   0.836   2.206   9.594 -0.7224  0.1118  0.1706
  143TCq2    C3 2179   0.729   2.159   9.527 -0.0945  0.3542 -0.4521
  143TCq2    C4 2180   0.681   2.241   9.425  0.4935 -0.4473 -0.2517
  143TCq2    C5 2181   0.742   2.364   9.394  0.3604  0.0879  0.4936
  143TCq2    C6 2182   0.853   2.395   9.466 -0.2957  0.0483  0.2431
  143TCq2    C7 2183   0.900   2.318   9.570 -0.0871 -0.6366 -0.6875
  143TCq2    C8 2184   0.930   2.513   9.427 -0.4401 -0.2907 -0.0037
  143TCq2    O4 2185   0.873   2.592   9.360 -0.2966  0.0798 -0.6405
  143TCq2    C9 2186   0.571   2.202   9.345  0.0508  0.0445 -0.2470
  143TCq2    O5 2187   0.541   2.076   9.347 -0.0653  0.3136  0.0378
  143TCq2    O6 2188   0.546   2.281   9.250 -0.4536 -0.2031  0.4941
  143TCq2    H2 2189   0.682   2.061   9.528 -0.7056  0.6397 -1.4007
  143TCq2    H3 2190   0.704   2.428   9.316 -2.7217 -3.1737 -0.6967
  143TCq2    H4 2191   0.965   2.361   9.645 -1.0399  2.8232 -1.8312
  144MPD2     C 2192   3.144   3.093   0.525  0.2631  0.1100 -0.2512
  144MPD2    C1 2193   3.202   2.978   0.587  0.5889  0.6745 -0.4720
  144MPD2    C2 2194   3.323   2.995   0.657  0.2384  0.2699  0.0989
  144MPD2    C3 2195   3.386   3.121   0.663  0.6064 -0.8170  0.7658
  144MPD2    C4 2196   3.322   3.225   0.598 -0.0040 -0.2758  0.1541
  144MPD2    C5 2197   3.205   3.216   0.531 -0.8800 -0.0770 -0.3858
  144MPD2     H 2198   3.370   2.914   0.712 -0.1157 -0.3466 -0.5034
  144MPD2    H1 2199   3.367   3.324   0.607  0.2375 -0.3404 -0.3971
  144MPD2    H2 2200   3.062   3.086   0.454  0.5634 -3.0025 -0.2940
  144MPD2    H3 2201   3.157   3.297   0.478 -2.2330  0.7128  2.0640
  144MPD2     N 2202   3.510   3.152   0.729  0.7798  0.2412  0.5213
  144MPD2    H5 2203   3.519   3.252   0.742  0.9242  0.0941  1.6098
  144MPD2    N1 2204   3.147   2.852   0.583 -0.3549 -0.8719 -0.3491
  144MPD2    H7 2205   3.200   2.775   0.622 -1.7833 -1.4770  0.4014
  145TCq2    C1 2206   3.605   3.064   0.781  0.9379  0.6413 -0.6047
  145TCq2    O2 2207   3.604   2.942   0.778 -0.2452 -0.4179  1.1307
  145TCq2    C2 2208   3.710   3.124   0.863 -0.7127 -0.2770 -0.4220
  145TCq2    C3 2209   3.793   3.034   0.927  0.2818  0.1435 -0.1681
  145TCq2    C4 2210   3.906   3.077   0.980 -0.0487 -0.5982  0.6330
  145TCq2    C5 2211   3.942   3.207   0.978  0.4890  0.3279  0.0250
  145TCq2    C6 2212   3.855   3.294   0.919 -0.1919  0.2980 -0.5417
  145TCq2    C7 2213   3.741   3.254   0.861  0.3235 -0.2656 -0.0771
  145TCq2    C8 2214   3.887   3.432   0.913 -0.0117 -0.5071  0.5308
  145TCq2    O4 2215   3.864   3.498   0.813  0.4105  0.2643 -0.3272
  145TCq2    C9 2216   3.985   2.983   1.050 -0.6536  0.6090  0.6657
  145TCq2    O5 2217   3.972   2.859   1.034  0.3212  0.2675 -0.6648
  145TCq2    O6 2218   4.080   3.024   1.124 -0.0878  0.0293 -0.4312
  145TCq2    H2 2219   3.777   2.927   0.937 -1.3138  0.3091 -0.9397
  145TCq2    H3 2220   4.027   3.249   1.030  0.5336  0.5692 -0.2457
  145TCq2    H4 2221   3.681   3.325   0.805  0.7536  0.5087  0.4404
  146TMC2    C1 2222   0.734   0.024  11.439 -0.2688 -0.6887  1.3780
  146TMC2    C2 2223   0.712   0.104  11.327  0.6499 -0.7032 -0.4269
  146TMC2    C3 2224   0.828   0.114  11.257  0.0219  0.0628  0.5531
  146TMC2    C4 2225   0.850   4.689  11.479 -0.1857  0.3885  0.3648
  146TMC2    C5 2226   0.963   4.715  11.409  0.2233  0.1511 -0.0711
  146TMC2    C6 2227   0.954   0.063  11.291  0.2612 -0.0600  0.4293
  146TMC2     C 2228   0.612   0.011  11.515  0.0970 -0.1794 -0.5438
  146TMC2     O 2229   0.507   0.020  11.450 -0.4423 -1.3251  0.6551
  146TMC2     H 2230   0.610   0.127  11.298  0.8312  0.0526 -0.4878
  146TMC2    H1 2231   0.836   4.618  11.560  1.8381 -0.3863  0.0199
  146TMC2    H2 2232   1.042   0.095  11.237  0.1090  0.5024  0.5119
  146TMC2    C7 2233   1.067   4.612  11.423  0.0266 -0.8125  1.1403
  146TMC2    C8 2234   0.822   0.185  11.130  0.2262 -0.5801  0.2671
  146TMC2    O1 2235   1.125   4.577  11.320  1.0503  0.1494  0.4049
  146TMC2    O2 2236   0.892   0.177  11.030  0.1291 -0.5530  0.1188
  146TMC2    O5 2237   0.745   0.291  11.163  0.1594 -0.5340  0.4554
  146TMC2    H5 2238   0.698   0.295  11.249  1.9833 -1.6191  1.4804
  147MPD2     C 2239   1.339   4.312  11.741  0.0177 -0.3955  0.6443
  147MPD2    C1 2240   1.273   4.405  11.818  0.2391 -0.0515 -0.1293
  147MPD2    C2 2241   1.193   4.492  11.748  0.1148  0.2582 -0.5580
  147MPD2    C3 2242   1.180   4.497  11.608  0.2032  0.9013  0.6515
  147MPD2    C4 2243   1.251   4.400  11.537 -1.3436  0.5034 -0.1200
  147MPD2    C5 2244   1.331   4.309  11.602 -0.9910  0.0461 -0.6583
  147MPD2     H 2245   1.134   4.568  11.798 -0.2311 -0.6852  0.4630
  147MPD2    H1 2246   1.252   4.392  11.428 -2.3096  1.0664 -0.1666
  147MPD2    H2 2247   1.404   4.237  11.786  0.5746 -0.1713  0.2131
  147MPD2    H3 2248   1.374   4.228  11.545  0.7084  1.0269 -0.7424
  147MPD2     N 2249   1.094   4.589  11.554  0.4087  0.4135  0.4713
  147MPD2    H5 2250   1.033   4.639  11.618  0.1671 -0.3002  0.7934
  147MPD2    N1 2251   1.283   4.392  11.958  0.2390 -0.3235  0.4909
  147MPD2    H7 2252   1.341   4.317  11.994  0.4582  0.6430  2.1874
  148MPD2     C 2253   0.936   3.718   9.885  0.4043  0.0716 -0.0261
  148MPD2    C1 2254   0.935   3.581   9.909  1.1050 -0.1242  0.2220
  148MPD2    C2 2255   0.815   3.518   9.932 -0.0155 -0.0069 -0.6291
  148MPD2    C3 2256   0.694   3.582   9.955 -0.0017 -0.5205  0.0474
  148MPD2    C4 2257   0.690   3.711   9.918 -0.1514  0.2634 -0.5903
  148MPD2    C5 2258   0.813   3.778   9.888 -0.8998 -0.4472 -0.0240
  148MPD2     H 2259   0.815   3.409   9.933  1.1969  0.0153  1.5520
  148MPD2    H1 2260   0.596   3.765   9.916  1.2536  2.7445  1.4321
  148MPD2    H2 2261   1.023   3.774   9.852  0.1658 -0.2209 -1.1612
  148MPD2    H3 2262   0.816   3.883   9.861  2.4725 -0.3068  0.9716
  148MPD2     N 2263   0.579   3.520  10.002  0.8231  0.3448  0.9017
  148MPD2    H5 2264   0.495   3.576   9.997  1.6183  1.3001 -1.5583
  148MPD2    N1 2265   1.048   3.497   9.904  0.4754  0.1054  0.1422
  148MPD2    H7 2266   1.026   3.400   9.924  0.1173 -0.0963 -1.2599
  149TCq2    C1 2267   1.179   3.532   9.880  0.2746  0.4456 -0.3434
  149TCq2    O2 2268   1.230   3.628   9.827  0.2872  0.7241 -0.8573
  149TCq2    C2 2269   1.266   3.420   9.881  0.5078 -0.1905 -0.0848
  149TCq2    C3 2270   1.388   3.432   9.818 -0.1274  0.0135  0.1446
  149TCq2    C4 2271   1.489   3.350   9.856 -0.2556  0.1216  0.0064
  149TCq2    C5 2272   1.467   3.239   9.938 -0.3155 -0.1869  0.8598
  149TCq2    C6 2273   1.339   3.230   9.995  0.4458  0.2038 -0.2935
  149TCq2    C7 2274   1.238   3.322   9.966  0.0374 -0.1427 -0.2290
  149TCq2    C8 2275   1.320   3.138  10.104  0.4619 -0.0571  0.0817
  149TCq2    O4 2276   1.420   3.095  10.159  0.3782 -0.1499 -0.0904
  149TCq2    C9 2277   1.615   3.359   9.792 -0.0626 -0.2291  1.3115
  149TCq2    O5 2278   1.637   3.450   9.711  0.2979 -0.5501  0.3727
  149TCq2    O6 2279   1.686   3.259   9.791 -0.2184 -0.1116 -0.3998
  149TCq2    H2 2280   1.416   3.515   9.753  1.3928  0.6269  1.5835
  149TCq2    H3 2281   1.540   3.159   9.945  0.0347  0.0360 -0.2463
  149TCq2    H4 2282   1.146   3.319  10.023 -0.0984 -1.1358 -0.4889
  150MPD2     C 2283   1.718   3.035  12.022 -0.5277 -0.1472 -0.1769
  150MPD2    C1 2284   1.759   3.012  11.893 -0.0464 -0.0869 -0.6573
  150MPD2    C2 2285   1.865   3.080  11.843 -0.3117  0.2732 -0.1374
  150MPD2    C3 2286   1.930   3.177  11.919 -0.0181 -0.1340 -0.6854
  150MPD2    C4 2287   1.874   3.218  12.039  0.1593  0.7539  0.1356
  150MPD2    C5 2288   1.759   3.151  12.085 -0.4900  0.2229 -0.2416
  150MPD2     H 2289   1.909   3.056  11.747  0.2912 -2.4378  0.8190
  150MPD2    H1 2290   1.907   3.306  12.093  0.2544  0.8110 -0.0180
  150MPD2    H2 2291   1.631   2.984  12.062 -1.0399  1.2536  0.4797
  150MPD2    H3 2292   1.706   3.188  12.172 -0.2824  0.0513 -0.0419
  150MPD2     N 2293   2.052   3.217  11.861  0.3255 -0.8035  0.0866
  150MPD2    H5 2294   2.090   3.159  11.787  1.2004 -0.3809  0.1965
  150MPD2    N1 2295   1.700   2.907  11.831 -0.0635  0.0787  0.3110
  150MPD2    H7 2296   1.623   2.865  11.880  1.2511 -0.6104  1.7559
  151TCq2    C1 2297   2.139   3.302  11.922  0.0777 -0.3708 -0.4680
  151TCq2    O2 2298   2.127   3.367  12.020 -0.4213  0.0641  0.6190
  151TCq2    C2 2299   2.269   3.303  11.861  0.5070  0.1368  0.2776
  151TCq2    C3 2300   2.297   3.225  11.758  0.2607  0.6176  0.1519
  151TCq2    C4 2301   2.432   3.198  11.734  0.5035  0.4915  0.3035
  151TCq2    C5 2302   2.533   3.259  11.800 -0.0040 -0.4507  0.0320
  151TCq2    C6 2303   2.495   3.344  11.897 -0.4444 -0.0680 -0.1926
  151TCq2    C7 2304   2.366   3.366  11.934  0.1167 -0.0096 -0.2369
  151TCq2    C8 2305   2.597   3.384  11.994  0.2623  0.0703 -0.9550
  151TCq2    O4 2306   2.576   3.483  12.066 -0.0427  0.0491  0.2057
  151TCq2    C9 2307   2.471   3.096  11.634  0.2670  0.4546 -0.1506
  151TCq2    O5 2308   2.380   3.051  11.562 -0.3102 -0.0759 -0.2640
  151TCq2    O6 2309   2.590   3.075  11.620 -0.4357  0.3375 -0.3285
  151TCq2    H2 2310   2.217   3.183  11.699  0.8765  1.4279 -1.2712
  151TCq2    H3 2311   2.635   3.228  11.777  0.6628  1.6324  0.2215
  151TCq2    H4 2312   2.341   3.414  12.028  1.7530 -0.8694  0.6332
  152MPD2     C 2313   1.911   2.626  11.989  0.3183 -0.0966 -0.2720
  152MPD2    C1 2314   1.916   2.733  12.075  0.0154 -0.2718 -0.0036
  152MPD2    C2 2315   1.803   2.753  12.158 -0.0419 -0.2856 -0.6280
  152MPD2    C3 2316   1.684   2.679  12.143  0.1439 -1.1785  0.2348
  152MPD2    C4 2317   1.699   2.569  12.053  0.5592  0.1056  0.4251
  152MPD2    C5 2318   1.802   2.545  11.978 -0.3466  0.2995  0.7580
  152MPD2     H 2319   1.803   2.828  12.236 -0.6338 -0.0104 -0.8988
  152MPD2    H1 2320   1.620   2.496  12.048 -1.0789  1.8495  0.5854
  152MPD2    H2 2321   1.992   2.602  11.921  1.6405 -0.2954  1.3797
  152MPD2    H3 2322   1.802   2.458  11.913 -0.1794  0.3781  0.6538
  152MPD2     N 2323   1.570   2.707  12.214 -0.3084 -0.0362 -0.1157
  152MPD2    H5 2324   1.575   2.793  12.269 -1.5561 -1.1334  1.6939
  152MPD2    N1 2325   2.043   2.794  12.095 -0.3444 -0.2657 -0.2361
  152MPD2    H7 2326   2.122   2.765  12.038 -0.1729  0.1380 -0.2050
  153TCq2    C1 2327   2.067   2.905  12.171  0.0079 -0.4292  0.1763
  153TCq2    O2 2328   1.987   2.959  12.242 -0.1383  0.3128 -0.4730
  153TCq2    C2 2329   2.191   2.981  12.152 -0.2341  0.5135 -0.1402
  153TCq2    C3 2330   2.289   2.933  12.081 -0.0645  0.0910  0.9428
  153TCq2    C4 2331   2.411   2.989  12.085  0.0754  0.0305  0.1505
  153TCq2    C5 2332   2.438   3.088  12.176 -0.6742  0.7886  0.5043
  153TCq2    C6 2333   2.332   3.126  12.258 -0.2633  0.6683  0.0525
  153TCq2    C7 2334   2.210   3.073  12.252 -0.3602 -0.5633  0.3724
  153TCq2    C8 2335   2.348   3.253  12.341 -0.4664  0.5256  0.3795
  153TCq2    O4 2336   2.252   3.331  12.352 -0.1013  0.1747 -0.2351
  153TCq2    C9 2337   2.504   2.954  11.983  0.0515  0.6180 -0.0571
  153TCq2    O5 2338   2.618   3.012  11.966 -0.6039 -0.2483 -0.2339
  153TCq2    O6 2339   2.465   2.866  11.901 -0.1024 -0.1356  0.2825
  153TCq2    H2 2340   2.267   2.857  12.006 -0.8929  1.1628  0.1058
  153TCq2    H3 2341   2.532   3.141  12.166 -0.4236  0.7786  2.9720
  153TCq2    H4 2342   2.134   3.117  12.315 -0.3020  1.4438 -0.9748
  154MPD2     C 2343   2.978   3.531   0.695  0.5366  0.1704  0.2352
  154MPD2    C1 2344   3.017   3.666   0.705 -0.0060 -0.4492  0.5245
  154MPD2    C2 2345   2.934   3.756   0.768  0.3525 -0.0862 -0.3173
  154MPD2    C3 2346   2.810   3.719   0.805 -0.6633  0.1838  0.6391
  154MPD2    C4 2347   2.765   3.591   0.771  0.1778  0.6244 -0.7245
  154MPD2    C5 2348   2.849   3.499   0.723  0.5554  0.1170  0.2229
  154MPD2     H 2349   2.972   3.852   0.800  0.9011  0.5451 -2.8301
  154MPD2    H1 2350   2.678   3.548   0.819  2.0440 -0.4354  1.7002
  154MPD2    H2 2351   3.044   3.453   0.658  0.1891 -0.7878  1.6070
  154MPD2    H3 2352   2.811   3.397   0.722  2.2719 -0.5275  0.3086
  154MPD2     N 2353   2.724   3.810   0.875  0.4421  0.1070 -0.6890
  154MPD2    H5 2354   2.769   3.890   0.918  0.6185  0.2768 -1.1919
  154MPD2    N1 2355   3.146   3.696   0.666 -0.0428  0.5263 -0.0952
  154MPD2    H7 2356   3.201   3.616   0.636  0.6535  0.3603  1.6287
  155TCq2    C1 2357   3.200   3.822   0.647  0.1689  0.1173  0.0263
  155TCq2    O2 2358   3.151   3.933   0.659  0.1671  0.5449 -0.0616
  155TCq2    C2 2359   3.342   3.810   0.615  0.1897  0.5784  0.6472
  155TCq2    C3 2360   3.402   3.932   0.585 -0.0163  0.3792 -0.0177
  155TCq2    C4 2361   3.523   3.935   0.525  0.3465 -0.0437 -0.1977
  155TCq2    C5 2362   3.592   3.812   0.496  0.1375 -0.0546 -1.3368
  155TCq2    C6 2363   3.530   3.694   0.548  0.5855 -0.4122 -0.3186
  155TCq2    C7 2364   3.406   3.692   0.607 -0.0727  0.1529 -0.2200
  155TCq2    C8 2365   3.620   3.578   0.563 -0.5423 -0.0113  0.2080
  155TCq2    O4 2366   3.583   3.491   0.644 -0.2411  0.0841  0.1689
  155TCq2    C9 2367   3.570   4.064   0.472 -0.1274 -0.0140 -0.8147
  155TCq2    O5 2368   3.685   4.062   0.424 -0.0581 -0.4462 -0.6653
  155TCq2    O6 2369   3.498   4.167   0.488 -0.6532 -0.1308  0.3774
  155TCq2    H2 2370   3.340   4.021   0.595 -0.4649  0.2789 -1.9568
  155TCq2    H3 2371   3.696   3.811   0.469  0.1534 -1.5910 -1.2468
  155TCq2    H4 2372   3.361   3.596   0.627 -0.2197  0.2558 -0.0500
  156MPD2     C 2373   3.004   0.637  11.698 -0.3693 -0.3195  0.7354
  156MPD2    C1 2374   2.896   0.554  11.730  0.2962 -0.3168  0.0737
  156MPD2    C2 2375   2.781   0.614  11.776 -1.0327  0.2712  0.3160
  156MPD2    C3 2376   2.769   0.753  11.793  0.0862 -0.0421 -0.4357
  156MPD2    C4 2377   2.875   0.836  11.746  0.3063  0.9694  0.3002
  156MPD2    C5 2378   2.987   0.775  11.706  0.4252 -0.1826  0.8642
  156MPD2     H 2379   2.693   0.560  11.811  0.1704 -1.2689  0.9656
  156MPD2    H1 2380   2.869   0.945  11.743 -1.2622  0.8554 -1.0467
  156MPD2    H2 2381   3.093   0.595  11.652 -0.9686  0.7047 -1.3934
  156MPD2    H3 2382   3.071   0.836  11.674  1.0579 -1.5226 -0.0574
  156MPD2     N 2383   2.644   0.811  11.835  0.4339 -0.0678 -0.3967
  156MPD2    H5 2384   2.565   0.747  11.837  1.5455 -1.4789 -0.9368
  156MPD2    N1 2385   2.902   0.415  11.711  0.1223  0.1223 -0.0993
  156MPD2    H7 2386   2.984   0.382  11.660 -0.5457  0.6818 -1.5394
  157TCq2    C1 2387   2.814   0.320  11.757 -0.9584 -0.3986  0.1687
  157TCq2    O2 2388   2.747   0.320  11.858 -0.3438  0.1899 -0.6350
  157TCq2    C2 2389   2.804   0.204  11.666  0.8937 -0.4976  1.0865
  157TCq2    C3 2390   2.748   0.093  11.724  0.6813 -0.0202  0.6419
  157TCq2    C4 2391   2.655   0.014  11.663  0.0786 -0.6144  0.9507
  157TCq2    C5 2392   2.617   0.056  11.539 -0.2863  0.8594  0.7225
  157TCq2    C6 2393   2.678   0.157  11.473 -0.1937  0.2012  0.4264
  157TCq2    C7 2394   2.769   0.232  11.541 -0.7199 -0.2205  0.5895
  157TCq2    C8 2395   2.617   0.206  11.350 -0.4083 -0.9303  0.7371
  157TCq2    O4 2396   2.671   0.314  11.309 -0.8008  0.0939  0.4301
  157TCq2    C9 2397   2.596   4.618  11.723  0.2499 -0.3359 -0.9664
  157TCq2    O5 2398   2.543   4.526  11.652  0.3209 -0.1899 -1.1339
  157TCq2    O6 2399   2.618   4.600  11.846  0.7171  0.0635 -0.2059
  157TCq2    H2 2400   2.769   0.074  11.828  0.8002 -1.8002  0.2897
  157TCq2    H3 2401   2.548   4.714  11.486  1.1146 -0.6006  0.6809
  157TCq2    H4 2402   2.811   0.323  11.500 -0.0882 -1.0751 -0.6752
  158TMC2    C1 2403   2.326   4.450  13.112 -0.0290  0.1703 -0.3469
  158TMC2    C2 2404   2.356   4.562  13.048 -0.4122 -0.3898 -0.1113
  158TMC2    C3 2405   2.266   4.610  12.955 -0.4318 -0.5353 -0.1494
  158TMC2    C4 2406   2.209   4.380  13.086 -0.3944  0.4233 -0.2857
  158TMC2    C5 2407   2.122   4.426  12.993 -0.0103 -1.3142 -0.1855
  158TMC2    C6 2408   2.161   4.540  12.921 -0.5047  0.1490 -0.4138
  158TMC2     C 2409   2.441   4.382  13.179 -0.2281  0.4200  0.5297
  158TMC2     O 2410   2.551   4.422  13.145  0.1537 -0.1630 -0.1693
  158TMC2     H 2411   2.446   4.614  13.077  1.4219 -3.2391 -0.7074
  158TMC2    H1 2412   2.185   4.281  13.123 -2.7396  0.6454 -1.2015
  158TMC2    H2 2413   2.093   4.588  12.852 -1.8777 -1.1091  0.0523
  158TMC2    C7 2414   1.981   4.400  13.007 -0.8504  0.0962  0.6040
  158TMC2    C8 2415   2.310   4.719  12.877  0.0267  0.5809 -0.3807
  158TMC2    O1 2416   1.914   4.478  12.939  0.5422 -0.5536 -0.1077
  158TMC2    O2 2417   2.276   0.016  12.759  0.5041  0.7096 -0.1766
  158TMC2    O5 2418   2.390   0.080  12.945  0.1844  0.1763 -0.1028
  158TMC2    H5 2419   2.388   0.051  13.038 -0.2492  0.6255  0.0234
  159MPD2     C 2420   2.649   4.033  13.499 -0.2666 -0.1780  0.4643
  159MPD2    C1 2421   2.514   4.035  13.513  0.5345 -0.1253 -0.5158
  159MPD2    C2 2422   2.439   4.117  13.436 -0.0229  0.3065 -0.4376
  159MPD2    C3 2423   2.490   4.207  13.348 -0.0415  0.5276  0.2521
  159MPD2    C4 2424   2.631   4.205  13.336 -0.0661 -0.1399 -0.4189
  159MPD2    C5 2425   2.709   4.118  13.416 -0.8875  0.6119  0.4838
  159MPD2     H 2426   2.334   4.127  13.464  0.2869  3.1955 -0.3073
  159MPD2    H1 2427   2.695   4.266  13.272  0.5454  0.4085  0.7192
  159MPD2    H2 2428   2.708   3.968  13.562  0.5892  0.6269  0.4807
  159MPD2    H3 2429   2.817   4.126  13.407 -0.9177  1.0978  0.5534
  159MPD2     N 2430   2.405   4.281  13.266 -0.0472  0.1173 -0.3326
  159MPD2    H5 2431   2.305   4.266  13.280  0.0938  1.0880  1.7161
  159MPD2    N1 2432   2.457   3.958  13.623  0.4633  0.3923  0.3980
  159MPD2    H7 2433   2.514   3.923  13.700 -0.0898  2.4802  1.7657
  160TMC2    C1 2434   2.441   2.657   1.720 -0.1431 -0.2493 -0.3407
  160TMC2    C2 2435   2.485   2.580   1.825  0.0748  0.6676 -0.3667
  160TMC2    C3 2436   2.608   2.614   1.875 -0.9303  0.8031  0.2713
  160TMC2    C4 2437   2.512   2.753   1.655 -0.1953  0.4945 -0.2780
  160TMC2    C5 2438   2.637   2.789   1.703  0.2545  0.2591 -0.7596
  160TMC2    C6 2439   2.686   2.720   1.813  0.3316 -0.1139  0.6148
  160TMC2     C 2440   2.309   2.622   1.677 -0.5421  0.4256 -0.1664
  160TMC2     O 2441   2.275   2.506   1.687  0.1639  0.5057  0.0081
  160TMC2     H 2442   2.426   2.495   1.859 -0.7730  1.3849 -0.0230
  160TMC2    H1 2443   2.481   2.780   1.555 -0.1479 -0.8912 -0.6790
  160TMC2    H2 2444   2.790   2.730   1.842  0.5243  0.3753 -0.2583
  160TMC2    C7 2445   2.737   2.855   1.618 -0.3945  0.1682 -0.0412
  160TMC2    C8 2446   2.606   2.605   2.017 -0.7407 -0.4757 -0.1253
  160TMC2    O1 2447   2.845   2.800   1.602 -0.3478  0.3852 -0.4958
  160TMC2    O2 2448   2.516   2.543   2.066 -0.5121  0.6389 -0.4115
  160TMC2    O5 2449   2.649   2.722   2.070 -0.1218 -0.2792  0.4563
  160TMC2    H5 2450   2.709   2.781   2.019  1.2376 -0.8252  1.4206
  161MPD2     C 2451   2.045   2.590   1.547  0.5394  0.3011 -0.6115
  161MPD2    C1 2452   2.130   2.706   1.534  0.1343 -0.3640 -0.6424
  161MPD2    C2 2453   2.088   2.801   1.444 -0.6891 -0.2933 -0.7683
  161MPD2    C3 2454   1.975   2.784   1.370 -0.6732  0.2569  1.0070
  161MPD2    C4 2455   1.906   2.672   1.381 -0.4526  0.7367  0.1997
  161MPD2    C5 2456   1.939   2.575   1.469  0.4985  0.1338 -0.7931
  161MPD2     H 2457   2.155   2.886   1.430 -3.7588  1.9251 -2.0165
  161MPD2    H1 2458   1.814   2.663   1.325 -0.1486  0.6682 -0.2928
  161MPD2    H2 2459   2.068   2.511   1.616 -0.0356 -1.2468 -2.2034
  161MPD2    H3 2460   1.874   2.488   1.480  1.2196 -0.2025  0.8897
  161MPD2     N 2461   1.930   2.877   1.270 -0.2771  0.4273 -0.7848
  161MPD2    H5 2462   1.847   2.844   1.221  1.2588 -2.4305 -1.4610
  161MPD2    N1 2463   2.251   2.720   1.601 -0.0836 -0.0599  0.0821
  161MPD2    H7 2464   2.295   2.811   1.595 -0.7402  0.1787 -1.0410
  162TMC2    C1 2465   0.465   4.351   0.977  0.0499 -0.0128  0.7573
  162TMC2    C2 2466   0.356   4.275   1.019  0.8559  0.3675 -0.1366
  162TMC2    C3 2467   0.377   4.172   1.104 -0.1036  0.3130  0.1416
  162TMC2    C4 2468   0.587   4.324   1.030  0.8573 -0.5854 -0.1926
  162TMC2    C5 2469   0.606   4.222   1.121  0.7258  0.9453 -0.6443
  162TMC2    C6 2470   0.500   4.141   1.152 -0.4814  0.4041 -0.2652
  162TMC2     C 2471   0.465   4.388   0.834  0.2900  0.2637 -0.1226
  162TMC2     O 2472   0.568   4.368   0.769 -0.3114 -0.3479 -0.2654
  162TMC2     H 2473   0.256   4.303   0.986  0.9617 -2.1475 -2.5732
  162TMC2    H1 2474   0.670   4.392   1.012  0.0571  0.6092  0.5826
  162TMC2    H2 2475   0.508   4.070   1.233 -0.6355  1.1019  0.3604
  162TMC2    C7 2476   0.692   4.249   1.237 -0.3706  0.9401  0.2953
  162TMC2    C8 2477   0.256   4.094   1.138 -0.9528  0.3490  0.3766
  162TMC2    O1 2478   0.745   4.148   1.286 -0.2694  0.6113 -0.1749
  162TMC2    O2 2479   0.233   4.067   1.255  0.3714 -0.1135 -0.0650
  162TMC2    O5 2480   0.171   4.093   1.031  0.3434 -0.1862  0.2104
  162TMC2    H5 2481   0.222   4.083   0.948  0.4821 -1.2650  0.4298
  163MPD2     C 2482   0.218   4.495   0.402  0.7069  0.8016  0.4854
  163MPD2    C1 2483   0.339   4.432   0.423  0.2837  0.1413  0.1826
  163MPD2    C2 2484   0.383   4.416   0.554 -0.2827 -0.0085  0.4523
  163MPD2    C3 2485   0.307   4.463   0.660 -0.0078 -0.1071 -0.2576
  163MPD2    C4 2486   0.190   4.527   0.637 -0.0063 -0.1150 -0.3047
  163MPD2    C5 2487   0.147   4.543   0.511 -0.6591 -0.1309 -0.3729
  163MPD2     H 2488   0.477   4.365   0.569 -0.7279 -1.0724 -0.4022
  163MPD2    H1 2489   0.132   4.569   0.719  0.7158  2.3660 -1.0605
  163MPD2    H2 2490   0.181   4.524   0.304 -1.6388 -2.4792  0.4119
  163MPD2    H3 2491   0.060   4.608   0.507 -0.5854 -0.1274 -1.9878
  163MPD2     N 2492   0.342   4.437   0.791 -0.3330  0.0804  0.1393
  163MPD2    H5 2493   0.273   4.447   0.866 -1.0941 -0.9597 -0.4195
  163MPD2    N1 2494   0.399   4.366   0.316 -0.7517 -0.1533  0.6056
  163MPD2    H7 2495   0.372   4.409   0.228  2.0025 -0.5620 -0.4410
  164TCq2    C1 2496   1.004   2.686  10.922 -0.0560 -0.6252  0.5578
  164TCq2    O2 2497   0.939   2.581  10.914 -0.0971  0.2636 -0.2236
  164TCq2    C2 2498   0.931   2.804  10.965  0.1364 -0.0281  0.3400
  164TCq2    C3 2499   1.002   2.907  11.013  0.3016  0.6279 -0.0508
  164TCq2    C4 2500   0.939   3.027  11.030  0.5605  0.0551 -0.5005
  164TCq2    C5 2501   0.816   3.053  10.983 -0.1584 -0.8621 -0.4804
  164TCq2    C6 2502   0.747   2.942  10.947 -0.5723  0.6831 -0.3754
  164TCq2    C7 2503   0.795   2.817  10.936  0.1200 -0.3504  0.1520
  164TCq2    C8 2504   0.607   2.957  10.952  0.2008 -0.3076  0.6318
  164TCq2    O4 2505   0.570   3.061  10.902  0.7833 -0.4473  0.1996
  164TCq2    C9 2506   1.010   3.128  11.112 -0.2891  0.0621 -0.3572
  164TCq2    O5 2507   0.943   3.229  11.119 -0.1829 -0.5295 -0.1049
  164TCq2    O6 2508   1.105   3.092  11.182  0.5651  0.5439  0.4665
  164TCq2    H2 2509   1.103   2.888  11.049 -0.2176 -2.3783 -0.2291
  164TCq2    H3 2510   0.770   3.146  11.013  0.5783 -0.6246 -0.0674
  164TCq2    H4 2511   0.738   2.737  10.890 -1.0409  0.0329  0.9326
  165MPD2     C 2512   1.053   2.209   0.841 -0.3917 -0.0710 -0.0441
  165MPD2    C1 2513   1.077   2.075   0.824 -1.0395  0.5217  0.7919
  165MPD2    C2 2514   1.209   2.028   0.828 -0.1941 -0.4761  1.2503
  165MPD2    C3 2515   1.315   2.115   0.844  0.0151  0.3151  0.2614
  165MPD2    C4 2516   1.287   2.250   0.852 -0.1458  0.1095 -0.4341
  165MPD2    C5 2517   1.156   2.294   0.860  0.5573  0.6053  0.0829
  165MPD2     H 2518   1.227   1.921   0.824  0.8544 -0.2574 -0.0943
  165MPD2    H1 2519   1.361   2.325   0.881 -0.9034 -0.5645  3.2797
  165MPD2    H2 2520   0.956   2.256   0.851  0.7845  2.6056 -0.9961
  165MPD2    H3 2521   1.128   2.394   0.890 -2.2258  0.5597 -2.3967
  165MPD2     N 2522   1.453   2.080   0.847 -0.4372  0.1025 -0.3078
  165MPD2    H5 2523   1.517   2.159   0.841 -1.7477  0.9228 -3.2756
  165MPD2    N1 2524   0.964   1.990   0.820 -0.3918  0.1869  0.1993
  165MPD2    H7 2525   0.871   2.032   0.825 -0.7862 -0.3564 -2.4860
  166TCq2    C1 2526   1.501   1.946   0.845  0.5750 -0.4006 -0.3511
  166TCq2    O2 2527   1.453   1.836   0.818  0.4699  0.2039  0.7049
  166TCq2    C2 2528   1.645   1.934   0.871  0.7107 -0.3048  0.4626
  166TCq2    C3 2529   1.701   1.811   0.857  0.1908 -0.0940 -0.6921
  166TCq2    C4 2530   1.839   1.804   0.853  0.3894  0.2464 -0.5347
  166TCq2    C5 2531   1.920   1.910   0.865 -0.0810  0.8579 -0.1792
  166TCq2    C6 2532   1.856   2.028   0.885  0.3234 -0.4592  0.4229
  166TCq2    C7 2533   1.719   2.042   0.876 -0.4879 -0.6937  0.5790
  166TCq2    C8 2534   1.933   2.140   0.936 -0.1796 -0.4860 -0.1274
  166TCq2    O4 2535   2.054   2.119   0.965  0.1330 -0.1618 -0.2388
  166TCq2    C9 2536   1.892   1.665   0.848 -0.6287  0.3367  0.4444
  166TCq2    O5 2537   2.016   1.659   0.827 -0.2505 -0.2954 -0.2735
  166TCq2    O6 2538   1.809   1.569   0.835 -0.8787 -0.4155  0.0328
  166TCq2    H2 2539   1.637   1.723   0.859  0.2933 -0.1290  0.9636
  166TCq2    H3 2540   2.028   1.907   0.870 -0.1243 -0.2766 -0.0359
  166TCq2    H4 2541   1.674   2.133   0.914  0.1644  0.4251 -1.3167
  167TMC2    C1 2542   0.090   3.603  12.482 -0.3697 -0.0575  0.2491
  167TMC2    C2 2543   4.707   3.658  12.560  1.3712 -0.8505 -0.4298
  167TMC2    C3 2544   4.658   3.578  12.666 -0.4169  0.2756 -0.1672
  167TMC2    C4 2545   0.127   3.470  12.493  0.2917  0.3451 -0.5349
  167TMC2    C5 2546   0.070   3.396  12.595 -0.3633 -0.4654  0.5811
  167TMC2    C6 2547   4.701   3.451  12.681  0.4398 -0.5226  0.0759
  167TMC2     C 2548   0.145   3.688  12.380 -0.2323 -0.8954  0.0522
  167TMC2     O 2549   0.128   3.807  12.389 -0.0881  0.0641  0.2702
  167TMC2     H 2550   4.675   3.760  12.540 -3.2693 -2.2446 -0.0774
  167TMC2    H1 2551   0.201   3.423  12.429  0.5820 -1.3319  1.0349
  167TMC2    H2 2552   4.669   3.401  12.771 -0.9110 -1.5769 -1.0011
  167TMC2    C7 2553   0.125   3.266  12.630 -0.7289 -0.6898 -0.3700
  167TMC2    C8 2554   4.572   3.637  12.773 -0.5341  0.7672  0.8390
  167TMC2    O1 2555   0.066   3.220  12.729 -0.1280  0.3982 -0.2114
  167TMC2    O2 2556   4.485   3.558  12.809 -0.3287  0.2526 -0.2948
  167TMC2    O5 2557   4.553   3.769  12.740  0.4847 -0.2314 -0.1923
  167TMC2    H5 2558   4.633   3.815  12.707  0.0615  1.8308  1.6774
  168MPD2     C 2559   0.305   3.842  12.172  0.2365  0.4172  0.0940
  168MPD2    C1 2560   0.313   3.703  12.192  0.0839 -0.3686  0.2786
  168MPD2    C2 2561   0.375   3.616  12.098 -0.4631  0.1304  0.2192
  168MPD2    C3 2562   0.437   3.656  11.987  0.3673  0.2010  0.6800
  168MPD2    C4 2563   0.418   3.789  11.962  0.1226 -0.2621 -0.1725
  168MPD2    C5 2564   0.357   3.883  12.048 -0.2750 -0.2373  0.6316
  168MPD2     H 2565   0.368   3.511  12.125 -1.5786  0.2285  0.3271
  168MPD2    H1 2566   0.459   3.836  11.874  1.8602 -0.7360  0.3872
  168MPD2    H2 2567   0.253   3.916  12.232 -0.8410 -0.7110  0.5550
  168MPD2    H3 2568   0.339   3.983  12.010  0.3597  0.7896  3.0554
  168MPD2     N 2569   0.484   3.561  11.893  0.5371  0.5384  0.4762
  168MPD2    H5 2570   0.497   3.595  11.798  1.3847 -1.4743 -0.1257
  168MPD2    N1 2571   0.240   3.631  12.296  0.5365 -0.1283  0.3421
  168MPD2    H7 2572   0.259   3.532  12.302 -2.5291 -0.8850 -2.6122
  169MPD1     C 2573   3.431   2.987   8.791  0.2062  0.1280  0.1387
  169MPD1    C1 2574   3.370   2.860   8.792  0.3490 -0.0780 -0.2461
  169MPD1    C2 2575   3.261   2.833   8.867 -0.0319  0.5034  0.5537
  169MPD1    C3 2576   3.220   2.922   8.960 -0.3681  0.5318  0.5049
  169MPD1    C4 2577   3.288   3.042   8.964  0.4305  0.6088 -0.1431
  169MPD1    C5 2578   3.393   3.080   8.883 -0.5691 -0.0995  0.3834
  169MPD1     H 2579   3.215   2.735   8.857  0.9953  0.1500 -0.6816
  169MPD1    H1 2580   3.245   3.113   9.034 -1.0497 -1.1796  0.7669
  169MPD1    H2 2581   3.515   3.008   8.726 -1.1554 -1.3339 -2.0924
  169MPD1    H3 2582   3.441   3.176   8.894 -0.4591  0.0854 -1.6258
  169MPD1     N 2583   3.107   2.889   9.039  0.1097 -0.2290  0.2295
  169MPD1    H5 2584   3.071   2.794   9.042  0.8079 -0.5719 -1.9578
  169MPD1    N1 2585   3.410   2.767   8.692 -0.0766 -0.5475 -0.0894
  169MPD1    H6 2586   3.511   2.771   8.682  0.2648 -2.4753  2.6558
  169MPD1    H7 2587   3.380   2.674   8.720  0.2608 -0.2396  1.2518
  170MPD1     C 2588   0.404   1.155  13.764 -0.0824 -0.1042 -0.3217
  170MPD1    C1 2589   0.435   1.202  13.893  0.0885 -0.1371 -0.5541
  170MPD1    C2 2590   0.478   1.333  13.902  0.6935 -0.3998 -0.8523
  170MPD1    C3 2591   0.497   1.411  13.790  0.0800 -0.3193  0.3591
  170MPD1    C4 2592   0.451   1.364  13.672  0.0408  0.9365 -0.2676
  170MPD1    C5 2593   0.411   1.241  13.655 -0.8528  0.2219 -0.8091
  170MPD1     H 2594   0.500   1.368  14.002 -0.4357  1.7269 -1.3509
  170MPD1    H1 2595   0.452   1.419  13.578  0.4233 -1.5708 -1.7386
  170MPD1    H2 2596   0.374   1.053  13.742 -0.4556 -0.2456  0.8441
  170MPD1    H3 2597   0.372   1.207  13.560 -0.5578 -2.5994  0.0556
  170MPD1     N 2598   0.565   1.536  13.810  0.1810 -0.7178  0.1422
  170MPD1    H5 2599   0.598   1.553  13.904  0.1908 -0.4715  0.0934
  170MPD1    N1 2600   0.438   1.113  14.004 -0.0233  0.3617 -0.8232
  170MPD1    H6 2601   0.438   1.149  14.100  0.2774  0.3983 -0.8372
  170MPD1    H7 2602   0.381   1.030  13.990 -0.3211 -0.0584  2.7056
  171MPD1     C 2603   4.615   2.804  15.609 -0.0496  0.0023 -0.2080
  171MPD1    C1 2604   4.660   2.714  15.516 -0.6527 -0.1840  0.0937
  171MPD1    C2 2605   4.680   2.578  15.538 -0.1795  0.1936  0.4719
  171MPD1    C3 2606   4.647   2.539  15.669  0.4556  0.3706  0.4655
  171MPD1    C4 2607   4.592   2.625  15.763  0.1666 -0.5756 -0.6069
  171MPD1    C5 2608   4.586   2.756  15.736  0.3045 -0.7556 -0.0066
  171MPD1     H 2609   4.720   2.509  15.465 -0.8464  0.8785 -0.5438
  171MPD1    H1 2610   4.587   2.590  15.865 -2.9393  1.0445 -0.2005
  171MPD1    H2 2611   4.626   2.909  15.586  0.6149 -0.3678 -1.5933
  171MPD1    H3 2612   4.554   2.829  15.809 -1.1201  1.6129 -3.0141
  171MPD1     N 2613   4.648   2.406  15.716  0.7206  0.3065  0.3255
  171MPD1    H5 2614   4.602   2.394  15.806 -1.8460 -0.7727 -1.1559
  171MPD1    N1 2615   4.699   2.756  15.388 -0.0723  0.2364  0.3298
  171MPD1    H6 2616   4.712   2.671  15.333 -3.1667 -1.0414  1.5621
  171MPD1    H7 2617   4.622   2.793  15.332  0.1057 -0.3921 -0.3244
  172MPD1     C 2618   3.138   2.216   0.927  0.1605  0.6866  0.3620
  172MPD1    C1 2619   3.119   2.353   0.915  0.1042 -0.2533  0.2677
  172MPD1    C2 2620   3.204   2.425   0.838  0.0527 -0.2143 -0.1892
  172MPD1    C3 2621   3.311   2.367   0.768 -0.5733  0.1533  0.5264
  172MPD1    C4 2622   3.332   2.234   0.782  1.2126  0.6764 -0.1829
  172MPD1    C5 2623   3.251   2.159   0.868  0.4386  0.3647 -0.4756
  172MPD1     H 2624   3.191   2.532   0.825  0.8052 -0.0517  0.3440
  172MPD1    H1 2625   3.408   2.182   0.725  1.3818 -0.2378  0.8670
  172MPD1    H2 2626   3.077   2.148   0.986 -0.4738  0.6918 -0.2883
  172MPD1    H3 2627   3.270   2.052   0.876 -1.7879  0.1571  2.0787
  172MPD1     N 2628   3.397   2.434   0.678 -0.1120  0.3104 -0.2317
  172MPD1    H5 2629   3.455   2.368   0.627 -0.6576  0.9974 -1.7375
  172MPD1    N1 2630   3.017   2.414   0.994 -0.2080 -0.0458  0.3820
  172MPD1    H6 2631   2.962   2.462   0.923 -2.0520  1.6955  2.9735
  172MPD1    H7 2632   2.951   2.343   1.025  1.7489 -1.5409  1.1477
  173MPD1     C 2633   3.977   2.373  14.027 -0.4682 -0.3149 -0.0223
  173MPD1    C1 2634   4.011   2.275  13.938 -0.8152 -0.3414 -0.7656
  173MPD1    C2 2635   4.127   2.208  13.967 -0.3299 -0.4233 -0.2349
  173MPD1    C3 2636   4.196   2.222  14.082  0.7063  0.4236 -0.0164
  173MPD1    C4 2637   4.155   2.315  14.170  0.4623 -0.7981  0.3798
  173MPD1    C5 2638   4.052   2.405  14.137  0.0428 -0.8773  0.1045
  173MPD1     H 2639   4.155   2.137  13.889  1.0331  0.1782 -0.2841
  173MPD1    H1 2640   4.208   2.333  14.263  0.9923  0.9821 -0.2748
  173MPD1    H2 2641   3.887   2.433  14.017  0.2710  0.9465  0.8903
  173MPD1    H3 2642   4.018   2.470  14.217 -0.0945 -1.1797  0.2931
  173MPD1     N 2643   4.313   2.138  14.117  0.2113 -0.4704  0.0030
  173MPD1    H5 2644   4.333   2.066  14.049 -0.5187 -0.0374 -0.6810
  173MPD1    N1 2645   3.941   2.265  13.819 -0.1472  0.4679  0.2177
  173MPD1    H6 2646   3.849   2.308  13.826 -0.3613  0.2552 -1.2888
  173MPD1    H7 2647   3.954   2.168  13.789  1.7787  1.0236 -0.7618
  174MPD1     C 2648   0.133   1.362  13.817  0.8508 -0.5572  0.7808
  174MPD1    C1 2649   0.132   1.490  13.762 -0.2457  0.7927 -0.0194
  174MPD1    C2 2650   0.066   1.587  13.835 -0.3208 -0.3952 -0.2016
  174MPD1    C3 2651   0.020   1.565  13.962 -0.7518 -0.0176 -0.6324
  174MPD1    C4 2652   0.045   1.441  14.022 -0.2063 -0.1697  0.5779
  174MPD1    C5 2653   0.096   1.339  13.949  0.5796  0.4439 -0.0933
  174MPD1     H 2654   0.057   1.684  13.787 -1.3478 -0.1885  0.3938
  174MPD1    H1 2655   0.014   1.415  14.123  0.2154 -0.8327  0.5354
  174MPD1    H2 2656   0.163   1.274  13.762  1.5190  0.2451 -0.1264
  174MPD1    H3 2657   0.120   1.240  13.988  1.9742  0.9337  0.3122
  174MPD1     N 2658   4.677   1.655  14.045 -0.6450 -0.3794 -0.8201
  174MPD1    H5 2659   4.675   1.629  14.143 -0.6307  2.4294 -0.0800
  174MPD1    N1 2660   0.148   1.495  13.623  0.4829  0.1180  0.5420
  174MPD1    H6 2661   0.170   1.591  13.599  0.2188  0.0140 -0.1383
  174MPD1    H7 2662   0.227   1.437  13.595 -0.3081 -1.1258  0.8922
  175MPD1     C 2663   3.548   2.380  15.848 -0.0613  0.3895  0.7236
  175MPD1    C1 2664   3.412   2.416  15.843  0.3200  0.7699  0.0722
  175MPD1    C2 2665   3.353   2.463  15.951 -0.3670  0.0564  0.0548
  175MPD1    C3 2666   3.400   2.435  16.078 -0.2741 -0.2256  0.0042
  175MPD1    C4 2667   3.526   2.389  16.088  0.0549  0.0101 -0.2336
  175MPD1    C5 2668   3.606   2.358  15.975 -0.0048  0.2398 -0.0534
  175MPD1     H 2669   3.251   2.499  15.944 -0.7728 -1.2220 -0.4919
  175MPD1    H1 2670   3.562   2.388  16.190  0.1652 -0.4307 -0.2758
  175MPD1    H2 2671   3.605   2.364  15.758  0.3482 -2.9046  1.5513
  175MPD1    H3 2672   3.713   2.344  15.978 -0.0795 -0.4081 -0.3076
  175MPD1     N 2673   3.347   2.479  16.204 -0.0169  0.0150  0.1518
  175MPD1    H5 2674   3.407   2.468  16.285  2.4417 -0.6597 -1.8011
  175MPD1    N1 2675   3.357   2.453  15.716 -0.7488  0.7425 -0.4420
  175MPD1    H6 2676   3.389   2.405  15.632 -0.5567 -0.0717  0.0870
  175MPD1    H7 2677   3.256   2.445  15.715 -0.7976  1.2943  0.4372
  176MPD1     C 2678   0.343   4.385  16.374 -0.5275  0.1140 -0.7482
  176MPD1    C1 2679   0.276   4.502  16.418  0.4030 -0.9719 -0.1483
  176MPD1    C2 2680   0.239   4.508  16.552 -0.1006  0.2056  1.0492
  176MPD1    C3 2681   0.247   4.408  16.641 -0.8230  0.0713  1.0670
  176MPD1    C4 2682   0.307   4.293  16.594  0.3457 -0.3788  0.0675
  176MPD1    C5 2683   0.352   4.279  16.463  0.3823  0.3028 -0.1637
  176MPD1     H 2684   0.196   4.605  16.577  1.9448  0.8080  2.2143
  176MPD1    H1 2685   0.317   4.214  16.667 -1.0937  0.5228  1.2186
  176MPD1    H2 2686   0.354   4.366  16.268  0.8142  1.5364 -0.8548
  176MPD1    H3 2687   0.386   4.180  16.434 -0.0912  0.3656 -0.9195
  176MPD1     N 2688   0.212   4.433  16.778 -0.1742 -0.9187  0.3139
  176MPD1    H5 2689   0.181   4.527  16.798  3.5767  0.9514 -2.5884
  176MPD1    N1 2690   0.278   4.617  16.341  0.0481 -0.6069  0.1861
  176MPD1    H6 2691   0.256   4.595  16.244 -0.1554 -0.5519  0.2197
  176MPD1    H7 2692   0.200   4.673  16.374  1.0558  2.6680 -3.0372
  177MPD1     C 2693   3.291   3.194   9.975 -0.6455  0.0162 -0.4836
  177MPD1    C1 2694   3.267   3.328   9.975  0.0022  0.1714  0.0135
  177MPD1    C2 2695   3.208   3.381   9.865  0.4406  0.1404 -0.5903
  177MPD1    C3 2696   3.159   3.308   9.754  0.1560 -0.5665  1.0362
  177MPD1    C4 2697   3.174   3.172   9.765  0.1028  0.6986 -0.4538
  177MPD1    C5 2698   3.241   3.122   9.874 -0.5728 -0.8329  0.1898
  177MPD1     H 2699   3.186   3.487   9.860  1.2062  0.2606 -1.3716
  177MPD1    H1 2700   3.127   3.112   9.688 -1.1315 -1.0775  1.6816
  177MPD1    H2 2701   3.350   3.138  10.047 -3.3877 -1.0221  0.9785
  177MPD1    H3 2702   3.258   3.015   9.877  1.2218 -0.6128 -1.5657
  177MPD1     N 2703   3.081   3.372   9.657  0.2126  0.3822  0.1946
  177MPD1    H5 2704   3.044   3.461   9.688 -2.2580 -0.2865 -0.8219
  177MPD1    N1 2705   3.308   3.407  10.081  0.6882  0.1586  0.2299
  177MPD1    H6 2706   3.245   3.484  10.100  1.2594  0.5851  0.3812
  177MPD1    H7 2707   3.302   3.338  10.156 -1.3742 -1.8415 -1.7677
  178MPD1     C 2708   0.723   0.956  17.184 -0.1497 -0.7416  0.5082
  178MPD1    C1 2709   0.706   0.896  17.062 -0.7236 -0.1428 -0.0129
  178MPD1    C2 2710   0.816   0.833  17.012 -0.4487  0.6218 -0.4440
  178MPD1    C3 2711   0.934   0.797  17.081  0.2840  0.1482 -0.0270
  178MPD1    C4 2712   0.945   0.858  17.208 -0.1418 -0.5815 -0.0471
  178MPD1    C5 2713   0.839   0.932  17.252 -0.2228 -0.0928  0.3552
  178MPD1     H 2714   0.808   0.801  16.909  2.5371  0.3741 -0.6078
  178MPD1    H1 2715   1.039   0.854  17.262  0.2447  2.0979 -0.5272
  178MPD1    H2 2716   0.642   1.015  17.225  0.9279  1.4574 -0.5333
  178MPD1    H3 2717   0.866   0.984  17.343  1.6824  1.3239 -1.0064
  178MPD1     N 2718   1.033   0.720  17.020 -0.2585 -0.6767 -0.2171
  178MPD1    H5 2719   1.010   0.694  16.924  0.3673  0.8782 -0.7816
  178MPD1    N1 2720   0.594   0.919  16.986  0.2667 -0.0365 -0.4457
  178MPD1    H6 2721   0.504   0.936  17.030 -0.1073 -0.3196 -1.0930
  178MPD1    H7 2722   0.580   0.855  16.908  0.4940 -0.6709  0.0440
  179MPD1     C 2723   0.387   3.893  15.379 -0.3662  0.2158  0.3825
  179MPD1    C1 2724   0.493   3.806  15.364 -0.0174 -0.6322 -0.0971
  179MPD1    C2 2725   0.499   3.701  15.460  0.0575 -0.0846 -0.9037
  179MPD1    C3 2726   0.407   3.676  15.562  0.1438  0.2766  0.0944
  179MPD1    C4 2727   0.294   3.750  15.553 -0.2176 -0.1179 -0.2150
  179MPD1    C5 2728   0.286   3.856  15.464  0.4581  0.6356  0.1215
  179MPD1     H 2729   0.593   3.648  15.455  1.4728  2.4463 -0.9257
  179MPD1    H1 2730   0.211   3.745  15.622  2.5703 -1.6018  3.0833
  179MPD1    H2 2731   0.375   3.986  15.325 -1.0606 -0.3237 -0.4025
  179MPD1    H3 2732   0.199   3.920  15.474 -0.0111  0.2598 -1.6244
  179MPD1     N 2733   0.413   3.578  15.662 -0.6258 -0.1559  0.3344
  179MPD1    H5 2734   0.336   3.570  15.728  0.7231  0.9590  2.0741
  179MPD1    N1 2735   0.611   3.839  15.291  0.4200  0.1097 -0.2712
  179MPD1    H6 2736   0.591   3.898  15.210  0.5059 -1.3334 -1.3390
  179MPD1    H7 2737   0.666   3.759  15.260  0.5898 -0.5012  1.6213
  180MPD1     C 2738   4.705   0.288  14.848 -0.8125 -0.6156 -0.4053
  180MPD1    C1 2739   4.708   0.174  14.777 -0.6203  1.0603 -0.1660
  180MPD1    C2 2740   0.043   0.173  14.654  0.6659  0.0093  0.1959
  180MPD1    C3 2741   0.118   0.285  14.607 -0.0537  0.9196 -0.0071
  180MPD1    C4 2742   0.115   0.396  14.690  0.3753  0.5670 -0.5415
  180MPD1    C5 2743   0.045   0.401  14.807  0.1850 -0.4768 -0.2956
  180MPD1     H 2744   0.046   0.083  14.593  0.8367 -0.0618  0.3107
  180MPD1    H1 2745   0.162   0.489  14.660  0.8256 -0.3155 -2.6214
  180MPD1    H2 2746   4.651   0.301  14.942 -0.6457  1.2909 -0.5779
  180MPD1    H3 2747   0.045   0.487  14.873 -2.6627 -0.3596 -0.4703
  180MPD1     N 2748   0.205   0.272  14.498  0.4906 -0.2492 -0.2264
  180MPD1    H5 2749   0.200   0.192  14.435 -0.0723  0.3177 -0.9003
  180MPD1    N1 2750   4.624   0.073  14.809 -0.2920 -0.0681  0.2964
  180MPD1    H6 2751   4.618   0.044  14.906  1.5227 -0.8283  0.1857
  180MPD1    H7 2752   4.644   4.714  14.751 -0.7159  0.6279 -0.8267
  181MPD1     C 2753   1.659   1.377   9.305 -0.2073 -0.3262 -0.4952
  181MPD1    C1 2754   1.698   1.504   9.291 -0.0924  0.8270 -0.1782
  181MPD1    C2 2755   1.780   1.563   9.387 -0.5764 -0.0246 -0.4648
  181MPD1    C3 2756   1.792   1.500   9.514 -0.3461  0.5151  0.5681
  181MPD1    C4 2757   1.743   1.374   9.530 -0.0765  0.1500  0.2658
  181MPD1    C5 2758   1.677   1.314   9.424 -0.8407  0.1476  0.3797
  181MPD1     H 2759   1.825   1.659   9.364 -0.1937 -0.0619  0.1241
  181MPD1    H1 2760   1.770   1.319   9.620 -1.7412 -2.1645 -0.6251
  181MPD1    H2 2761   1.623   1.319   9.221 -2.6467  1.1853 -0.4676
  181MPD1    H3 2762   1.648   1.210   9.423 -1.7905  0.4404 -2.6226
  181MPD1     N 2763   1.879   1.554   9.607  0.3790 -0.0961 -0.2552
  181MPD1    H5 2764   1.901   1.495   9.686  2.4095  1.9043  0.6787
  181MPD1    N1 2765   1.695   1.561   9.160 -0.5883 -0.1133  0.5851
  181MPD1    H6 2766   1.619   1.527   9.102 -0.1692 -0.5594  0.2984
  181MPD1    H7 2767   1.703   1.662   9.150  1.1873 -0.3993 -0.8301
  182MPD1     C 2768   3.549   1.138   1.664 -1.0412  0.1213  0.1902
  182MPD1    C1 2769   3.426   1.110   1.724 -1.1648  0.2902  0.5582
  182MPD1    C2 2770   3.313   1.133   1.663 -0.6335 -0.3746 -0.4364
  182MPD1    C3 2771   3.311   1.208   1.543  0.0531 -0.1510 -0.3957
  182MPD1    C4 2772   3.431   1.250   1.491 -0.7919  0.3101 -0.1226
  182MPD1    C5 2773   3.554   1.209   1.550 -0.2263  0.0627 -0.9348
  182MPD1     H 2774   3.222   1.109   1.717  0.4405 -1.3558  0.9273
  182MPD1    H1 2775   3.442   1.308   1.400 -0.5436 -1.5641 -1.2997
  182MPD1    H2 2776   3.639   1.090   1.699  0.5809  1.8943 -1.5548
  182MPD1    H3 2777   3.647   1.243   1.507 -0.2645 -0.6470 -1.5621
  182MPD1     N 2778   3.195   1.236   1.469 -1.0613  0.2351 -0.2529
  182MPD1    H5 2779   3.209   1.294   1.388 -2.1557  3.0214  1.5708
  182MPD1    N1 2780   3.431   1.030   1.840  0.0318 -0.7242 -0.2297
  182MPD1    H6 2781   3.503   1.060   1.906  1.4742  0.1762 -2.1987
  182MPD1    H7 2782   3.345   1.035   1.894 -1.5324 -1.2550 -2.6453
  183MPD1     C 2783   2.849   0.168   8.638  0.1480 -0.2253 -0.1528
  183MPD1    C1 2784   2.799   0.298   8.641 -0.3789  0.3892  0.7752
  183MPD1    C2 2785   2.784   0.345   8.768  0.3081  0.1459  0.7819
  183MPD1    C3 2786   2.839   0.285   8.880 -1.1765 -0.4157  0.1467
  183MPD1    C4 2787   2.904   0.166   8.856  0.3214  0.1212 -0.2525
  183MPD1    C5 2788   2.902   0.104   8.736  0.7236 -0.1898 -0.9918
  183MPD1     H 2789   2.729   0.437   8.786  0.2361  0.4946 -1.3163
  183MPD1    H1 2790   2.948   0.108   8.935  0.0319  1.3755  0.8437
  183MPD1    H2 2791   2.848   0.128   8.537  0.1049 -2.1101  0.5953
  183MPD1    H3 2792   2.948   0.008   8.719 -3.3431 -2.1283 -1.0469
  183MPD1     N 2793   2.830   0.348   9.009 -0.6302  0.2751  0.2746
  183MPD1    H5 2794   2.796   0.443   9.022  0.3850  1.2678 -4.3975
  183MPD1    N1 2795   2.736   0.359   8.531  0.0149 -0.3055  0.0224
  183MPD1    H6 2796   2.721   0.459   8.545 -0.7174 -0.2703 -1.0092
  183MPD1    H7 2797   2.782   0.342   8.441  1.4740  1.2351  0.4894
  184MPD1     C 2798   2.058   4.496   9.826 -0.7022 -0.5057  0.5421
  184MPD1    C1 2799   2.080   4.468   9.694  0.3717  0.2188 -0.1550
  184MPD1    C2 2800   2.131   4.346   9.659 -0.1310 -0.1116  0.3114
  184MPD1    C3 2801   2.151   4.237   9.744  0.5254 -0.4216  0.4017
  184MPD1    C4 2802   2.112   4.264   9.874 -0.2963  0.0758  0.0932
  184MPD1    C5 2803   2.067   4.389   9.912  0.3089  0.0519 -0.1347
  184MPD1     H 2804   2.166   4.332   9.558  1.2701 -0.2435  0.8130
  184MPD1    H1 2805   2.124   4.190   9.952  0.4859  1.9910  1.7738
  184MPD1    H2 2806   2.031   4.594   9.863  0.0284 -0.5221  1.1049
  184MPD1    H3 2807   2.053   4.404  10.018  1.4432 -1.1639  0.1868
  184MPD1     N 2808   2.197   4.109   9.707 -0.3069  0.1043  0.0942
  184MPD1    H5 2809   2.208   4.046   9.786  0.0140 -0.3537 -0.3090
  184MPD1    N1 2810   2.081   4.569   9.598  0.3308  0.1036  0.0583
  184MPD1    H6 2811   2.064   4.534   9.504  3.5343  1.2205 -0.9074
  184MPD1    H7 2812   2.012   4.641   9.617 -0.5366 -0.6079 -0.3402
  185MPD1     C 2813   2.301   3.635   8.867 -0.3085 -0.5162  0.0451
  185MPD1    C1 2814   2.334   3.539   8.963  0.2170  0.0365  0.2150
  185MPD1    C2 2815   2.365   3.576   9.093  0.3271 -0.0746 -0.4116
  185MPD1    C3 2816   2.372   3.715   9.121  0.2204 -0.0664 -0.3693
  185MPD1    C4 2817   2.342   3.806   9.024  0.0833 -0.2684  0.2336
  185MPD1    C5 2818   2.311   3.767   8.901 -0.2619  0.3478  0.4828
  185MPD1     H 2819   2.394   3.501   9.165  1.9431 -0.1958 -1.1879
  185MPD1    H1 2820   2.339   3.912   9.044 -1.0609 -0.7650  2.7473
  185MPD1    H2 2821   2.272   3.601   8.768 -2.4614 -4.5799  2.0600
  185MPD1    H3 2822   2.291   3.847   8.830  2.9974  0.0316 -0.7602
  185MPD1     N 2823   2.401   3.768   9.243  0.5708  0.4536  0.1346
  185MPD1    H5 2824   2.391   3.868   9.255 -1.4722  0.5216 -2.0222
  185MPD1    N1 2825   2.295   3.410   8.937 -0.4787  0.2549 -0.4527
  185MPD1    H6 2826   2.344   3.348   9.002  0.7361 -1.3392 -2.9074
  185MPD1    H7 2827   2.326   3.376   8.847 -0.8265 -0.5447 -0.2774
  186MPD1     C 2828   1.629   3.386  15.482  1.0469 -0.8111 -0.5108
  186MPD1    C1 2829   1.532   3.320  15.552  0.7960  0.0075  0.4850
  186MPD1    C2 2830   1.439   3.396  15.624 -0.5430 -0.2200  0.0646
  186MPD1    C3 2831   1.442   3.532  15.629  0.9180  1.0871  0.0990
  186MPD1    C4 2832   1.539   3.595  15.551  0.1786  0.3074 -0.1946
  186MPD1    C5 2833   1.621   3.523  15.479  0.3729  0.7879  0.0722
  186MPD1     H 2834   1.354   3.341  15.662 -0.0457 -1.3724 -0.4830
  186MPD1    H1 2835   1.551   3.702  15.543 -2.8081  0.6109 -0.5631
  186MPD1    H2 2836   1.703   3.336  15.420 -0.8384 -1.1133 -2.4996
  186MPD1    H3 2837   1.696   3.572  15.419  0.0354 -0.7940 -1.6258
  186MPD1     N 2838   1.351   3.611  15.702  0.4628 -0.0875  0.2127
  186MPD1    H5 2839   1.375   3.708  15.719 -0.1795  0.6110 -2.8705
  186MPD1    N1 2840   1.532   3.179  15.557 -0.5265  0.0775 -0.1558
  186MPD1    H6 2841   1.435   3.150  15.567  0.0490 -2.0801 -0.7562
  186MPD1    H7 2842   1.558   3.145  15.464  0.8003  0.8171 -0.0523
  187MPD1     C 2843   0.958   1.033  17.602  0.4373  0.3117 -0.1511
  187MPD1    C1 2844   0.850   0.946  17.601 -0.0759  0.6324  0.5734
  187MPD1    C2 2845   0.729   1.000  17.574  0.4659 -0.5827 -0.0915
  187MPD1    C3 2846   0.708   1.132  17.538 -0.4939  0.2578  0.1214
  187MPD1    C4 2847   0.820   1.215  17.543  0.0841 -0.5324 -0.1927
  187MPD1    C5 2848   0.937   1.161  17.568 -0.0257  1.0100 -1.0571
  187MPD1     H 2849   0.653   0.923  17.570 -0.3694  0.2535 -0.1687
  187MPD1    H1 2850   0.814   1.317  17.507 -2.1513 -1.2360 -1.8217
  187MPD1    H2 2851   1.061   1.003  17.617 -0.2406 -2.1089 -0.3981
  187MPD1    H3 2852   1.023   1.227  17.558  0.7820  0.3279  1.4658
  187MPD1     N 2853   0.582   1.185  17.514 -0.1006  0.7946  0.1085
  187MPD1    H5 2854   0.577   1.286  17.525 -3.2269  0.3487  2.6839
  187MPD1    N1 2855   0.863   0.808  17.602  0.5649 -0.5009 -0.5795
  187MPD1    H6 2856   0.948   0.786  17.654  0.6782 -1.9974 -1.3838
  187MPD1    H7 2857   0.796   0.771  17.669  0.6529  2.2533  1.0004
  188MPD1     C 2858   4.271   0.042  10.620 -0.1029  0.3804  0.6544
  188MPD1    C1 2859   4.225   0.075  10.493 -0.5465 -0.8283 -0.0015
  188MPD1    C2 2860   4.320   0.074  10.391  0.0651  0.3666 -0.0589
  188MPD1    C3 2861   4.441   0.008  10.409 -0.4889 -0.0391 -0.1808
  188MPD1    C4 2862   4.467   4.673  10.531  0.3140  0.0649 -0.0372
  188MPD1    C5 2863   4.382   4.689  10.640 -0.2618 -0.8400  0.0661
  188MPD1     H 2864   4.300   0.112  10.292 -0.7376  1.0222  0.3501
  188MPD1    H1 2865   4.565   4.632  10.554  1.3027  1.2862 -2.0098
  188MPD1    H2 2866   4.207   0.061  10.706 -0.5481 -1.0657  0.6479
  188MPD1    H3 2867   4.407   4.658  10.741  2.7384 -1.2853 -0.8070
  188MPD1     N 2868   4.533   4.705  10.308  0.2690  0.0192  0.4745
  188MPD1    H5 2869   4.609   4.643  10.335 -1.0744 -1.2900  1.2266
  188MPD1    N1 2870   4.105   0.148  10.483  0.0402 -0.2765 -0.5069
  188MPD1    H6 2871   4.067   0.144  10.389  0.6675  2.4487 -0.8877
  188MPD1    H7 2872   4.037   0.134  10.558  0.5977  0.2066  0.0922
  189MPD1     C 2873   1.704   1.154   0.218 -0.4715 -0.4845 -0.5795
  189MPD1    C1 2874   1.614   1.169   0.319  0.0547  0.4565 -0.5161
  189MPD1    C2 2875   1.564   1.294   0.337  0.1900 -0.3323 -0.0575
  189MPD1    C3 2876   1.583   1.405   0.255  0.2207 -0.3348  0.3702
  189MPD1    C4 2877   1.673   1.390   0.150  0.0714 -0.6039  0.0248
  189MPD1    C5 2878   1.728   1.267   0.133 -0.3573 -0.8995  0.6235
  189MPD1     H 2879   1.499   1.305   0.423  0.9826  2.5214  0.1904
  189MPD1    H1 2880   1.682   1.465   0.072 -1.9498 -1.1620 -0.7480
  189MPD1    H2 2881   1.759   1.062   0.203  0.7165  0.2839 -0.9277
  189MPD1    H3 2882   1.804   1.251   0.058  0.0776  0.4610  0.7795
  189MPD1     N 2883   1.521   1.526   0.282 -0.6451 -0.0406 -0.5032
  189MPD1    H5 2884   1.458   1.530   0.361 -0.9886  1.7764 -0.8731
  189MPD1    N1 2885   1.612   1.069   0.415 -0.0086  0.5550  0.9038
  189MPD1    H6 2886   1.586   0.981   0.371 -1.0736  2.4597 -2.2953
  189MPD1    H7 2887   1.549   1.095   0.491 -0.1301  0.1583  0.9413
  190MPD1     C 2888   0.468   4.272  15.246  0.4188 -0.0535 -0.4398
  190MPD1    C1 2889   0.548   4.328  15.152  0.0487 -0.1570  0.3847
  190MPD1    C2 2890   0.624   4.443  15.180  0.3287  0.0221  0.4577
  190MPD1    C3 2891   0.629   4.495  15.310  0.3953 -0.4429 -0.5209
  190MPD1    C4 2892   0.553   4.437  15.405 -0.0395  0.2865 -0.3921
  190MPD1    C5 2893   0.472   4.327  15.369 -0.3411  0.5000 -0.0310
  190MPD1     H 2894   0.689   4.477  15.101  0.5663  0.0529  0.6651
  190MPD1    H1 2895   0.561   4.466  15.510  0.3102  0.6150 -0.5117
  190MPD1    H2 2896   0.394   4.195  15.226 -0.9010  0.9064  0.6859
  190MPD1    H3 2897   0.410   4.282  15.445  1.4508 -0.4902  0.8512
  190MPD1     N 2898   0.729   4.595  15.341  0.1669  0.4877 -0.8584
  190MPD1    H5 2899   0.782   4.624  15.260  1.9897 -0.4648 -0.0016
  190MPD1    N1 2900   0.527   4.288  15.019 -0.3753  0.2137  0.3784
  190MPD1    H6 2901   0.604   4.312  14.958  0.3891 -0.1109  1.2203
  190MPD1    H7 2902   0.504   4.189  15.013 -2.4348  0.6511  1.0570
  191MPD1     C 2903   0.243   0.444  12.264 -0.1487 -0.1639 -0.2406
  191MPD1    C1 2904   0.306   0.553  12.211  0.1133  0.4383 -0.8433
  191MPD1    C2 2905   0.314   0.673  12.275  0.3974 -0.0297 -0.1219
  191MPD1    C3 2906   0.239   0.688  12.391 -0.1076  0.2886  0.3688
  191MPD1    C4 2907   0.157   0.591  12.433 -0.1325 -0.4558 -0.7584
  191MPD1    C5 2908   0.158   0.469  12.373 -0.5240  0.7210 -0.2395
  191MPD1     H 2909   0.379   0.750  12.238  1.3627 -0.3862  0.8085
  191MPD1    H1 2910   0.087   0.606  12.514  2.5291 -0.0730  1.4501
  191MPD1    H2 2911   0.230   0.347  12.218  2.8537 -0.1934 -0.9936
  191MPD1    H3 2912   0.092   0.394  12.416 -1.3216  1.9294  0.6500
  191MPD1     N 2913   0.255   0.811  12.451  0.0083  0.3106  0.1174
  191MPD1    H5 2914   0.302   0.885  12.399  0.0272  1.1455  1.3134
  191MPD1    N1 2915   0.385   0.541  12.100  0.0648 -0.4561 -0.7250
  191MPD1    H6 2916   0.395   0.625  12.043  2.2106 -0.6417 -0.6425
  191MPD1    H7 2917   0.350   0.466  12.041  0.2135  0.3621 -1.8711
  192MPD1     C 2918   4.489   1.233  13.218  0.1723  0.6989  0.6516
  192MPD1    C1 2919   4.580   1.331  13.197  0.6998 -0.6652  0.1970
  192MPD1    C2 2920   4.667   1.301  13.099  0.5631 -0.5164 -0.6335
  192MPD1    C3 2921   4.675   1.183  13.031  0.4488 -0.3048  0.0044
  192MPD1    C4 2922   4.593   1.085  13.076  0.8820  0.5078  0.2378
  192MPD1    C5 2923   4.506   1.108  13.171 -0.3768 -1.4692  0.6425
  192MPD1     H 2924   0.017   1.376  13.072  2.1554 -1.4714  1.0271
  192MPD1    H1 2925   4.584   0.985  13.036  0.8361  0.4983  0.2731
  192MPD1    H2 2926   4.400   1.254  13.276 -0.0811  0.4700  0.3400
  192MPD1    H3 2927   4.432   1.031  13.188 -2.2333  0.0149 -0.6821
  192MPD1     N 2928   0.031   1.155  12.920 -0.0710  0.4895  0.0136
  192MPD1    H5 2929   0.015   1.067  12.872  1.4040  0.6123 -0.7037
  192MPD1    N1 2930   4.569   1.458  13.256 -0.2429 -0.9974  0.1312
  192MPD1    H6 2931   4.522   1.463  13.346 -1.5769 -2.4209 -0.5013
  192MPD1    H7 2932   4.652   1.518  13.252  0.3777 -1.9320 -1.0563
  193MPD1     C 2933   4.489   2.106   0.104 -0.3120 -0.4325 -0.1044
  193MPD1    C1 2934   4.399   2.210   0.076 -0.4993  0.4622  0.7452
  193MPD1    C2 2935   4.452   2.317  17.687 -0.5036 -0.0066 -0.7968
  193MPD1    C3 2936   4.579   2.305  17.624  0.6638 -0.3545 -0.1620
  193MPD1    C4 2937   4.660   2.204  17.660 -0.1123  0.5132  0.4549
  193MPD1    C5 2938   4.618   2.110   0.056 -0.4745 -0.2333 -0.0578
  193MPD1     H 2939   4.400   2.411  17.672 -0.3037  0.7029  3.0446
  193MPD1    H1 2940   0.039   2.196  17.626 -0.7337 -2.8012 -0.6415
  193MPD1    H2 2941   4.469   2.018   0.163  1.6310  1.0749  2.7764
  193MPD1    H3 2942   4.685   2.029   0.082 -0.0817  0.4252  0.9769
  193MPD1     N 2943   4.626   2.401  17.530  0.7217  0.0954 -0.8159
  193MPD1    H5 2944   0.000   2.388  17.502  1.2839  0.1629  1.1041
  193MPD1    N1 2945   4.279   2.208   0.152  0.1757  0.2039  0.1713
  193MPD1    H6 2946   4.265   2.117   0.195 -0.2238  0.3073  0.2602
  193MPD1    H7 2947   4.197   2.244   0.103 -0.5187 -1.0768  0.3798
  194MPD1     C 2948   1.147   3.752  17.388  0.8094  0.1705 -0.1586
  194MPD1    C1 2949   1.205   3.863  17.451 -0.0760  0.2027  0.1343
  194MPD1    C2 2950   1.345   3.877  17.432 -0.1101  0.4261 -0.2814
  194MPD1    C3 2951   1.415   3.802  17.337  0.2180 -0.5864  0.3564
  194MPD1    C4 2952   1.349   3.700  17.273  0.2666  0.0208  0.0719
  194MPD1    C5 2953   1.225   3.670  17.311 -0.3269 -0.4503  0.4335
  194MPD1     H 2954   1.387   3.965  17.478  1.2767  0.2619 -1.2418
  194MPD1    H1 2955   1.406   3.627  17.217  2.9299 -0.0522  2.8763
  194MPD1    H2 2956   1.043   3.724  17.394  1.5422 -2.3923  0.5365
  194MPD1    H3 2957   1.184   3.578  17.272  0.1456  0.3343 -1.9230
  194MPD1     N 2958   1.552   3.815  17.321 -0.3814  0.2442 -0.2889
  194MPD1    H5 2959   1.588   3.757  17.246 -0.2278  2.5017 -1.9645
  194MPD1    N1 2960   1.139   3.933  17.549 -0.7511  0.2155 -0.0783
  194MPD1    H6 2961   1.041   3.944  17.525 -0.8632  0.5445  0.5255
  194MPD1    H7 2962   1.177   4.028  17.552  1.3087 -0.6466  1.2004
  195MPD1     C 2963   0.085   0.497   0.604 -0.0155  0.4936  0.2178
  195MPD1    C1 2964   0.119   0.389   0.523  0.5860 -0.8964 -0.8619
  195MPD1    C2 2965   0.021   0.305   0.473  0.7812 -0.8132  0.0276
  195MPD1    C3 2966   4.610   0.313   0.507 -0.2302 -0.1308  0.4084
  195MPD1    C4 2967   4.578   0.415   0.591 -0.0998 -0.0658 -0.0054
  195MPD1    C5 2968   4.674   0.506   0.641  0.6167 -0.0033  0.0707
  195MPD1     H 2969   0.048   0.234   0.396  0.1036  0.0746 -1.0311
  195MPD1    H1 2970   4.473   0.432   0.612 -0.1927  0.4098 -0.8424
  195MPD1    H2 2971   0.149   0.572   0.650 -0.2079 -0.2628  1.7127
  195MPD1    H3 2972   4.632   0.586   0.701  0.4942 -0.9086  1.1822
  195MPD1     N 2973   4.508   0.225   0.464  0.3287  0.4455 -0.3124
  195MPD1    H5 2974   4.412   0.243   0.492  0.4876 -0.7532  0.9854
  195MPD1    N1 2975   0.258   0.386   0.477 -0.1125 -0.9005 -0.5578
  195MPD1    H6 2976   0.298   0.294   0.460 -2.4141 -1.8371 -0.8779
  195MPD1    H7 2977   0.324   0.436   0.536  0.6474  0.3276 -2.4593
  196MPD1     C 2978   4.053   1.415   0.519  0.2160 -0.0885 -0.1690
  196MPD1    C1 2979   3.973   1.529   0.500  0.5675 -0.3759  1.0360
  196MPD1    C2 2980   3.950   1.619   0.606  0.5046 -0.1778 -0.0961
  196MPD1    C3 2981   4.037   1.612   0.714  0.1504 -0.7414  0.1285
  196MPD1    C4 2982   4.124   1.503   0.723 -0.0708 -0.2810 -0.0143
  196MPD1    C5 2983   4.127   1.400   0.630  0.3319 -0.0523 -1.0263
  196MPD1     H 2984   3.878   1.697   0.587  0.0354 -0.3327  1.0582
  196MPD1    H1 2985   4.178   1.489   0.815  3.1476  2.6451 -1.4839
  196MPD1    H2 2986   4.045   1.330   0.452  0.0391  1.7911 -2.5152
  196MPD1    H3 2987   4.189   1.311   0.634  0.0358 -0.2204 -0.2688
  196MPD1     N 2988   4.050   1.720   0.806 -0.6616  0.4533  0.7046
  196MPD1    H5 2989   4.103   1.706   0.892 -0.8131  0.4579  0.7973
  196MPD1    N1 2990   3.882   1.516   0.394 -0.0194 -0.1676 -0.4121
  196MPD1    H6 2991   3.931   1.468   0.319  1.2512 -0.2416  0.4540
  196MPD1    H7 2992   3.832   1.598   0.360 -1.7730 -1.2806 -0.4886
  197MPD1     C 2993   3.600   3.254  17.638 -0.0866  0.4417 -0.0741
  197MPD1    C1 2994   3.598   3.391  17.614 -0.5240 -0.6284  0.3598
  197MPD1    C2 2995   3.511   3.439  17.518  0.0612  0.2323  0.0795
  197MPD1    C3 2996   3.423   3.354  17.453  0.2241  0.1656  1.0030
  197MPD1    C4 2997   3.413   3.229  17.492 -0.5097  0.4846  0.2924
  197MPD1    C5 2998   3.499   3.180  17.582  0.2377 -0.5970  0.4683
  197MPD1     H 2999   3.516   3.545  17.492 -0.1636  0.3677  0.5868
  197MPD1    H1 3000   3.342   3.158  17.451 -1.2994  0.9616  0.8263
  197MPD1    H2 3001   3.663   3.212   0.022  0.4170  1.4219  0.0461
  197MPD1    H3 3002   3.513   3.073  17.595  1.0679 -0.1770  2.9125
  197MPD1     N 3003   3.343   3.397  17.345 -0.8982  0.4576  0.3933
  197MPD1    H5 3004   3.281   3.326  17.308  1.6965 -1.3069 -0.5361
  197MPD1    N1 3005   3.675   3.475   0.002 -0.1851 -0.1183  0.5292
  197MPD1    H6 3006   3.726   3.433   0.080  1.0702  1.4649  0.5753
  197MPD1    H7 3007   3.626   3.556   0.039 -0.7329 -0.8317  1.3684
  198MPD1     C 3008   4.578   1.580  15.538  0.5380 -0.1454  0.3265
  198MPD1    C1 3009   4.677   1.552  15.448 -0.3758 -0.2887  0.4837
  198MPD1    C2 3010   0.085   1.546  15.492  0.5701 -0.3558 -0.2818
  198MPD1    C3 3011   0.123   1.557  15.626  0.3520 -0.1036 -1.0676
  198MPD1    C4 3012   0.017   1.567  15.718  0.4210  0.2259 -0.2285
  198MPD1    C5 3013   4.608   1.580  15.676 -1.0071 -0.6167  0.2815
  198MPD1     H 3014   0.158   1.539  15.412 -1.0173  1.9233 -1.9137
  198MPD1    H1 3015   0.031   1.548  15.824 -2.5719  0.6735  0.2438
  198MPD1    H2 3016   4.479   1.597  15.497  0.3459 -0.9310  0.4669
  198MPD1    H3 3017   4.521   1.591  15.739 -1.0463  0.7712 -0.0060
  198MPD1     N 3018   0.260   1.539  15.665 -0.3019 -0.3904  0.1987
  198MPD1    H5 3019   0.326   1.508  15.595 -0.2633  0.7503 -0.2720
  198MPD1    N1 3020   4.647   1.568  15.312  0.2016  0.3738 -0.0821
  198MPD1    H6 3021   4.694   1.505  15.247 -0.4636  1.2780 -1.4613
  198MPD1    H7 3022   4.548   1.545  15.302  0.2944 -0.0167 -0.1145
  199MPD1     C 3023   2.360   1.450   9.593  0.4523 -0.0445 -0.8382
  199MPD1    C1 3024   2.428   1.572   9.610 -0.9807 -0.6552  0.6689
  199MPD1    C2 3025   2.366   1.689   9.568  0.2435 -0.8703  0.5008
  199MPD1    C3 3026   2.248   1.687   9.487  0.8887 -0.0363 -0.2234
  199MPD1    C4 3027   2.189   1.565   9.468  0.1161  0.1405 -0.1345
  199MPD1    C5 3028   2.240   1.456   9.528 -0.0298 -0.4921 -0.3382
  199MPD1     H 3029   2.407   1.783   9.600 -0.7209 -0.6690  1.1358
  199MPD1    H1 3030   2.102   1.548   9.405 -0.4445  2.8077 -0.1001
  199MPD1    H2 3031   2.399   1.359   9.637 -0.0476  1.3431  2.4800
  199MPD1    H3 3032   2.183   1.365   9.514  1.0081 -1.1093 -0.5655
  199MPD1     N 3033   2.197   1.795   9.419 -0.4994 -0.5694  0.9003
  199MPD1    H5 3034   2.122   1.782   9.352  0.6548 -1.3268 -0.2452
  199MPD1    N1 3035   2.545   1.592   9.682 -0.0328  0.3811 -0.1865
  199MPD1    H6 3036   2.605   1.511   9.693 -1.1214 -0.6482 -1.8847
  199MPD1    H7 3037   2.614   1.659   9.650 -0.3876  0.7937 -0.1017
  200MPD1     C 3038   1.366   2.422  15.134  0.0990  0.0099  0.2608
  200MPD1    C1 3039   1.354   2.414  14.996  0.4016 -0.3314  0.4658
  200MPD1    C2 3040   1.465   2.421  14.914  0.5309  0.6239  0.0104
  200MPD1    C3 3041   1.590   2.443  14.963  0.1345 -0.0223 -0.0836
  200MPD1    C4 3042   1.597   2.475  15.098  0.6869  0.0717 -0.0433
  200MPD1    C5 3043   1.494   2.447  15.187  0.2704  0.1951  0.6403
  200MPD1     H 3044   1.464   2.396  14.809 -3.4091 -0.9848  0.4593
  200MPD1    H1 3045   1.691   2.492  15.148  0.4201  1.0759  0.1126
  200MPD1    H2 3046   1.289   2.399  15.206  1.6503 -2.7379  1.0478
  200MPD1    H3 3047   1.503   2.445  15.295 -0.5578 -0.6871  0.6960
  200MPD1     N 3048   1.692   2.448  14.865  0.0257  0.0376  0.3440
  200MPD1    H5 3049   1.662   2.418  14.773 -1.1146  1.1435  0.3576
  200MPD1    N1 3050   1.226   2.372  14.942 -0.3557  0.6003 -0.1467
  200MPD1    H6 3051   1.162   2.438  14.988 -0.3589  1.0637 -0.8137
  200MPD1    H7 3052   1.223   2.385  14.841  1.2402  2.0009 -0.0172
  201MPD1     C 3053   3.649   1.230  12.637  0.3393  0.3943  0.5118
  201MPD1    C1 3054   3.556   1.128  12.612  0.4441 -0.3195 -0.0990
  201MPD1    C2 3055   3.552   1.024  12.706 -0.0186  0.0711  0.1229
  201MPD1    C3 3056   3.639   1.013  12.808 -0.3459 -0.2389 -0.1134
  201MPD1    C4 3057   3.745   1.111  12.822  0.3650 -0.0179  0.8188
  201MPD1    C5 3058   3.740   1.219  12.737  0.1489 -0.5193  0.7598
  201MPD1     H 3059   3.468   0.956  12.696  0.7469 -1.1805  2.3273
  201MPD1    H1 3060   3.825   1.110  12.896  1.7676  2.0799 -0.6778
  201MPD1    H2 3061   3.661   1.313  12.569  1.7088 -0.2483 -0.0313
  201MPD1    H3 3062   3.808   1.301  12.756 -0.1615  0.4197 -2.2264
  201MPD1     N 3063   3.638   0.896  12.897 -0.8192 -0.3999 -0.3250
  201MPD1    H5 3064   3.570   0.824  12.872 -0.2722 -1.1607  0.3691
  201MPD1    N1 3065   3.444   1.157  12.529  0.1529  0.0574 -0.1569
  201MPD1    H6 3066   3.389   1.075  12.503  0.4765 -0.1777 -0.1050
  201MPD1    H7 3067   3.467   1.208  12.444 -0.6407  2.0768  0.8593
  202MPD1     C 3068   3.252   3.623   9.333 -0.9020 -0.3175 -0.3852
  202MPD1    C1 3069   3.207   3.747   9.288 -0.2086 -0.1912  0.0899
  202MPD1    C2 3070   3.219   3.846   9.385  0.4929 -0.2228 -0.0479
  202MPD1    C3 3071   3.248   3.824   9.520 -0.1266  0.1333 -1.2942
  202MPD1    C4 3072   3.285   3.691   9.554 -0.2736 -0.4609  0.0809
  202MPD1    C5 3073   3.284   3.588   9.462 -0.2511  0.1233 -0.6495
  202MPD1     H 3074   3.180   3.943   9.357  0.5940  0.5336  2.3674
  202MPD1    H1 3075   3.318   3.661   9.653 -0.8445 -0.4185  0.2823
  202MPD1    H2 3076   3.248   3.547   9.256 -1.3811  0.2513 -0.9164
  202MPD1    H3 3077   3.311   3.485   9.477  2.5429  0.6237 -2.2034
  202MPD1     N 3078   3.258   3.932   9.616 -0.0590 -0.0297 -0.2266
  202MPD1    H5 3079   3.293   3.914   9.709 -0.1081  1.2746  0.0304
  202MPD1    N1 3080   3.207   3.780   9.152  0.2500 -0.7747 -0.1023
  202MPD1    H6 3081   3.166   3.714   9.086 -1.4394 -0.3873  0.5710
  202MPD1    H7 3082   3.152   3.864   9.135 -1.1206 -1.7792 -0.6874
  203MPD1     C 3083   2.913   2.018  12.272  0.9132 -0.0527 -0.5410
  203MPD1    C1 3084   2.909   1.909  12.191  0.0367  0.0047 -0.0759
  203MPD1    C2 3085   2.948   1.783  12.253 -0.4629 -0.0090 -0.4224
  203MPD1    C3 3086   2.974   1.778  12.388 -0.1068 -0.1080 -0.6515
  203MPD1    C4 3087   2.965   1.893  12.458  0.2681  0.2562  0.7166
  203MPD1    C5 3088   2.940   2.008  12.403 -0.0833  0.4411 -0.4357
  203MPD1     H 3089   2.958   1.695  12.191  0.5599  0.0704 -0.3692
  203MPD1    H1 3090   2.973   1.888  12.566 -0.4176 -0.3109  0.7376
  203MPD1    H2 3091   2.899   2.115  12.226 -0.1212  0.0794  0.0392
  203MPD1    H3 3092   2.949   2.092  12.470 -0.2635  0.2975 -0.2316
  203MPD1     N 3093   3.010   1.652  12.443 -0.0575 -0.6540  0.3035
  203MPD1    H5 3094   3.012   1.570  12.382 -3.8509 -0.1802 -0.4616
  203MPD1    N1 3095   2.923   1.929  12.053  0.1643 -0.3840 -0.5883
  203MPD1    H6 3096   2.863   1.857  12.013 -0.6757 -0.6205  1.1164
  203MPD1    H7 3097   2.880   2.019  12.033 -0.0005 -0.5364 -0.9174
  204MPD1     C 3098   2.380   3.500  17.068  0.2749  0.4791 -0.2736
  204MPD1    C1 3099   2.463   3.397  17.098 -0.0337 -0.5013  0.3696
  204MPD1    C2 3100   2.440   3.274  17.042 -0.4155 -0.5433 -0.5662
  204MPD1    C3 3101   2.350   3.257  16.940  0.1745 -0.4047  0.5864
  204MPD1    C4 3102   2.272   3.364  16.905  0.2477 -0.2946 -0.0280
  204MPD1    C5 3103   2.292   3.484  16.965  1.0428  0.0001  0.4794
  204MPD1     H 3104   2.499   3.190  17.078 -0.5212 -0.1942  0.4244
  204MPD1    H1 3105   2.210   3.346  16.818 -0.9005  1.9569  0.3203
  204MPD1    H2 3106   2.386   3.601  17.108 -1.7897  1.1060 -1.5386
  204MPD1    H3 3107   2.237   3.572  16.935  1.4027 -0.3078 -1.1034
  204MPD1     N 3108   2.325   3.126  16.889  0.6466 -0.3135  0.9544
  204MPD1    H5 3109   2.389   3.053  16.921  0.4257 -1.0222 -0.2262
  204MPD1    N1 3110   2.548   3.412  17.205  0.2283 -0.1185 -0.1349
  204MPD1    H6 3111   2.586   3.506  17.211  1.3568 -0.5744  0.0249
  204MPD1    H7 3112   2.621   3.341  17.199 -0.3755 -0.5117 -2.6032
  205MPD1     C 3113   2.540   1.739  16.880 -0.2931  0.4358 -0.1568
  205MPD1    C1 3114   2.468   1.663  16.964 -0.1990 -0.1314  0.3483
  205MPD1    C2 3115   2.366   1.717  17.030  0.3165 -0.1414  0.2957
  205MPD1    C3 3116   2.325   1.849  16.997 -0.0171  0.7972  0.7098
  205MPD1    C4 3117   2.398   1.925  16.910 -0.2849 -0.4315 -0.0834
  205MPD1    C5 3118   2.511   1.872  16.850  0.6184  0.2248 -0.4384
  205MPD1     H 3119   2.307   1.661  17.101 -2.0867 -0.8751 -2.2507
  205MPD1    H1 3120   2.372   2.024  16.872 -0.1970 -0.0264  0.9208
  205MPD1    H2 3121   2.623   1.697  16.825 -1.4921  2.2413 -3.3783
  205MPD1    H3 3122   2.562   1.923  16.768  3.5867 -1.3171  0.4393
  205MPD1     N 3123   2.222   1.916  17.063 -0.0493  0.6997  0.6672
  205MPD1    H5 3124   2.180   2.002  17.029 -0.8008  0.5727  1.2795
  205MPD1    N1 3125   2.538   1.545  17.002 -0.0224 -0.2433  0.2088
  205MPD1    H6 3126   2.593   1.501  16.929  1.1374  1.9420 -0.2564
  205MPD1    H7 3127   2.476   1.471  17.036 -1.1183  0.4342 -0.2909
  206MPD1     C 3128   2.874   4.148  16.557 -0.4124  0.1881 -0.6764
  206MPD1    C1 3129   2.818   4.271  16.593  0.7398  0.6406  0.1238
  206MPD1    C2 3130   2.732   4.333  16.497  0.1266  0.8022 -0.2928
  206MPD1    C3 3131   2.712   4.281  16.365  0.1076 -0.0669 -0.2706
  206MPD1    C4 3132   2.765   4.158  16.339 -0.2958  0.7977 -0.6192
  206MPD1    C5 3133   2.845   4.097  16.434  1.0037 -0.4026 -0.1606
  206MPD1     H 3134   2.686   4.425  16.533  1.9544  1.8792 -0.7475
  206MPD1    H1 3135   2.747   4.125  16.238  1.6426 -3.6847  0.5262
  206MPD1    H2 3136   2.938   4.099  16.630 -1.8409 -0.4097  0.1736
  206MPD1    H3 3137   2.874   3.994  16.414 -2.4281 -1.0606 -1.7915
  206MPD1     N 3138   2.648   4.344  16.260  0.6944  0.6258 -0.6445
  206MPD1    H5 3139   2.662   4.313  16.164 -1.8857  0.1656 -0.8763
  206MPD1    N1 3140   2.873   4.338  16.703 -0.7670  0.3084 -0.0940
  206MPD1    H6 3141   2.808   4.400  16.751  1.3243  1.6838  0.9962
  206MPD1    H7 3142   2.911   4.270  16.768  3.4028  0.6409 -2.1922
  207MPD1     C 3143   4.555   1.090   9.746 -0.3999  0.2236 -0.8259
  207MPD1    C1 3144   4.605   1.214   9.698  0.2090  0.0541 -0.4476
  207MPD1    C2 3145   4.697   1.288   9.771  0.0481 -0.1064 -0.1526
  207MPD1    C3 3146   4.717   1.256   9.903 -0.1118  0.2011  0.7315
  207MPD1    C4 3147   4.652   1.148   9.962  0.4478 -0.1886  0.0331
  207MPD1    C5 3148   4.574   1.066   9.876 -0.1375 -0.4035 -0.0063
  207MPD1     H 3149   0.023   1.372   9.723 -1.7073  0.0772 -1.5787
  207MPD1    H1 3150   4.664   1.115  10.064 -1.2641 -1.3299 -0.1254
  207MPD1    H2 3151   4.489   1.026   9.689  1.4801 -2.0327 -0.4395
  207MPD1    H3 3152   4.507   0.998   9.928 -0.6575  1.0997  1.2856
  207MPD1     N 3153   0.087   1.328   9.987 -0.4962  0.1270 -0.5664
  207MPD1    H5 3154   0.110   1.289  10.078 -2.4331  0.8918  0.2684
  207MPD1    N1 3155   4.577   1.246   9.562 -0.2323 -0.3771 -0.7740
  207MPD1    H6 3156   4.493   1.209   9.519 -0.4095  0.4399 -1.1396
  207MPD1    H7 3157   4.588   1.345   9.539  0.6227  0.0795  1.5315
  208MPD1     C 3158   2.792   1.380  17.491  1.1046  0.8560  0.0026
  208MPD1    C1 3159   2.667   1.437  17.501  0.3396 -0.3848  0.0355
  208MPD1    C2 3160   2.654   1.529  17.606 -0.3413  0.2732  0.7334
  208MPD1    C3 3161   2.753   1.547   0.009  0.0990 -0.7082 -0.4664
  208MPD1    C4 3162   2.871   1.472  17.693  0.3248  0.6231 -0.1702
  208MPD1    C5 3163   2.888   1.394  17.585  0.0138 -0.1847  0.0848
  208MPD1     H 3164   2.567   1.594  17.608  0.2196  1.0002  1.2998
  208MPD1    H1 3165   2.955   1.494   0.065  0.0458 -2.9715  1.3982
  208MPD1    H2 3166   2.818   1.324  17.402  0.1450  0.1407  0.1771
  208MPD1    H3 3167   2.977   1.333  17.572 -0.4940 -0.9827  0.3225
  208MPD1     N 3168   2.729   1.629   0.119 -0.3644  0.3123  0.3342
  208MPD1    H5 3169   2.638   1.674   0.120 -0.1884  0.6451  1.0239
  208MPD1    N1 3170   2.586   1.451  17.384 -0.4726 -0.8012  0.7928
  208MPD1    H6 3171   2.487   1.466  17.407 -0.1571  3.8442 -0.8636
  208MPD1    H7 3172   2.584   1.363  17.335 -1.7202  0.8208 -2.0809
  209MPD1     C 3173   0.665   0.980  11.617  0.0413 -0.5732 -0.3427
  209MPD1    C1 3174   0.591   0.937  11.508 -0.2044 -0.1782 -0.4536
  209MPD1    C2 3175   0.639   0.969  11.382  0.0194  0.0969  0.2253
  209MPD1    C3 3176   0.745   1.055  11.363  0.5140 -0.4070  0.5495
  209MPD1    C4 3177   0.810   1.091  11.477 -0.3815 -0.1535  0.2507
  209MPD1    C5 3178   0.775   1.056  11.601  0.0251  0.0317  0.5146
  209MPD1     H 3179   0.580   0.938  11.296 -2.1012 -0.9347  2.0589
  209MPD1    H1 3180   0.901   1.150  11.471 -1.2791  0.8428 -3.5643
  209MPD1    H2 3181   0.643   0.956  11.720  0.4869  1.9187  0.3344
  209MPD1    H3 3182   0.841   1.077  11.684  2.3946 -3.5390 -0.4550
  209MPD1     N 3183   0.781   1.089  11.231 -0.6729 -0.3052 -0.4489
  209MPD1    H5 3184   0.713   1.070  11.157  0.1432 -1.6704 -0.8492
  209MPD1    N1 3185   0.491   0.843  11.527 -0.2918  0.3482 -0.7399
  209MPD1    H6 3186   0.433   0.861  11.608  0.0379 -1.3293 -0.1372
  209MPD1    H7 3187   0.433   0.829  11.444 -0.8668  1.8219 -0.5763
  210MPD1     C 3188   1.547   1.407  10.499  0.1746 -0.2260  0.4782
  210MPD1    C1 3189   1.536   1.449  10.632 -0.2362  0.6111 -0.8856
  210MPD1    C2 3190   1.426   1.410  10.709 -0.5399  0.0348  0.1750
  210MPD1    C3 3191   1.336   1.317  10.657 -0.9894 -0.4336  0.0526
  210MPD1    C4 3192   1.355   1.265  10.532  0.4216  0.1827  0.6011
  210MPD1    C5 3193   1.457   1.315  10.446 -0.3042  0.3756  0.0642
  210MPD1     H 3194   1.421   1.458  10.807 -0.1229  0.5464 -0.0574
  210MPD1    H1 3195   1.280   1.198  10.492 -0.7168  1.6869  0.1773
  210MPD1    H2 3196   1.623   1.441  10.430 -0.8718  2.7443  0.7953
  210MPD1    H3 3197   1.464   1.289  10.341 -0.0902  1.4242 -0.1758
  210MPD1     N 3198   1.216   1.283  10.721  0.7006  0.3315 -0.1590
  210MPD1    H5 3199   1.162   1.206  10.683 -0.6788 -0.1369  2.7860
  210MPD1    N1 3200   1.606   1.566  10.656 -0.0191 -0.3779  0.3572
  210MPD1    H6 3201   1.634   1.588  10.751  1.3105 -0.1058 -0.0917
  210MPD1    H7 3202   1.685   1.577  10.593 -2.1918  0.4861 -2.2776
  211MPD1     C 3203   3.288   1.656  16.328 -0.2735  0.2694  0.8055
  211MPD1    C1 3204   3.191   1.559  16.313 -0.2577  0.0781  0.4864
  211MPD1    C2 3205   3.060   1.598  16.318  0.4970 -0.4733  0.0234
  211MPD1    C3 3206   3.031   1.734  16.339  0.1891 -0.2469 -0.2369
  211MPD1    C4 3207   3.126   1.823  16.360 -0.0827  0.7651 -0.0292
  211MPD1    C5 3208   3.253   1.785  16.351  0.6234  0.0703  1.6513
  211MPD1     H 3209   2.989   1.515  16.315  1.0724 -0.9696  0.3833
  211MPD1    H1 3210   3.108   1.928  16.379  0.3456  0.8390 -0.0332
  211MPD1    H2 3211   3.394   1.638  16.330 -0.5940 -2.1282 -2.4552
  211MPD1    H3 3212   3.326   1.864  16.367  0.8964 -0.1659  1.5639
  211MPD1     N 3213   2.896   1.761  16.357  0.2723 -0.3440 -0.6377
  211MPD1    H5 3214   2.836   1.681  16.336  1.4063 -1.2031 -0.6162
  211MPD1    N1 3215   3.227   1.419  16.318  0.0004 -0.1831  0.5313
  211MPD1    H6 3216   3.156   1.357  16.279  2.4867 -1.9314 -1.2106
  211MPD1    H7 3217   3.321   1.407  16.280 -0.8699 -1.2966 -1.2594
  212MPD1     C 3218   2.148   4.464  16.213 -0.6452  0.1090  0.4478
  212MPD1    C1 3219   2.078   4.530  16.314 -0.2202 -0.1608 -0.9546
  212MPD1    C2 3220   1.972   4.466  16.373  0.5594  0.3581 -0.2946
  212MPD1    C3 3221   1.937   4.330  16.346  0.3047 -0.4716 -0.7181
  212MPD1    C4 3222   2.016   4.263  16.248 -0.6888  0.7065 -0.3392
  212MPD1    C5 3223   2.112   4.333  16.185 -0.6695 -0.0164 -0.2641
  212MPD1     H 3224   1.923   4.531  16.444  0.5192 -1.1084  1.0405
  212MPD1    H1 3225   1.979   4.173  16.200  0.4367  1.0370 -1.8271
  212MPD1    H2 3226   2.235   4.515  16.175 -1.0376 -1.5702 -2.7974
  212MPD1    H3 3227   2.177   4.290  16.110 -1.6081  1.0234 -1.6621
  212MPD1     N 3228   1.828   4.259  16.399 -0.1100  0.3886 -0.1646
  212MPD1    H5 3229   1.813   4.166  16.362 -0.6983 -0.0336  1.1034
  212MPD1    N1 3230   2.122   4.649  16.361  0.8855  0.6259 -0.1588
  212MPD1    H6 3231   2.050   4.706  16.404 -0.4828 -0.6577 -0.7574
  212MPD1    H7 3232   2.161   4.702  16.283  0.7127  0.1971 -0.5368
  213MPD1     C 3233   0.607   0.490  15.891  0.8257 -0.1722 -0.2810
  213MPD1    C1 3234   0.491   0.419  15.873 -0.3889  0.3590 -0.4474
  213MPD1    C2 3235   0.455   0.419  15.743 -0.1322  0.2205 -0.6873
  213MPD1    C3 3236   0.493   0.512  15.653 -0.0098 -1.0087 -0.6190
  213MPD1    C4 3237   0.604   0.589  15.683  0.7346 -0.0894  0.9709
  213MPD1    C5 3238   0.654   0.579  15.808  0.3493 -0.6274 -0.0170
  213MPD1     H 3239   0.397   0.336  15.705  1.1465 -2.5479  3.3772
  213MPD1    H1 3240   0.650   0.662  15.618  0.1637  1.5893  2.4604
  213MPD1    H2 3241   0.638   0.497  15.995 -2.4904 -1.3068  0.7879
  213MPD1    H3 3242   0.734   0.648  15.831 -1.0669  0.2941  2.1631
  213MPD1     N 3243   0.430   0.507  15.522  0.0851 -0.4618  0.2587
  213MPD1    H5 3244   0.356   0.440  15.504  0.5430 -1.2631  1.3625
  213MPD1    N1 3245   0.465   0.306  15.955  0.2665  0.4425  0.6757
  213MPD1    H6 3246   0.370   0.271  15.943  0.0057  1.3632  0.0727
  213MPD1    H7 3247   0.484   0.330  16.052 -1.8626 -1.7739  1.6504
  214MPD1     C 3248   4.579   4.661  15.306 -0.3804 -0.1933  0.3375
  214MPD1    C1 3249   4.640   4.669  15.183  0.3622 -0.0721  0.2189
  214MPD1    C2 3250   0.006   0.055  15.170  1.1617  0.3760  0.2591
  214MPD1    C3 3251   0.046   0.134  15.278 -0.0158 -0.2029  0.9988
  214MPD1    C4 3252   4.707   0.120  15.397  0.4019 -0.2368  0.0221
  214MPD1    C5 3253   4.608   0.028  15.407  0.4130 -0.3106 -0.7863
  214MPD1     H 3254   0.034   0.084  15.069 -2.2126  1.5779 -0.3128
  214MPD1    H1 3255   0.011   0.180  15.483 -1.5037  0.1712  0.3221
  214MPD1    H2 3256   4.505   4.585  15.326 -2.0576  1.2224 -0.5390
  214MPD1    H3 3257   4.553   0.017  15.500 -0.6909 -1.6185 -1.5862
  214MPD1     N 3258   0.134   0.243  15.265 -0.2265 -0.0524  0.1224
  214MPD1    H5 3259   0.136   0.299  15.350 -0.5751 -1.0418  0.7942
  214MPD1    N1 3260   4.587   4.601  15.075 -0.3968 -0.0871 -0.0575
  214MPD1    H6 3261   4.654   4.565  15.007  1.0133 -0.0972  1.3209
  214MPD1    H7 3262   4.514   4.534  15.099 -1.7146  2.0583  1.8973
  215MPD1     C 3263   4.686   0.464  11.050 -0.5526  0.8089 -0.2777
  215MPD1    C1 3264   4.597   0.513  11.145  0.3761 -0.3909 -0.2168
  215MPD1    C2 3265   4.587   0.649  11.164  0.3919 -0.1388  0.2553
  215MPD1    C3 3266   4.656   0.740  11.086  0.3617 -0.1993  0.1041
  215MPD1    C4 3267   0.020   0.693  10.993  0.4512  0.8686 -0.0100
  215MPD1    C5 3268   0.033   0.558  10.976  0.3531  0.7689  0.4383
  215MPD1     H 3269   4.526   0.683  11.247  0.8922  2.1328 -0.3140
  215MPD1    H1 3270   0.089   0.750  10.931 -0.0927  1.6145  0.0664
  215MPD1    H2 3271   4.699   0.359  11.028  1.2898  1.6143 -2.9872
  215MPD1    H3 3272   0.100   0.518  10.901 -0.4917 -2.2218  1.2861
  215MPD1     N 3273   4.648   0.878  11.106  0.0492 -0.1940 -0.3879
  215MPD1    H5 3274   4.617   0.909  11.197 -1.2731  0.2871 -0.9995
  215MPD1    N1 3275   4.513   0.427  11.209  0.2684 -0.4253 -0.7276
  215MPD1    H6 3276   4.540   0.329  11.196 -1.1123 -0.4647 -3.2938
  215MPD1    H7 3277   4.514   0.441  11.309  3.5061  1.5031 -0.9993
  216MPD1     C 3278   1.724   3.458  17.383  0.7105  0.2031 -0.4787
  216MPD1    C1 3279   1.644   3.351  17.349 -0.5961  1.3085  0.6070
  216MPD1    C2 3280   1.673   3.232  17.414 -0.0745  0.2430 -0.5340
  216MPD1    C3 3281   1.775   3.217  17.509 -0.6893 -0.5019 -0.3958
  216MPD1    C4 3282   1.848   3.327  17.543  0.1554 -0.1452 -0.5906
  216MPD1    C5 3283   1.828   3.444  17.475  0.3088  0.5708 -0.0250
  216MPD1     H 3284   1.603   3.151  17.399 -0.4206  0.0809  1.8574
  216MPD1    H1 3285   1.923   3.321  17.621  1.4331 -2.0312 -1.9516
  216MPD1    H2 3286   1.711   3.558  17.342  0.2192  0.2350 -0.2519
  216MPD1    H3 3287   1.886   3.534  17.490 -0.2305  0.7452  1.0117
  216MPD1     N 3288   1.775   3.098  17.585  0.0583 -0.3244 -0.2050
  216MPD1    H5 3289   1.710   3.027  17.551 -1.0228  0.3876  0.3665
  216MPD1    N1 3290   1.523   3.375  17.276 -0.7669  0.3762 -0.5148
  216MPD1    H6 3291   1.529   3.468  17.235  0.3579  1.7834  2.9243
  216MPD1    H7 3292   1.510   3.312  17.196 -2.0757 -0.2596  0.2002
  217MPD1     C 3293   2.684   4.619   8.172  0.2187  0.8026 -0.5207
  217MPD1    C1 3294   2.766   4.570   8.268 -0.1925 -0.1434 -0.8256
  217MPD1    C2 3295   2.739   4.597   8.404  0.1375 -0.3244  0.2337
  217MPD1    C3 3296   2.619   4.656   8.433 -0.9136 -0.1314  0.3451
  217MPD1    C4 3297   2.537   4.703   8.339  0.1270 -0.0292 -0.1939
  217MPD1    C5 3298   2.575   4.697   8.208 -0.4824  0.1277 -1.1343
  217MPD1     H 3299   2.812   4.578   8.482 -0.4611  0.3975  0.9749
  217MPD1    H1 3300   2.439   0.022   8.362 -0.6920 -0.0945 -3.6026
  217MPD1    H2 3301   2.707   4.605   8.067  0.2930 -0.3771 -0.3460
  217MPD1    H3 3302   2.508   0.018   8.135 -0.9277  1.3870  0.0184
  217MPD1     N 3303   2.580   4.675   8.570 -0.0415  0.0098 -0.3290
  217MPD1    H5 3304   2.507   0.020   8.590 -0.9577 -1.1807  0.3413
  217MPD1    N1 3305   2.897   4.525   8.241  0.5785 -0.0938 -0.3508
  217MPD1    H6 3306   2.901   4.488   8.146  0.6167 -1.3576  0.1511
  217MPD1    H7 3307   2.922   4.445   8.298  0.6306  0.3749  0.2851
  218MPD1     C 3308   0.158   1.797  12.480  0.4516  0.3470 -0.2663
  218MPD1    C1 3309   0.129   1.728  12.366  0.6525  0.1095  0.8026
  218MPD1    C2 3310   0.056   1.606  12.379  0.1078 -0.1525  0.4521
  218MPD1    C3 3311   0.024   1.562  12.507 -0.1900 -0.1770  0.4274
  218MPD1    C4 3312   0.062   1.628  12.623  0.0560  0.3424 -0.4501
  218MPD1    C5 3313   0.134   1.749  12.611 -0.3454 -0.2140 -0.7580
  218MPD1     H 3314   0.014   1.553  12.293 -2.1295  0.8739  0.8950
  218MPD1    H1 3315   0.045   1.578  12.717 -0.5071  1.8487  0.2541
  218MPD1    H2 3316   0.205   1.894  12.464 -1.2380  1.4323  1.4502
  218MPD1    H3 3317   0.177   1.805  12.694 -1.3890 -0.6678  0.0886
  218MPD1     N 3318   4.662   1.442  12.511 -0.6957 -0.4762 -0.1972
  218MPD1    H5 3319   4.659   1.384  12.428  2.4053 -2.2816  0.9419
  218MPD1    N1 3320   0.147   1.790  12.241  0.1208 -0.2773  0.1126
  218MPD1    H6 3321   0.233   1.844  12.243  0.4017 -0.6811 -1.7966
  218MPD1    H7 3322   0.154   1.718  12.170  3.5328 -0.9237  1.0913
  219MPD1     C 3323   4.268   0.995  11.807 -0.6073 -0.5520 -0.1192
  219MPD1    C1 3324   4.372   1.081  11.847 -0.0318  0.2788 -0.8443
  219MPD1    C2 3325   4.367   1.136  11.973  0.4814  0.1347 -0.7609
  219MPD1    C3 3326   4.298   1.067  12.072  0.4518  0.6582  0.1895
  219MPD1    C4 3327   4.209   0.968  12.032 -0.0525  0.4692 -0.1204
  219MPD1    C5 3328   4.198   0.926  11.902  0.0405 -1.1656  0.2170
  219MPD1     H 3329   4.432   1.220  11.994  0.5211 -0.7659  2.7084
  219MPD1    H1 3330   4.152   0.920  12.110  2.7921  3.8958  4.0695
  219MPD1    H2 3331   4.251   0.976  11.702  2.1374  1.8878 -1.0243
  219MPD1    H3 3332   4.133   0.842  11.880 -0.0349 -0.3245 -2.7087
  219MPD1     N 3333   4.286   1.106  12.202  0.3047 -0.3852 -0.1387
  219MPD1    H5 3334   4.211   1.062  12.256  1.3974 -2.8708 -0.6189
  219MPD1    N1 3335   4.432   1.150  11.740 -0.2301 -0.0266 -0.7146
  219MPD1    H6 3336   4.522   1.193  11.761 -0.2284 -1.7460  2.8390
  219MPD1    H7 3337   4.443   1.102  11.651 -0.6936 -0.7848 -0.3617
  220MPD1     C 3338   4.209   1.876   9.516  1.0672 -0.5139  0.4249
  220MPD1    C1 3339   4.130   1.771   9.563 -0.5592 -0.8493 -0.7422
  220MPD1    C2 3340   4.191   1.674   9.646  0.0450 -0.6973  0.3805
  220MPD1    C3 3341   4.325   1.693   9.691 -0.5128 -0.5087 -0.3049
  220MPD1    C4 3342   4.396   1.799   9.630  0.5013 -0.4676 -0.2361
  220MPD1    C5 3343   4.333   1.894   9.554 -0.5457 -0.2488 -0.1241
  220MPD1     H 3344   4.136   1.588   9.683  0.1594 -1.5473 -1.4579
  220MPD1    H1 3345   4.503   1.805   9.643  0.1622  1.1156  1.8240
  220MPD1    H2 3346   4.166   1.952   9.452 -1.5285 -0.3870  2.3310
  220MPD1    H3 3347   4.381   1.984   9.518 -1.5106  0.3196 -0.0087
  220MPD1     N 3348   4.377   1.608   9.787 -0.3997  0.6115 -0.0792
  220MPD1    H5 3349   4.315   1.538   9.826 -1.7601  2.4018  1.0023
  220MPD1    N1 3350   4.005   1.752   9.502 -0.0393 -0.3230  0.0227
  220MPD1    H6 3351   3.957   1.834   9.465  1.0036 -0.2286 -1.0835
  220MPD1    H7 3352   3.943   1.687   9.551 -0.3476 -0.5575 -0.6785
  221MPD1     C 3353   1.958   1.162  16.495 -0.2019  0.3963  0.1513
  221MPD1    C1 3354   1.962   1.097  16.618  0.3490 -0.2745 -0.2533
  221MPD1    C2 3355   2.026   0.977  16.626 -0.2062 -1.0004 -0.4087
  221MPD1    C3 3356   2.113   0.938  16.525 -0.3436 -0.9353  0.0882
  221MPD1    C4 3357   2.114   1.000  16.398  0.1369  0.1411  0.0771
  221MPD1    C5 3358   2.033   1.114  16.389  0.0768 -0.0857  0.3593
  221MPD1     H 3359   2.009   0.922  16.717  0.6019 -3.2186 -1.6158
  221MPD1    H1 3360   2.188   0.976  16.322 -0.0434 -0.8716  0.2250
  221MPD1    H2 3361   1.897   1.251  16.481 -1.2902  0.0556  2.7595
  221MPD1    H3 3362   2.011   1.162  16.295  0.3532 -2.1574 -0.7752
  221MPD1     N 3363   2.196   0.826  16.534 -1.0203 -0.3147  0.2657
  221MPD1    H5 3364   2.261   0.811  16.458 -0.4486  0.8366  0.5316
  221MPD1    N1 3365   1.881   1.133  16.728 -0.1896  0.0824  0.2679
  221MPD1    H6 3366   1.930   1.123  16.816  1.5321  1.5850 -0.5199
  221MPD1    H7 3367   1.844   1.227  16.716  2.9111  1.1187 -1.3368
  222MPD1     C 3368   2.052   4.335  16.740  0.0641  0.2059  0.7393
  222MPD1    C1 3369   2.008   4.208  16.762  0.1662 -0.9755 -0.4820
  222MPD1    C2 3370   1.891   4.189  16.825 -0.0928 -0.0592 -0.2912
  222MPD1    C3 3371   1.807   4.290  16.867 -0.4557  0.3226 -0.3174
  222MPD1    C4 3372   1.845   4.417  16.833  0.3219 -0.5644 -0.7757
  222MPD1    C5 3373   1.965   4.430  16.769  0.5629 -0.0963  0.2399
  222MPD1     H 3374   1.871   4.084  16.844 -0.2545 -0.2870 -1.7337
  222MPD1    H1 3375   1.793   4.506  16.866  0.5438  0.0625 -2.1322
  222MPD1    H2 3376   2.148   4.360  16.695 -0.3864 -1.7807 -1.3766
  222MPD1    H3 3377   2.002   4.531  16.750  1.1774 -0.6935 -1.7539
  222MPD1     N 3378   1.697   4.275  16.947  0.9155 -0.4193  0.0039
  222MPD1    H5 3379   1.649   4.364  16.962 -1.2345 -1.5426 -0.2047
  222MPD1    N1 3380   2.102   4.099  16.743 -0.4787  0.7375 -0.0932
  222MPD1    H6 3381   2.174   4.114  16.672 -1.5624  1.7944 -0.9841
  222MPD1    H7 3382   2.060   4.007  16.727  0.9027 -0.0367  0.7705
  223MPD1     C 3383   1.069   3.550  16.854  0.2330 -1.2172 -0.3906
  223MPD1    C1 3384   1.174   3.608  16.778 -0.4124 -0.6720  0.3010
  223MPD1    C2 3385   1.240   3.721  16.828 -0.7787  0.3217 -0.0350
  223MPD1    C3 3386   1.191   3.779  16.946 -0.0698  0.0904  0.2179
  223MPD1    C4 3387   1.069   3.730  17.004 -0.3401  0.2255  0.3459
  223MPD1    C5 3388   1.010   3.618  16.955 -0.2647 -0.7908 -0.3446
  223MPD1     H 3389   1.327   3.765  16.780 -1.4026  0.4205 -1.0716
  223MPD1    H1 3390   1.024   3.766  17.096  0.3660  1.9532  0.0100
  223MPD1    H2 3391   1.031   3.458  16.811  1.9927 -1.0751 -2.2158
  223MPD1    H3 3392   0.918   3.575  16.992 -0.1130 -0.1611  0.7768
  223MPD1     N 3393   1.275   3.876  17.001  0.7580  0.1153  0.5535
  223MPD1    H5 3394   1.363   3.893  16.952  0.7925 -2.9701 -0.4779
  223MPD1    N1 3395   1.211   3.535  16.665  0.1422 -0.2166 -0.7589
  223MPD1    H6 3396   1.247   3.590  16.587  1.5940 -1.5257 -1.0015
  223MPD1    H7 3397   1.130   3.487  16.626 -1.8562  2.4771  0.0974
  224MPD1     C 3398   2.474   0.463   8.829 -0.3216  0.1103  0.1552
  224MPD1    C1 3399   2.435   0.594   8.847 -0.0492  0.1994 -0.4876
  224MPD1    C2 3400   2.444   0.631   8.981 -0.1208  0.2979  0.3334
  224MPD1    C3 3401   2.487   0.544   9.081 -0.2709 -0.5628 -0.3775
  224MPD1    C4 3402   2.516   0.413   9.053 -0.0362 -0.2618 -0.5498
  224MPD1    C5 3403   2.515   0.373   8.923 -0.0673  0.0399 -0.1947
  224MPD1     H 3404   2.403   0.728   9.009  0.2268  0.6449 -0.3708
  224MPD1    H1 3405   2.559   0.338   9.119 -0.5561 -0.1217 -0.0580
  224MPD1    H2 3406   2.477   0.435   8.724 -2.6561  0.3723  0.0259
  224MPD1    H3 3407   2.532   0.271   8.890  1.8518 -0.4650  2.3332
  224MPD1     N 3408   2.494   0.577   9.215  0.3984 -0.1832  0.1579
  224MPD1    H5 3409   2.524   0.502   9.277  0.3224 -0.5501 -0.2506
  224MPD1    N1 3410   2.396   0.679   8.738 -0.4383 -0.2143  0.4130
  224MPD1    H6 3411   2.323   0.747   8.759  0.4294  0.6601  0.6198
  224MPD1    H7 3412   2.354   0.633   8.657 -0.7131 -0.3627  0.6386
  225MPD1     C 3413   0.032   2.381  12.384  0.0833 -0.9035 -0.1679
  225MPD1    C1 3414   4.712   2.267  12.332  0.0802 -0.4622  0.4404
  225MPD1    C2 3415   4.597   2.273  12.261 -0.9978  0.1775 -0.4050
  225MPD1    C3 3416   4.543   2.384  12.210 -0.3323  0.0253  0.0088
  225MPD1    C4 3417   4.593   2.500  12.259  0.7431 -0.2277  0.6023
  225MPD1    C5 3418   4.696   2.504  12.347  0.3810  0.2554 -0.0178
  225MPD1     H 3419   4.532   2.187  12.248  0.4848 -1.2354  1.3809
  225MPD1    H1 3420   4.544   2.594  12.235  1.2968 -1.0724 -3.7701
  225MPD1    H2 3421   0.102   2.378  12.467 -0.0353 -0.1874 -0.0398
  225MPD1    H3 3422   4.716   2.602  12.387 -1.4536  0.8793 -0.6388
  225MPD1     N 3423   4.433   2.382  12.120 -0.3151 -0.2615 -0.0233
  225MPD1    H5 3424   4.390   2.471  12.097  0.2751 -0.4984 -2.0321
  225MPD1    N1 3425   0.028   2.142  12.386 -0.3160  0.0887  0.1850
  225MPD1    H6 3426   0.015   2.066  12.320  1.3805  0.1246 -0.1747
  225MPD1    H7 3427   0.127   2.143  12.410 -0.5218  0.8173  1.0039
  226MPD1     C 3428   2.244   2.149   8.977  0.5544  0.5867 -0.1761
  226MPD1    C1 3429   2.156   2.048   8.959 -0.3822 -0.3373  0.3603
  226MPD1    C2 3430   2.199   1.924   8.990 -0.4135  0.3850  0.4014
  226MPD1    C3 3431   2.321   1.907   9.058 -0.1500  0.2129  1.0135
  226MPD1    C4 3432   2.403   2.017   9.086 -0.0086  0.2126 -0.1907
  226MPD1    C5 3433   2.364   2.141   9.046  0.2229 -0.5276  0.8014
  226MPD1     H 3434   2.142   1.837   8.958 -0.6270 -0.4615  3.0105
  226MPD1    H1 3435   2.497   2.002   9.138  0.8933  1.2097 -1.5248
  226MPD1    H2 3436   2.218   2.250   8.947 -0.4135  0.0618 -1.1212
  226MPD1    H3 3437   2.438   2.220   9.045 -2.0053  1.5191 -1.7442
  226MPD1     N 3438   2.349   1.779   9.105 -0.0151 -1.0268 -0.1638
  226MPD1    H5 3439   2.277   1.712   9.079 -0.4713  0.0846 -1.7364
  226MPD1    N1 3440   2.039   2.062   8.890  0.3980 -0.2510 -0.2327
  226MPD1    H6 3441   1.995   2.151   8.913  0.3040 -0.9897  2.4614
  226MPD1    H7 3442   1.968   1.996   8.922 -1.0816  1.3808 -0.1426
  227MPD1     C 3443   1.949   0.921   8.992 -0.3226  0.4580  0.1657
  227MPD1    C1 3444   2.079   0.885   8.989  0.2060 -0.1869 -0.3641
  227MPD1    C2 3445   2.174   0.964   9.048  0.3404 -0.4873 -0.2915
  227MPD1    C3 3446   2.137   1.082   9.111  0.3461 -0.1090 -0.1323
  227MPD1    C4 3447   1.998   1.104   9.130 -0.1874 -0.1452 -0.1185
  227MPD1    C5 3448   1.906   1.026   9.070 -0.5068 -0.3697  0.1856
  227MPD1     H 3449   2.281   0.948   9.044  0.4168 -0.0533 -0.0012
  227MPD1    H1 3450   1.956   1.187   9.186 -2.8068 -1.1280 -0.6192
  227MPD1    H2 3451   1.872   0.876   8.929  0.4900 -0.6645 -0.0148
  227MPD1    H3 3452   1.800   1.034   9.089 -0.1342 -1.7132  2.7234
  227MPD1     N 3453   2.239   1.171   9.158 -0.8731  0.2781 -0.0287
  227MPD1    H5 3454   2.337   1.146   9.161 -0.7391  0.7294 -0.7420
  227MPD1    N1 3455   2.119   0.778   8.906 -0.4117 -0.7996  0.4590
  227MPD1    H6 3456   2.211   0.744   8.934 -1.0196 -1.9147  1.0998
  227MPD1    H7 3457   2.053   0.701   8.902  0.6224 -1.7351  1.0907
  228MPD1     C 3458   1.935   3.995  12.328  0.2329 -0.3837  0.0249
  228MPD1    C1 3459   1.924   4.075  12.215 -0.1145  0.5735  0.1132
  228MPD1    C2 3460   1.815   4.160  12.219  0.7712 -0.4682 -0.7971
  228MPD1    C3 3461   1.705   4.147  12.303 -0.1421  0.4595 -0.4286
  228MPD1    C4 3462   1.713   4.048  12.410  0.1487 -0.3449  0.1657
  228MPD1    C5 3463   1.832   3.979  12.422 -0.1365  0.1411  0.2410
  228MPD1     H 3464   1.807   4.238  12.144 -0.8314  1.5253  1.4604
  228MPD1    H1 3465   1.639   4.025  12.485  0.0196  1.3556  0.5755
  228MPD1    H2 3466   2.014   3.921  12.329 -0.9253 -1.6145 -0.0307
  228MPD1    H3 3467   1.842   3.912  12.507 -0.6328  1.3750  1.2944
  228MPD1     N 3468   1.594   4.237  12.291  0.6506 -0.1310  0.1392
  228MPD1    H5 3469   1.604   4.304  12.217 -0.2626  0.4505  0.5382
  228MPD1    N1 3470   2.040   4.107  12.141 -0.2121 -0.2061  0.0816
  228MPD1    H6 3471   2.026   4.133  12.043  0.7288  1.5708  0.4304
  228MPD1    H7 3472   2.118   4.042  12.140 -0.2445 -0.2590  1.8639
  229MPD1     C 3473   1.966   3.858  15.135  0.4150 -0.2956 -0.0115
  229MPD1    C1 3474   1.945   3.739  15.066 -0.4333  0.7088 -0.1543
  229MPD1    C2 3475   1.855   3.722  14.958 -0.1973 -0.8064 -0.7768
  229MPD1    C3 3476   1.769   3.823  14.934  0.6590 -0.1741 -0.1102
  229MPD1    C4 3477   1.779   3.946  15.006  0.3132  0.3531 -0.4119
  229MPD1    C5 3478   1.883   3.961  15.094 -0.1694  0.4304  0.8094
  229MPD1     H 3479   1.858   3.633  14.897 -0.7278 -0.4938 -1.2586
  229MPD1    H1 3480   1.705   4.025  14.995  2.5667  2.3563 -1.2440
  229MPD1    H2 3481   2.037   3.870  15.216 -0.3174 -0.5449  0.6643
  229MPD1    H3 3482   1.901   4.053  15.148  0.3185  1.3770 -0.9761
  229MPD1     N 3483   1.669   3.820  14.831 -0.0574  0.3667 -0.0891
  229MPD1    H5 3484   1.605   3.899  14.827  2.0693  2.0776 -0.2338
  229MPD1    N1 3485   2.025   3.631  15.091 -0.4084 -0.5397  0.9189
  229MPD1    H6 3486   2.053   3.613  15.188  1.3707 -0.0355  0.4974
  229MPD1    H7 3487   1.988   3.541  15.062 -0.3284 -0.1966 -0.2548
  230MPD1     C 3488   1.314   4.146  13.984 -0.2639  0.2187 -0.1907
  230MPD1    C1 3489   1.344   4.009  13.971 -0.1156  0.4978 -0.0542
  230MPD1    C2 3490   1.354   3.930  14.087  0.1262  0.1418  0.1026
  230MPD1    C3 3491   1.336   3.991  14.217  0.1663 -1.0361  0.3207
  230MPD1    C4 3492   1.307   4.124  14.216 -0.8191  0.5106  0.2502
  230MPD1    C5 3493   1.283   4.195  14.109  0.4597  0.3325 -0.8015
  230MPD1     H 3494   1.375   3.824  14.081 -0.6236 -0.0744  1.4151
  230MPD1    H1 3495   1.282   4.177  14.308 -0.1637  0.8671  0.2181
  230MPD1    H2 3496   1.291   4.200  13.893  0.4582  2.6465  1.0867
  230MPD1    H3 3497   1.256   4.299  14.118 -1.4459 -0.2421  0.2155
  230MPD1     N 3498   1.346   3.911  14.332  0.1000  0.2004 -0.2270
  230MPD1    H5 3499   1.353   3.812  14.308  1.0791 -0.9685  4.8176
  230MPD1    N1 3500   1.376   3.950  13.846 -0.7010 -0.3354 -0.3907
  230MPD1    H6 3501   1.363   4.001  13.759 -1.5147 -1.7237 -1.0814
  230MPD1    H7 3502   1.332   3.858  13.843 -0.6801 -0.4349  3.1635
  231MPD1     C 3503   4.531   0.423  15.220  0.2358  0.2359 -0.2308
  231MPD1    C1 3504   4.484   0.456  15.090 -0.9269 -0.0767  0.4526
  231MPD1    C2 3505   4.534   0.564  15.030 -0.2431  0.4774  0.2891
  231MPD1    C3 3506   4.618   0.650  15.096  0.8892  0.4255 -1.0487
  231MPD1    C4 3507   4.662   0.620  15.224  0.3261 -0.4780 -0.0659
  231MPD1    C5 3508   4.623   0.507  15.288 -0.5541 -0.4777  0.5279
  231MPD1     H 3509   4.497   0.596  14.933 -0.2828  1.5517  0.6601
  231MPD1    H1 3510   4.721   0.694  15.276 -0.9173  0.4994 -0.0524
  231MPD1    H2 3511   4.521   0.331  15.277  3.3426  0.1062  0.1137
  231MPD1    H3 3512   4.667   0.477  15.382 -0.5704  0.0313  0.6964
  231MPD1     N 3513   4.659   0.771  15.023 -0.2126 -0.3187  0.1618
  231MPD1    H5 3514   4.624   0.779  14.928 -0.4263  1.2051  0.3751
  231MPD1    N1 3515   4.387   0.379  15.021 -0.5120  0.3438  0.7673
  231MPD1    H6 3516   4.400   0.279  15.034 -3.6220 -0.1789 -0.3285
  231MPD1    H7 3517   4.390   0.412  14.925 -0.5483 -1.5276  0.1260
  232MPD1     C 3518   1.183   3.263  17.195  0.1931  0.6260  0.4170
  232MPD1    C1 3519   1.181   3.223  17.330  0.3431  0.1933 -0.0025
  232MPD1    C2 3520   1.052   3.205  17.385 -0.1753 -0.2411 -0.8945
  232MPD1    C3 3521   0.939   3.236  17.312  0.1423 -0.8219 -0.0845
  232MPD1    C4 3522   0.945   3.296  17.183 -0.0601 -0.0114 -0.1109
  232MPD1    C5 3523   1.066   3.300  17.130 -0.1667  0.1021 -0.6442
  232MPD1     H 3524   1.040   3.167  17.485  0.3277 -0.6744 -0.9987
  232MPD1    H1 3525   0.858   3.332  17.129  0.0836  0.5847  0.0591
  232MPD1    H2 3526   1.277   3.278  17.143  0.0434  1.4649  0.3912
  232MPD1    H3 3527   1.071   3.349  17.033  1.4493 -1.4572 -1.3391
  232MPD1     N 3528   0.818   3.218  17.378 -0.8092  0.2577 -0.1899
  232MPD1    H5 3529   0.816   3.185  17.474  1.4906 -1.9127 -0.8925
  232MPD1    N1 3530   1.297   3.180  17.400 -0.0323  0.5796  0.1993
  232MPD1    H6 3531   1.275   3.168  17.498  0.0315 -0.4672  0.0817
  232MPD1    H7 3532   1.384   3.231  17.385  0.5220 -0.5853 -0.5757
  233MPD1     C 3533   2.154   0.070   0.507  0.3596 -1.0772 -0.1350
  233MPD1    C1 3534   2.198   4.691   0.585  0.4646 -0.0997  0.5854
  233MPD1    C2 3535   2.299   4.713   0.675  0.3132  0.2374  0.3836
  233MPD1    C3 3536   2.358   0.119   0.679  0.0351  0.5059  0.0311
  233MPD1    C4 3537   2.319   0.218   0.592 -0.2902  0.3067  0.1839
  233MPD1    C5 3538   2.217   0.190   0.503  0.4693 -0.5494 -0.6471
  233MPD1     H 3539   2.337   4.628   0.730  0.9039 -0.2107 -0.7341
  233MPD1    H1 3540   2.374   0.311   0.593  0.1933  0.0203  0.1395
  233MPD1    H2 3541   2.077   0.052   0.434 -0.2512  0.6723  0.0726
  233MPD1    H3 3542   2.180   0.270   0.440 -1.3730  0.6315  1.9783
  233MPD1     N 3543   2.458   0.153   0.779 -0.0211 -0.2922  0.3418
  233MPD1    H5 3544   2.496   0.246   0.781  1.7514 -1.0289  0.5566
  233MPD1    N1 3545   2.133   4.567   0.585  0.0492  0.1520  0.5110
  233MPD1    H6 3546   2.074   4.552   0.504 -1.8106  3.2650  1.3058
  233MPD1    H7 3547   2.203   4.494   0.596  0.3021  0.1971 -0.7971
  234MPD1     C 3548   3.286   3.926  10.147 -0.2714  0.1604  0.0949
  234MPD1    C1 3549   3.225   3.930  10.026  0.3576  1.2816 -0.5506
  234MPD1    C2 3550   3.128   4.026  10.006  0.1421 -0.1347  0.1068
  234MPD1    C3 3551   3.100   4.131  10.088  0.0186  0.2396  0.8442
  234MPD1    C4 3552   3.152   4.122  10.217  0.2000  0.2569  0.0815
  234MPD1    C5 3553   3.248   4.024  10.243  0.2736  0.0844 -0.0562
  234MPD1     H 3554   3.080   4.008   9.911  0.1727 -0.4569  0.1533
  234MPD1    H1 3555   3.131   4.199  10.289 -0.6357  0.3541 -0.2635
  234MPD1    H2 3556   3.369   3.860  10.168  0.9320  2.0953  1.3717
  234MPD1    H3 3557   3.303   4.013  10.335 -0.0647 -1.1023  0.0069
  234MPD1     N 3558   3.000   4.226  10.043  0.2688 -0.0525  0.3058
  234MPD1    H5 3559   2.970   4.228   9.946 -1.8599  2.4710  1.0213
  234MPD1    N1 3560   3.261   3.840   9.924  0.5791  0.0671 -0.1445
  234MPD1    H6 3561   3.329   3.769   9.946  1.3852  0.4237 -1.4835
  234MPD1    H7 3562   3.180   3.796   9.881 -0.5761  1.3550  0.6787
  235MPD1     C 3563   4.186   2.884   9.514  0.2228 -0.7079  0.2401
  235MPD1    C1 3564   4.273   2.991   9.496 -0.5112  0.3292 -0.5559
  235MPD1    C2 3565   4.405   2.958   9.487 -0.2190  0.2921  0.5475
  235MPD1    C3 3566   4.458   2.829   9.526  0.2972  0.3819 -0.3766
  235MPD1    C4 3567   4.372   2.733   9.554 -0.0890  0.2029  0.2503
  235MPD1    C5 3568   4.236   2.765   9.545 -0.0487  0.5895  0.0164
  235MPD1     H 3569   4.476   3.036   9.460  0.7662 -1.1505 -1.0823
  235MPD1    H1 3570   4.412   2.633   9.562  1.2011  0.8448  1.8640
  235MPD1    H2 3571   4.079   2.896   9.507 -0.0912 -2.6107  1.7821
  235MPD1    H3 3572   4.171   2.679   9.558 -0.5934  1.1363  0.9384
  235MPD1     N 3573   4.603   2.819   9.542  0.3301  0.2887  0.2222
  235MPD1    H5 3574   4.658   2.893   9.500 -1.2757  1.7401  0.6944
  235MPD1    N1 3575   4.233   3.120   9.452 -0.5032 -0.0122 -0.2868
  235MPD1    H6 3576   4.143   3.143   9.494  0.8909 -0.9236  3.2558
  235MPD1    H7 3577   4.309   3.186   9.464 -1.8322  1.0548  2.2657
  236MPD1     C 3578   4.336   3.385   9.798 -0.1021 -0.0736  0.3546
  236MPD1    C1 3579   4.452   3.459   9.776 -0.9819  0.1012  0.3915
  236MPD1    C2 3580   4.574   3.424   9.832 -0.0380  0.8611 -0.4742
  236MPD1    C3 3581   4.575   3.334   9.938  0.4251 -0.3629  0.0636
  236MPD1    C4 3582   4.461   3.273   9.974  0.0595  0.4881 -0.1125
  236MPD1    C5 3583   4.345   3.295   9.901  0.5805 -0.0582  0.1523
  236MPD1     H 3584   4.666   3.468   9.796 -1.3134  2.3097 -1.9419
  236MPD1    H1 3585   4.472   3.206  10.058 -0.1908 -0.9302 -1.2173
  236MPD1    H2 3586   4.242   3.398   9.746 -0.9855 -0.6869  1.8087
  236MPD1    H3 3587   4.257   3.247   9.942  1.1521 -2.5222 -1.5064
  236MPD1     N 3588   4.688   3.291  10.001 -0.3137  0.1921  0.5691
  236MPD1    H5 3589   4.692   3.202  10.051 -0.1353 -0.8402 -1.2938
  236MPD1    N1 3590   4.463   3.545   9.663  0.6830 -0.5283 -0.1720
  236MPD1    H6 3591   4.544   3.606   9.668 -0.3944  0.8425  0.3468
  236MPD1    H7 3592   4.385   3.605   9.636  2.7795  1.8820 -0.8203
  237MPD1     C 3593   4.107   2.839  15.448 -0.1628  0.2192 -0.5364
  237MPD1    C1 3594   4.202   2.770  15.523  0.2030  0.9220 -0.0168
  237MPD1    C2 3595   4.217   2.629  15.507  0.5274  0.2666  0.2597
  237MPD1    C3 3596   4.150   2.570  15.401  0.5444  0.0899 -0.0666
  237MPD1    C4 3597   4.069   2.647  15.316 -0.5445 -0.1895  0.3295
  237MPD1    C5 3598   4.049   2.780  15.339  0.6105 -0.2558  0.1166
  237MPD1     H 3599   4.277   2.566  15.570  2.1710  0.2800 -1.2882
  237MPD1    H1 3600   4.013   2.606  15.233 -1.6366  0.0330  0.9534
  237MPD1    H2 3601   4.087   2.942  15.475 -0.0727  0.0617  0.1548
  237MPD1    H3 3602   3.968   2.823  15.280 -0.8457 -3.7877 -0.4601
  237MPD1     N 3603   4.144   2.437  15.364 -0.5751  0.3119  0.0168
  237MPD1    H5 3604   4.082   2.418  15.286 -0.7455  0.6723  0.0642
  237MPD1    N1 3605   4.255   2.833  15.633 -0.1832 -0.1531  0.6674
  237MPD1    H6 3606   4.351   2.804  15.651  1.2772  4.1732 -0.0959
  237MPD1    H7 3607   4.242   2.934  15.624  1.4375 -0.1185 -1.4166
  238MPD1     C 3608   1.684   0.898  15.079 -0.2498  0.5936  0.3225
  238MPD1    C1 3609   1.623   0.810  15.164 -0.3260 -0.4072  0.6105
  238MPD1    C2 3610   1.501   0.766  15.128 -0.5023  0.5452  0.2143
  238MPD1    C3 3611   1.421   0.838  15.035  0.4436  0.1088 -0.4078
  238MPD1    C4 3612   1.487   0.934  14.953 -0.2166 -0.4499 -0.1200
  238MPD1    C5 3613   1.614   0.949  14.978  0.9958 -0.9297 -0.8434
  238MPD1     H 3614   1.460   0.685  15.187  1.1732 -0.7609 -0.4319
  238MPD1    H1 3615   1.428   0.978  14.874 -0.5763 -0.4822  0.1319
  238MPD1    H2 3616   1.787   0.934  15.080 -0.0175  0.0103 -2.0981
  238MPD1    H3 3617   1.661   1.018  14.909  2.0740  0.6105  1.4328
  238MPD1     N 3618   1.286   0.811  15.004  0.5269 -0.2206 -0.1403
  238MPD1    H5 3619   1.241   0.874  14.939 -1.5268  1.5298  2.9902
  238MPD1    N1 3620   1.707   0.728  15.242 -0.0996  0.1606 -0.5771
  238MPD1    H6 3621   1.659   0.680  15.318 -0.9905  0.6698 -0.8216
  238MPD1    H7 3622   1.790   0.777  15.276 -0.6816  1.7811 -1.5064
  239MPD1     C 3623   1.748   1.693  15.019 -0.3510 -0.2373 -0.5473
  239MPD1    C1 3624   1.822   1.675  14.912 -0.1212  0.3345  0.1942
  239MPD1    C2 3625   1.765   1.683  14.782  0.6668  0.1951 -0.1542
  239MPD1    C3 3626   1.631   1.712  14.775  0.0593 -0.5458 -0.4297
  239MPD1    C4 3627   1.554   1.724  14.893 -0.5528  0.4358 -0.4190
  239MPD1    C5 3628   1.614   1.719  15.015 -0.2828 -0.0819  0.4324
  239MPD1     H 3629   1.828   1.664  14.696  0.2673 -1.4292 -0.0763
  239MPD1    H1 3630   1.446   1.726  14.890 -0.5772 -1.1183 -0.5738
  239MPD1    H2 3631   1.781   1.685  15.123 -0.3205 -0.0228 -0.5414
  239MPD1    H3 3632   1.555   1.743  15.103  0.1656  1.5785  0.2921
  239MPD1     N 3633   1.564   1.719  14.649 -0.1054  1.0627  0.1496
  239MPD1    H5 3634   1.465   1.740  14.648  0.1302  2.0361 -1.3147
  239MPD1    N1 3635   1.957   1.633  14.920  0.0642  0.2589  0.2833
  239MPD1    H6 3636   2.010   1.693  14.983  1.1007  1.7449 -2.0467
  239MPD1    H7 3637   2.015   1.641  14.836 -0.1585 -3.4241 -0.2329
  240MPD1     C 3638   0.742   1.904  14.072 -0.2333  0.2555 -0.0833
  240MPD1    C1 3639   0.629   1.854  14.118  0.4782  0.5729 -0.0008
  240MPD1    C2 3640   0.636   1.739  14.192 -0.0029  0.3407  0.7172
  240MPD1    C3 3641   0.755   1.688  14.249 -0.6325  0.3167 -0.9151
  240MPD1    C4 3642   0.868   1.760  14.215 -0.1903 -0.3476 -0.0250
  240MPD1    C5 3643   0.862   1.864  14.128 -0.2578  0.2584  0.6481
  240MPD1     H 3644   0.545   1.679  14.188 -0.9045  1.7595 -0.1356
  240MPD1    H1 3645   0.968   1.726  14.236  0.1584 -0.2467 -1.5577
  240MPD1    H2 3646   0.741   1.981  13.994 -1.7862 -1.2362 -1.5348
  240MPD1    H3 3647   0.958   1.900  14.092  0.4356 -2.1357  0.1321
  240MPD1     N 3648   0.759   1.561  14.313  0.6668 -0.6364 -0.3544
  240MPD1    H5 3649   0.668   1.516  14.316  0.6797 -0.7995 -2.4637
  240MPD1    N1 3650   0.512   1.889  14.050 -0.0544  0.0765  0.2133
  240MPD1    H6 3651   0.428   1.883  14.107  0.6776  0.8631  1.3556
  240MPD1    H7 3652   0.518   1.986  14.020  1.8209 -0.4344 -1.0876
  241MPD1     C 3653   0.733   0.934  15.163 -0.0736  0.2704  0.2483
  241MPD1    C1 3654   0.746   1.070  15.151 -0.0520 -0.2931  0.4667
  241MPD1    C2 3655   0.770   1.118  15.020 -0.2058 -0.1366  0.6604
  241MPD1    C3 3656   0.781   1.032  14.913 -0.4367 -0.1918  0.0983
  241MPD1    C4 3657   0.760   0.895  14.929 -0.0048  0.8135  0.1620
  241MPD1    C5 3658   0.741   0.850  15.056 -0.3668  0.2071  0.9362
  241MPD1     H 3659   0.757   1.225  15.005  1.1491  0.1652  1.5531
  241MPD1    H1 3660   0.765   0.828  14.844  0.2587  0.2876  0.5899
  241MPD1    H2 3661   0.701   0.892  15.259 -1.3543  1.6325  0.4108
  241MPD1    H3 3662   0.723   0.743  15.059 -1.0092  0.2740 -0.7586
  241MPD1     N 3663   0.814   1.069  14.776 -0.1213  0.4611  0.0423
  241MPD1    H5 3664   0.790   1.004  14.702  3.6272  0.3567 -1.0872
  241MPD1    N1 3665   0.726   1.157  15.257  0.1074 -0.4889  0.5749
  241MPD1    H6 3666   0.778   1.244  15.250 -2.3899  1.2682  3.8515
  241MPD1    H7 3667   0.750   1.111  15.345  0.6561  1.8585  1.6311
  242MPD1     C 3668   4.551   3.638  15.836 -0.1020 -0.0949 -0.4477
  242MPD1    C1 3669   4.549   3.756  15.763 -0.2395  0.2651  0.4640
  242MPD1    C2 3670   4.613   3.766  15.639  0.0808  0.1784 -0.2994
  242MPD1    C3 3671   4.655   3.652  15.574 -0.3656  0.3994 -0.3288
  242MPD1    C4 3672   4.634   3.531  15.634 -0.2700  0.3349 -0.2524
  242MPD1    C5 3673   4.581   3.526  15.761 -0.0020 -0.2015  0.3762
  242MPD1     H 3674   4.625   3.864  15.594  1.0996 -0.0622 -0.5414
  242MPD1    H1 3675   4.650   3.438  15.581 -1.3041 -1.0229  1.8687
  242MPD1    H2 3676   4.506   3.636  15.935  0.1811 -0.1711 -0.3224
  242MPD1    H3 3677   4.559   3.431  15.808  0.3719 -0.4090  0.1294
  242MPD1     N 3678   4.704   3.660  15.443 -0.3742  0.0511 -0.7164
  242MPD1    H5 3679   0.023   3.574  15.409 -0.1958  0.0309 -0.4446
  242MPD1    N1 3680   4.532   3.870  15.837  0.2562 -0.6077 -0.1271
  242MPD1    H6 3681   4.456   3.852  15.903  0.5162  1.2620  0.7011
  242MPD1    H7 3682   4.505   3.949  15.779 -0.0316  0.0404  0.8769
  243MPD1     C 3683   2.524   3.657   0.054  0.6803 -0.2103  0.0296
  243MPD1    C1 3684   2.544   3.520   0.029  0.3092  0.2742 -0.4475
  243MPD1    C2 3685   2.454   3.450  17.643  0.3879  0.4755 -0.2321
  243MPD1    C3 3686   2.361   3.513  17.566  0.2212  0.4292  0.9653
  243MPD1    C4 3687   2.336   3.650  17.596 -0.2406  0.0567 -0.0429
  243MPD1    C5 3688   2.417   3.719  17.686  0.1909 -0.5282 -0.3198
  243MPD1     H 3689   2.461   3.342  17.633  0.4319  0.1999  2.8183
  243MPD1    H1 3690   2.248   3.708  17.570  0.2002  0.0475 -1.5269
  243MPD1    H2 3691   2.581   3.712   0.128 -1.3127  0.3696  1.1544
  243MPD1    H3 3692   2.393   3.823   0.010  0.4270 -0.3728 -0.9313
  243MPD1     N 3693   2.285   3.443  17.474  0.6416 -0.0575  0.4531
  243MPD1    H5 3694   2.299   3.343  17.479 -1.9086 -0.4857 -1.1890
  243MPD1    N1 3695   2.622   3.454   0.126  0.2765  0.3869 -0.0997
  243MPD1    H6 3696   2.643   3.360   0.094 -1.8339  0.2120 -0.9462
  243MPD1    H7 3697   2.705   3.514   0.128  1.1785 -0.8439 -0.4941
  244MPD1     C 3698   2.446   2.620  17.282  0.2231 -0.1817 -0.1959
  244MPD1    C1 3699   2.512   2.737  17.325 -1.1848 -0.8873  0.3808
  244MPD1    C2 3700   2.435   2.856  17.324 -0.0998 -0.5320  0.1168
  244MPD1    C3 3701   2.304   2.865  17.273 -0.8552 -0.6734 -0.7379
  244MPD1    C4 3702   2.248   2.743  17.217  0.2730  0.2667  0.3328
  244MPD1    C5 3703   2.317   2.628  17.232 -0.3382  0.2304 -0.4258
  244MPD1     H 3704   2.484   2.941  17.369  1.0408 -1.0078 -0.2388
  244MPD1    H1 3705   2.146   2.734  17.182  1.1218 -1.4100 -1.7509
  244MPD1    H2 3706   2.494   2.523  17.290 -2.3800 -1.4910 -0.5251
  244MPD1    H3 3707   2.281   2.528  17.209  3.0767 -0.4662 -2.8589
  244MPD1     N 3708   2.241   2.993  17.277 -0.4874 -0.0108  0.0012
  244MPD1    H5 3709   2.299   3.068  17.314 -1.0892  3.0265 -5.3157
  244MPD1    N1 3710   2.638   2.734  17.387  0.7659  0.6513 -0.2044
  244MPD1    H6 3711   2.701   2.814  17.380 -0.1896  1.1951 -2.4839
  244MPD1    H7 3712   2.696   2.652  17.369  0.5364 -0.0347  2.0896
  245MPD1     C 3713   4.092   3.601  12.973 -0.0242  0.1782  0.2078
  245MPD1    C1 3714   3.981   3.655  13.038  0.1646  0.0645 -0.4036
  245MPD1    C2 3715   4.005   3.761  13.128  0.1396 -0.2991  0.0444
  245MPD1    C3 3716   4.128   3.827  13.130 -0.5402  0.2117  0.1547
  245MPD1    C4 3717   4.221   3.786  13.044  0.1353  0.0283 -0.0797
  245MPD1    C5 3718   4.206   3.678  12.964  0.0867  0.6017  0.5787
  245MPD1     H 3719   3.919   3.793  13.185 -0.2829 -0.6699 -0.3753
  245MPD1    H1 3720   4.320   3.830  13.031 -0.2818  0.6103 -1.2807
  245MPD1    H2 3721   4.086   3.525  12.896  0.5065 -0.2295  0.5737
  245MPD1    H3 3722   4.285   3.643  12.899 -2.3773  1.7789 -3.0892
  245MPD1     N 3723   4.135   3.944  13.207 -0.0469  0.3815 -0.2110
  245MPD1    H5 3724   4.050   3.980  13.250 -1.0238  0.5075 -2.2725
  245MPD1    N1 3725   3.856   3.590  13.040  0.4213 -0.9378 -0.3897
  245MPD1    H6 3726   3.781   3.656  13.058  2.0382  0.7928  0.0149
  245MPD1    H7 3727   3.834   3.551  12.948  0.4417 -0.4248 -0.6140
  246MPD1     C 3728   4.009   2.364   9.503 -0.1236 -0.9105 -0.1306
  246MPD1    C1 3729   4.046   2.484   9.441  0.1998 -0.5610  0.8981
  246MPD1    C2 3730   4.182   2.495   9.396 -0.3021 -0.3612 -0.6472
  246MPD1    C3 3731   4.280   2.410   9.441 -0.0103  0.2019  0.4289
  246MPD1    C4 3732   4.250   2.309   9.535 -0.2795 -0.4242  0.5341
  246MPD1    C5 3733   4.115   2.296   9.560 -0.0303  0.0297  0.3790
  246MPD1     H 3734   4.207   2.575   9.328 -2.5479  0.6510 -0.2919
  246MPD1    H1 3735   4.324   2.236   9.566  0.8735  0.6260  0.2526
  246MPD1    H2 3736   3.905   2.349   9.530  0.2071 -0.1411  1.6088
  246MPD1    H3 3737   4.095   2.218   9.633 -0.6566 -0.0009  0.1777
  246MPD1     N 3738   4.417   2.428   9.395  0.1567 -0.1919 -0.1594
  246MPD1    H5 3739   4.432   2.506   9.331  1.7256  0.9145  1.5206
  246MPD1    N1 3740   3.945   2.567   9.396 -0.1676  0.2521  0.1534
  246MPD1    H6 3741   3.969   2.658   9.360  1.2257 -0.2414 -0.1401
  246MPD1    H7 3742   3.870   2.581   9.464  1.3742  0.6408  1.7685
  247MPD1     C 3743   2.396   2.660  15.738  0.4116  0.2748 -0.6859
  247MPD1    C1 3744   2.451   2.607  15.855  0.1641 -0.0116 -0.5076
  247MPD1    C2 3745   2.578   2.657  15.896 -0.5090 -0.2500 -0.2510
  247MPD1    C3 3746   2.648   2.757  15.829  0.4067 -0.4024  0.2261
  247MPD1    C4 3747   2.584   2.809  15.717 -0.1558  0.8696 -0.3179
  247MPD1    C5 3748   2.466   2.762  15.677 -0.1019  0.0129  0.9560
  247MPD1     H 3749   2.619   2.622  15.990 -0.6170  1.3112  0.3658
  247MPD1    H1 3750   2.627   2.888  15.657 -0.0815 -0.1765 -1.6650
  247MPD1    H2 3751   2.296   2.641  15.703  0.4804  0.8398 -1.2136
  247MPD1    H3 3752   2.425   2.819  15.594 -0.8052  1.4063  2.2386
  247MPD1     N 3753   2.782   2.805  15.852 -0.8355  0.1441  0.0337
  247MPD1    H5 3754   2.814   2.892  15.812 -0.9144 -0.2293 -0.8453
  247MPD1    N1 3755   2.373   2.515  15.931 -0.1160  0.1634 -0.0911
  247MPD1    H6 3756   2.421   2.458  16.000  1.9714 -0.0557 -1.7122
  247MPD1    H7 3757   2.287   2.473  15.896 -0.8081 -0.5841  2.5526
  248MPD1     C 3758   3.991   3.268   0.376 -0.5284  0.3302 -0.8254
  248MPD1    C1 3759   3.970   3.371   0.289  0.0395  0.1616 -0.3224
  248MPD1    C2 3760   3.875   3.475   0.315 -0.1040  0.0894 -0.3424
  248MPD1    C3 3761   3.801   3.472   0.431  0.0676  0.8597 -0.3142
  248MPD1    C4 3762   3.813   3.358   0.511  0.1437 -0.3567  0.5930
  248MPD1    C5 3763   3.901   3.259   0.477  0.5844 -0.5865  0.4772
  248MPD1     H 3764   3.861   3.553   0.241  0.9168 -0.2444 -0.8898
  248MPD1    H1 3765   3.747   3.341   0.595 -0.1379  0.6833  0.5773
  248MPD1    H2 3766   4.070   3.195   0.367 -0.5951  0.5256 -2.8834
  248MPD1    H3 3767   3.909   3.172   0.540 -4.9981 -1.8340 -0.5750
  248MPD1     N 3768   3.711   3.580   0.454  0.7330 -0.4036  0.2113
  248MPD1    H5 3769   3.698   3.651   0.382  2.1300 -0.9548 -0.5794
  248MPD1    N1 3770   4.059   3.389   0.183 -0.1137  0.2286  0.1766
  248MPD1    H6 3771   4.097   3.300   0.150  0.1037  0.4933 -0.2945
  248MPD1    H7 3772   4.018   3.435   0.102  2.3588  2.2118  0.0442
  249MPD1     C 3773   0.321   1.015  10.109 -0.1255 -0.0101  0.5771
  249MPD1    C1 3774   0.437   1.048  10.176 -0.3929 -0.0549 -0.1436
  249MPD1    C2 3775   0.527   1.132  10.118 -0.4218  0.3330 -0.3127
  249MPD1    C3 3776   0.502   1.202  10.001  0.0506  0.3576 -0.4660
  249MPD1    C4 3777   0.386   1.173   9.938 -0.0244  0.9572  0.2256
  249MPD1    C5 3778   0.297   1.077   9.992  0.7550  0.6017  0.0507
  249MPD1     H 3779   0.622   1.156  10.163 -1.6196  0.1254  2.3350
  249MPD1    H1 3780   0.353   1.225   9.849 -0.2639 -0.7713 -0.6868
  249MPD1    H2 3781   0.263   0.926  10.131 -0.8441  0.1970 -0.4561
  249MPD1    H3 3782   0.210   1.041   9.937  0.1302 -0.2908  1.6316
  249MPD1     N 3783   0.590   1.301   9.957  0.1013 -0.5754 -0.4073
  249MPD1    H5 3784   0.682   1.309   9.999 -0.8088 -0.3674  1.5349
  249MPD1    N1 3785   0.477   0.966  10.283 -0.3780 -0.7524  0.1512
  249MPD1    H6 3786   0.398   0.926  10.332 -0.1425 -1.7099 -0.2349
  249MPD1    H7 3787   0.528   1.017  10.354 -1.8227  1.2065 -0.2288
  250MPD2     C 3788   2.614   2.114  12.470  0.2071  0.4477  0.2229
  250MPD2    C1 3789   2.536   2.154  12.578 -0.0344 -0.2847 -0.2508
  250MPD2    C2 3790   2.430   2.071  12.616  0.3213 -0.4592 -0.6309
  250MPD2    C3 3791   2.413   1.946  12.555  0.6736  0.1155 -0.3812
  250MPD2    C4 3792   2.498   1.903  12.462 -0.3153  0.2332  0.0713
  250MPD2    C5 3793   2.608   1.984  12.429 -0.1166 -0.1810 -0.1431
  250MPD2     H 3794   2.359   2.099  12.693  2.1019  0.0196  0.8561
  250MPD2    H1 3795   2.493   1.807  12.413  1.1492 -0.1928  0.7526
  250MPD2    H2 3796   2.695   2.177  12.436 -0.9822  1.2969 -0.9877
  250MPD2    H3 3797   2.678   1.946  12.356 -0.5840  0.2848 -0.8349
  250MPD2     N 3798   2.311   1.854  12.584 -0.7372 -0.1174  0.2568
  250MPD2    H5 3799   2.324   1.764  12.539  2.6393 -0.1573  1.2838
  250MPD2    N1 3800   2.545   2.295  12.627 -0.1677  0.1521 -0.2587
  250MPD2    H7 3801   2.600   2.362  12.574 -1.4518  2.0263  0.7772
  251TMC3    C1 3802   2.498   2.489  12.750  0.0515 -0.3918 -0.0801
  251TMC3    C2 3803   2.407   2.564  12.815 -0.1884 -0.2076 -0.1883
  251TMC3    C3 3804   2.454   2.668  12.887 -0.1036  0.0945 -0.1880
  251TMC3    C4 3805   2.632   2.518  12.747 -0.1510 -0.4811 -0.2090
  251TMC3    C5 3806   2.670   2.636  12.806 -0.1729 -0.1776 -0.0200
  251TMC3    C6 3807   2.584   2.698  12.889  0.2359  0.3330 -0.6679
  251TMC3     C 3808   2.457   2.356  12.719  0.2245 -1.1495 -0.1741
  251TMC3     O 3809   2.368   2.309  12.787  0.2282  0.7660 -0.1248
  251TMC3     H 3810   2.303   2.539  12.801  0.2137 -1.8156 -0.3245
  251TMC3    H1 3811   2.708   2.448  12.717 -1.6910 -3.1196  2.0179
  251TMC3    H2 3812   2.622   2.780  12.949 -0.7842  1.4514 -1.5478
  251TMC3    C7 3813   2.804   2.661  12.831 -0.3257  0.0873  0.7767
  251TMC3    C8 3814   2.358   2.741  12.964  0.0405 -0.7706  0.1868
  251TMC3    O1 3815   2.872   2.573  12.877 -0.2837 -0.4002  0.2221
  251TMC3    O2 3816   2.393   2.790  13.071 -0.4674 -0.4353  0.1272
  252TMC3    C1 3817   2.930   2.910   9.199  0.1195  0.3927 -0.4034
  252TMC3    C2 3818   2.888   2.968   9.322  0.0455  0.6034  0.1877
  252TMC3    C3 3819   2.755   2.978   9.342 -0.1497  0.1571 -0.7043
  252TMC3    C4 3820   2.842   2.856   9.110 -0.0523 -0.7985  0.3362
  252TMC3    C5 3821   2.717   2.839   9.157  0.2838  0.2603  0.7344
  252TMC3    C6 3822   2.665   2.910   9.260  0.4670  0.3694  0.0322
  252TMC3     C 3823   3.048   2.968   9.139  0.0974  0.6078 -0.5273
  252TMC3     O 3824   3.083   3.070   9.194 -0.1112  0.6450 -0.1358
  252TMC3     H 3825   2.948   3.029   9.388  3.1190 -2.4311  0.1826
  252TMC3    H1 3826   2.872   2.815   9.015  2.2308 -0.7655  1.0474
  252TMC3    H2 3827   2.558   2.917   9.275  0.6536 -0.0483  1.5232
  252TMC3    C7 3828   2.620   2.799   9.064 -0.2078  0.6974 -0.0913
  252TMC3    C8 3829   2.695   3.074   9.432  0.4521  0.7803 -0.2685
  252TMC3    O1 3830   2.637   2.830   8.946 -0.5694 -0.0186 -0.2689
  252TMC3    O2 3831   2.583   3.122   9.412  0.4042  0.0385 -0.8383
  253MPD2     C 3832   3.781   2.730  15.604 -0.3715  0.1244 -0.5927
  253MPD2    C1 3833   3.704   2.645  15.527 -0.5537 -0.3069 -0.3060
  253MPD2    C2 3834   3.738   2.507  15.517 -0.1217 -0.4827  0.6678
  253MPD2    C3 3835   3.848   2.465  15.589  0.2587  0.0097  1.0089
  253MPD2    C4 3836   3.931   2.553  15.661  0.2325 -1.1239 -0.1886
  253MPD2    C5 3837   3.894   2.692  15.665  0.7597  0.6156  0.0921
  253MPD2     H 3838   3.667   2.440  15.470 -0.5778 -0.0922  0.8075
  253MPD2    H1 3839   4.013   2.519  15.723 -1.4957 -0.7827  2.3187
  253MPD2    H2 3840   3.739   2.829  15.612 -3.2403 -0.9620 -2.2147
  253MPD2    H3 3841   3.952   2.759  15.726  2.0424  0.3382 -0.8150
  253MPD2     N 3842   3.872   2.335  15.620  0.3860 -0.3198 -0.3956
  253MPD2    H5 3843   3.957   2.320  15.673 -0.0614  0.8250  0.6378
  253MPD2    N1 3844   3.569   2.672  15.475 -0.0316  0.5652 -0.4054
  253MPD2    H7 3845   3.514   2.596  15.436  2.6065  1.2313 -5.4527
  254TMC3    C1 3846   3.803   2.101  15.647  0.0380  0.3981  0.4912
  254TMC3    C2 3847   3.709   2.010  15.607  0.1547  0.4060 -0.2944
  254TMC3    C3 3848   3.674   1.912  15.693 -0.0980 -0.5072  0.9002
  254TMC3    C4 3849   3.869   2.092  15.767  0.3925  0.7715 -0.6120
  254TMC3    C5 3850   3.848   1.986  15.854 -0.7378 -0.9032 -0.0342
  254TMC3    C6 3851   3.752   1.895  15.808 -0.5976  0.8202 -0.0468
  254TMC3     C 3852   3.798   2.229  15.577 -0.2995  0.0972  0.2530
  254TMC3     O 3853   3.712   2.222  15.490 -0.0396 -0.2780  0.1378
  254TMC3     H 3854   3.674   2.012  15.505 -0.4216  3.2663 -0.0273
  254TMC3    H1 3855   3.898   2.181  15.822 -2.9164 -0.0695  2.4826
  254TMC3    H2 3856   3.729   1.820  15.883  1.6790  0.5051  0.3285
  254TMC3    C7 3857   3.823   2.042  15.982  0.2928  0.0667 -0.1651
  254TMC3    C8 3858   3.529   1.906  15.719 -0.3637 -0.3788 -0.6850
  254TMC3    O1 3859   3.705   2.049  16.017 -0.0950 -0.2500 -0.4516
  254TMC3    O2 3860   3.497   1.855  15.825  0.7503 -0.7428  0.0487
  255MPD2     C 3861   1.858   3.915   9.932 -0.2802  0.0557  0.8308
  255MPD2    C1 3862   1.873   3.960   9.804 -0.7266 -0.1241 -0.3475
  255MPD2    C2 3863   1.924   3.879   9.708 -0.4840  0.5235  0.3630
  255MPD2    C3 3864   1.936   3.738   9.721 -0.9120 -0.2944  0.0383
  255MPD2    C4 3865   1.900   3.690   9.844 -0.4204  0.2804 -0.1003
  255MPD2    C5 3866   1.862   3.774   9.944 -0.1424  0.3860  0.4285
  255MPD2     H 3867   1.942   3.921   9.609 -3.6773 -0.2785 -0.5771
  255MPD2    H1 3868   1.896   3.583   9.857  1.0202  0.4264  1.5873
  255MPD2    H2 3869   1.831   3.972  10.020 -0.8038 -0.3071  0.9021
  255MPD2    H3 3870   1.831   3.723  10.035 -0.3561 -2.6003 -1.2936
  255MPD2     N 3871   1.961   3.645   9.616 -0.1406 -0.3214 -0.3213
  255MPD2    H5 3872   1.962   3.547   9.644  2.5711 -0.3916 -0.6138
  255MPD2    N1 3873   1.836   4.090   9.757  0.1247 -0.7535  0.1168
  255MPD2    H7 3874   1.866   4.115   9.663 -0.1006  1.3926  0.6201
  256TMC3    C1 3875   1.717   4.283   9.755  0.2937 -0.7910  0.5347
  256TMC3    C2 3876   1.727   4.412   9.798  0.1988 -0.0261 -0.5156
  256TMC3    C3 3877   1.723   4.508   9.703  0.1118 -0.4470 -0.1087
  256TMC3    C4 3878   1.688   4.256   9.624 -0.0991 -0.2854  0.3127
  256TMC3    C5 3879   1.672   4.353   9.537 -0.5275 -0.5274  0.4477
  256TMC3    C6 3880   1.688   4.485   9.571 -0.5943 -0.4490  0.3781
  256TMC3     C 3881   1.767   4.176   9.833  0.2968  0.2395 -0.3303
  256TMC3     O 3882   1.773   4.198   9.953  0.3223 -0.6015 -0.6302
  256TMC3     H 3883   1.760   4.435   9.899  0.4902  0.0158 -0.6223
  256TMC3    H1 3884   1.668   4.155   9.589  0.1487  0.1088 -0.9719
  256TMC3    H2 3885   1.667   4.568   9.504  0.6667 -0.9437 -0.6246
  256TMC3    C7 3886   1.633   4.305   9.399 -0.3502  0.0840 -0.1069
  256TMC3    C8 3887   1.719   4.644   9.754 -0.0759  0.0367  0.4673
  256TMC3    O1 3888   1.546   4.229   9.382  0.2161 -0.1987  0.1061
  256TMC3    O2 3889   1.682   4.663   9.871 -0.4336 -0.5347  0.4186
  257MPD2     C 3890   0.872   2.318  13.239 -0.2886 -0.2416  0.1004
  257MPD2    C1 3891   0.806   2.203  13.191 -0.3850 -0.1704  0.8938
  257MPD2    C2 3892   0.791   2.096  13.279 -0.7216 -0.1386 -0.0901
  257MPD2    C3 3893   0.850   2.090  13.410 -0.2276 -0.0025  0.0927
  257MPD2    C4 3894   0.911   2.202  13.453  0.4456 -0.4286  0.0151
  257MPD2    C5 3895   0.923   2.312  13.368 -0.5273 -0.1669 -0.4405
  257MPD2     H 3896   0.742   2.005  13.248  1.0937 -0.4429 -2.0952
  257MPD2    H1 3897   0.959   2.208  13.550  1.8378 -1.1852 -0.6268
  257MPD2    H2 3898   0.890   2.412  13.188 -0.1370 -1.2551 -1.7181
  257MPD2    H3 3899   0.973   2.403  13.399 -0.8810 -0.0513 -0.2026
  257MPD2     N 3900   0.844   1.973  13.490  0.5201 -0.2115 -0.0893
  257MPD2    H5 3901   0.781   1.901  13.456  0.8920 -0.1976 -0.8056
  257MPD2    N1 3902   0.764   2.212  13.058  0.0476  0.1223  0.2388
  257MPD2    H7 3903   0.785   2.291  12.999  2.4126 -2.3523 -2.2451
  258TMC3    C1 3904   0.895   1.837  13.669 -0.6866 -0.2284 -0.0807
  258TMC3    C2 3905   0.772   1.777  13.645  0.7199 -0.8686 -0.5092
  258TMC3    C3 3906   0.739   1.688  13.737  0.2692 -0.6343  0.0112
  258TMC3    C4 3907   0.984   1.798  13.761  1.1158 -0.2018  0.6844
  258TMC3    C5 3908   0.940   1.706  13.861  0.3078  0.8960 -0.6125
  258TMC3    C6 3909   0.815   1.653  13.850  0.1642  0.0038 -0.6244
  258TMC3     C 3910   0.928   1.954  13.595 -0.0011 -0.1391 -0.3012
  258TMC3     O 3911   1.038   2.002  13.615  0.0173 -0.1244  0.4922
  258TMC3     H 3912   0.700   1.804  13.568 -0.1547 -2.0119 -0.0835
  258TMC3    H1 3913   1.085   1.837  13.767  0.9296  0.5706 -1.1906
  258TMC3    H2 3914   0.782   1.586  13.928 -0.9753  1.5895  0.2527
  258TMC3    C7 3915   1.048   1.648  13.942  0.0460 -0.7889  0.3656
  258TMC3    C8 3916   0.621   1.606  13.707  0.4202  0.0206 -0.5681
  258TMC3    O1 3917   1.153   1.710  13.944  0.3347  0.5585  0.4910
  258TMC3    O2 3918   0.582   1.603  13.588 -0.1669  0.0860  0.2543
  259MPD2     C 3919   4.305   4.601   0.757 -0.3704 -0.5628 -0.9320
  259MPD2    C1 3920   4.394   4.555   0.853  0.8783 -0.4799  0.4697
  259MPD2    C2 3921   4.492   4.463   0.810  0.2727 -0.2601  0.3572
  259MPD2    C3 3922   4.506   4.420   0.678 -0.5695 -0.4754 -0.0846
  259MPD2    C4 3923   4.412   4.467   0.585  0.5784 -0.4676 -0.2850
  259MPD2    C5 3924   4.308   4.549   0.626  0.3994  0.5764 -0.1163
  259MPD2     H 3925   4.562   4.417   0.879 -0.6695 -2.2047  0.0143
  259MPD2    H1 3926   4.408   4.427   0.484  0.1310  2.7067 -1.5379
  259MPD2    H2 3927   4.233   4.679   0.778 -0.2116  0.1578 -3.1248
  259MPD2    H3 3928   4.234   4.575   0.552  0.4651  0.1200 -0.3473
  259MPD2     N 3929   4.610   4.333   0.638 -0.0536 -0.0708  0.3209
  259MPD2    H5 3930   4.672   4.301   0.712  4.7160 -0.7219 -3.9406
  259MPD2    N1 3931   4.383   4.590   0.988  0.9393 -0.0213  0.1219
  259MPD2    H7 3932   4.320   4.663   1.021 -0.6498 -1.9392  1.3915
  260TMC3    C1 3933   0.030   4.201   0.493  0.3255 -0.9244 -1.4126
  260TMC3    C2 3934   0.094   4.195   0.373  0.0898  0.2349 -0.2068
  260TMC3    C3 3935   0.156   4.080   0.340  0.2652 -1.0391  0.1635
  260TMC3    C4 3936   0.028   4.093   0.575 -0.1766 -0.0467  0.2686
  260TMC3    C5 3937   0.090   3.976   0.543  0.7530 -0.5071 -0.5394
  260TMC3    C6 3938   0.158   3.967   0.421 -0.9866 -0.3406 -0.2460
  260TMC3     C 3939   4.648   4.302   0.504 -0.2268  0.6125  1.6042
  260TMC3     O 3940   4.587   4.330   0.399 -0.0524 -0.1035  0.2432
  260TMC3     H 3941   0.081   4.276   0.302 -2.7137 -0.3324 -0.3565
  260TMC3    H1 3942   4.700   4.100   0.670 -0.7120  0.0230 -0.0195
  260TMC3    H2 3943   0.213   3.881   0.384 -2.0201 -1.3592  0.5937
  260TMC3    C7 3944   0.052   3.852   0.598  0.4579  0.1512  1.0491
  260TMC3    C8 3945   0.204   4.073   0.202  0.0689  0.7473  0.4894
  260TMC3    O1 3946   0.070   3.744   0.536 -0.0365  0.0514  0.2214
  260TMC3    O2 3947   0.203   4.175   0.132  0.1621 -0.0501  0.8146
  261MPD2     C 3948   1.490   1.747  12.589  0.6150  0.5107 -0.0478
  261MPD2    C1 3949   1.580   1.674  12.513  0.3238  0.5307 -0.9868
  261MPD2    C2 3950   1.545   1.636  12.389  0.1835 -0.0653 -0.8948
  261MPD2    C3 3951   1.415   1.655  12.344 -0.2260  0.2652  0.0983
  261MPD2    C4 3952   1.320   1.725  12.417  0.0632  0.3856 -0.2143
  261MPD2    C5 3953   1.364   1.770  12.545 -0.5379 -0.1731  0.5440
  261MPD2     H 3954   1.619   1.577  12.336  1.5390  0.8180  0.0003
  261MPD2    H1 3955   1.216   1.744  12.395 -0.0722  0.7328  0.6995
  261MPD2    H2 3956   1.506   1.775  12.692 -3.3321 -0.7633  0.9077
  261MPD2    H3 3957   1.297   1.823  12.612  2.0230  3.9627 -0.1647
  261MPD2     N 3958   1.383   1.604  12.214  0.0365  0.0766 -0.0731
  261MPD2    H5 3959   1.451   1.556  12.155 -1.7958 -0.7540 -1.5179
  261MPD2    N1 3960   1.717   1.646  12.557  0.4681 -0.5897 -0.8380
  261MPD2    H7 3961   1.771   1.568  12.519  0.1854 -0.8685 -0.6728
  262TMC3    C1 3962   1.278   1.616  11.998  0.1998  0.9287 -0.4220
  262TMC3    C2 3963   1.230   1.721  11.931  0.1371  0.3195  0.0221
  262TMC3    C3 3964   1.270   1.736  11.798 -0.3975  0.2360 -0.4266
  262TMC3    C4 3965   1.369   1.528  11.946 -0.0190 -0.0503 -0.2454
  262TMC3    C5 3966   1.401   1.539  11.815  0.1586  0.0271  0.5028
  262TMC3    C6 3967   1.356   1.647  11.742  0.9570 -0.3723  0.6801
  262TMC3     C 3968   1.269   1.645  12.144  0.3069 -0.5418 -0.0885
  262TMC3     O 3969   1.161   1.691  12.178  0.3418  0.5930  0.0251
  262TMC3     H 3970   1.175   1.802  11.978 -1.4039 -0.4253 -0.4624
  262TMC3    H1 3971   1.396   1.439  12.003  1.1612 -0.5696 -1.6097
  262TMC3    H2 3972   1.379   1.652  11.636  0.2304  3.8837  0.7231
  262TMC3    C7 3973   1.450   1.416  11.743  0.4463 -0.0068 -0.5222
  262TMC3    C8 3974   1.270   1.872  11.736  0.9507 -0.0830 -0.1151
  262TMC3    O1 3975   1.434   1.315  11.805  0.6842  0.8183 -0.3288
  262TMC3    O2 3976   1.360   1.894  11.655  0.3433 -0.5940  0.6331
  263MPD2     C 3977   3.047   0.759  11.350  0.2815 -0.0557  0.3542
  263MPD2    C1 3978   3.080   0.898  11.356  0.5897 -0.2206 -0.0944
  263MPD2    C2 3979   2.989   0.985  11.289  0.2918  0.6276  0.2102
  263MPD2    C3 3980   2.877   0.942  11.221  0.4501 -0.1513  0.0276
  263MPD2    C4 3981   2.856   0.807  11.219 -0.0394 -0.0059  0.9871
  263MPD2    C5 3982   2.941   0.714  11.270  0.0003  0.1195 -1.1214
  263MPD2     H 3983   3.009   1.092  11.291 -0.7219  0.8233 -0.2933
  263MPD2    H1 3984   2.773   0.770  11.160  0.9265 -0.6438  0.0245
  263MPD2    H2 3985   3.112   0.691  11.402  1.8368  0.9174 -0.3242
  263MPD2    H3 3986   2.923   0.609  11.251  0.1580 -0.0267 -0.4395
  263MPD2     N 3987   2.793   1.026  11.141 -0.2042 -0.8293  0.9182
  263MPD2    H5 3988   2.810   1.126  11.145  2.0974 -1.3103  2.7223
  263MPD2    N1 3989   3.196   0.935  11.424 -0.6687 -0.3454  0.6677
  263MPD2    H7 3990   3.243   0.853  11.461 -0.0268 -0.7508 -1.0407
  264TMC3    C1 3991   2.664   1.083  10.958 -0.1268  0.7947  0.2314
  264TMC3    C2 3992   2.677   1.217  10.989 -0.1838 -0.4486 -0.2517
  264TMC3    C3 3993   2.693   1.304  10.884  0.3921 -0.5662 -0.5672
  264TMC3    C4 3994   2.674   1.044  10.824  0.0587  0.0411  0.4708
  264TMC3    C5 3995   2.715   1.124  10.729  0.1080 -0.4481 -0.5129
  264TMC3    C6 3996   2.716   1.254  10.760 -0.8041  0.3184 -0.0546
  264TMC3     C 3997   2.693   0.983  11.053 -0.5662 -1.0425  0.1204
  264TMC3     O 3998   2.652   0.876  11.025 -0.6296 -0.2766  0.0584
  264TMC3     H 3999   2.662   1.258  11.088 -0.3542 -1.8165  0.2885
  264TMC3    H1 4000   2.679   0.938  10.801 -1.7405 -0.0233  0.3601
  264TMC3    H2 4001   2.756   1.320  10.684  0.5252 -1.3609 -0.7968
  264TMC3    C7 4002   2.831   1.084  10.657  0.2107  0.2169  0.4086
  264TMC3    C8 4003   2.755   1.432  10.910  0.1771 -0.7804  0.9095
  264TMC3    O1 4004   2.943   1.102  10.706 -0.3214  0.1441 -0.0054
  264TMC3    O2 4005   2.846   1.478  10.845 -0.0013 -0.5717  0.2576
  265MPD2     C 4006   0.494   1.858  15.595 -0.1014  0.4927 -0.3721
  265MPD2    C1 4007   0.367   1.845  15.535 -0.0202  0.9562  0.4662
  265MPD2    C2 4008   0.367   1.790  15.407  0.0932 -0.0011  0.5404
  265MPD2    C3 4009   0.489   1.781  15.337  0.1499 -0.0358  0.3884
  265MPD2    C4 4010   0.610   1.810  15.394  0.8509 -0.5528  0.0896
  265MPD2    C5 4011   0.610   1.844  15.526 -0.3182 -0.2621  0.0490
  265MPD2     H 4012   0.273   1.756  15.366  0.5837  0.8878 -1.3564
  265MPD2    H1 4013   0.707   1.811  15.344  1.4882  1.0538  1.3339
  265MPD2    H2 4014   0.493   1.903  15.694 -1.1743 -2.0342  0.7984
  265MPD2    H3 4015   0.701   1.854  15.585 -0.2246 -3.4520  0.4642
  265MPD2     N 4016   0.500   1.744  15.196  0.3475 -0.3149 -0.0354
  265MPD2    H5 4017   0.590   1.752  15.149  0.8256  1.4063  1.1850
  265MPD2    N1 4018   0.251   1.885  15.597 -0.3866 -0.2259  0.2343
  265MPD2    H7 4019   0.164   1.878  15.545  0.6271 -0.9076 -1.3377
  266TMC3    C1 4020   0.099   1.961  15.754  0.1447  0.6156  0.1719
  266TMC3    C2 4021   0.048   1.956  15.879 -0.9928 -0.3276 -0.4432
  266TMC3    C3 4022   4.678   2.049  15.923  0.5610 -0.0728  0.2779
  266TMC3    C4 4023   0.079   2.076  15.677 -0.1162 -0.5060  0.5834
  266TMC3    C5 4024   4.716   2.176  15.726 -0.0446  0.3313 -0.5539
  266TMC3    C6 4025   4.643   2.161  15.846 -0.2232  0.3516 -0.2845
  266TMC3     C 4026   0.235   1.922  15.734  0.8061 -0.3601 -0.3854
  266TMC3     O 4027   0.312   1.923  15.830 -0.0413 -0.3921 -0.1667
  266TMC3     H 4028   0.081   1.870  15.936 -0.5578  0.2295  0.1386
  266TMC3    H1 4029   0.136   2.093  15.587  0.5848  1.7478  1.4521
  266TMC3    H2 4030   4.562   2.225  15.881  0.7002  1.1246  0.4245
  266TMC3    C7 4031   4.718   2.303  15.651  0.5799  0.9618 -0.4577
  266TMC3    C8 4032   4.612   2.035  16.046  0.3755 -0.0251 -0.6314
  266TMC3    O1 4033   0.069   2.312  15.554  0.0673 -0.0602  0.0391
  266TMC3    O2 4034   4.622   1.915  16.088  0.1862 -0.1851 -0.1576
  267MPD2     C 4035   2.083   3.047   0.789  0.0034  0.0704 -0.2765
  267MPD2    C1 4036   2.048   3.136   0.697 -0.4594 -0.4809  0.5776
  267MPD2    C2 4037   1.980   3.100   0.583 -0.1590  0.0004  0.1855
  267MPD2    C3 4038   1.940   2.971   0.565 -0.1315  0.1816 -0.8581
  267MPD2    C4 4039   1.970   2.871   0.664  0.6265  0.1569 -0.3865
  267MPD2    C5 4040   2.050   2.916   0.769 -0.9914 -0.0794 -0.3206
  267MPD2     H 4041   1.951   3.168   0.504  0.3093 -0.1630 -0.1255
  267MPD2    H1 4042   1.948   2.765   0.653  0.4406  0.1230  0.3313
  267MPD2    H2 4043   2.149   3.075   0.870 -1.3422  1.6184  0.2782
  267MPD2    H3 4044   2.074   2.833   0.834 -1.0488  0.2433  0.1076
  267MPD2     N 4045   1.889   2.936   0.438  0.1963 -0.0992 -0.0477
  267MPD2    H5 4046   1.886   3.015   0.374  2.1438 -1.8499 -2.2918
  267MPD2    N1 4047   2.094   3.263   0.715 -0.2345 -0.4572  0.2828
  267MPD2    H7 4048   2.131   3.277   0.809 -1.2716 -0.5000  0.6989
  268TMC3    C1 4049   2.099   3.498   0.673 -0.2657 -0.2564  0.3805
  268TMC3    C2 4050   2.123   3.595   0.579  0.3083 -0.3539  0.8303
  268TMC3    C3 4051   2.159   3.720   0.627 -0.4870 -0.2800 -0.1226
  268TMC3    C4 4052   2.111   3.521   0.810 -0.7734 -0.2899  0.4510
  268TMC3    C5 4053   2.150   3.643   0.852 -0.0400 -0.3073 -0.2929
  268TMC3    C6 4054   2.179   3.743   0.763  0.4482  0.2028  0.0927
  268TMC3     C 4055   2.095   3.365   0.620  0.3118  0.4131  0.2595
  268TMC3     O 4056   2.100   3.354   0.499  0.1551 -0.2393 -0.1104
  268TMC3     H 4057   2.120   3.575   0.473 -0.0952 -0.8956  0.9435
  268TMC3    H1 4058   2.091   3.442   0.882 -0.7340 -0.2256  0.5322
  268TMC3    H2 4059   2.212   3.841   0.794  0.5071 -0.3154  1.6447
  268TMC3    C7 4060   2.157   3.661   0.993 -0.2404  0.2756 -0.2159
  268TMC3    C8 4061   2.195   3.824   0.538 -0.6701 -0.7037  0.4585
  268TMC3    O1 4062   2.166   3.560   1.062  0.2419 -0.4513  0.9069
  268TMC3    O2 4063   2.265   3.911   0.587  0.4820 -0.2935 -0.3001
  269MPD2     C 4064   2.976   2.547  15.667 -0.3454 -0.4558  0.0777
  269MPD2    C1 4065   2.845   2.529  15.629  0.1373 -0.2493 -0.3933
  269MPD2    C2 4066   2.787   2.606  15.532  0.2374 -0.3863 -0.3566
  269MPD2    C3 4067   2.862   2.712  15.484  0.0052 -0.0120 -0.2812
  269MPD2    C4 4068   2.997   2.731  15.515  0.2518  1.0368 -0.4861
  269MPD2    C5 4069   3.051   2.639  15.598  0.1846 -0.2316  0.1214
  269MPD2     H 4070   2.690   2.583  15.489 -0.2891  1.9210 -0.4394
  269MPD2    H1 4071   3.065   2.805  15.474  1.9688  0.9895  2.3424
  269MPD2    H2 4072   3.033   2.477  15.727  2.9424  1.4244 -0.8603
  269MPD2    H3 4073   3.154   2.663  15.625  0.2034 -0.7542  0.5266
  269MPD2     N 4074   2.788   2.796  15.397  0.0183 -0.2405  1.1264
  269MPD2    H5 4075   2.701   2.753  15.367 -0.0618 -0.6793  1.9855
  269MPD2    N1 4076   2.777   2.423  15.691 -0.2383 -0.2675  0.0020
  269MPD2    H7 4077   2.822   2.392  15.776  1.7478 -0.5297 -1.1364
  270TMC3    C1 4078   2.594   2.280  15.745  0.3342 -0.2785 -0.1484
  270TMC3    C2 4079   2.459   2.251  15.737 -0.5803 -0.3652  0.6002
  270TMC3    C3 4080   2.412   2.150  15.818 -0.3916 -0.5703  0.4295
  270TMC3    C4 4081   2.668   2.215  15.836 -0.4114  0.1287 -0.4543
  270TMC3    C5 4082   2.618   2.107  15.905 -0.1496 -0.8221 -0.2383
  270TMC3    C6 4083   2.488   2.074  15.894 -0.1852 -0.0054  1.1315
  270TMC3     C 4084   2.652   2.382  15.657  0.1846 -0.0734 -0.8424
  270TMC3     O 4085   2.578   2.412  15.562 -0.1192  0.0790  0.1373
  270TMC3     H 4086   2.397   2.312  15.672  0.2902 -0.7153 -0.5580
  270TMC3    H1 4087   2.767   2.252  15.858 -0.0036 -1.9973  1.3050
  270TMC3    H2 4088   2.443   1.986  15.938 -2.1139 -0.0961 -1.0267
  270TMC3    C7 4089   2.716   2.006  15.929  0.3197 -0.0315 -0.7139
  270TMC3    C8 4090   2.291   2.086  15.772  0.2650  0.2025  0.6461
  270TMC3    O1 4091   2.821   2.023  15.870  0.5207 -0.0597 -0.6895
  270TMC3    O2 4092   2.226   2.012  15.845 -0.5102  0.6064 -0.3201
  271MPD2     C 4093   1.314   2.129  13.907  0.1036  0.5170 -0.4193
  271MPD2    C1 4094   1.303   2.142  14.042  0.0323  0.7938  1.2470
  271MPD2    C2 4095   1.189   2.193  14.099  0.2924 -0.3393  0.8153
  271MPD2    C3 4096   1.086   2.239  14.013  0.0993  0.2302  0.2282
  271MPD2    C4 4097   1.095   2.215  13.878 -0.0294  0.4775  0.4076
  271MPD2    C5 4098   1.213   2.165  13.821  0.1719  0.3327 -0.1066
  271MPD2     H 4099   1.192   2.204  14.207  0.3533 -0.7970  0.8604
  271MPD2    H1 4100   1.023   2.253  13.806 -1.2839 -0.7332  1.0209
  271MPD2    H2 4101   1.402   2.093  13.856 -0.2487  1.3755 -1.6290
  271MPD2    H3 4102   1.242   2.157  13.717  0.7302 -2.8177  0.3015
  271MPD2     N 4103   0.969   2.289  14.062 -0.1697  0.1417  0.1587
  271MPD2    H5 4104   0.889   2.296  14.000 -1.2034 -0.6502  1.4033
  271MPD2    N1 4105   1.403   2.104  14.130  0.0018 -0.7840  0.2261
  271MPD2    H7 4106   1.379   2.092  14.228 -2.1057 -0.1823 -0.2108
  272TMC3    C1 4107   1.616   2.059  14.219 -0.1212  0.7087  0.6922
  272TMC3    C2 4108   1.744   2.024  14.192  0.0364 -0.1120 -0.1042
  272TMC3    C3 4109   1.815   1.957  14.289 -0.0991 -0.6401  0.1967
  272TMC3    C4 4110   1.561   2.065  14.347 -0.1748  0.0696 -0.1167
  272TMC3    C5 4111   1.647   2.002  14.438 -0.2626 -0.4234 -0.1711
  272TMC3    C6 4112   1.769   1.947  14.415 -0.0097 -0.1917  0.1765
  272TMC3     C 4113   1.536   2.113  14.106 -0.6982 -0.1334  0.5414
  272TMC3     O 4114   1.587   2.140  13.996 -0.0441  0.6136  0.6729
  272TMC3     H 4115   1.766   2.020  14.086  0.0896 -0.8834 -0.0655
  272TMC3    H1 4116   1.475   2.124  14.377  0.1827  0.0248  1.0039
  272TMC3    H2 4117   1.807   1.883  14.494  0.1471  0.7495  0.8662
  272TMC3    C7 4118   1.608   2.016  14.573 -1.0919  0.1758  0.0457
  272TMC3    C8 4119   1.911   1.860  14.235 -0.9343 -1.0906  0.3143
  272TMC3    O1 4120   1.488   2.022  14.595  0.7373 -0.5890 -0.6036
  272TMC3    O2 4121   1.885   1.816  14.125  0.0608  0.0379 -0.5071
  273MPD2     C 4122   3.429   4.216  12.012 -0.0129  0.2126  0.7127
  273MPD2    C1 4123   3.495   4.330  11.960  0.3310  0.3188 -0.1105
  273MPD2    C2 4124   3.423   4.413  11.875 -0.1119 -0.0124 -0.1639
  273MPD2    C3 4125   3.287   4.393  11.842  0.6430  0.1899 -0.3968
  273MPD2    C4 4126   3.229   4.276  11.886 -0.1086  0.2424  0.4406
  273MPD2    C5 4127   3.297   4.196  11.980 -1.6152 -0.0144 -0.2597
  273MPD2     H 4128   3.455   4.505  11.828  1.6683 -1.0341 -0.9676
  273MPD2    H1 4129   3.127   4.259  11.856  0.3955  2.6708 -2.6341
  273MPD2    H2 4130   3.482   4.150  12.080  0.6832  0.1601  0.1120
  273MPD2    H3 4131   3.247   4.107  12.016  0.1611 -0.9856 -0.1826
  273MPD2     N 4132   3.228   4.492  11.761 -0.6232 -0.4239  0.5044
  273MPD2    H5 4133   3.275   4.578  11.732  1.7479 -1.3711  1.5165
  273MPD2    N1 4134   3.631   4.355  11.987 -0.0317 -0.4793 -0.0870
  273MPD2    H7 4135   3.680   4.272  12.019  0.5845  0.4159  1.2738
  274TMC3    C1 4136   3.063   4.614  11.648  0.2341 -0.3756  0.3631
  274TMC3    C2 4137   2.987   4.607  11.536  0.2605  0.1342  0.1722
  274TMC3    C3 4138   2.995   4.706  11.436 -0.1876  0.8599  0.2101
  274TMC3    C4 4139   3.133   0.003  11.670  0.1459 -0.2300  0.4557
  274TMC3    C5 4140   3.142   0.100  11.579 -1.0373  0.4841 -0.2293
  274TMC3    C6 4141   3.077   0.090  11.463  0.1475 -0.6584 -0.7726
  274TMC3     C 4142   3.099   4.489  11.712 -1.1133 -0.7625  0.6155
  274TMC3     O 4143   3.032   4.390  11.685 -0.0854  0.0920  0.1961
  274TMC3     H 4144   2.937   4.513  11.516  0.2032  0.3590 -0.7819
  274TMC3    H1 4145   3.194   0.024  11.758  0.1447  0.5242  0.2738
  274TMC3    H2 4146   3.078   0.174  11.394  0.5609 -1.6555 -1.9719
  274TMC3    C7 4147   3.203   0.233  11.606 -0.4769 -0.5587  0.2379
  274TMC3    C8 4148   2.914   4.705  11.314  0.6510 -0.0423 -0.6217
  274TMC3    O1 4149   3.139   0.334  11.596 -0.7178  0.5499  0.2286
  274TMC3    O2 4150   2.921   0.091  11.255 -0.4719 -0.6422  0.1373
  275MPD2     C 4151   3.288   2.756  14.349  0.2629  0.8007  1.0919
  275MPD2    C1 4152   3.225   2.872  14.390 -0.1535 -0.6186 -0.8086
  275MPD2    C2 4153   3.092   2.864  14.433 -0.8004  0.1451 -0.7610
  275MPD2    C3 4154   3.029   2.745  14.434 -0.0789 -0.3923  0.1047
  275MPD2    C4 4155   3.089   2.634  14.397 -0.2075 -0.5113 -0.0515
  275MPD2    C5 4156   3.221   2.639  14.360  0.6322  0.1306  0.5796
  275MPD2     H 4157   3.049   2.962  14.451 -0.5742  0.4126 -1.6687
  275MPD2    H1 4158   3.037   2.541  14.380  0.1463 -0.6126 -0.5681
  275MPD2    H2 4159   3.388   2.757  14.308 -0.0843 -1.7549  0.2143
  275MPD2    H3 4160   3.269   2.551  14.320  0.8893 -0.2191  1.6605
  275MPD2     N 4161   2.896   2.730  14.455  0.2481 -0.0297 -0.2102
  275MPD2    H5 4162   2.856   2.640  14.433  0.9320 -0.8261  1.7883
  275MPD2    N1 4163   3.290   3.000  14.370  0.5914 -0.0216 -0.3287
  275MPD2    H7 4164   3.228   3.078  14.387  0.9571  0.4224 -1.0101
  276TMC3    C1 4165   3.451   3.160  14.381 -0.6772 -0.1308  0.4301
  276TMC3    C2 4166   3.344   3.244  14.383 -0.5410  0.2591  0.2046
  276TMC3    C3 4167   3.326   3.331  14.491 -0.4552 -0.1965  0.3929
  276TMC3    C4 4168   3.551   3.172  14.471  0.7889 -0.2395 -0.2034
  276TMC3    C5 4169   3.539   3.270  14.566  0.0598 -0.6762 -0.4462
  276TMC3    C6 4170   3.431   3.348  14.580 -0.5425 -0.6160  0.0106
  276TMC3     C 4171   3.422   3.024  14.340  0.1439 -0.2220 -0.3284
  276TMC3     O 4172   3.519   2.961  14.297 -0.5037  0.7477  0.1131
  276TMC3     H 4173   3.251   3.219  14.334 -1.0819 -0.8257  1.7857
  276TMC3    H1 4174   3.631   3.099  14.471  1.3617  0.3836  0.6133
  276TMC3    H2 4175   3.416   3.399  14.675  0.5185 -1.1554  0.4651
  276TMC3    C7 4176   3.620   3.258  14.685  0.2188  0.4417  0.2571
  276TMC3    C8 4177   3.203   3.300  14.555  0.1820 -0.1866  0.3532
  276TMC3    O1 4178   3.568   3.295  14.787 -0.4055 -0.5952 -0.2174
  276TMC3    O2 4179   3.098   3.309  14.495 -0.5182 -0.6155 -0.0121
  277MPD2     C 4180   0.387   1.400  13.143 -0.3852 -0.5876  0.5846
  277MPD2    C1 4181   0.286   1.479  13.187 -0.2888 -0.8550  0.7632
  277MPD2    C2 4182   0.194   1.428  13.277 -0.0400 -0.4174  0.1817
  277MPD2    C3 4183   0.211   1.299  13.325  0.5730 -0.9493  0.4401
  277MPD2    C4 4184   0.324   1.223  13.294  0.6834 -0.1071  0.0988
  277MPD2    C5 4185   0.412   1.275  13.203 -0.0011  0.1349 -0.1575
  277MPD2     H 4186   0.106   1.486  13.304 -1.0856 -1.1721 -1.6044
  277MPD2    H1 4187   0.349   1.128  13.340  2.0297 -0.1643 -0.7480
  277MPD2    H2 4188   0.444   1.428  13.055 -0.5314 -1.8101  0.0928
  277MPD2    H3 4189   0.496   1.212  13.175  0.8593  0.7066  1.1309
  277MPD2     N 4190   0.111   1.260  13.418  0.3776 -0.5597  0.0358
  277MPD2    H5 4191   0.036   1.327  13.435  0.1925 -0.7377 -0.0789
  277MPD2    N1 4192   0.254   1.600  13.109 -0.0083 -0.4293 -0.1800
  277MPD2    H7 4193   0.301   1.624  13.022 -0.6459 -1.2117 -0.7405
  278TMC3    C1 4194   4.688   1.130  13.543  0.0735 -0.9973  0.9090
  278TMC3    C2 4195   4.641   1.005  13.552  0.4754  0.2095  0.3713
  278TMC3    C3 4196   4.504   0.995  13.560 -0.2032  0.4504 -0.4491
  278TMC3    C4 4197   4.615   1.244  13.557 -0.1537  0.5533  0.0216
  278TMC3    C5 4198   4.484   1.227  13.567 -0.3768  0.5694 -0.4643
  278TMC3    C6 4199   4.420   1.103  13.561  0.1229  0.3106  0.5282
  278TMC3     C 4200   0.103   1.143  13.485 -0.3693 -0.6695 -0.4642
  278TMC3     O 4201   0.156   1.034  13.461  0.0939  0.2359 -0.0379
  278TMC3     H 4202   4.710   0.922  13.542  1.3278  0.7582  1.6600
  278TMC3    H1 4203   4.657   1.343  13.569 -1.3216  1.1572 -0.9012
  278TMC3    H2 4204   4.312   1.095  13.573  0.1940 -0.4826  0.6681
  278TMC3    C7 4205   4.399   1.341  13.555  0.2209  0.1645  0.8507
  278TMC3    C8 4206   4.459   0.859  13.546  0.0305 -0.5724 -0.3317
  278TMC3    O1 4207   4.441   1.435  13.489 -0.3239  0.3452  0.3326
  278TMC3    O2 4208   4.550   0.777  13.558  0.1602 -0.1289  0.1608
  279MPD2     C 4209   3.797   2.149   0.274 -0.2184 -0.0003  0.1830
  279MPD2    C1 4210   3.839   2.281   0.280 -0.2693 -0.1823  0.2752
  279MPD2    C2 4211   3.920   2.332   0.181 -0.2292  0.3174 -0.3376
  279MPD2    C3 4212   3.955   2.252   0.075 -0.2461  0.9045 -0.5564
  279MPD2    C4 4213   3.911   2.122   0.070  0.7529 -0.3158 -0.1332
  279MPD2    C5 4214   3.827   2.069   0.162 -0.3140 -0.0180 -0.8324
  279MPD2     H 4215   3.945   2.438   0.177  0.2034  0.2403  0.4973
  279MPD2    H1 4216   3.935   2.062  17.676  1.9895 -0.0863  0.0528
  279MPD2    H2 4217   3.721   2.116   0.343  1.3831 -0.5819  1.6457
  279MPD2    H3 4218   3.781   1.971   0.158  0.3889 -0.3103 -1.5110
  279MPD2     N 4219   4.013   2.312  17.653  0.1413  0.2128  0.1222
  279MPD2    H5 4220   4.012   2.264  17.564 -2.4924  0.4342  0.0314
  279MPD2    N1 4221   3.786   2.351   0.383 -0.1238 -0.7441 -0.0663
  279MPD2    H7 4222   3.701   2.314   0.423 -0.4770 -1.0771 -1.1219
  280TMC3    C1 4223   3.724   2.557   0.482  0.3851  0.1818 -0.5152
  280TMC3    C2 4224   3.615   2.507   0.541  0.5779 -0.2608 -0.3523
  280TMC3    C3 4225   3.511   2.600   0.557  0.0202 -0.1187 -0.1822
  280TMC3    C4 4226   3.741   2.688   0.448 -0.7310 -0.0391 -0.0280
  280TMC3    C5 4227   3.625   2.765   0.457  0.1176 -0.7106  0.0126
  280TMC3    C6 4228   3.517   2.735   0.528 -0.3866  0.0337 -0.3844
  280TMC3     C 4229   3.827   2.481   0.419  0.5513 -0.0709  0.7711
  280TMC3     O 4230   3.938   2.532   0.399  0.9927  0.3235  0.0294
  280TMC3     H 4231   3.616   2.410   0.589 -0.7953  0.4013  1.0029
  280TMC3    H1 4232   3.817   2.710   0.373 -0.4336  0.1415  0.3241
  280TMC3    H2 4233   3.426   2.794   0.535  0.1488  0.5168  2.6772
  280TMC3    C7 4234   3.635   2.893   0.390  0.2281 -1.1796  0.2704
  280TMC3    C8 4235   3.407   2.567   0.648  0.0014  0.0615 -0.0373
  280TMC3    O1 4236   3.749   2.942   0.394 -0.5309 -0.6810  0.6647
  280TMC3    O2 4237   3.341   2.658   0.692  0.1067 -0.1200 -0.0583
  281TMC3    C1 4238   3.155   2.524  13.138 -0.1047 -0.0993 -0.1330
  281TMC3    C2 4239   3.211   2.598  13.035 -1.2284  0.1858 -1.0921
  281TMC3    C3 4240   3.265   2.528  12.929  0.0857  0.2095  0.3386
  281TMC3    C4 4241   3.142   2.389  13.134 -0.3084 -0.1194 -0.5909
  281TMC3    C5 4242   3.202   2.328  13.027 -0.4309 -0.1167  0.3323
  281TMC3    C6 4243   3.263   2.390  12.927 -0.1107  0.3248 -0.6302
  281TMC3     C 4244   3.078   2.597  13.239 -0.1127 -0.2466 -0.0110
  281TMC3     O 4245   3.084   2.559  13.353 -0.2855  0.0022  0.1068
  281TMC3     H 4246   3.240   2.700  13.058  0.5186 -0.5012 -0.2213
  281TMC3    H1 4247   3.099   2.339  13.221  0.2708  1.4726  0.5986
  281TMC3    H2 4248   3.298   2.337  12.839 -1.4128 -0.0769 -0.9093
  281TMC3    C7 4249   3.186   2.189  13.012  0.4160 -0.1164 -0.5254
  281TMC3    C8 4250   3.351   2.586  12.831  0.3666 -0.2008  0.2279
  281TMC3    O1 4251   3.283   2.130  12.967 -0.1717  0.4422  0.7263
  281TMC3    O2 4252   3.437   2.514  12.780  0.5190 -0.7845  0.3955
  282MPD2     C 4253   4.530   3.536  15.016  0.4856 -0.3825  0.1564
  282MPD2    C1 4254   4.404   3.593  15.037  0.3125  1.4057 -0.0922
  282MPD2    C2 4255   4.333   3.623  14.927  0.5619  0.4922  0.3455
  282MPD2    C3 4256   4.365   3.579  14.801 -0.5996  0.4290 -0.2516
  282MPD2    C4 4257   4.487   3.518  14.782 -0.1676 -0.5745  0.1300
  282MPD2    C5 4258   4.568   3.497  14.894  0.5458  0.1035  0.1140
  282MPD2     H 4259   4.243   3.682  14.943  0.4171 -0.8968  4.7331
  282MPD2    H1 4260   4.517   3.472  14.689  1.9165 -0.9346  0.9770
  282MPD2    H2 4261   4.598   3.525  15.100  0.7817  0.1214 -0.0176
  282MPD2    H3 4262   4.658   3.438  14.880  0.4011 -0.0149 -0.3511
  282MPD2     N 4263   4.275   3.597  14.697  0.1170  0.3317  0.3872
  282MPD2    H5 4264   4.203   3.668  14.708  1.6437  2.0684 -0.9608
  282MPD2    N1 4265   4.355   3.624  15.163  0.0054 -0.1968  0.4590
  282MPD2    H7 4266   4.266   3.673  15.161  0.1497 -0.0274 -2.5881
  283TMC3    C1 4267   4.325   3.618  15.391  0.4931 -0.3969 -0.5644
  283TMC3    C2 4268   4.328   3.759  15.396  0.4221 -0.7555 -0.4977
  283TMC3    C3 4269   4.286   3.810  15.523  0.0088 -0.4569 -0.0218
  283TMC3    C4 4270   4.290   3.536  15.491 -0.1934  0.6416 -0.1480
  283TMC3    C5 4271   4.233   3.589  15.601  0.4434 -1.2303 -0.6347
  283TMC3    C6 4272   4.234   3.728  15.623 -0.0020  0.4245  0.2323
  283TMC3     C 4273   4.387   3.554  15.273 -0.3415 -0.4183 -0.2655
  283TMC3     O 4274   4.460   3.459  15.295 -0.4421 -0.6191  0.0612
  283TMC3     H 4275   4.361   3.828  15.320  2.4639 -0.0408  1.0439
  283TMC3    H1 4276   4.285   3.432  15.462 -0.8119  0.0997  1.9109
  283TMC3    H2 4277   4.196   3.772  15.715 -1.9685  1.3043 -1.0168
  283TMC3    C7 4278   4.140   3.512  15.678 -0.1230  0.1697 -0.8383
  283TMC3    C8 4279   4.315   3.944  15.565  0.6302 -0.0013  1.0379
  283TMC3    O1 4280   4.103   3.551  15.789  0.2621  0.3679  0.1639
  283TMC3    O2 4281   4.248   3.989  15.659  0.1925 -0.1724 -0.6596
  284MPD2     C 4282   2.694   2.563  11.385 -0.3705  0.2825 -0.0070
  284MPD2    C1 4283   2.834   2.537  11.376 -0.1912 -0.1551  0.3462
  284MPD2    C2 4284   2.894   2.425  11.430 -0.0778 -0.3780  0.7800
  284MPD2    C3 4285   2.823   2.349  11.520 -0.0354 -0.1364  0.0689
  284MPD2    C4 4286   2.682   2.367  11.531 -0.1971  0.5204 -0.5898
  284MPD2    C5 4287   2.620   2.473  11.458  0.3067 -0.9462 -0.0087
  284MPD2     H 4288   2.997   2.400  11.409 -0.2734 -1.0750  0.6563
  284MPD2    H1 4289   2.611   2.316  11.595  5.5990 -3.5060  2.6383
  284MPD2    H2 4290   2.641   2.649  11.345  0.4107  1.7844  2.1935
  284MPD2    H3 4291   2.515   2.494  11.477  0.4217  1.0943 -1.6218
  284MPD2     N 4292   2.903   2.254  11.582  0.2001 -0.5609  0.4735
  284MPD2    H5 4293   3.002   2.252  11.565 -0.3002 -1.4305 -2.2265
  284MPD2    N1 4294   2.934   2.632  11.328 -0.4920 -0.3582  0.2565
  284MPD2    H7 4295   3.029   2.598  11.321 -0.2500 -0.0121  1.9962
  285TMC3    C1 4296   3.068   2.818  11.288 -0.0192 -0.1871 -0.5173
  285TMC3    C2 4297   3.149   2.733  11.217  0.3611  0.1395  0.1717
  285TMC3    C3 4298   3.286   2.737  11.251  0.1578  0.5053 -0.0918
  285TMC3    C4 4299   3.108   2.907  11.382  0.1500 -0.0593  0.3697
  285TMC3    C5 4300   3.244   2.911  11.407 -0.1540 -0.1119 -0.2021
  285TMC3    C6 4301   3.334   2.823  11.340  0.7963  0.4475 -0.5286
  285TMC3     C 4302   2.929   2.770  11.313  0.7593  0.1147  0.4807
  285TMC3     O 4303   2.841   2.848  11.349  0.3827  0.1258 -0.3749
  285TMC3     H 4304   3.103   2.668  11.143 -2.2942  0.3750  1.6137
  285TMC3    H1 4305   3.047   2.984  11.427 -1.7780 -0.9429 -0.7153
  285TMC3    H2 4306   3.440   2.830  11.362  0.8190  0.1161 -0.5320
  285TMC3    C7 4307   3.291   3.042  11.441  0.3797 -0.1089 -0.0073
  285TMC3    C8 4308   3.363   2.620  11.213 -0.2261 -0.0062 -0.3366
  285TMC3    O1 4309   3.239   3.137  11.385 -0.0774 -0.5953  0.5737
  285TMC3    O2 4310   3.282   2.536  11.177  0.5116 -0.2169 -0.2507
  286MPD2     C 4311   2.841   2.057   1.118  1.2027 -0.1098  0.4848
  286MPD2    C1 4312   2.867   2.152   1.219  0.2311 -0.2263 -0.2368
  286MPD2    C2 4313   2.990   2.140   1.278  0.8582  0.1118 -0.5715
  286MPD2    C3 4314   3.087   2.046   1.245 -0.3626  0.0122 -0.5235
  286MPD2    C4 4315   3.058   1.950   1.146 -0.1435  0.2374  0.1672
  286MPD2    C5 4316   2.933   1.959   1.088 -0.0556  0.1928  0.2889
  286MPD2     H 4317   3.016   2.217   1.350 -1.0114 -1.1661  1.4459
  286MPD2    H1 4318   3.138   1.884   1.117 -0.5073 -1.1832  2.3764
  286MPD2    H2 4319   2.746   2.048   1.066  1.3919  2.1465 -0.2891
  286MPD2    H3 4320   2.915   1.893   1.004 -0.6930 -0.0663  0.6315
  286MPD2     N 4321   3.218   2.046   1.304  0.0473 -1.0439  0.1048
  286MPD2    H5 4322   3.292   1.990   1.263  1.1472  1.1765 -1.0046
  286MPD2    N1 4323   2.786   2.258   1.247 -0.4743 -0.3768 -0.3207
  286MPD2    H7 4324   2.823   2.326   1.313  1.1752 -0.8974 -0.7101
  287TMC3    C1 4325   3.397   2.118   1.453 -1.1547  0.6466  0.9592
  287TMC3    C2 4326   3.476   2.098   1.341 -0.1303  0.0837 -0.1235
  287TMC3    C3 4327   3.597   2.038   1.367 -0.4038  0.1211 -0.1262
  287TMC3    C4 4328   3.428   2.084   1.582  0.0957  0.0290 -0.2098
  287TMC3    C5 4329   3.542   2.019   1.601  1.2916  0.0439  0.2625
  287TMC3    C6 4330   3.628   1.994   1.497  0.1663 -0.5329  0.6099
  287TMC3     C 4331   3.253   2.116   1.421 -0.0425  0.2155  0.4888
  287TMC3     O 4332   3.174   2.168   1.501 -0.0538 -0.0349 -0.2615
  287TMC3     H 4333   3.432   2.129   1.247 -0.2202  1.4598  0.3699
  287TMC3    H1 4334   3.353   2.092   1.659  0.7696  1.0406  0.3366
  287TMC3    H2 4335   3.717   1.933   1.505  0.3360 -0.4509 -0.5030
  287TMC3    C7 4336   3.594   1.982   1.735  0.9980 -0.1078 -0.4835
  287TMC3    C8 4337   3.665   1.978   1.252 -0.3557 -0.0241  0.6401
  287TMC3    O1 4338   3.702   1.932   1.725 -0.2587 -0.2892 -0.2270
  287TMC3    O2 4339   3.707   1.862   1.255  0.3575  0.0589  0.1654
  288TMC3    C1 4340   4.607   1.868  14.130 -0.7145  0.0737  0.4377
  288TMC3    C2 4341   4.653   1.831  14.257  0.4884 -0.4340  0.4467
  288TMC3    C3 4342   4.633   1.918  14.363  0.3891 -1.0477 -0.4081
  288TMC3    C4 4343   4.523   1.973  14.112 -0.7068 -0.2192 -0.3253
  288TMC3    C5 4344   4.498   2.049  14.225 -0.1587 -0.8171 -0.0631
  288TMC3    C6 4345   4.552   2.028  14.352  0.2166  0.9945  0.0449
  288TMC3     C 4346   4.645   1.785  14.010  0.2308  0.2555 -0.0163
  288TMC3     O 4347   4.630   1.839  13.903  0.1608  0.3580 -0.2046
  288TMC3     H 4348   0.000   1.750  14.269 -0.2186 -0.9874  0.8222
  288TMC3    H1 4349   4.480   1.995  14.015 -0.1753  1.3580 -0.2091
  288TMC3    H2 4350   4.513   2.078  14.440  1.6693  1.2427  0.5332
  288TMC3    C7 4351   4.390   2.143  14.228 -0.4627 -0.6393  0.1273
  288TMC3    C8 4352   4.672   1.886  14.500  0.5960 -0.3075  0.2799
  288TMC3    O1 4353   4.408   2.240  14.300  0.4431 -0.0503 -0.2792
  288TMC3    O2 4354   4.663   1.982  14.576  0.7589  0.0642  0.0325
  289MPD2     C 4355   0.549   0.737  14.329  0.1576  0.1895  0.1711
  289MPD2    C1 4356   0.510   0.867  14.318 -0.2947  0.6050  0.2661
  289MPD2    C2 4357   0.394   0.892  14.249  0.6336  0.0127 -0.6523
  289MPD2    C3 4358   0.312   0.799  14.198  0.0588 -0.5605  0.6803
  289MPD2    C4 4359   0.364   0.668  14.203 -0.0267  0.6498 -0.6299
  289MPD2    C5 4360   0.477   0.637  14.274 -0.4790 -0.0163 -0.3464
  289MPD2     H 4361   0.357   0.993  14.238 -2.3040 -1.1726 -1.5987
  289MPD2    H1 4362   0.302   0.589  14.164 -1.1101  0.7578  0.8764
  289MPD2    H2 4363   0.641   0.711  14.380 -0.6772 -1.6173  0.7447
  289MPD2    H3 4364   0.512   0.535  14.269  0.0405  0.2950 -3.3386
  289MPD2     N 4365   0.183   0.820  14.156  0.2754  0.6611 -0.1953
  289MPD2    H5 4366   0.152   0.734  14.111 -0.3147  1.0709 -0.5574
  289MPD2    N1 4367   0.605   0.965  14.353 -0.0491  0.6541  0.3587
  289MPD2    H7 4368   0.681   0.932  14.412 -0.4817 -0.4806  0.2731
  290TMC3    C1 4369   4.701   0.923  14.097 -0.3121 -0.3295 -0.4711
  290TMC3    C2 4370   4.636   1.045  14.084 -0.5199 -0.0999  0.2022
  290TMC3    C3 4371   4.513   1.043  14.022 -0.5058 -0.1767  0.1589
  290TMC3    C4 4372   4.665   0.807  14.042 -0.0180 -0.5026  0.1028
  290TMC3    C5 4373   4.545   0.817  13.978  0.7139 -0.8299 -0.1558
  290TMC3    C6 4374   4.470   0.927  13.969  0.2234 -0.2016 -0.2858
  290TMC3     C 4375   0.111   0.939  14.161 -0.6931  0.6409 -0.9903
  290TMC3     O 4376   0.135   1.046  14.217  0.4325  0.0285  0.1833
  290TMC3     H 4377   4.677   1.137  14.124 -1.6034  1.4123 -2.1733
  290TMC3    H1 4378   0.002   0.716  14.042 -0.3874 -0.7453  1.1060
  290TMC3    H2 4379   4.376   0.923  13.915  0.1504 -3.5196  0.1022
  290TMC3    C7 4380   4.488   0.695  13.924 -0.1132 -0.0691 -0.7828
  290TMC3    C8 4381   4.438   1.169  13.993  0.3296 -0.6604 -0.4180
  290TMC3    O1 4382   4.410   0.711  13.829  0.3878 -0.3049  0.2685
  290TMC3    O2 4383   4.347   1.163  13.911  0.1208  0.6040 -0.5913
  291MPD2     C 4384   3.767   0.542   0.345 -0.3313 -0.4993 -0.4035
  291MPD2    C1 4385   3.773   0.469   0.229  0.7807 -0.1958 -1.1202
  291MPD2    C2 4386   3.886   0.392   0.200  0.7188 -0.3982 -0.2976
  291MPD2    C3 4387   3.988   0.388   0.295 -0.1011  0.8763  0.0636
  291MPD2    C4 4388   3.986   0.466   0.414 -0.4290 -1.0119  0.1814
  291MPD2    C5 4389   3.872   0.537   0.430 -0.4782  0.1501 -0.1550
  291MPD2     H 4390   3.869   0.336   0.108 -1.3883  1.2191 -0.8987
  291MPD2    H1 4391   4.065   0.471   0.488 -1.0781  0.8672  0.7566
  291MPD2    H2 4392   3.675   0.581   0.388 -0.5640 -0.2117 -1.1565
  291MPD2    H3 4393   3.872   0.593   0.523 -0.0578 -1.2908  0.7049
  291MPD2     N 4394   4.095   0.301   0.287 -1.4472  0.4470  0.1414
  291MPD2    H5 4395   4.169   0.303   0.357 -0.4689  4.0596 -1.0220
  291MPD2    N1 4396   3.672   0.473   0.130  0.5412 -0.0597 -0.3073
  291MPD2    H7 4397   3.687   0.406   0.055  0.6498  1.2777 -1.4720
  292TMC3    C1 4398   3.464   0.506   0.023  0.5227 -0.6585  0.4068
  292TMC3    C2 4399   3.334   0.545   0.029  0.4266 -0.7113 -0.9664
  292TMC3    C3 4400   3.253   0.541  17.612  0.3316  0.4828 -0.2067
  292TMC3    C4 4401   3.506   0.435  17.603  0.1675 -0.3347  0.8362
  292TMC3    C5 4402   3.420   0.430  17.493  0.6135  0.3223  0.5092
  292TMC3    C6 4403   3.296   0.487  17.490  0.0951  0.5643  0.4331
  292TMC3     C 4404   3.543   0.526   0.150  0.1327  0.0378  0.7647
  292TMC3     O 4405   3.490   0.585   0.249  0.3919  0.9829 -0.5845
  292TMC3     H 4406   3.296   0.580   0.124 -0.8730 -0.7645 -1.4674
  292TMC3    H1 4407   3.596   0.376  17.601 -1.1803 -2.2863 -2.4557
  292TMC3    H2 4408   3.216   0.465  17.421  1.5025 -0.7301 -0.7935
  292TMC3    C7 4409   3.455   0.329  17.394 -0.6914  0.0407 -0.1521
  292TMC3    C8 4410   3.110   0.556  17.621 -0.1848  0.1119 -0.4078
  292TMC3    O1 4411   3.549   0.251  17.410  0.1320 -0.4042 -0.3406
  292TMC3    O2 4412   3.060   0.598  17.518 -0.5481 -0.5256  0.2085
  293MPD2     C 4413   1.013   1.970  12.548  0.1090  0.1667  0.1784
  293MPD2    C1 4414   0.956   1.888  12.642 -0.1577 -0.3648 -0.6209
  293MPD2    C2 4415   0.992   1.902  12.781  0.4899  0.6596 -0.3416
  293MPD2    C3 4416   1.082   2.001  12.811 -0.0359  0.3851 -0.2826
  293MPD2    C4 4417   1.140   2.080  12.712  0.0767 -0.4656  0.0137
  293MPD2    C5 4418   1.116   2.061  12.579  0.3401 -0.2470  0.0543
  293MPD2     H 4419   0.962   1.825  12.852  2.2823  1.8411  1.7106
  293MPD2    H1 4420   1.218   2.150  12.738 -1.2698  0.9791  0.1776
  293MPD2    H2 4421   0.990   1.962  12.442 -3.6146  1.3219  0.9367
  293MPD2    H3 4422   1.169   2.116  12.502  0.4176 -0.9314 -0.3813
  293MPD2     N 4423   1.114   2.023  12.943 -0.0389 -0.4408 -0.2840
  293MPD2    H5 4424   1.065   1.966  13.011  1.9137  1.1456  2.4345
  293MPD2    N1 4425   0.873   1.778  12.599  0.0878 -0.3893 -0.7940
  293MPD2    H7 4426   0.876   1.767  12.498 -0.2607  2.3104 -1.1196
  294TMC3    C1 4427   0.748   1.582  12.606 -0.1560 -0.4683 -0.4591
  294TMC3    C2 4428   0.670   1.493  12.681 -0.1102  0.5049 -0.1209
  294TMC3    C3 4429   0.659   1.364  12.637 -0.9893 -0.4616 -0.2979
  294TMC3    C4 4430   0.825   1.535  12.501 -0.2374  0.1619 -0.0023
  294TMC3    C5 4431   0.808   1.408  12.470 -0.1712 -0.1082 -0.5593
  294TMC3    C6 4432   0.724   1.319  12.526  0.1711 -0.1642  0.1122
  294TMC3     C 4433   0.799   1.693  12.678  0.2693  0.6809 -0.0386
  294TMC3     O 4434   0.760   1.716  12.794  0.1126  0.1497  0.6119
  294TMC3     H 4435   0.619   1.528  12.770  0.5730 -1.2473  0.9657
  294TMC3    H1 4436   0.909   1.591  12.461 -2.1465  2.5758 -0.6234
  294TMC3    H2 4437   0.721   1.221  12.481  1.9194  0.3914 -1.2125
  294TMC3    C7 4438   0.895   1.363  12.376  0.2063 -0.1622 -0.3391
  294TMC3    C8 4439   0.588   1.274  12.732  0.8253 -1.2596 -0.2328
  294TMC3    O1 4440   0.935   1.244  12.378  0.3426 -0.9800  0.3801
  294TMC3    O2 4441   0.558   1.318  12.843 -0.2887 -0.3270  0.1198
  295MPD2     C 4442   1.066   0.034   0.604  0.3809  1.2393 -0.2487
  295MPD2    C1 4443   0.981   0.131   0.556  0.1037  0.0960 -0.5728
  295MPD2    C2 4444   0.919   0.212   0.645  0.2208  0.0829  0.0533
  295MPD2    C3 4445   0.950   0.216   0.780  0.1863 -0.1190  0.0735
  295MPD2    C4 4446   1.027   0.110   0.822 -0.3780  0.1456  0.0118
  295MPD2    C5 4447   1.081   0.017   0.737  0.2338 -0.8661 -0.1526
  295MPD2     H 4448   0.852   0.292   0.616 -0.9363 -0.7872  0.3300
  295MPD2    H1 4449   1.060   0.105   0.925  0.6477  0.4715 -0.2940
  295MPD2    H2 4450   1.113   4.681   0.542 -1.0855 -0.2127  0.4316
  295MPD2    H3 4451   1.140   4.666   0.791 -1.5058 -0.9803  1.5973
  295MPD2     N 4452   0.896   0.310   0.879  0.3047 -0.0546 -0.5044
  295MPD2    H5 4453   0.920   0.303   0.978 -1.3733  2.1519  0.0610
  295MPD2    N1 4454   0.953   0.157   0.424 -0.2580  0.3071 -0.3974
  295MPD2    H7 4455   0.902   0.243   0.407 -0.3614  0.2888 -0.1644
  296TMC3    C1 4456   0.825   0.525   0.940 -0.1329  0.0552  0.4954
  296TMC3    C2 4457   0.717   0.609   0.941  1.1621 -0.4148  0.5245
  296TMC3    C3 4458   0.736   0.745   0.950 -0.3397  1.2039 -0.6203
  296TMC3    C4 4459   0.951   0.565   0.961  1.1880  0.4604 -0.5442
  296TMC3    C5 4460   0.965   0.702   0.982 -0.1901 -0.6954  0.5698
  296TMC3    C6 4461   0.860   0.796   0.965  0.1442  0.2766 -0.1752
  296TMC3     C 4462   0.812   0.411   0.850  0.1217 -0.4704  0.0004
  296TMC3     O 4463   0.739   0.436   0.753 -0.4359 -0.2407  0.1862
  296TMC3     H 4464   0.623   0.573   0.901  0.3090  0.6376  1.5741
  296TMC3    H1 4465   1.035   0.497   0.962  0.7138 -0.1202 -0.3231
  296TMC3    H2 4466   0.873   0.904   0.969  1.2474  0.1879 -1.5573
  296TMC3    C7 4467   1.092   0.758   1.022 -0.3383 -0.1278  0.4604
  296TMC3    C8 4468   0.617   0.820   0.979 -0.5948 -0.4209 -0.0469
  296TMC3    O1 4469   1.114   0.876   1.005  0.3024 -0.0627 -0.4643
  296TMC3    O2 4470   0.507   0.766   0.994  0.5975  0.2014  0.0612
  297MPD2     C 4471   3.530   3.016  16.655 -0.6265 -0.0193 -0.0673
  297MPD2    C1 4472   3.521   2.951  16.535 -0.3507 -0.6375  0.6678
  297MPD2    C2 4473   3.588   2.996  16.423  0.4518  0.6252 -1.2307
  297MPD2    C3 4474   3.653   3.116  16.436 -0.1675  0.5943  0.3367
  297MPD2    C4 4475   3.645   3.192  16.549 -0.2542  0.2914  0.3117
  297MPD2    C5 4476   3.582   3.145  16.659 -0.4709  0.3156 -0.6077
  297MPD2     H 4477   3.576   2.943  16.329  0.8868 -1.9262  0.1554
  297MPD2    H1 4478   3.682   3.293  16.542 -1.1977  0.5725 -0.7566
  297MPD2    H2 4479   3.473   2.994  16.744  0.3291 -2.5147 -0.0932
  297MPD2    H3 4480   3.578   3.211  16.746 -1.2009 -0.9538  0.3180
  297MPD2     N 4481   3.736   3.163  16.330 -0.1039 -0.2985  0.0760
  297MPD2    H5 4482   3.766   3.260  16.330 -0.3666 -0.2168  0.5409
  297MPD2    N1 4483   3.440   2.839  16.513  0.5662 -0.4211 -0.3751
  297MPD2    H7 4484   3.432   2.814  16.414 -0.7596 -0.5740 -0.2397
  298TMC3    C1 4485   3.267   2.689  16.538  0.1527  0.0415  0.2650
  298TMC3    C2 4486   3.299   2.637  16.417 -0.4185 -0.8986  0.6791
  298TMC3    C3 4487   3.197   2.601  16.335  0.0541 -0.1169  0.3484
  298TMC3    C4 4488   3.137   2.703  16.572 -0.5790 -0.0146  0.2655
  298TMC3    C5 4489   3.035   2.674  16.485 -0.0089 -1.0865 -0.0578
  298TMC3    C6 4490   3.066   2.623  16.363  0.0291  0.7072 -0.9113
  298TMC3     C 4491   3.355   2.781  16.598  0.0223  0.4476  0.5341
  298TMC3     O 4492   3.336   2.802  16.718  0.1220  0.0884 -0.5235
  298TMC3     H 4493   3.397   2.649  16.372 -0.3452  0.4767  1.1955
  298TMC3    H1 4494   3.107   2.742  16.668  1.5193 -2.4507  1.9037
  298TMC3    H2 4495   2.984   2.590  16.300 -0.5074 -0.3887  0.3712
  298TMC3    C7 4496   2.916   2.762  16.500 -0.2470  0.5037 -0.8234
  298TMC3    C8 4497   3.219   2.523  16.217 -0.0340 -0.6304  0.1108
  298TMC3    O1 4498   2.911   2.847  16.591  0.2337  0.1880  0.0278
  298TMC3    O2 4499   3.119   2.514  16.145  0.1358  0.1889  0.4403
  299MPD2     C 4500   4.375   1.556  10.697 -0.4788  0.5031 -0.8852
  299MPD2    C1 4501   4.427   1.665  10.634 -0.1904  0.3385 -0.0294
  299MPD2    C2 4502   4.376   1.688  10.506 -0.4352 -0.7998 -0.9042
  299MPD2    C3 4503   4.282   1.600  10.449  0.8827 -0.3828 -0.5294
  299MPD2    C4 4504   4.240   1.489  10.519  0.4524 -0.1961  0.4282
  299MPD2    C5 4505   4.281   1.471  10.646  0.0566  0.4462  0.3957
  299MPD2     H 4506   4.406   1.772  10.444 -0.9351 -0.8672 -1.2359
  299MPD2    H1 4507   4.170   1.417  10.480  1.5062 -0.1808 -1.4764
  299MPD2    H2 4508   4.421   1.531  10.791 -0.6260  2.8799 -0.1877
  299MPD2    H3 4509   4.255   1.376  10.691 -0.4063 -0.6672 -2.2081
  299MPD2     N 4510   4.212   1.625  10.324  0.0219 -0.0093  0.4119
  299MPD2    H5 4511   4.133   1.563  10.313 -1.9128  2.2841  1.3690
  299MPD2    N1 4512   4.519   1.750  10.700  0.9473 -0.2245 -0.6702
  299MPD2    H7 4513   4.526   1.730  10.799 -0.3700  0.4906 -0.4347
  300TMC3    C1 4514   4.138   1.735  10.126 -0.0187 -0.5396 -0.5222
  300TMC3    C2 4515   4.175   1.817  10.020 -0.1692  0.6166 -0.5760
  300TMC3    C3 4516   4.077   1.868   9.947  0.0589 -0.6178  0.2719
  300TMC3    C4 4517   4.008   1.716  10.170  0.0280 -0.1966 -0.1223
  300TMC3    C5 4518   3.916   1.764  10.084 -0.4987 -0.2140 -0.7694
  300TMC3    C6 4519   3.943   1.842   9.971  0.0793 -0.8021  0.0216
  300TMC3     C 4520   4.240   1.723  10.236 -0.9101 -0.1460 -0.2700
  300TMC3     O 4521   4.336   1.800  10.230  0.8859  0.3038  0.0831
  300TMC3     H 4522   4.275   1.857  10.012 -0.7011  2.4778  2.2476
  300TMC3    H1 4523   3.983   1.658  10.258 -1.8156 -1.7320 -1.6322
  300TMC3    H2 4524   3.859   1.869   9.907  2.8157  0.8946 -2.8787
  300TMC3    C7 4525   3.772   1.739  10.113 -0.7412 -0.5748 -0.0213
  300TMC3    C8 4526   4.102   2.006   9.893 -0.2805 -0.6566  0.1715
  300TMC3    O1 4527   3.692   1.754  10.024  0.3926 -0.0322  0.0559
  300TMC3    O2 4528   4.209   2.060   9.919  0.5004 -0.5361 -0.4575
  301MPD2     C 4529   1.697   3.845   1.271  0.2516 -0.5736  0.4740
  301MPD2    C1 4530   1.614   3.766   1.196  0.3131 -0.0398 -1.0678
  301MPD2    C2 4531   1.658   3.641   1.153  0.5797  0.2064 -0.1497
  301MPD2    C3 4532   1.786   3.609   1.174 -0.0514 -0.3322 -0.3917
  301MPD2    C4 4533   1.866   3.684   1.255  0.4415 -0.6222 -0.1875
  301MPD2    C5 4534   1.821   3.803   1.306  0.1003 -0.4713  0.2144
  301MPD2     H 4535   1.593   3.574   1.098 -1.6636  3.3206 -1.2624
  301MPD2    H1 4536   1.962   3.649   1.291  0.3309 -1.2929 -0.5369
  301MPD2    H2 4537   1.666   3.946   1.294  1.2372 -0.3123  0.6737
  301MPD2    H3 4538   1.888   3.862   1.367 -0.0031 -0.2123  0.0786
  301MPD2     N 4539   1.840   3.485   1.134  0.1197 -0.1527  0.3025
  301MPD2    H5 4540   1.930   3.452   1.166  0.9469  2.1342  0.3447
  301MPD2    N1 4541   1.492   3.805   1.149 -0.1119 -0.2317  0.1142
  301MPD2    H7 4542   1.458   3.775   1.058  1.0741  0.3659 -0.5223
  302TMC3    C1 4543   1.820   3.263   1.034  0.2819 -0.2450 -0.6960
  302TMC3    C2 4544   1.904   3.202   1.123  0.5262 -0.1480 -0.5713
  302TMC3    C3 4545   1.907   3.062   1.125 -0.0397  0.2334  0.2644
  302TMC3    C4 4546   1.741   3.188   0.955 -0.0280 -0.1628 -0.4326
  302TMC3    C5 4547   1.751   3.053   0.962  0.1194 -0.3239 -0.4530
  302TMC3    C6 4548   1.837   2.987   1.041  0.1959  0.1271  0.1713
  302TMC3     C 4549   1.781   3.402   1.044  0.0633 -0.0984 -0.4604
  302TMC3     O 4550   1.704   3.445   0.962  0.4266 -0.0689  0.5013
  302TMC3     H 4551   1.955   3.260   1.199 -1.0211 -0.8651  1.0365
  302TMC3    H1 4552   1.657   3.234   0.904 -0.8179 -0.0604  0.9440
  302TMC3    H2 4553   1.846   2.879   1.042  0.0087  0.1093 -0.0491
  302TMC3    C7 4554   1.681   2.969   0.864 -0.9252 -0.5929  0.6933
  302TMC3    C8 4555   1.984   2.997   1.233 -0.8366  0.8108  0.3244
  302TMC3    O1 4556   1.711   2.852   0.851  0.4542 -0.0273 -0.4988
  302TMC3    O2 4557   2.067   3.067   1.288 -0.8302 -0.2416 -0.8249
  303MPD2     C 4558   1.839   1.455  10.200  0.4699 -0.7547 -0.0069
  303MPD2    C1 4559   1.771   1.336  10.181 -0.5936  0.0644  0.2424
  303MPD2    C2 4560   1.691   1.317  10.070  0.1776 -0.3445  0.1088
  303MPD2    C3 4561   1.686   1.416   9.972 -0.0792 -0.1762 -0.2029
  303MPD2    C4 4562   1.755   1.536   9.993  0.4380 -0.2854 -0.0494
  303MPD2    C5 4563   1.826   1.552  10.107 -0.9736 -0.1450  0.2275
  303MPD2     H 4564   1.621   1.234  10.067 -0.5829  0.3200 -0.8461
  303MPD2    H1 4565   1.753   1.610   9.914 -0.5134 -1.3296 -1.0072
  303MPD2    H2 4566   1.916   1.453  10.276  1.8595 -1.3714 -1.4359
  303MPD2    H3 4567   1.892   1.638  10.114 -1.7581  0.6135 -1.6941
  303MPD2     N 4568   1.597   1.412   9.860  0.2716 -0.4362 -0.0519
  303MPD2    H5 4569   1.594   1.497   9.805 -1.4423 -1.2676 -1.2164
  303MPD2    N1 4570   1.794   1.233  10.282  0.5939 -0.4679 -0.0116
  303MPD2    H7 4571   1.844   1.253  10.369 -0.8872 -0.5962  0.8793
  304TMC3    C1 4572   1.785   1.039  10.407 -0.1504  0.3322  0.1373
  304TMC3    C2 4573   1.728   1.094  10.522  0.2741 -0.3776  0.1802
  304TMC3    C3 4574   1.704   1.013  10.635 -0.4803 -0.3008 -0.3820
  304TMC3    C4 4575   1.814   0.905  10.401 -0.1443  0.2483 -0.6751
  304TMC3    C5 4576   1.784   0.828  10.511 -0.1039 -0.5236  0.3001
  304TMC3    C6 4577   1.731   0.880  10.629 -0.5029 -0.1318 -0.0989
  304TMC3     C 4578   1.763   1.104  10.282  1.4564 -0.8129  0.0501
  304TMC3     O 4579   1.723   1.038  10.186  0.4473 -0.2221 -0.1955
  304TMC3     H 4580   1.700   1.199  10.519  0.0651 -0.5914 -4.7762
  304TMC3    H1 4581   1.867   0.861  10.317  2.6026  0.3288  0.9861
  304TMC3    H2 4582   1.690   0.812  10.703  1.5513 -1.4548 -0.1718
  304TMC3    C7 4583   1.718   0.705  10.476  0.3018 -1.1172 -0.6993
  304TMC3    C8 4584   1.569   1.018  10.671  0.1230  0.0218  0.5718
  304TMC3    O1 4585   1.752   0.639  10.377  0.0512 -0.2133  0.3732
  304TMC3    O2 4586   1.498   0.974  10.583 -1.0414  0.1191 -0.4039
  305MPD2     C 4587   4.036   3.723  13.756 -0.0384  0.7721  0.0902
  305MPD2    C1 4588   4.172   3.738  13.741 -0.0151  0.0824  0.3314
  305MPD2    C2 4589   4.230   3.698  13.617 -0.3093  0.4359  0.4799
  305MPD2    C3 4590   4.160   3.645  13.512 -0.5720  0.2197  0.1497
  305MPD2    C4 4591   4.026   3.617  13.534 -0.3669 -0.3508 -0.3316
  305MPD2    C5 4592   3.962   3.662  13.653 -0.0400 -0.7104 -0.4804
  305MPD2     H 4593   4.337   3.706  13.609 -0.0353  0.5496  4.5386
  305MPD2    H1 4594   3.964   3.568  13.461  0.0311  1.7111 -2.0422
  305MPD2    H2 4595   3.997   3.764  13.849 -0.5826  0.7202 -0.1194
  305MPD2    H3 4596   3.854   3.653  13.663  0.0741  1.6352  2.9590
  305MPD2     N 4597   4.216   3.597  13.390 -0.0949 -0.2659  0.2821
  305MPD2    H5 4598   4.148   3.548  13.333  3.1646 -3.1384 -1.1725
  305MPD2    N1 4599   4.242   3.792  13.854  0.1471 -0.8261  0.6549
  305MPD2    H7 4600   4.181   3.815  13.932  0.0421 -0.0522  0.3436
  306TMC3    C1 4601   4.414   3.917  13.975  0.3939 -0.9256 -0.2311
  306TMC3    C2 4602   4.534   3.983  13.972  0.4990 -0.5046  0.5254
  306TMC3    C3 4603   4.605   4.021  14.087  0.0609 -0.2123  0.2375
  306TMC3    C4 4604   4.348   3.905  14.090 -0.5810  0.2852  0.5029
  306TMC3    C5 4605   4.412   3.951  14.202  0.0398 -0.5389  0.2376
  306TMC3    C6 4606   4.539   4.000  14.205 -0.5244  0.2968 -0.1721
  306TMC3     C 4607   4.367   3.838  13.858 -0.9418  0.5713 -0.2524
  306TMC3     O 4608   4.459   3.829  13.775  0.0287 -0.0373  0.5420
  306TMC3     H 4609   4.564   4.010  13.871 -0.0623  1.1509  0.8145
  306TMC3    H1 4610   4.263   3.838  14.100  1.0785 -1.8880  0.1839
  306TMC3    H2 4611   4.597   4.012  14.296 -0.6883  1.5509 -0.2308
  306TMC3    C7 4612   4.343   3.916  14.325  0.6082 -0.9232  0.1284
  306TMC3    C8 4613   0.024   4.030  14.095  1.0667 -1.1716 -0.3610
  306TMC3    O1 4614   4.221   3.911  14.321 -0.1114  0.0491  0.0200
  306TMC3    O2 4615   0.073   3.977  14.196  0.2025 -0.3548  0.0579
  307MPD2     C 4616   2.977   2.113   0.519 -0.9354 -0.8584 -0.5670
  307MPD2    C1 4617   2.863   2.114   0.441 -0.5365 -1.1278 -1.5022
  307MPD2    C2 4618   2.737   2.146   0.500  0.3038 -0.7685 -0.1521
  307MPD2    C3 4619   2.724   2.167   0.637  0.2928 -0.1735 -0.3899
  307MPD2    C4 4620   2.838   2.169   0.710 -0.7204  0.3442 -0.1386
  307MPD2    C5 4621   2.961   2.146   0.654  0.1017  0.2157 -0.5682
  307MPD2     H 4622   2.649   2.159   0.439  0.0079 -0.4137  0.3447
  307MPD2    H1 4623   2.832   2.190   0.816 -0.1120 -0.6144  0.0762
  307MPD2    H2 4624   3.074   2.087   0.480 -1.3583 -2.1833 -0.7530
  307MPD2    H3 4625   3.046   2.160   0.720  1.1516 -0.4484 -1.7947
  307MPD2     N 4626   2.591   2.189   0.684  0.1249 -0.1694 -0.0415
  307MPD2    H5 4627   2.513   2.154   0.628 -1.3952  1.7892  0.8340
  307MPD2    N1 4628   2.872   2.084   0.303 -0.5104 -0.4625  0.1832
  307MPD2    H7 4629   2.794   2.116   0.246  1.9490  4.3977 -0.5121
  308TMC3    C1 4630   2.217   2.258   0.694  0.0332 -0.4329 -0.1888
  308TMC3    C2 4631   2.182   2.387   0.712  0.4591  0.3862 -0.0886
  308TMC3    C3 4632   2.271   2.468   0.771 -0.5989  0.3547 -0.0512
  308TMC3    C4 4633   2.330   2.201   0.741  0.9133  0.3880  0.3881
  308TMC3    C5 4634   2.420   2.289   0.799 -0.2116 -0.0144 -0.0596
  308TMC3    C6 4635   2.392   2.421   0.811  0.3523 -0.4513 -0.2873
  308TMC3     C 4636   2.116   2.166   0.651 -0.5728 -0.6470  0.1315
  308TMC3     O 4637   2.152   2.049   0.648 -0.0655  0.2834 -0.5968
  308TMC3     H 4638   2.094   2.435   0.673  2.0861  0.8335 -3.2115
  308TMC3    H1 4639   2.356   2.097   0.724 -1.8847 -0.1638 -0.4496
  308TMC3    H2 4640   2.457   2.495   0.857 -1.2741 -0.0488  1.3709
  308TMC3    C7 4641   2.564   2.260   0.793 -0.3184 -0.6512  0.0757
  308TMC3    C8 4642   2.272   2.600   0.707 -0.4152  0.4225 -0.3609
  308TMC3    O1 4643   2.640   2.325   0.866  0.1117 -0.5659 -0.0665
  308TMC3    O2 4644   2.327   2.693   0.767 -0.0082 -0.3833  0.8924
  309MPD2     C 4645   1.383   2.152  17.148 -0.4940 -0.4881  0.0270
  309MPD2    C1 4646   1.347   2.244  17.051  0.2196 -0.0628 -0.6038
  309MPD2    C2 4647   1.234   2.320  17.070  0.5539 -0.1769 -0.3641
  309MPD2    C3 4648   1.143   2.287  17.170 -0.0935 -0.2228  1.2066
  309MPD2    C4 4649   1.170   2.189  17.258  0.0621 -0.4771  0.8197
  309MPD2    C5 4650   1.292   2.131  17.248 -0.0115  0.2716 -0.1825
  309MPD2     H 4651   1.221   2.412  17.013 -3.2354  0.3362  1.2579
  309MPD2    H1 4652   1.110   2.175  17.348  0.1113  0.5487  1.0063
  309MPD2    H2 4653   1.481   2.107  17.145 -0.0467  0.5367 -0.6679
  309MPD2    H3 4654   1.322   2.057  17.320  2.0135  0.3634 -0.9208
  309MPD2     N 4655   1.016   2.353  17.184 -0.0319 -0.0896  0.0482
  309MPD2    H5 4656   0.959   2.336  17.266  0.6424  0.6938  0.6758
  309MPD2    N1 4657   1.418   2.279  16.939 -0.8750  0.2452  0.2102
  309MPD2    H7 4658   1.371   2.352  16.886 -2.0229 -1.9131 -1.7696
  310TMC3    C1 4659   1.541   2.240  16.742 -0.5302 -0.9519 -0.2364
  310TMC3    C2 4660   1.440   2.310  16.679  0.2315  0.4974  0.8149
  310TMC3    C3 4661   1.477   2.365  16.553 -0.0521 -0.3849 -0.2969
  310TMC3    C4 4662   1.664   2.215  16.692 -0.4164 -0.4129 -0.7809
  310TMC3    C5 4663   1.698   2.287  16.583 -0.4770  0.2929  0.1017
  310TMC3    C6 4664   1.604   2.353  16.506 -0.1775 -0.2779 -0.2395
  310TMC3     C 4665   1.518   2.205  16.885  0.3543  0.2562  0.6288
  310TMC3     O 4666   1.600   2.128  16.938  0.2255 -0.3891 -0.0506
  310TMC3     H 4667   1.340   2.309  16.721  1.5689  2.2807  4.0417
  310TMC3    H1 4668   1.736   2.167  16.757 -2.1825 -1.3868  0.4463
  310TMC3    H2 4669   1.635   2.393  16.410 -0.7787  0.2778 -0.1983
  310TMC3    C7 4670   1.831   2.254  16.528 -0.4464  0.5247 -0.1310
  310TMC3    C8 4671   1.378   2.443  16.476  0.4107 -0.0399  0.2555
  310TMC3    O1 4672   1.912   2.217  16.612 -0.1056  0.3292 -0.2420
  310TMC3    O2 4673   1.403   2.470  16.365 -0.2367  0.4209  0.1865
  311MPD2     C 4674   3.870   3.055  12.396 -0.4778  0.5560  0.3500
  311MPD2    C1 4675   3.875   3.186  12.436  0.2213 -0.2957 -0.1272
  311MPD2    C2 4676   3.753   3.253  12.471  0.1355  0.3023  0.4551
  311MPD2    C3 4677   3.632   3.185  12.461  0.1356  0.0303 -0.3079
  311MPD2    C4 4678   3.627   3.050  12.406  0.5084 -0.4991 -0.9398
  311MPD2    C5 4679   3.748   2.991  12.382 -0.1207  0.6435  0.1661
  311MPD2     H 4680   3.753   3.360  12.488  0.7893  0.2721  0.6512
  311MPD2    H1 4681   3.535   2.994  12.396 -0.1379  0.8990 -2.7955
  311MPD2    H2 4682   3.959   2.995  12.382 -0.1830  1.2749 -0.9333
  311MPD2    H3 4683   3.755   2.883  12.375  1.1978  0.7884 -0.7711
  311MPD2     N 4684   3.517   3.258  12.478 -0.4387  0.5344  0.2747
  311MPD2    H5 4685   3.527   3.343  12.533  0.9914  0.1347  0.6384
  311MPD2    N1 4686   3.995   3.261  12.455 -0.4757  0.0400 -0.2082
  311MPD2    H7 4687   3.985   3.362  12.463  0.3355  0.0224  1.0816
  312TMC3    C1 4688   3.296   3.302  12.520  0.2620 -0.0004 -0.3684
  312TMC3    C2 4689   3.174   3.258  12.564 -0.7182 -1.2226 -0.8679
  312TMC3    C3 4690   3.087   3.344  12.624 -1.1485  0.3562  0.2704
  312TMC3    C4 4691   3.342   3.430  12.546  0.6158 -0.3255 -0.4368
  312TMC3    C5 4692   3.258   3.511  12.623 -0.6471 -0.4842 -0.2779
  312TMC3    C6 4693   3.125   3.468  12.666  0.6523  0.6048  0.0963
  312TMC3     C 4694   3.386   3.210  12.464 -0.3354 -0.4047  0.2752
  312TMC3     O 4695   3.336   3.117  12.401  0.4243 -0.7618 -0.2161
  312TMC3     H 4696   3.142   3.161  12.526  4.0996 -1.5961 -4.1177
  312TMC3    H1 4697   3.434   3.469  12.505  0.0246 -0.0406 -1.5190
  312TMC3    H2 4698   3.064   3.535  12.725  1.8718  2.3364 -0.6036
  312TMC3    C7 4699   3.324   3.618  12.683 -0.2825 -0.0887  0.1733
  312TMC3    C8 4700   2.947   3.311  12.619  0.2067  0.0602 -0.3304
  312TMC3    O1 4701   3.418   3.674  12.622 -0.1573 -0.0306  0.5970
  312TMC3    O2 4702   2.916   3.200  12.581 -0.4123  0.2113  0.2853
  313MPD2     C 4703   3.694   2.107  10.309 -0.3907 -0.1056 -0.0668
  313MPD2    C1 4704   3.567   2.097  10.361 -0.3024 -0.3719 -1.0285
  313MPD2    C2 4705   3.461   2.044  10.281 -0.6883  0.0899 -0.0845
  313MPD2    C3 4706   3.496   2.026  10.144  0.2029 -0.5374 -0.1323
  313MPD2    C4 4707   3.623   2.051  10.096 -0.3992 -0.5318 -0.6218
  313MPD2    C5 4708   3.724   2.091  10.177 -0.4514  0.1018  0.4496
  313MPD2     H 4709   3.363   2.050  10.327  0.1178  0.0024  1.6571
  313MPD2    H1 4710   3.650   2.048   9.991  2.1217 -1.2990  0.0549
  313MPD2    H2 4711   3.775   2.140  10.373  0.1065 -1.1784 -0.1519
  313MPD2    H3 4712   3.827   2.101  10.146 -1.0318 -0.8795 -1.7425
  313MPD2     N 4713   3.394   2.023  10.041 -0.1387  0.0001  0.3339
  313MPD2    H5 4714   3.426   2.000   9.948 -4.8921  0.6003 -1.4022
  313MPD2    N1 4715   3.531   2.135  10.491  0.7286 -0.8334 -0.1640
  313MPD2    H7 4716   3.434   2.139  10.518 -0.6313 -0.4815 -5.0635
  314TMC3    C1 4717   3.544   2.214  10.712  0.1620  0.3090  0.1922
  314TMC3    C2 4718   3.600   2.330  10.757 -0.6881  0.8065  0.0980
  314TMC3    C3 4719   3.527   2.411  10.837 -0.0734  0.0190  0.5211
  314TMC3    C4 4720   3.411   2.188  10.721  0.5973  0.8113  0.0528
  314TMC3    C5 4721   3.332   2.281  10.785 -0.8670  0.3047 -0.9949
  314TMC3    C6 4722   3.390   2.395  10.843 -0.0920 -0.9848  0.3659
  314TMC3     C 4723   3.614   2.177  10.590  0.1744 -0.0821  0.0236
  314TMC3     O 4724   3.734   2.192  10.594  0.6867  0.7388 -0.4539
  314TMC3     H 4725   3.705   2.350  10.738 -0.0905 -3.3754 -1.0748
  314TMC3    H1 4726   3.370   2.108  10.661  1.3769 -0.5014  1.2634
  314TMC3    H2 4727   3.322   2.463  10.892  2.6592  1.5441  0.6616
  314TMC3    C7 4728   3.196   2.296  10.738  0.0372 -0.0259 -0.2310
  314TMC3    C8 4729   3.572   2.545  10.863 -0.0041  0.1144 -0.1746
  314TMC3    O1 4730   3.119   2.202  10.747  0.5021 -0.3465  0.5017
  314TMC3    O2 4731   3.492   2.636  10.860  0.3277 -0.0507  0.5039
  315MPD2     C 4732   2.537   2.736   0.189  0.2176  0.9825  0.2696
  315MPD2    C1 4733   2.626   2.803   0.267 -0.0120 -0.0947  0.6730
  315MPD2    C2 4734   2.701   2.907   0.224 -0.5478 -0.2039  0.4391
  315MPD2    C3 4735   2.684   2.952   0.097 -0.5395  0.4370  0.1204
  315MPD2    C4 4736   2.597   2.878   0.012  0.0254  0.6424  0.2641
  315MPD2    C5 4737   2.521   2.772   0.059 -0.1182  0.0537  0.1491
  315MPD2     H 4738   2.772   2.956   0.290 -2.3863  2.5353  0.3671
  315MPD2    H1 4739   2.582   2.904  17.601 -0.0759  0.6401  0.2783
  315MPD2    H2 4740   2.483   2.650   0.227  0.0001  1.4965  1.1007
  315MPD2    H3 4741   2.457   2.722  17.680  1.6908 -1.4473 -0.4320
  315MPD2     N 4742   2.754   3.069   0.054  0.0610 -0.0044 -0.5710
  315MPD2    H5 4743   2.831   3.094   0.117  0.3085 -1.8982 -0.1364
  315MPD2    N1 4744   2.670   2.752   0.392  0.0205  0.2081 -0.3914
  315MPD2    H7 4745   2.744   2.808   0.432  0.3644 -1.2428  0.9727
  316TMC3    C1 4746   2.848   3.238  17.619 -0.5661  0.0398 -0.3553
  316TMC3    C2 4747   2.958   3.243   0.008  0.0469  0.5535 -0.7644
  316TMC3    C3 4748   3.059   3.335  17.677 -0.1082  0.2337 -1.3188
  316TMC3    C4 4749   2.842   3.327  17.507  0.0138  0.7194 -0.3151
  316TMC3    C5 4750   2.949   3.415  17.489  0.2172  0.0200 -0.2158
  316TMC3    C6 4751   3.048   3.424  17.575 -0.2764 -0.3820 -0.1252
  316TMC3     C 4752   2.747   3.139  17.627  0.2846  0.4411 -0.4317
  316TMC3     O 4753   2.662   3.141  17.539 -0.2592 -0.2470  0.1976
  316TMC3     H 4754   2.965   3.185   0.099 -1.7068  1.3916 -0.1004
  316TMC3    H1 4755   2.749   3.337  17.452 -1.2273 -1.2298  1.4022
  316TMC3    H2 4756   3.131   3.492  17.555  1.5807 -2.6054  0.0474
  316TMC3    C7 4757   2.920   3.529  17.404 -0.5709 -0.5377  0.4297
  316TMC3    C8 4758   3.169   3.357   0.074 -0.2877 -0.1520  0.1157
  316TMC3    O1 4759   2.966   3.637  17.443  0.0305 -0.3346  0.5582
  316TMC3    O2 4760   3.221   3.467   0.072  0.2238 -0.0096  0.2755
  317MPD2     C 4761   0.405   4.694  11.723 -0.1524 -1.0132  0.3712
  317MPD2    C1 4762   0.536   4.683  11.743 -0.3701 -0.9054  0.0106
  317MPD2    C2 4763   0.572   4.650  11.869  0.8042  0.0957 -0.2785
  317MPD2    C3 4764   0.487   4.632  11.978  0.2202  0.0043  0.1156
  317MPD2    C4 4765   0.355   4.649  11.953 -0.8731 -0.1089 -0.0278
  317MPD2    C5 4766   0.311   4.670  11.821 -0.8518  0.8055  0.3134
  317MPD2     H 4767   0.677   4.659  11.893  0.6539  1.0811 -0.0064
  317MPD2    H1 4768   0.281   4.620  12.026 -0.1955  1.8802  1.4377
  317MPD2    H2 4769   0.369   4.706  11.622  2.5341 -0.3282 -0.4797
  317MPD2    H3 4770   0.207   4.673  11.789 -0.4152 -0.3973 -1.2263
  317MPD2     N 4771   0.543   4.604  12.101  0.2697  0.3817 -0.1009
  317MPD2    H5 4772   0.642   4.581  12.089 -0.2595 -1.7330 -0.3652
  317MPD2    N1 4773   0.637   4.712  11.642 -0.0524  0.2350 -0.7815
  317MPD2    H7 4774   0.731   4.720  11.679 -0.6876 -0.7442  1.0451
  318TMC3    C1 4775   0.549   4.574  12.338 -0.5066  0.3556  0.1610
  318TMC3    C2 4776   0.478   4.565  12.457  0.0504 -0.4158 -0.4053
  318TMC3    C3 4777   0.544   4.622  12.562  0.0110  0.0605 -0.1354
  318TMC3    C4 4778   0.677   4.625  12.327 -0.1945 -0.4441 -0.7542
  318TMC3    C5 4779   0.735   4.673  12.435 -0.6732 -0.3278  0.0841
  318TMC3    C6 4780   0.665   4.683  12.556  0.0469 -0.0914  0.0141
  318TMC3     C 4781   0.471   4.583  12.217  0.4266  0.6777 -0.5961
  318TMC3     O 4782   0.347   4.578  12.228 -1.1760 -0.3504  0.3935
  318TMC3     H 4783   0.386   4.508  12.459 -0.2080 -0.0011 -0.2873
  318TMC3    H1 4784   0.721   4.652  12.232  2.7546  1.3228  1.1294
  318TMC3    H2 4785   0.719   4.719  12.643 -0.1378  0.3651 -0.0638
  318TMC3    C7 4786   0.858   0.029  12.417  0.1424  0.1349  0.2728
  318TMC3    C8 4787   0.487   4.627  12.694 -0.0379 -1.3075 -0.2582
  318TMC3    O1 4788   0.887   0.055  12.301 -0.4591 -0.6061 -0.2527
  318TMC3    O2 4789   0.560   4.647  12.792  0.3818  0.5234 -0.0841
  319MPD2     C 4790   1.232   1.950  16.856  0.1098  1.2495  0.2965
  319MPD2    C1 4791   1.127   1.894  16.928  0.1060 -0.7232  0.3009
  319MPD2    C2 4792   0.998   1.895  16.880  0.3721 -0.0245 -0.1696
  319MPD2    C3 4793   0.973   1.963  16.763 -0.4944 -0.4244  0.1945
  319MPD2    C4 4794   1.069   2.034  16.694  0.3471  0.3283  0.2074
  319MPD2    C5 4795   1.197   2.018  16.740  0.4097  0.4476 -0.4367
  319MPD2     H 4796   0.923   1.832  16.928 -0.3757  1.8027  1.0445
  319MPD2    H1 4797   1.054   2.082  16.598  2.3694 -1.7515 -1.1454
  319MPD2    H2 4798   1.335   1.951  16.891  0.2562  0.3902 -0.0908
  319MPD2    H3 4799   1.274   2.082  16.698  1.4517 -0.5222  0.0077
  319MPD2     N 4800   0.843   1.957  16.708  0.2539  0.1932 -0.7645
  319MPD2    H5 4801   0.829   1.990  16.613 -2.3055  2.1691  0.3202
  319MPD2    N1 4802   1.141   1.823  17.046  0.2337  0.7213  0.2229
  319MPD2    H7 4803   1.063   1.783  17.097 -0.2933  1.7402  0.2043
  320TMC3    C1 4804   0.626   1.907  16.676 -0.0700 -0.0527 -0.6254
  320TMC3    C2 4805   0.610   2.002  16.583  0.0897  0.4286 -0.0587
  320TMC3    C3 4806   0.496   1.994  16.507  0.2503 -0.0530 -0.5846
  320TMC3    C4 4807   0.528   1.810  16.694  0.0732 -0.7479 -0.0345
  320TMC3    C5 4808   0.432   1.794  16.598 -0.0338  0.2552 -0.8478
  320TMC3    C6 4809   0.417   1.884  16.499  0.7163  1.0467  0.7543
  320TMC3     C 4810   0.731   1.910  16.774 -0.2111 -0.1896  0.0405
  320TMC3     O 4811   0.699   1.892  16.890 -0.0459  0.1665 -0.0260
  320TMC3     H 4812   0.681   2.083  16.571  0.8857 -0.3283 -0.4694
  320TMC3    H1 4813   0.542   1.738  16.773 -0.6273 -1.1733 -0.2989
  320TMC3    H2 4814   0.318   1.876  16.454  1.5461 -1.2106 -0.6651
  320TMC3    C7 4815   0.419   1.656  16.553  0.4271  0.4927  1.3188
  320TMC3    C8 4816   0.461   2.113  16.437 -0.8263  0.5954  0.1178
  320TMC3    O1 4817   0.397   1.638  16.436  0.3441  0.6180 -0.1509
  320TMC3    O2 4818   0.510   2.217  16.474 -0.4526 -0.3126 -0.0964
  321TMC3    C1 4819   1.269   1.755  17.237  0.0587  0.1702 -0.1923
  321TMC3    C2 4820   1.171   1.800  17.323 -0.1221 -0.1910 -0.2034
  321TMC3    C3 4821   1.209   1.831  17.452  0.6986  1.1801  0.4836
  321TMC3    C4 4822   1.389   1.702  17.285  0.1142  0.2499 -0.0999
  321TMC3    C5 4823   1.410   1.712  17.423  0.1108 -0.5650 -0.3165
  321TMC3    C6 4824   1.330   1.788  17.505  0.0867 -0.1037  0.3315
  321TMC3     C 4825   1.270   1.798  17.098  0.4653  0.4674 -0.3384
  321TMC3     O 4826   1.383   1.834  17.065  0.1748 -0.0278 -0.2793
  321TMC3     H 4827   1.067   1.818  17.298  0.3413  1.1983 -1.1189
  321TMC3    H1 4828   1.468   1.671  17.218  0.1406 -0.2261  0.1488
  321TMC3    H2 4829   1.352   1.808  17.609 -1.3157 -2.9787  1.2037
  321TMC3    C7 4830   1.448   1.585  17.472 -0.6935 -1.1597 -0.6254
  321TMC3    C8 4831   1.105   1.799  17.543 -0.4293  0.5126  0.9532
  321TMC3    O1 4832   1.511   1.507  17.405  0.0011 -0.0656 -0.2903
  321TMC3    O2 4833   1.143   1.725  17.630  0.2274  0.0823 -0.3791
  322MPD2     C 4834   4.228   3.197  13.712 -0.2815  0.0485 -0.3727
  322MPD2    C1 4835   4.279   3.178  13.833 -0.1898  0.3755 -0.3162
  322MPD2    C2 4836   4.270   3.053  13.891 -0.8200  0.1241  0.2943
  322MPD2    C3 4837   4.217   2.953  13.820 -0.0693  0.0599  0.0912
  322MPD2    C4 4838   4.162   2.974  13.700  0.2055 -0.7905 -0.6063
  322MPD2    C5 4839   4.155   3.098  13.658  0.5823  0.0180 -0.2487
  322MPD2     H 4840   4.329   3.031  13.979  0.9226 -0.4830 -1.0225
  322MPD2    H1 4841   4.115   2.900  13.636 -1.1768 -0.8097  0.4479
  322MPD2    H2 4842   4.236   3.296  13.669 -0.4249  0.0628 -0.3663
  322MPD2    H3 4843   4.115   3.104  13.557 -2.5599  1.2804  1.0473
  322MPD2     N 4844   4.226   2.830  13.889 -0.3113 -0.2841 -0.5632
  322MPD2    H5 4845   4.268   2.832  13.981  0.7821  3.3787 -1.1380
  322MPD2    N1 4846   4.337   3.281  13.910  0.7693 -0.4736 -0.1246
  322MPD2    H7 4847   4.372   3.251  14.000 -0.3320  0.4620  0.6186
  323TMC3    C1 4848   4.448   3.476  13.962  0.0392 -0.3206 -0.6394
  323TMC3    C2 4849   4.530   3.566  13.913  0.1942 -0.5183  0.2122
  323TMC3    C3 4850   4.630   3.612  13.998  0.4222 -0.0929 -0.6357
  323TMC3    C4 4851   4.447   3.436  14.094 -0.0501 -0.7895  0.5108
  323TMC3    C5 4852   4.544   3.488  14.176 -0.1743 -0.4067 -0.3857
  323TMC3    C6 4853   4.638   3.573  14.126 -0.1922 -0.3243  0.9986
  323TMC3     C 4854   4.373   3.404  13.860  0.4731 -0.9371 -0.0419
  323TMC3     O 4855   4.376   3.440  13.743  0.0926 -0.4112  0.3511
  323TMC3     H 4856   4.532   3.596  13.809  2.4199 -0.9459  0.1211
  323TMC3    H1 4857   4.386   3.353  14.127 -1.0100  0.3032  1.4813
  323TMC3    H2 4858   0.006   3.598  14.179  0.3140 -0.8445  0.3711
  323TMC3    C7 4859   4.570   3.410  14.299 -0.4478  0.4918 -0.1821
  323TMC3    C8 4860   0.034   3.654  13.933  0.6508 -0.2653  0.2467
  323TMC3    O1 4861   4.516   3.300  14.318  0.4792  0.2037 -0.4128
  323TMC3    O2 4862   0.138   3.637  13.999  0.0253  0.5130  0.8486
  324MPD2     C 4863   2.179   4.347  14.415  0.0497  0.7959  0.2429
  324MPD2    C1 4864   2.146   4.470  14.463 -0.0544  0.8914 -0.6280
  324MPD2    C2 4865   2.040   4.538  14.405  0.1508 -0.9467 -0.2327
  324MPD2    C3 4866   1.961   4.487  14.309  0.2368 -0.2223 -0.2830
  324MPD2    C4 4867   1.984   4.361  14.268 -0.6906  0.5102  0.2304
  324MPD2    C5 4868   2.101   4.297  14.316 -0.3065 -0.5202  0.6073
  324MPD2     H 4869   2.030   4.636  14.450  1.8137  0.2138 -2.4236
  324MPD2    H1 4870   1.930   4.299  14.197 -0.6036  0.6941  0.0025
  324MPD2    H2 4871   2.263   4.291  14.454 -0.0039 -0.5235 -1.5533
  324MPD2    H3 4872   2.116   4.198  14.273  0.7272 -0.1045  0.0222
  324MPD2     N 4873   1.842   4.549  14.267 -0.3685 -0.2679 -0.4764
  324MPD2    H5 4874   1.780   4.492  14.210 -1.0615  1.9791 -1.9506
  324MPD2    N1 4875   2.220   4.530  14.566 -0.6959 -0.4386 -0.4205
  324MPD2    H7 4876   2.191   4.622  14.596  1.7462  0.8531 -2.0144
  325TMC3    C1 4877   1.668   4.711  14.265 -0.0826  0.2106 -0.7855
  325TMC3    C2 4878   1.596   4.659  14.159 -0.1929  0.0922  0.5174
  325TMC3    C3 4879   1.461   4.689  14.141 -0.3282  0.5408  0.4395
  325TMC3    C4 4880   1.602   0.072  14.350 -0.2204  0.5105 -0.1723
  325TMC3    C5 4881   1.471   0.098  14.333 -0.6484 -0.9577  0.4187
  325TMC3    C6 4882   1.401   0.049  14.227  0.7476  0.1455 -0.0201
  325TMC3     C 4883   1.802   4.676  14.304 -0.1435 -0.4144  1.5281
  325TMC3     O 4884   1.859   0.031  14.381  0.0278 -0.4236  0.5977
  325TMC3     H 4885   1.654   4.603  14.087 -1.6092 -0.6873 -0.0202
  325TMC3    H1 4886   1.649   0.100  14.443 -1.0603  1.1433  0.0655
  325TMC3    H2 4887   1.306   0.097  14.206  0.8902  0.3092 -0.2912
  325TMC3    C7 4888   1.403   0.145  14.446  0.2894  0.3706 -0.0513
  325TMC3    C8 4889   1.383   4.624  14.033 -0.4290 -0.2595  0.3975
  325TMC3    O1 4890   1.472   0.211  14.524  0.0419 -0.1133  0.0636
  325TMC3    O2 4891   1.441   4.563  13.944  0.3174 -0.7196  0.4488
  326MPD2     C 4892   2.908   0.699  10.800  0.0153 -0.4798 -0.0721
  326MPD2    C1 4893   2.917   0.562  10.811  0.0993 -0.5192 -0.0875
  326MPD2    C2 4894   3.019   0.501  10.884 -0.2733  0.3042  0.0895
  326MPD2    C3 4895   3.108   0.575  10.960 -0.5849  0.5694  0.0473
  326MPD2    C4 4896   3.096   0.715  10.950  0.2678  0.2791  0.1837
  326MPD2    C5 4897   2.997   0.774  10.870  0.9848  0.2515  0.0483
  326MPD2     H 4898   3.025   0.393  10.894 -0.1555  0.3907  0.9713
  326MPD2    H1 4899   3.166   0.784  10.995 -1.1042  2.2274 -0.6063
  326MPD2    H2 4900   2.834   0.751  10.741  0.0476 -1.7837 -1.2926
  326MPD2    H3 4901   3.003   0.882  10.859 -0.9960  0.3122 -0.4862
  326MPD2     N 4902   3.198   0.512  11.058 -0.6109 -0.3870 -0.0296
  326MPD2    H5 4903   3.266   0.569  11.106  0.2952 -0.9445 -0.6390
  326MPD2    N1 4904   2.829   0.467  10.752  0.2257  0.5826  0.0892
  326MPD2    H7 4905   2.842   0.374  10.789  0.6894  0.2435 -0.9293
  327TMC3    C1 4906   2.608   0.401  10.681  0.2806  0.4489  0.1737
  327TMC3    C2 4907   2.504   0.419  10.596  0.2975 -0.5986  0.2826
  327TMC3    C3 4908   2.417   0.315  10.577 -0.3630  0.4814 -0.3686
  327TMC3    C4 4909   2.622   0.279  10.747 -0.4123 -0.4528  0.7233
  327TMC3    C5 4910   2.529   0.180  10.726  0.0032  0.3500  0.5029
  327TMC3    C6 4911   2.428   0.187  10.629  0.3664  0.0174  0.2040
  327TMC3     C 4912   2.709   0.502  10.685 -0.0449 -0.3993 -0.3369
  327TMC3     O 4913   2.687   0.614  10.644  0.4076 -0.8823 -0.1365
  327TMC3     H 4914   2.489   0.515  10.550 -0.9029 -0.1701  1.5690
  327TMC3    H1 4915   2.697   0.268  10.825  0.1509  1.0127  0.3882
  327TMC3    H2 4916   2.357   0.105  10.630 -0.0108  0.3474  0.7069
  327TMC3    C7 4917   2.551   0.044  10.779 -0.5785  0.6974 -0.1718
  327TMC3    C8 4918   2.309   0.350  10.487 -0.1668  0.0932  0.7470
  327TMC3    O1 4919   2.486   4.676  10.725 -0.3588 -0.2861 -0.6101
  327TMC3    O2 4920   2.285   0.468  10.461  0.4440  0.1954  0.1012
  328MPD2     C 4921   0.201   0.210  17.467 -0.5210  0.2489 -0.5540
  328MPD2    C1 4922   0.157   0.179  17.334  0.4669 -0.5703  0.0134
  328MPD2    C2 4923   0.146   0.286  17.247 -0.5753 -0.3127 -0.3425
  328MPD2    C3 4924   0.174   0.418  17.282  0.8671  0.1526  0.4601
  328MPD2    C4 4925   0.197   0.443  17.412 -0.0697 -0.3825  1.1771
  328MPD2    C5 4926   0.228   0.340  17.495 -0.1721 -0.1164 -0.3157
  328MPD2     H 4927   0.124   0.274  17.142 -0.9963 -0.2931 -0.2561
  328MPD2    H1 4928   0.224   0.545  17.435  1.9873 -0.8155  0.7333
  328MPD2    H2 4929   0.222   0.133  17.541 -3.8855 -1.2728 -1.1617
  328MPD2    H3 4930   0.262   0.369  17.594 -0.0441 -0.6613 -0.1966
  328MPD2     N 4931   0.158   0.528  17.189  0.1977  0.0399 -0.1890
  328MPD2    H5 4932   0.172   0.622  17.224 -1.3921  0.9915 -2.0883
  328MPD2    N1 4933   0.142   0.042  17.295 -0.9687  0.2198 -0.3494
  328MPD2    H7 4934   0.127   4.700  17.371 -1.9472 -0.5278 -1.1860
  329TMC3    C1 4935   0.158   4.570  17.162  0.1718 -0.4995  0.0498
  329TMC3    C2 4936   0.122   4.493  17.264  0.0434  1.1864 -0.4089
  329TMC3    C3 4937   0.098   4.365  17.229 -0.6934  0.0575 -0.2781
  329TMC3    C4 4938   0.169   4.530  17.033 -0.2150 -0.1829  0.1028
  329TMC3    C5 4939   0.147   4.398  17.002  0.3046  0.3701 -0.2124
  329TMC3    C6 4940   0.100   4.318  17.098 -0.3437 -0.5162  0.2647
  329TMC3     C 4941   0.164   4.716  17.169  0.6874 -0.5472  0.3619
  329TMC3     O 4942   0.214   0.057  17.080 -0.0976 -0.2620  0.4416
  329TMC3     H 4943   0.124   4.518  17.370 -1.2722 -2.5538  0.4917
  329TMC3    H1 4944   0.187   4.602  16.954  0.0928 -0.3319  0.0363
  329TMC3    H2 4945   0.081   4.213  17.075  1.3876 -1.2610  2.2053
  329TMC3    C7 4946   0.203   4.340  16.882  0.3649 -0.7188 -0.5994
  329TMC3    C8 4947   0.023   4.275  17.317  0.3706 -0.5540  0.6566
  329TMC3    O1 4948   0.208   4.222  16.871 -0.1393  0.2316  0.3991
  329TMC3    O2 4949   0.018   4.154  17.300  0.7026 -0.0583 -0.1202
  330TMC3    C1 4950   2.848   3.598   9.402 -0.3821 -0.5236  0.6376
  330TMC3    C2 4951   2.778   3.538   9.298  0.0872 -0.7702  0.9995
  330TMC3    C3 4952   2.830   3.415   9.258  0.7602  0.1443  0.6009
  330TMC3    C4 4953   2.942   3.534   9.478 -0.4430 -0.1060  0.1427
  330TMC3    C5 4954   2.971   3.403   9.447 -0.2229  0.2221  0.4253
  330TMC3    C6 4955   2.918   3.348   9.331 -0.4573  0.3726  0.0536
  330TMC3     C 4956   2.843   3.735   9.418  0.2215  0.3291 -0.0054
  330TMC3     O 4957   2.852   3.782   9.532 -0.3252  0.6668  0.0770
  330TMC3     H 4958   2.700   3.590   9.244  0.2118 -0.5572  1.0274
  330TMC3    H1 4959   3.011   3.595   9.534  1.6446 -1.5036 -0.8996
  330TMC3    H2 4960   2.939   3.248   9.296  0.7956 -0.0826  2.1536
  330TMC3    C7 4961   3.038   3.315   9.542  0.1559  0.6040  0.0928
  330TMC3    C8 4962   2.780   3.357   9.137 -0.3461 -0.4600  0.0952
  330TMC3    O1 4963   3.089   3.213   9.494 -0.1091  0.2527 -0.2130
  330TMC3    O2 4964   2.857   3.306   9.058 -0.2923  0.0275 -0.3145
  331MPD2     C 4965   1.730   3.394  12.548 -0.4427  0.0168 -0.0183
  331MPD2    C1 4966   1.600   3.441  12.529  0.3984  0.1807  0.0030
  331MPD2    C2 4967   1.503   3.342  12.498  0.4938  0.0171 -0.3636
  331MPD2    C3 4968   1.536   3.209  12.490  0.2144  0.9857 -0.0070
  331MPD2    C4 4969   1.668   3.172  12.506  0.2099  0.6656 -0.1160
  331MPD2    C5 4970   1.763   3.262  12.525  0.1387 -1.1271 -0.0875
  331MPD2     H 4971   1.404   3.377  12.470  1.0680  3.0359  1.3952
  331MPD2    H1 4972   1.708   3.071  12.507  0.3053  0.7514  3.2979
  331MPD2    H2 4973   1.816   3.454  12.574 -1.9339  1.3369  1.9205
  331MPD2    H3 4974   1.863   3.230  12.553  0.9296 -0.2432 -1.8847
  331MPD2     N 4975   1.436   3.114  12.455  0.0561 -0.0313 -0.7684
  331MPD2    H5 4976   1.340   3.145  12.453 -0.6120 -2.1798 -1.2602
  331MPD2    N1 4977   1.581   3.580  12.532  0.2412 -0.2462  0.1028
  331MPD2    H7 4978   1.662   3.639  12.549  1.6826 -2.1419 -0.2506
  332TMC3    C1 4979   1.351   2.918  12.370 -0.1843 -0.5907  0.0053
  332TMC3    C2 4980   1.304   2.972  12.259 -0.4652 -0.4411  0.1472
  332TMC3    C3 4981   1.272   2.899  12.150 -0.0751  0.4537 -0.0127
  332TMC3    C4 4982   1.373   2.781  12.375 -0.3992  0.0279 -0.2379
  332TMC3    C5 4983   1.349   2.707  12.263 -0.2710 -1.1146 -0.3838
  332TMC3    C6 4984   1.285   2.763  12.159 -0.3243 -0.5691  0.1023
  332TMC3     C 4985   1.461   2.988  12.423  0.1994  0.7225 -0.1316
  332TMC3     O 4986   1.570   2.932  12.415  0.0368  0.3564 -0.3712
  332TMC3     H 4987   1.315   3.078  12.240  0.1890 -0.0175  2.9504
  332TMC3    H1 4988   1.433   2.749  12.459 -0.2487 -1.5951 -0.9528
  332TMC3    H2 4989   1.282   2.705  12.067  0.2153 -1.3584  0.5908
  332TMC3    C7 4990   1.455   2.632  12.214 -0.2449  0.2320  0.5474
  332TMC3    C8 4991   1.320   2.950  12.023 -0.0188 -0.4147 -0.0822
  332TMC3    O1 4992   1.431   2.513  12.177  0.0214 -0.5699  0.3217
  332TMC3    O2 4993   1.389   3.050  12.015  0.4937  0.0953  1.0609
  333MPD2     C 4994   1.407   2.652  11.119  0.6787 -0.1011  0.2018
  333MPD2    C1 4995   1.424   2.526  11.066 -0.9105  1.0746  0.0411
  333MPD2    C2 4996   1.322   2.432  11.080  0.1462 -0.2121  0.0111
  333MPD2    C3 4997   1.204   2.470  11.151  0.2530  0.3876 -0.4800
  333MPD2    C4 4998   1.197   2.593  11.211 -0.4553  0.3256 -0.6573
  333MPD2    C5 4999   1.296   2.688  11.193  0.0444 -0.5474 -0.1642
  333MPD2     H 5000   1.326   2.344  11.018  1.2987 -0.8566  0.9891
  333MPD2    H1 5001   1.128   2.625  11.288 -0.2649 -3.2327  0.9721
  333MPD2    H2 5002   1.478   2.732  11.102  2.2145 -0.8520  3.0881
  333MPD2    H3 5003   1.297   2.789  11.232 -2.4622  0.3111 -2.3384
  333MPD2     N 5004   1.108   2.379  11.154 -0.3672 -0.3188  0.0441
  333MPD2    H5 5005   1.130   2.283  11.129  0.8673 -0.4327  1.5428
  333MPD2    N1 5006   1.550   2.501  10.997 -0.7169  0.4616 -0.5443
  333MPD2    H7 5007   1.624   2.570  10.990 -0.2708  0.2820  2.3929
  334TMC3    C1 5008   1.696   2.397  10.848 -0.3893  0.6335  0.5070
  334TMC3    C2 5009   1.788   2.300  10.833 -0.3111 -0.4670  1.0074
  334TMC3    C3 5010   1.887   2.309  10.743 -0.0471  0.5563 -0.7487
  334TMC3    C4 5011   1.699   2.515  10.773 -0.5506  0.5932 -0.3425
  334TMC3    C5 5012   1.789   2.511  10.670  0.2243  0.4885 -0.1812
  334TMC3    C6 5013   1.883   2.416  10.653  0.9157  0.3333  0.1331
  334TMC3     C 5014   1.592   2.380  10.946  0.2127  0.8750  0.4111
  334TMC3     O 5015   1.548   2.275  10.986 -0.2303  0.2471 -0.0877
  334TMC3     H 5016   1.796   2.218  10.903 -0.5334 -0.1773  1.3692
  334TMC3    H1 5017   1.626   2.595  10.769  0.0091  1.1710  1.0191
  334TMC3    H2 5018   1.957   2.425  10.574 -0.3579  0.5736 -1.0378
  334TMC3    C7 5019   1.817   2.643  10.607 -0.3163 -0.1949  0.2034
  334TMC3    C8 5020   2.021   2.265  10.777  0.2524  0.1386 -0.2090
  334TMC3    O1 5021   1.772   2.739  10.665 -0.5762  0.1290  0.5291
  334TMC3    O2 5022   2.047   2.147  10.805  0.3949  0.1624  1.3908
  335TMC3    C1 5023   1.226   0.586  17.000 -0.4825  0.4006 -0.6841
  335TMC3    C2 5024   1.173   0.530  16.884 -0.5875 -1.6619  0.0449
  335TMC3    C3 5025   1.252   0.445  16.811  0.2795  0.3138 -0.4113
  335TMC3    C4 5026   1.363   0.583  17.016 -0.6948 -0.6053 -0.7241
  335TMC3    C5 5027   1.429   0.490  16.939  0.2526 -0.0332  0.6425
  335TMC3    C6 5028   1.383   0.422  16.836  0.1381  0.3814  0.1591
  335TMC3     C 5029   1.153   0.682  17.072 -1.0460  0.0859 -0.6022
  335TMC3     O 5030   1.200   0.709  17.182  0.0496  0.0779 -0.4436
  335TMC3     H 5031   1.065   0.529  16.875 -0.5774 -0.5117 -0.2176
  335TMC3    H1 5032   1.413   0.650  17.085 -0.1612 -1.1471 -0.5847
  335TMC3    H2 5033   1.446   0.352  16.782  0.7952 -0.1039  1.5508
  335TMC3    C7 5034   1.566   0.457  16.979 -0.4129 -0.3566  0.0385
  335TMC3    C8 5035   1.200   0.356  16.708 -1.3593  0.6275 -0.8913
  335TMC3    O1 5036   1.647   0.442  16.886 -0.4703 -0.2525 -0.1336
  335TMC3    O2 5037   1.281   0.327  16.624  0.3534 -0.3129 -0.3868
  336MPD2     C 5038   0.630   3.192  16.381  0.1974  0.9470 -0.6804
  336MPD2    C1 5039   0.619   3.102  16.285 -0.4279  0.5606 -0.0781
  336MPD2    C2 5040   0.624   2.966  16.313  0.6323  0.1167  0.0206
  336MPD2    C3 5041   0.638   2.919  16.446  0.8920  0.4231  0.2262
  336MPD2    C4 5042   0.642   3.013  16.546 -0.4818  0.1754  0.2668
  336MPD2    C5 5043   0.636   3.148  16.512  0.3738  1.1355 -0.0022
  336MPD2     H 5044   0.619   2.894  16.233 -1.0901  0.0087  0.2363
  336MPD2    H1 5045   0.642   2.987  16.651  0.3448 -0.4049  0.1239
  336MPD2    H2 5046   0.619   3.297  16.358  0.8935  0.6593 -2.2765
  336MPD2    H3 5047   0.630   3.223  16.590 -1.1876  1.0156 -0.0070
  336MPD2     N 5048   0.652   2.780  16.481  0.1478  0.1308 -0.2740
  336MPD2    H5 5049   0.671   2.760  16.579 -0.5065  0.1037 -0.1522
  336MPD2    N1 5050   0.612   3.144  16.150 -0.8780  0.3897 -0.6706
  336MPD2    H7 5051   0.605   3.081  16.071  0.6499 -0.4188 -0.1748
  337TMC3    C1 5052   0.567   3.271  15.966 -0.3386 -0.3129  0.2953
  337TMC3    C2 5053   0.458   3.188  15.940  0.1071  0.5168  0.3108
  337TMC3    C3 5054   0.376   3.209  15.830  0.1152  0.3964  0.2999
  337TMC3    C4 5055   0.578   3.385  15.889 -0.7679  0.1706  0.2080
  337TMC3    C5 5056   0.497   3.410  15.780 -0.0044  0.4356  0.6055
  337TMC3    C6 5057   0.387   3.325  15.758  0.5994  0.4551  0.2802
  337TMC3     C 5058   0.613   3.270  16.108 -0.2740 -0.8199 -0.1256
  337TMC3     O 5059   0.621   3.380  16.159  0.2753  0.5931  0.2643
  337TMC3     H 5060   0.420   3.111  16.006 -2.6683  1.2627 -0.3868
  337TMC3    H1 5061   0.671   3.440  15.897  0.1171 -1.5272  1.4158
  337TMC3    H2 5062   0.300   3.351  15.699 -1.2255 -0.1869  2.6659
  337TMC3    C7 5063   0.524   3.509  15.685  0.1599 -0.1673 -0.6239
  337TMC3    C8 5064   0.236   3.164  15.849 -0.5594 -0.1972  0.5420
  337TMC3    O1 5065   0.639   3.536  15.657 -0.2489 -0.6681  0.0438
  337TMC3    O2 5066   0.207   3.144  15.965  0.4858  0.2388 -0.4152
  338MPD2     C 5067   1.155   2.750   0.925  0.1063  0.0440  0.5026
  338MPD2    C1 5068   1.064   2.706   0.834  0.1738  0.3411 -0.0679
  338MPD2    C2 5069   0.939   2.755   0.849  0.8233  0.5071  0.6040
  338MPD2    C3 5070   0.897   2.842   0.949  0.0654 -0.0353 -0.4502
  338MPD2    C4 5071   0.994   2.880   1.038  0.2130  0.0376 -0.1771
  338MPD2    C5 5072   1.117   2.821   1.031 -0.2093 -0.3993  0.3200
  338MPD2     H 5073   0.867   2.709   0.782  2.1281 -0.4047 -0.1645
  338MPD2    H1 5074   0.968   2.954   1.113 -2.9966 -1.4555  0.1625
  338MPD2    H2 5075   1.259   2.722   0.925 -0.4253 -1.9015 -0.9605
  338MPD2    H3 5076   1.194   2.852   1.101 -0.6001  0.5366  0.3382
  338MPD2     N 5077   0.758   2.880   0.950  0.0200  0.1838 -0.1379
  338MPD2    H5 5078   0.694   2.837   0.884 -0.8739 -0.5032  1.1696
  338MPD2    N1 5079   1.099   2.629   0.717  0.0216  0.1090  0.4908
  338MPD2    H7 5080   1.019   2.595   0.665 -0.9824  1.6912  0.9912
  339TMC3    C1 5081   0.565   2.965   1.020  0.9427 -0.7072 -0.4444
  339TMC3    C2 5082   0.466   2.960   1.114 -0.3749  0.0685 -0.3408
  339TMC3    C3 5083   0.340   2.995   1.068 -0.2023  1.0199 -0.4544
  339TMC3    C4 5084   0.545   3.009   0.894  0.2451  0.6355 -0.0603
  339TMC3    C5 5085   0.423   3.027   0.850  0.1615  0.4050 -0.3440
  339TMC3    C6 5086   0.319   3.021   0.935 -0.3887  0.2249  0.5438
  339TMC3     C 5087   0.698   2.936   1.055  0.1320  0.3567 -0.1761
  339TMC3     O 5088   0.735   2.971   1.169  0.3561  0.4150 -0.5791
  339TMC3     H 5089   0.480   2.928   1.216 -0.3207 -1.5606 -0.8455
  339TMC3    H1 5090   0.625   3.052   0.835 -1.3042  0.1375 -2.5067
  339TMC3    H2 5091   0.220   3.022   0.891  0.2608 -2.4453 -0.9742
  339TMC3    C7 5092   0.399   3.024   0.701 -0.5906 -0.0538  0.1469
  339TMC3    C8 5093   0.220   2.965   1.148  0.3335 -0.4321  0.9311
  339TMC3    O1 5094   0.298   3.070   0.649 -0.4785  0.4430  0.5957
  339TMC3    O2 5095   0.128   3.046   1.142  0.0062 -0.3818 -0.1019
  340MPD2     C 5096   1.800   4.177   8.932  0.1142 -1.1179  0.1687
  340MPD2    C1 5097   1.709   4.115   9.013  0.3370 -0.1597  0.4969
  340MPD2    C2 5098   1.686   4.167   9.138  0.5273 -0.0010 -0.2219
  340MPD2    C3 5099   1.729   4.297   9.173 -0.0124  0.1485  0.3380
  340MPD2    C4 5100   1.817   4.360   9.086  0.2610 -0.0253  0.2332
  340MPD2    C5 5101   1.847   4.302   8.967  0.0308 -0.1764 -0.0046
  340MPD2     H 5102   1.641   4.106   9.216  0.4455 -1.4788 -1.4128
  340MPD2    H1 5103   1.872   4.448   9.117 -0.8392  0.6847  0.2025
  340MPD2    H2 5104   1.829   4.132   8.838 -1.8407 -0.8141 -0.5870
  340MPD2    H3 5105   1.926   4.343   8.906 -0.3460  0.4611 -0.0627
  340MPD2     N 5106   1.713   4.359   9.298  0.1833 -0.3194 -0.0947
  340MPD2    H5 5107   1.758   4.448   9.319 -1.0583  0.5897 -1.2482
  340MPD2    N1 5108   1.649   3.991   8.977  0.2200 -0.2598 -0.0997
  340MPD2    H7 5109   1.667   3.951   8.885  0.9161 -2.2795  0.9153
  341TMC3    C1 5110   1.538   3.787   9.024  0.1270 -0.1008  0.5064
  341TMC3    C2 5111   1.456   3.710   9.109  0.2041  0.2533  0.8597
  341TMC3    C3 5112   1.455   3.572   9.103 -0.0521  0.2836  0.5510
  341TMC3    C4 5113   1.609   3.721   8.921  0.9423  0.0444  0.1051
  341TMC3    C5 5114   1.601   3.582   8.917 -0.3098  0.2591 -0.0669
  341TMC3    C6 5115   1.524   3.514   9.002 -0.3600  0.2317 -0.3005
  341TMC3     C 5116   1.570   3.920   9.058 -0.4078  0.1443 -0.4847
  341TMC3     O 5117   1.490   3.967   9.139 -0.2568  0.5388  0.2697
  341TMC3     H 5118   1.423   3.747   9.206  1.6338  1.0752  1.0366
  341TMC3    H1 5119   1.694   3.766   8.872  0.8051  0.5780  0.3540
  341TMC3    H2 5120   1.524   3.406   9.001  0.6330  0.2476 -2.3074
  341TMC3    C7 5121   1.656   3.509   8.810  0.7866 -0.2204 -0.6121
  341TMC3    C8 5122   1.396   3.497   9.217  0.2199 -0.5331  0.1860
  341TMC3    O1 5123   1.661   3.384   8.815 -0.4841  0.4129 -0.0335
  341TMC3    O2 5124   1.452   3.387   9.241  0.5835 -0.2345 -0.5337
  342MPD2     C 5125   3.524   3.511  16.833 -0.3713  0.1001  0.5373
  342MPD2    C1 5126   3.569   3.563  16.958 -0.7497  0.6388  0.1776
  342MPD2    C2 5127   3.562   3.698  16.983 -0.1474 -0.3125 -0.6170
  342MPD2    C3 5128   3.515   3.783  16.882  0.5809  0.1698  0.8738
  342MPD2    C4 5129   3.476   3.732  16.762  0.5590  0.1366 -0.0757
  342MPD2    C5 5130   3.472   3.601  16.740 -0.3072 -0.0188 -0.1188
  342MPD2     H 5131   3.594   3.735  17.079  2.7946  2.4237 -2.6649
  342MPD2    H1 5132   3.433   3.791  16.681  0.7403 -0.6894 -0.7723
  342MPD2    H2 5133   3.539   3.407  16.804 -0.2980 -0.1253  1.3846
  342MPD2    H3 5134   3.426   3.555  16.653  0.0678  0.0917 -0.3771
  342MPD2     N 5135   3.512   3.926  16.894 -0.3432  0.4867 -0.1840
  342MPD2    H5 5136   3.517   3.985  16.811  1.6686  1.2828  0.5009
  342MPD2    N1 5137   3.625   3.493  17.065  0.0352 -0.2479  0.5257
  342MPD2    H7 5138   3.673   3.543  17.139  1.2506 -0.5700 -0.0386
  343TMC3    C1 5139   3.699   3.310  17.191 -1.1587 -0.2406  0.3971
  343TMC3    C2 5140   3.811   3.378  17.237  0.1785  0.2080 -0.5637
  343TMC3    C3 5141   3.908   3.304  17.295 -0.1038 -0.2990  0.1137
  343TMC3    C4 5142   3.677   3.180  17.220  0.2540 -0.0091 -0.2928
  343TMC3    C5 5143   3.771   3.108  17.283 -0.0824 -0.1386 -0.0179
  343TMC3    C6 5144   3.888   3.170  17.315  0.1742 -0.4062  0.5557
  343TMC3     C 5145   3.608   3.362  17.084 -0.3076  0.5449  0.0168
  343TMC3     O 5146   3.528   3.290  17.029  0.0202 -0.1976 -0.6464
  343TMC3     H 5147   3.827   3.483  17.213  0.7790  0.1508 -0.4210
  343TMC3    H1 5148   3.594   3.131  17.172  0.9686 -0.0810 -1.4665
  343TMC3    H2 5149   3.969   3.111  17.356 -0.7447 -2.8449 -1.1393
  343TMC3    C7 5150   3.720   2.984  17.341  0.6809  0.5520  0.2274
  343TMC3    C8 5151   4.045   3.343  17.253  0.1053  0.7113 -0.4238
  343TMC3    O1 5152   3.614   2.940  17.295  0.2339 -0.1694 -0.0234
  343TMC3    O2 5153   4.064   3.464  17.248 -0.1898  0.1321  0.4581
  344MPD2     C 5154   0.529   2.198  10.660  0.2349 -0.5707 -0.2218
  344MPD2    C1 5155   0.414   2.202  10.585  0.2250 -0.1950 -0.1040
  344MPD2    C2 5156   0.420   2.263  10.461 -0.0337  0.0832  0.4731
  344MPD2    C3 5157   0.542   2.323  10.426 -0.0118 -0.3284  0.9835
  344MPD2    C4 5158   0.651   2.314  10.500  0.2266  0.6061  0.5049
  344MPD2    C5 5159   0.645   2.252  10.618 -0.0493 -0.2305  0.0519
  344MPD2     H 5160   0.334   2.279  10.398  1.2465 -0.3564 -1.3936
  344MPD2    H1 5161   0.742   2.358  10.462  0.1776 -0.8524 -1.3817
  344MPD2    H2 5162   0.520   2.155  10.760  2.9722 -1.5072 -0.3828
  344MPD2    H3 5163   0.732   2.256  10.682  0.2056 -4.0420 -0.0188
  344MPD2     N 5164   0.563   2.408  10.309  0.2542 -0.0301 -0.5707
  344MPD2    H5 5165   0.645   2.465  10.326 -0.1140 -0.1154  1.5382
  344MPD2    N1 5166   0.287   2.157  10.634 -0.6339  0.1338 -0.2494
  344MPD2    H7 5167   0.208   2.180  10.575 -0.3774  3.3366  0.6223
  345TMC3    C1 5168   0.516   2.541  10.126  0.3006  1.3006  1.1711
  345TMC3    C2 5169   0.638   2.602  10.136 -0.3246  0.0629  0.3414
  345TMC3    C3 5170   0.658   2.709  10.055 -0.1350 -0.1015  0.2437
  345TMC3    C4 5171   0.416   2.579  10.031  0.2286 -0.6799 -0.5761
  345TMC3    C5 5172   0.449   2.689   9.952 -0.6284  0.2831  0.5093
  345TMC3    C6 5173   0.562   2.767   9.969  0.0573  0.4172  0.1989
  345TMC3     C 5174   0.478   2.424  10.204  0.5032 -0.2656  0.4077
  345TMC3     O 5175   0.373   2.364  10.191  0.5325  0.2215  0.0061
  345TMC3     H 5176   0.716   2.552  10.193  0.6483  0.8032 -0.3469
  345TMC3    H1 5177   0.324   2.527  10.007  0.8141 -1.9444 -0.0705
  345TMC3    H2 5178   0.600   2.846   9.904 -0.7797 -0.0941 -0.9073
  345TMC3    C7 5179   0.333   2.742   9.881  1.1026 -0.3572  0.3945
  345TMC3    C8 5180   0.769   2.803  10.068  0.0183 -0.3433 -0.0010
  345TMC3    O1 5181   0.238   2.669   9.860 -0.6553 -0.2306  0.1736
  345TMC3    O2 5182   0.778   2.893   9.987 -0.3486 -0.3926 -0.5101
  346MPD2     C 5183   0.317   4.482  13.713 -0.8609 -0.5469 -0.1877
  346MPD2    C1 5184   0.442   4.542  13.710  0.2113 -0.1641 -0.7568
  346MPD2    C2 5185   0.490   4.614  13.822 -0.7756 -0.3224  0.6719
  346MPD2    C3 5186   0.405   4.644  13.928 -0.7890 -0.5758  0.3485
  346MPD2    C4 5187   0.276   4.588  13.932 -0.0535  0.4710 -0.0815
  346MPD2    C5 5188   0.238   4.513  13.824  0.1010 -0.2225  0.3872
  346MPD2     H 5189   0.592   4.651  13.821  0.0675 -2.6618  1.3139
  346MPD2    H1 5190   0.209   4.611  14.014  0.3732 -1.5267  0.8448
  346MPD2    H2 5191   0.273   4.404  13.654 -2.5282 -0.2947  0.7187
  346MPD2    H3 5192   0.147   4.455  13.831  0.2339 -0.8029 -2.9239
  346MPD2     N 5193   0.448   0.015  14.019 -1.0483  0.4196 -0.1292
  346MPD2    H5 5194   0.543   0.049  14.017 -1.1862  0.7951 -0.3335
  346MPD2    N1 5195   0.533   4.533  13.598  0.2482 -0.9198 -0.0872
  346MPD2    H7 5196   0.625   4.575  13.607 -0.0653 -0.1728 -0.3245
  347TMC3    C1 5197   0.430   0.153  14.208  0.4860 -0.4469 -0.0280
  347TMC3    C2 5198   0.551   0.112  14.250 -0.1929 -0.1398 -0.3767
  347TMC3    C3 5199   0.601   0.172  14.368 -0.5915 -0.0942 -0.1120
  347TMC3    C4 5200   0.349   0.234  14.283 -0.0822  0.2534  0.3174
  347TMC3    C5 5201   0.407   0.294  14.385 -0.4639 -0.1245  0.0056
  347TMC3    C6 5202   0.530   0.269  14.433 -0.0181  0.6424 -0.0303
  347TMC3     C 5203   0.360   0.070  14.113 -0.4346 -0.6709  0.8745
  347TMC3     O 5204   0.240   0.079  14.126  0.1147  0.0101  0.7658
  347TMC3     H 5205   0.603   0.030  14.202  0.5676  0.9081 -1.3719
  347TMC3    H1 5206   0.252   0.267  14.247 -1.0154 -3.2145 -0.3379
  347TMC3    H2 5207   0.578   0.332  14.507 -1.7372 -0.7441  2.2644
  347TMC3    C7 5208   0.318   0.349  14.483  0.0117  0.2862  0.1990
  347TMC3    C8 5209   0.735   0.136  14.406 -0.3503 -0.2532  0.1332
  347TMC3    O1 5210   0.376   0.422  14.563  0.8022 -0.0272 -0.0339
  347TMC3    O2 5211   0.797   0.061  14.330 -0.1669  0.3655 -0.6077
  348MPD2     C 5212   3.703   3.726  11.997 -0.0653 -0.1559 -0.6459
  348MPD2    C1 5213   3.764   3.848  11.991 -0.4802 -0.1284  0.0723
  348MPD2    C2 5214   3.711   3.946  11.901  0.3557 -0.2196  0.7118
  348MPD2    C3 5215   3.600   3.921  11.830 -0.0880  0.5335 -0.1328
  348MPD2    C4 5216   3.544   3.793  11.837  0.8585 -0.8435 -0.3991
  348MPD2    C5 5217   3.595   3.705  11.920 -0.2636  0.3790 -0.2450
  348MPD2     H 5218   3.764   4.038  11.878  0.9295 -0.8182 -0.3567
  348MPD2    H1 5219   3.458   3.773  11.774  1.2862 -0.3810 -1.1220
  348MPD2    H2 5220   3.751   3.639  12.042 -3.3770 -1.0431  1.1599
  348MPD2    H3 5221   3.543   3.610  11.932 -1.4641  1.6054  4.3981
  348MPD2     N 5222   3.554   4.031  11.739  0.2681 -0.0470  0.9781
  348MPD2    H5 5223   3.602   4.119  11.752 -1.5865  0.8754  1.4848
  348MPD2    N1 5224   3.887   3.877  12.063  1.0532  0.4386 -0.8216
  348MPD2    H7 5225   3.937   3.965  12.052  0.3925  0.8451 -0.5662
  349TMC3    C1 5226   4.097   3.780  12.120  0.2098 -0.4009 -0.8290
  349TMC3    C2 5227   4.138   3.666  12.178  0.6635 -0.2579  0.4102
  349TMC3    C3 5228   4.220   3.582  12.105 -0.4418  0.0758 -0.1099
  349TMC3    C4 5229   4.152   3.838  12.011 -0.1898 -0.6481 -0.7003
  349TMC3    C5 5230   4.245   3.760  11.945  0.0117  0.6026 -0.2222
  349TMC3    C6 5231   4.269   3.629  11.990 -1.0765 -0.1675 -0.3160
  349TMC3     C 5232   3.954   3.787  12.141  0.5552 -0.8453  0.7989
  349TMC3     O 5233   3.899   3.704  12.218 -0.4208  0.3816  0.5383
  349TMC3     H 5234   4.105   3.641  12.278 -2.7275  0.0233 -0.6460
  349TMC3    H1 5235   4.122   3.935  11.972 -0.3458 -0.5570 -0.3511
  349TMC3    H2 5236   4.313   3.562  11.917  1.5692  1.5504 -0.3200
  349TMC3    C7 5237   4.216   3.754  11.812 -0.0559  0.4188 -0.1949
  349TMC3    C8 5238   4.225   3.436  12.131  0.5942 -0.3896 -0.4928
  349TMC3    O1 5239   4.144   3.665  11.782  0.3678  0.3799 -0.1095
  349TMC3    O2 5240   4.135   3.384  12.197 -0.1951  0.3039 -0.2230
  350MPD2     C 5241   2.415   2.200   9.760  0.4858  0.6062 -0.1686
  350MPD2    C1 5242   2.432   2.070   9.803  0.2530 -0.0442 -0.0234
  350MPD2    C2 5243   2.566   2.023   9.811  0.2822  0.3143 -0.1925
  350MPD2    C3 5244   2.676   2.115   9.799  0.4434  0.3898  0.4646
  350MPD2    C4 5245   2.660   2.245   9.760 -0.1151 -0.6108 -0.3599
  350MPD2    C5 5246   2.527   2.282   9.738  0.0751 -0.2976  0.5510
  350MPD2     H 5247   2.585   1.919   9.835 -1.5716  0.3499  1.4951
  350MPD2    H1 5248   2.740   2.316   9.749 -0.0224 -0.5448  0.7122
  350MPD2    H2 5249   2.317   2.235   9.729  0.1717  0.5256  0.7339
  350MPD2    H3 5250   2.503   2.381   9.701 -0.8242 -1.3401 -1.6321
  350MPD2     N 5251   2.804   2.062   9.811 -0.9017  0.5962 -0.7882
  350MPD2    H5 5252   2.811   1.961   9.813  1.9527  0.8130  0.5511
  350MPD2    N1 5253   2.331   1.973   9.815 -0.1496 -0.1966 -0.7744
  350MPD2    H7 5254   2.369   1.882   9.839 -1.1176 -0.0880  1.1517
  351TMC3    C1 5255   2.122   1.871   9.844  0.3606 -0.6307  0.1979
  351TMC3    C2 5256   2.194   1.774   9.908 -0.5975  0.5285  0.0835
  351TMC3    C3 5257   2.172   1.638   9.876 -0.5135 -0.2861 -0.4672
  351TMC3    C4 5258   2.020   1.843   9.757  0.2195  0.2982 -0.2343
  351TMC3    C5 5259   2.010   1.709   9.720  0.1128 -0.2842  0.7649
  351TMC3    C6 5260   2.078   1.609   9.782 -0.0971 -0.6399  0.5665
  351TMC3     C 5261   2.192   1.993   9.805  0.1668  0.6079  0.2670
  351TMC3     O 5262   2.128   2.095   9.779  0.5549 -0.6191 -0.3925
  351TMC3     H 5263   2.268   1.801   9.983 -1.4342  1.6244  0.5168
  351TMC3    H1 5264   1.971   1.922   9.701 -1.2420 -0.3126  0.1998
  351TMC3    H2 5265   2.064   1.509   9.744  2.2651 -0.4687 -0.6706
  351TMC3    C7 5266   1.923   1.680   9.612  0.2586  1.1721 -0.1327
  351TMC3    C8 5267   2.230   1.537   9.959  0.5183 -0.2280 -0.1192
  351TMC3    O1 5268   1.896   1.784   9.547  0.5548 -0.1795 -0.1371
  351TMC3    O2 5269   2.283   1.571  10.064 -0.4058 -0.2724  0.1841
  352MPD2     C 5270   0.922   4.662   1.207  0.1986 -0.0056  0.8117
  352MPD2    C1 5271   0.893   4.602   1.089  0.1768  0.2181 -0.0361
  352MPD2    C2 5272   0.947   4.472   1.068 -0.2575  1.2954 -0.4343
  352MPD2    C3 5273   1.035   4.416   1.159  0.6570  0.3141  0.3634
  352MPD2    C4 5274   1.063   4.484   1.269  0.0533 -0.7378 -0.1710
  352MPD2    C5 5275   1.013   4.607   1.292 -0.7382 -0.1094  0.2271
  352MPD2     H 5276   0.927   4.416   0.978 -0.7923 -0.4238  0.7669
  352MPD2    H1 5277   1.139   4.444   1.334  2.2250  1.7804 -1.1508
  352MPD2    H2 5278   0.874   0.032   1.238  2.0275  1.4357 -0.6667
  352MPD2    H3 5279   1.046   4.666   1.377 -1.7777  0.4206  0.2710
  352MPD2     N 5280   1.087   4.284   1.147  0.0446  0.3159 -0.6695
  352MPD2    H5 5281   1.136   4.253   1.230  1.3016  3.8975 -0.0396
  352MPD2    N1 5282   0.804   4.656   0.995  0.6489  0.0491 -0.0833
  352MPD2    H7 5283   0.758   0.016   1.031  2.3353  0.6507  0.6828
  353TMC3    C1 5284   1.099   4.058   1.083  0.1468 -0.0471  0.3270
  353TMC3    C2 5285   1.230   4.041   1.141  0.1008 -0.9745  0.5258
  353TMC3    C3 5286   1.296   3.921   1.124 -0.0717  0.1894  0.0815
  353TMC3    C4 5287   1.038   3.955   1.025 -0.2059  0.0234 -0.0721
  353TMC3    C5 5288   1.100   3.829   1.033 -0.9605  0.2643  0.3515
  353TMC3    C6 5289   1.226   3.811   1.080 -0.7442  0.1903  1.2399
  353TMC3     C 5290   1.061   4.191   1.040 -0.2804 -0.0684 -0.4845
  353TMC3     O 5291   0.984   4.196   0.944 -0.5656 -0.3640 -0.5446
  353TMC3     H 5292   1.289   4.125   1.176  1.9347 -1.9069 -0.3402
  353TMC3    H1 5293   0.944   3.965   0.973  0.2551  0.7576 -0.7522
  353TMC3    H2 5294   1.286   3.720   1.081 -2.4370 -0.9560 -2.9504
  353TMC3    C7 5295   1.039   3.716   0.969 -0.2009 -0.4704 -0.0495
  353TMC3    C8 5296   1.421   3.912   1.197 -0.6652 -0.1526  0.4282
  353TMC3    O1 5297   1.111   3.613   0.954  0.7675  0.1298  0.2598
  353TMC3    O2 5298   1.443   3.993   1.287  0.2817 -0.5822  0.1612
  354TMC3    C1 5299   2.300   0.820  13.339 -0.0844  0.6568 -0.6281
  354TMC3    C2 5300   2.385   0.915  13.303  0.0565 -0.3901 -0.1155
  354TMC3    C3 5301   2.398   0.948  13.172  0.7668  0.5703  0.5016
  354TMC3    C4 5302   2.227   0.755  13.247 -0.0161  0.5090 -0.4657
  354TMC3    C5 5303   2.242   0.791  13.115  0.9139  0.4304 -0.0005
  354TMC3    C6 5304   2.327   0.889  13.076 -0.0864  0.2636  0.4937
  354TMC3     C 5305   2.320   0.752  13.460  0.2943 -1.0598 -0.7703
  354TMC3     O 5306   2.227   0.690  13.515 -0.0080  0.4996  0.1062
  354TMC3     H 5307   2.451   0.966  13.373  1.1687 -0.8119 -0.8643
  354TMC3    H1 5308   2.185   0.658  13.271  0.2094  0.5334  0.0425
  354TMC3    H2 5309   2.353   0.910  12.973  0.4686  1.5371  0.8938
  354TMC3    C7 5310   2.252   0.678  13.029  0.1390 -0.1734 -0.7315
  354TMC3    C8 5311   2.506   1.041  13.131 -0.5829  0.0210  0.1553
  354TMC3    O1 5312   2.179   0.581  13.054  0.5145 -0.5535 -0.0864
  354TMC3    O2 5313   2.491   1.089  13.019 -0.1390  0.2791  0.8053
  355MPD2     C 5314   3.055   1.250  10.989 -0.0612  0.1942  0.0626
  355MPD2    C1 5315   3.184   1.196  10.978 -0.2173  0.4858  0.8699
  355MPD2    C2 5316   3.281   1.226  11.077 -0.0802  0.0809 -0.3764
  355MPD2    C3 5317   3.254   1.301  11.184 -0.1958 -0.0517  0.0884
  355MPD2    C4 5318   3.128   1.355  11.197 -0.9432  0.5837 -0.2183
  355MPD2    C5 5319   3.033   1.334  11.098 -0.2139 -0.0285  0.4933
  355MPD2     H 5320   3.378   1.182  11.055 -0.1535 -0.2303 -0.0750
  355MPD2    H1 5321   3.094   1.412  11.283 -1.5159 -1.5813  1.0025
  355MPD2    H2 5322   2.979   1.232  10.913  0.2061 -0.5328 -0.0247
  355MPD2    H3 5323   2.929   1.363  11.101  0.3333  1.7866  1.6126
  355MPD2     N 5324   3.351   1.335  11.285 -0.1063 -0.0031  0.0423
  355MPD2    H5 5325   3.330   1.405  11.355  3.3676  1.2360 -0.1780
  355MPD2    N1 5326   3.201   1.118  10.857  0.0623 -0.5462  0.4091
  355MPD2    H7 5327   3.115   1.088  10.812 -0.4084  2.3437 -0.5890
  356TMC3    C1 5328   3.572   1.327  11.381  0.1918 -0.6264 -0.1615
  356TMC3    C2 5329   3.697   1.286  11.365  0.6740 -0.5109 -0.6109
  356TMC3    C3 5330   3.797   1.361  11.422  0.2394 -0.1493  0.4651
  356TMC3    C4 5331   3.534   1.428  11.466  0.1125 -0.3528  0.0289
  356TMC3    C5 5332   3.633   1.501  11.525 -0.3226 -0.0602 -0.2705
  356TMC3    C6 5333   3.768   1.468  11.502 -1.0884 -0.7084 -0.1908
  356TMC3     C 5334   3.476   1.268  11.287 -0.4394 -0.4147 -0.1444
  356TMC3     O 5335   3.519   1.182  11.210  0.4277  0.6282  0.3112
  356TMC3     H 5336   3.730   1.228  11.279  1.4111  0.5747 -1.0646
  356TMC3    H1 5337   3.428   1.448  11.472  0.2816 -0.3583  2.9597
  356TMC3    H2 5338   3.845   1.522  11.556 -0.4704 -1.8590  0.1008
  356TMC3    C7 5339   3.594   1.594  11.631  0.1286  0.5323 -0.9436
  356TMC3    C8 5340   3.935   1.351  11.360 -0.4002 -0.4795 -0.1311
  356TMC3    O1 5341   3.483   1.572  11.674 -0.3163 -0.6596 -0.0923
  356TMC3    O2 5342   3.968   1.247  11.306 -0.4963  0.0306 -0.0212
  357MPD2     C 5343   2.439   0.967   0.978  0.1184  0.9365  0.0469
  357MPD2    C1 5344   2.546   0.931   1.060 -0.7243 -0.7647 -0.8311
  357MPD2    C2 5345   2.581   0.797   1.066  0.1357  0.1929  0.4039
  357MPD2    C3 5346   2.499   0.693   1.006  0.4595 -0.1893  0.5385
  357MPD2    C4 5347   2.384   0.731   0.936  0.3444  0.3960  0.2298
  357MPD2    C5 5348   2.359   0.866   0.920 -0.4215  0.6944  0.4841
  357MPD2     H 5349   2.672   0.763   1.115  0.2581 -0.2256 -0.1002
  357MPD2    H1 5350   2.323   0.653   0.891 -0.0235 -0.2898  1.9185
  357MPD2    H2 5351   2.427   1.071   0.949 -2.6435  0.3939 -0.7963
  357MPD2    H3 5352   2.273   0.897   0.861  0.1940  1.4902 -0.0066
  357MPD2     N 5353   2.523   0.550   1.016 -0.4390 -0.5338  0.5389
  357MPD2    H5 5354   2.463   0.488   0.963 -1.8769  2.1280 -0.9359
  357MPD2    N1 5355   2.620   1.029   1.121 -0.3264 -0.1604 -0.2693
  357MPD2    H7 5356   2.577   1.120   1.106 -0.7004 -0.4392 -0.9220
  358TMC3    C1 5357   2.783   1.128   1.268 -0.3423 -0.2073  0.9674
  358TMC3    C2 5358   2.794   1.243   1.192  0.1772  0.5796  0.4202
  358TMC3    C3 5359   2.903   1.324   1.207 -0.2223 -0.8644  0.1432
  358TMC3    C4 5360   2.869   1.114   1.376  0.1305 -0.3135  0.2087
  358TMC3    C5 5361   2.977   1.206   1.390  0.5482  0.7300 -0.0217
  358TMC3    C6 5362   2.999   1.309   1.298  0.2004 -0.3929  0.1250
  358TMC3     C 5363   2.710   1.010   1.226 -0.6623 -0.3806  0.3325
  358TMC3     O 5364   2.750   0.902   1.280 -0.1639 -0.5366  0.2555
  358TMC3     H 5365   2.728   1.265   1.109  0.8665  0.0942 -0.2610
  358TMC3    H1 5366   2.860   1.021   1.431 -0.4697 -1.5232 -1.9387
  358TMC3    H2 5367   3.059   1.393   1.330  2.6473 -1.9847 -0.2395
  358TMC3    C7 5368   3.079   1.164   1.484  0.4402 -0.2141  0.4960
  358TMC3    C8 5369   2.903   1.453   1.130  0.2021  0.1384 -0.6966
  358TMC3    O1 5370   3.049   1.072   1.560  0.1048 -0.1562 -0.3568
  358TMC3    O2 5371   2.799   1.489   1.078 -0.0456 -0.1440  0.0296
  359MPD2     C 5372   4.011   4.196  12.389  0.1745 -0.9433 -0.3288
  359MPD2    C1 5373   4.029   4.322  12.324 -0.6848  0.5806  0.0819
  359MPD2    C2 5374   3.988   4.438  12.395  0.9102  0.6848 -0.6532
  359MPD2    C3 5375   3.935   4.424  12.525  0.5922 -0.4497  0.3157
  359MPD2    C4 5376   3.922   4.298  12.583  0.2111 -0.1485 -0.1514
  359MPD2    C5 5377   3.957   4.188  12.514  0.0140 -1.3070 -0.0478
  359MPD2     H 5378   4.018   4.537  12.362  0.0009  0.8549 -0.9492
  359MPD2    H1 5379   3.882   4.280  12.682  2.3322  3.5664  1.3681
  359MPD2    H2 5380   4.039   4.105  12.338  1.4202 -0.1846 -0.9878
  359MPD2    H3 5381   3.937   4.093  12.563 -1.0446 -0.1793  1.7185
  359MPD2     N 5382   3.873   4.528  12.592  0.4007  0.1304  0.2017
  359MPD2    H5 5383   3.823   4.510  12.679  2.6935 -1.2664  1.2417
  359MPD2    N1 5384   4.084   4.333  12.196 -0.2083 -0.8609 -0.3161
  359MPD2    H7 5385   4.092   4.428  12.160 -0.0944 -0.1574  1.5442
  360TMC3    C1 5386   4.048   4.310  11.979 -0.0611 -0.3426 -0.0701
  360TMC3    C2 5387   4.129   4.417  11.947  0.3961  0.4086  0.9742
  360TMC3    C3 5388   4.067   4.540  11.941  0.7713  0.1252 -0.5512
  360TMC3    C4 5389   3.912   4.331  11.989 -0.4083  0.7577 -0.1490
  360TMC3    C5 5390   3.849   4.442  11.966 -0.4306  0.3456 -0.3090
  360TMC3    C6 5391   3.924   4.558  11.942 -0.3337  0.2109  0.4468
  360TMC3     C 5392   4.084   4.238  12.090  0.5646 -0.4238 -0.7540
  360TMC3     O 5393   4.050   4.124  12.090  0.7182  0.3096 -0.1667
  360TMC3     H 5394   4.231   4.409  11.985  0.9870  1.4607 -0.3784
  360TMC3    H1 5395   3.861   4.249  12.038  0.9737  0.2080  0.3551
  360TMC3    H2 5396   3.879   4.657  11.937  1.7086  1.2019  2.1621
  360TMC3    C7 5397   3.707   4.464  11.958  0.9081  0.3973 -0.2926
  360TMC3    C8 5398   4.126   4.645  11.854 -0.1546  0.0916  0.1672
  360TMC3    O1 5399   3.663   4.577  11.936 -0.0327 -0.1991  0.1366
  360TMC3    O2 5400   4.066   0.029  11.842 -0.6479  0.7950  0.3161
  361MPD2     C 5401   4.345   3.795  16.490  0.1122  0.0563  0.4880
  361MPD2    C1 5402   4.395   3.883  16.581 -0.1118  0.8018 -0.0962
  361MPD2    C2 5403   4.508   3.842  16.648 -0.5652 -0.3601  0.2742
  361MPD2    C3 5404   4.555   3.717  16.629 -0.0883 -0.6160  0.3703
  361MPD2    C4 5405   4.497   3.629  16.546  0.6862  0.0666  0.1663
  361MPD2    C5 5406   4.394   3.671  16.474 -0.2205  0.1820 -0.3850
  361MPD2     H 5407   4.555   3.913  16.714 -1.1661 -0.3562  0.7008
  361MPD2    H1 5408   4.532   3.528  16.526  0.3497  0.2350 -1.2752
  361MPD2    H2 5409   4.249   3.809  16.441 -0.2781 -0.4804  1.0775
  361MPD2    H3 5410   4.341   3.608  16.403  1.4171 -1.7205  0.0734
  361MPD2     N 5411   4.662   3.672  16.702  0.2073 -0.4737 -0.0008
  361MPD2    H5 5412   4.691   3.580  16.669 -0.7821 -0.6636 -0.3454
  361MPD2    N1 5413   4.348   4.013  16.595  0.0383  0.1896 -0.5918
  361MPD2    H7 5414   4.407   4.089  16.629 -1.1462  1.1189 -0.5967
  362TMC3    C1 5415   4.182   4.180  16.605  0.0221 -0.1814  0.0503
  362TMC3    C2 5416   4.046   4.201  16.612 -0.1147 -0.3907  0.6444
  362TMC3    C3 5417   3.995   4.308  16.560 -1.2301 -0.3571  0.4307
  362TMC3    C4 5418   4.264   4.270  16.550  0.4432 -0.3111  0.4246
  362TMC3    C5 5419   4.204   4.373  16.483  0.3433 -0.4740 -0.1462
  362TMC3    C6 5420   4.070   4.400  16.494 -0.5500 -0.0824 -0.5020
  362TMC3     C 5421   4.217   4.046  16.578  0.9156  0.0607 -0.9131
  362TMC3     O 5422   4.123   3.969  16.576 -0.1128  0.0500  0.1298
  362TMC3     H 5423   3.977   4.133  16.660 -2.4936  2.2054  0.8648
  362TMC3    H1 5424   4.371   4.252  16.546  0.1970 -1.1194 -2.4821
  362TMC3    H2 5425   4.019   4.479  16.441  1.0846  1.8401  0.7849
  362TMC3    C7 5426   4.276   4.436  16.372  0.1887  0.3074 -0.2630
  362TMC3    C8 5427   3.853   4.328  16.570 -0.1534  0.2211 -0.4286
  362TMC3    O1 5428   4.400   4.455  16.387 -0.0497  0.2090  0.0105
  362TMC3    O2 5429   3.789   4.227  16.559 -0.0172 -0.5489  0.4032
  363TMC3    C1 5430   2.891   0.375   9.233  0.2027  0.1227 -0.7304
  363TMC3    C2 5431   2.923   0.310   9.349 -0.4745  0.0664  0.4030
  363TMC3    C3 5432   2.891   0.373   9.468 -0.1406 -0.3960 -0.2315
  363TMC3    C4 5433   2.854   0.507   9.225  0.4983  0.0450 -1.2890
  363TMC3    C5 5434   2.845   0.567   9.341  0.0247 -0.7431 -0.0367
  363TMC3    C6 5435   2.855   0.507   9.465  0.3779 -0.2473 -0.1074
  363TMC3     C 5436   2.885   0.290   9.116 -0.2537 -0.2479 -0.3880
  363TMC3     O 5437   2.912   0.175   9.136  0.2760  0.4542  0.1320
  363TMC3     H 5438   2.968   0.211   9.353 -1.1369 -0.2596 -0.2243
  363TMC3    H1 5439   2.840   0.558   9.130 -1.5154  2.6667  0.4097
  363TMC3    H2 5440   2.840   0.560   9.558 -0.6254 -1.0726  0.2002
  363TMC3    C7 5441   2.811   0.708   9.342  0.4651 -0.1161  0.1847
  363TMC3    C8 5442   2.921   0.323   9.598  0.6559  0.1155  0.0743
  363TMC3    O1 5443   2.760   0.759   9.238 -0.0611 -0.1969  0.5694
  363TMC3    O2 5444   2.901   0.396   9.698  0.4891  0.1470  0.1313
  364MPD2     C 5445   2.038   0.177  10.080 -0.7042  0.5448 -0.2832
  364MPD2    C1 5446   2.050   0.306  10.129  0.2357 -0.3906 -0.3273
  364MPD2    C2 5447   2.110   0.326  10.256 -0.1968  0.5714 -0.6422
  364MPD2    C3 5448   2.171   0.217  10.316  0.1882  0.0537  0.4018
  364MPD2    C4 5449   2.156   0.085  10.275  0.1441  0.2722 -0.2920
  364MPD2    C5 5450   2.090   0.072  10.156 -0.2717  0.1617  1.0722
  364MPD2     H 5451   2.132   0.427  10.287  3.0024 -0.7329  1.2626
  364MPD2    H1 5452   2.189   4.720  10.329  0.0353  1.0088  0.9699
  364MPD2    H2 5453   1.989   0.157   9.986 -1.8403  3.7968 -0.3781
  364MPD2    H3 5454   2.095   4.694  10.118  0.2151  0.0051  1.5537
  364MPD2     N 5455   2.253   0.235  10.433  0.8441  0.7413 -0.4305
  364MPD2    H5 5456   2.287   0.145  10.463  1.9693  0.8840 -1.2611
  364MPD2    N1 5457   2.009   0.408  10.038  0.2854 -0.6033  0.2459
  364MPD2    H7 5458   1.998   0.376   9.942 -0.2360 -1.0418  0.4514
  365TMC3    C1 5459   1.969   0.626   9.955 -0.3519 -0.0307  0.2805
  365TMC3    C2 5460   2.043   0.601   9.842 -0.3720  0.2793 -0.0180
  365TMC3    C3 5461   2.076   0.704   9.762  0.1006 -0.5284 -0.1981
  365TMC3    C4 5462   1.939   0.755   9.990 -0.2516 -0.2247 -0.7844
  365TMC3    C5 5463   1.978   0.861   9.917  0.0798  0.0905  0.3202
  365TMC3    C6 5464   2.040   0.833   9.795 -0.0035 -0.0073  0.1287
  365TMC3     C 5465   2.005   0.542  10.068  1.2613 -0.2091  0.0733
  365TMC3     O 5466   2.016   0.601  10.173 -0.1963  0.0210  0.0888
  365TMC3     H 5467   2.072   0.503   9.807 -0.5275  0.6686 -1.2244
  365TMC3    H1 5468   1.877   0.765  10.078  0.5567 -0.6176 -0.1623
  365TMC3    H2 5469   2.092   0.916   9.749  0.3743  0.3864  1.2833
  365TMC3    C7 5470   2.008   0.979   9.990 -0.1648 -0.7261  0.0532
  365TMC3    C8 5471   2.099   0.686   9.619 -0.3484 -0.2175 -0.7912
  365TMC3    O1 5472   2.031   1.075   9.919  0.8322 -0.1156 -0.3040
  365TMC3    O2 5473   2.071   0.780   9.550 -0.3525 -0.1862  0.0684
  366MPD2     C 5474   0.652   2.085  15.005 -0.4716  0.4072 -0.2627
  366MPD2    C1 5475   0.655   2.114  15.136  0.0742 -0.2686 -0.2916
  366MPD2    C2 5476   0.774   2.150  15.190 -0.0221 -0.2510 -0.0485
  366MPD2    C3 5477   0.897   2.138  15.129 -0.3781  0.0309 -0.2336
  366MPD2    C4 5478   0.891   2.094  14.996  0.0010 -0.1892  0.1048
  366MPD2    C5 5479   0.770   2.069  14.936  0.4909  0.5114  0.4142
  366MPD2     H 5480   0.772   2.177  15.295 -1.0699 -0.3989 -0.0306
  366MPD2    H1 5481   0.978   2.080  14.933 -1.1274 -1.6966 -1.1238
  366MPD2    H2 5482   0.563   2.070  14.945  1.1382 -2.7205 -1.8895
  366MPD2    H3 5483   0.751   2.058  14.830  1.2447 -0.8865  0.4265
  366MPD2     N 5484   1.024   2.174  15.179 -0.8644  0.8327 -0.2584
  366MPD2    H5 5485   1.090   2.150  15.105 -0.2357 -0.4526  0.7307
  366MPD2    N1 5486   0.541   2.131  15.211  0.1338  0.6500 -0.0700
  366MPD2    H7 5487   0.559   2.145  15.309 -2.0949 -1.9289  0.7076
  367TMC3    C1 5488   0.316   2.151  15.275  0.9824  0.0602  0.0800
  367TMC3    C2 5489   0.383   2.217  15.377 -0.1771  0.3726  0.7393
  367TMC3    C3 5490   0.344   2.342  15.412 -0.1849 -0.2007  0.3531
  367TMC3    C4 5491   0.197   2.203  15.225  0.7515  0.3506 -0.8610
  367TMC3    C5 5492   0.165   2.332  15.261  0.1360 -1.1339  0.6015
  367TMC3    C6 5493   0.239   2.402  15.347 -0.0190  0.3600 -0.6700
  367TMC3     C 5494   0.412   2.124  15.167  0.3822 -0.1275 -0.1618
  367TMC3     O 5495   0.362   2.102  15.057  0.3653  0.8252  0.2461
  367TMC3     H 5496   0.466   2.169  15.428  2.3680  3.4435 -0.4969
  367TMC3    H1 5497   0.157   2.161  15.133 -0.2857 -2.8787  1.0461
  367TMC3    H2 5498   0.217   2.507  15.362  1.5374  1.0283 -2.9741
  367TMC3    C7 5499   0.046   2.405  15.216  0.2904  0.6418  0.5646
  367TMC3    C8 5500   0.400   2.403  15.538  0.5053  0.7999 -0.0401
  367TMC3    O1 5501   0.039   2.526  15.237 -0.7167  0.8757 -0.2963
  367TMC3    O2 5502   0.513   2.370  15.569  0.5148  0.4823  0.7350
  368MPD2     C 5503   2.130   3.944  13.111  0.3941 -0.1267 -0.0467
  368MPD2    C1 5504   2.150   4.020  12.995 -0.4493  0.6156 -0.2559
  368MPD2    C2 5505   2.274   4.077  12.968 -0.0826  0.1172 -0.0252
  368MPD2    C3 5506   2.384   4.034  13.039 -0.0934  0.2906 -0.5040
  368MPD2    C4 5507   2.370   3.950  13.150 -0.1592 -0.4717 -0.4659
  368MPD2    C5 5508   2.243   3.914  13.187 -0.5396 -0.4096 -0.4059
  368MPD2     H 5509   2.287   4.132  12.876  2.9739 -1.0353 -0.2573
  368MPD2    H1 5510   2.455   3.919  13.210  0.5362  2.2255 -0.0215
  368MPD2    H2 5511   2.036   3.901  13.143  0.2199  0.4288  0.1993
  368MPD2    H3 5512   2.231   3.871  13.286 -1.0688 -0.0685 -0.3208
  368MPD2     N 5513   2.519   4.068  13.000  0.3320  0.6885  0.3436
  368MPD2    H5 5514   2.590   4.029  13.062 -0.5139 -2.7036 -0.8075
  368MPD2    N1 5515   2.040   4.048  12.915 -0.3037  0.4487  0.5123
  368MPD2    H7 5516   1.955   3.998  12.939 -0.5869  1.5909  1.8916
  369TMC3    C1 5517   1.901   4.147  12.747 -0.1906  0.2055  0.3104
  369TMC3    C2 5518   1.884   4.259  12.665 -0.4734  1.0423  0.0964
  369TMC3    C3 5519   1.758   4.320  12.660  0.5256  0.1006 -0.3867
  369TMC3    C4 5520   1.796   4.081  12.806  0.2278  0.2783 -0.0355
  369TMC3    C5 5521   1.670   4.134  12.781  0.1151  0.5177  0.2785
  369TMC3    C6 5522   1.648   4.254  12.711 -0.4733 -0.2240 -0.2796
  369TMC3     C 5523   2.037   4.124  12.800 -0.9004 -0.3907 -0.0093
  369TMC3     O 5524   2.124   4.173  12.733  0.6173  0.1110  0.2745
  369TMC3     H 5525   1.968   4.309  12.618 -1.9005  2.3946 -1.0391
  369TMC3    H1 5526   1.813   3.990  12.864 -0.0768  0.0730 -0.2711
  369TMC3    H2 5527   1.549   4.298  12.713 -0.3706  0.1116 -2.0882
  369TMC3    C7 5528   1.549   4.064  12.836 -0.0090 -1.0361  0.4211
  369TMC3    C8 5529   1.740   4.414  12.544 -0.3002  0.2659  0.3255
  369TMC3    O1 5530   1.553   4.005  12.937 -0.3084 -0.0548  0.5317
  369TMC3    O2 5531   1.816   4.407  12.447 -0.3249  0.0196  0.0246
  370TMC3    C1 5532   1.328   0.000  16.063 -0.5575  0.0354 -0.4237
  370TMC3    C2 5533   1.206   4.673  16.091 -0.4204 -0.8021  0.1604
  370TMC3    C3 5534   1.148   4.569  16.026 -0.8841  0.0696 -0.3662
  370TMC3    C4 5535   1.401   4.672  15.960  0.3038  0.2571  0.1909
  370TMC3    C5 5536   1.341   4.569  15.890  0.0170 -0.4796  0.2197
  370TMC3    C6 5537   1.215   4.517  15.917 -0.3423 -0.7301  0.2181
  370TMC3     C 5538   1.366   0.104  16.154 -0.1902  0.1419 -0.2570
  370TMC3     O 5539   1.314   0.089  16.265 -0.7114  0.1897  0.0909
  370TMC3     H 5540   1.138   4.723  16.159 -1.1847 -1.6096 -0.0170
  370TMC3    H1 5541   1.500   4.712  15.939 -0.0924  1.7612  1.1355
  370TMC3    H2 5542   1.178   4.428  15.866 -0.1547 -1.4679  1.3575
  370TMC3    C7 5543   1.423   4.502  15.792 -0.0550  0.3707 -0.0231
  370TMC3    C8 5544   1.105   4.459  16.111 -0.0086 -0.0454 -0.6907
  370TMC3    O1 5545   1.537   4.543  15.781 -0.1945  0.4623  0.0032
  370TMC3    O2 5546   1.085   4.351  16.054  0.1348  0.1038  0.0242
  371TMC3    C1 5547   2.739   2.990  15.282 -0.3359  0.0719 -0.0138
  371TMC3    C2 5548   2.614   2.995  15.336  0.3026  0.4690  0.4206
  371TMC3    C3 5549   2.534   3.109  15.313 -0.1734  0.0202  0.4195
  371TMC3    C4 5550   2.787   3.094  15.207 -0.2547  0.1819 -0.1307
  371TMC3    C5 5551   2.702   3.195  15.172  0.4869 -0.9362  0.2879
  371TMC3    C6 5552   2.575   3.205  15.223 -0.7358 -0.3160 -0.4817
  371TMC3     C 5553   2.843   2.903  15.336 -0.4192  0.5353 -0.7775
  371TMC3     O 5554   2.954   2.956  15.340  0.5300  0.2398  0.1200
  371TMC3     H 5555   2.576   2.911  15.393 -0.8478  0.1965 -0.7292
  371TMC3    H1 5556   2.891   3.097  15.179 -0.6340  4.7788 -1.0355
  371TMC3    H2 5557   2.518   3.295  15.205 -0.3213  0.0582  0.0889
  371TMC3    C7 5558   2.767   3.324  15.149  0.1922  0.1917  0.3454
  371TMC3    C8 5559   2.412   3.102  15.389  0.5326 -0.2404 -0.4365
  371TMC3    O1 5560   2.709   3.424  15.184 -0.6527  0.9091  0.4582
  371TMC3    O2 5561   2.389   3.011  15.471 -0.3692  0.2908 -0.3520
  372MPD2     C 5562   1.706   4.329  13.095 -0.2882  0.7164 -0.4717
  372MPD2    C1 5563   1.816   4.263  13.135 -0.1939  0.5251  0.0196
  372MPD2    C2 5564   1.804   4.158  13.225  0.1177 -0.5563  0.6039
  372MPD2    C3 5565   1.680   4.119  13.267 -0.2730  0.3058  0.0599
  372MPD2    C4 5566   1.568   4.189  13.230  0.2418 -0.1135  0.3306
  372MPD2    C5 5567   1.585   4.293  13.141  0.4180  0.8183 -0.7316
  372MPD2     H 5568   1.893   4.109  13.264  0.0754 -1.3136 -0.2512
  372MPD2    H1 5569   1.467   4.166  13.261  0.1113  0.0735  0.0471
  372MPD2    H2 5570   1.712   4.405  13.018  0.5088  0.9893 -0.1469
  372MPD2    H3 5571   1.497   4.347  13.109 -0.2769 -0.0881 -0.3628
  372MPD2     N 5572   1.680   3.997  13.341  0.0001 -0.4785 -0.0986
  372MPD2    H5 5573   1.772   3.957  13.359  1.0825  2.4317  0.8180
  372MPD2    N1 5574   1.945   4.301  13.093  0.1660  0.4069  0.1432
  372MPD2    H7 5575   2.026   4.261  13.138 -0.7696 -0.4123  1.1061
  373TMC3    C1 5576   1.620   3.810  13.458 -0.0139 -0.1177  0.6280
  373TMC3    C2 5577   1.546   3.770  13.566 -0.3988 -0.4408 -0.5299
  373TMC3    C3 5578   1.562   3.645  13.614  0.1018 -0.3305  0.2515
  373TMC3    C4 5579   1.714   3.730  13.398 -0.6540 -0.4486  0.3731
  373TMC3    C5 5580   1.726   3.607  13.451 -0.0441  0.3041  0.4716
  373TMC3    C6 5581   1.657   3.562  13.563  0.6725  0.2147 -0.5586
  373TMC3     C 5582   1.572   3.935  13.395 -0.1340 -0.2897  0.1974
  373TMC3     O 5583   1.455   3.966  13.393  0.3459  0.0686  0.0095
  373TMC3     H 5584   1.481   3.846  13.608 -0.1098  0.4811 -1.7528
  373TMC3    H1 5585   1.761   3.757  13.304  0.9716 -0.8150  1.0789
  373TMC3    H2 5586   1.657   3.457  13.591 -0.7741  0.6902  1.1944
  373TMC3    C7 5587   1.821   3.521  13.389 -0.8946  0.9539 -0.0624
  373TMC3    C8 5588   1.477   3.617  13.731 -0.3172  0.2316 -0.0335
  373TMC3    O1 5589   1.861   3.539  13.275 -0.0699  0.7149 -0.0185
  373TMC3    O2 5590   1.368   3.671  13.715 -0.2635  0.2573 -0.7352
  374TMC3    C1 5591   2.335   3.952   9.590  0.0196 -0.3116 -0.3339
  374TMC3    C2 5592   2.417   3.929   9.702  0.4850  0.0216 -0.0216
  374TMC3    C3 5593   2.506   3.826   9.691 -0.1571  0.6115 -0.5781
  374TMC3    C4 5594   2.344   3.874   9.483  0.4817 -0.2449 -0.0138
  374TMC3    C5 5595   2.430   3.768   9.475 -0.4711  0.4157  0.6926
  374TMC3    C6 5596   2.512   3.749   9.580 -0.4712 -0.6652  0.5751
  374TMC3     C 5597   2.241   4.061   9.585  0.1688  0.1315 -0.0535
  374TMC3     O 5598   2.216   4.107   9.473  0.7190  0.3730 -0.1767
  374TMC3     H 5599   2.405   3.993   9.789 -2.5194 -1.5297  0.6899
  374TMC3    H1 5600   2.274   3.904   9.405  1.2373  1.4063 -0.0527
  374TMC3    H2 5601   2.568   3.657   9.581 -0.1657 -0.4780  0.6936
  374TMC3    C7 5602   2.442   3.691   9.350  0.1003 -0.5964  0.1087
  374TMC3    C8 5603   2.584   3.770   9.798  0.0387 -0.5833  0.3905
  374TMC3    O1 5604   2.483   3.576   9.368 -0.1119 -0.2208 -0.2712
  374TMC3    O2 5605   2.637   3.663   9.782  0.3816  0.2005  0.1613
  375MPD2     C 5606   2.936   0.388  16.961  0.5047  0.3087  0.1752
  375MPD2    C1 5607   2.853   0.347  16.854 -0.0528  0.3650 -0.3231
  375MPD2    C2 5608   2.907   0.344  16.726  0.6258 -0.5043  0.1182
  375MPD2    C3 5609   3.032   0.386  16.705 -0.3168  0.9936 -0.1025
  375MPD2    C4 5610   3.102   0.451  16.808 -0.2232  0.2773  0.6131
  375MPD2    C5 5611   3.049   0.454  16.933  0.4145  0.1239 -0.1867
  375MPD2     H 5612   2.840   0.326  16.642  3.7621 -0.0761 -2.4848
  375MPD2    H1 5613   3.199   0.497  16.796  0.1912 -0.5781  0.7162
  375MPD2    H2 5614   2.902   0.407  17.062 -1.8000  1.1007 -0.7274
  375MPD2    H3 5615   3.102   0.515  17.005  0.1123 -0.7281  0.7528
  375MPD2     N 5616   3.091   0.391  16.573 -0.6414  0.0563  0.1790
  375MPD2    H5 5617   3.161   0.463  16.559 -0.5817 -0.3018 -1.4167
  375MPD2    N1 5618   2.714   0.329  16.874 -0.2309 -0.3976  0.1099
  375MPD2    H7 5619   2.659   0.334  16.789 -0.9794 -3.4576  0.4433
  376TMC3    C1 5620   3.127   0.345  16.346 -0.5907  0.2119  0.0872
  376TMC3    C2 5621   3.259   0.391  16.353 -0.8124  0.5339  0.4063
  376TMC3    C3 5622   3.339   0.388  16.244 -0.0054 -0.3001  0.2516
  376TMC3    C4 5623   3.083   0.285  16.228 -1.4779 -0.6035  0.3653
  376TMC3    C5 5624   3.164   0.289  16.120  0.2204 -0.1010 -0.3537
  376TMC3    C6 5625   3.295   0.336  16.125 -0.8895 -0.7638  0.9370
  376TMC3     C 5626   3.045   0.332  16.457 -0.1701 -0.3562 -0.0380
  376TMC3     O 5627   2.946   0.259  16.443  0.3232 -0.1377  0.5346
  376TMC3     H 5628   3.303   0.420  16.448 -1.2443 -1.3998  1.1946
  376TMC3    H1 5629   2.984   0.242  16.220 -1.3802 -0.8549  0.4964
  376TMC3    H2 5630   3.356   0.311  16.039 -0.6332 -2.3087  1.5538
  376TMC3    C7 5631   3.109   0.268  15.988 -0.2615 -0.8048  0.1813
  376TMC3    C8 5632   3.475   0.402  16.262  0.4751 -0.4136 -0.0496
  376TMC3    O1 5633   3.125   0.355  15.904 -0.1810 -0.3786 -0.3146
  376TMC3    O2 5634   3.535   0.424  16.156  0.0143 -0.2218  0.2189
  377MPD2     C 5635   0.559   4.220  11.852  0.3675  0.0111  0.2858
  377MPD2    C1 5636   0.611   4.156  11.962  0.0521  0.3250 -0.2118
  377MPD2    C2 5637   0.548   4.162  12.085  0.2812 -0.7111 -0.0192
  377MPD2    C3 5638   0.441   4.243  12.099 -0.7521  0.2489  0.1238
  377MPD2    C4 5639   0.393   4.315  11.986  0.0534 -0.2751 -0.2190
  377MPD2    C5 5640   0.448   4.296  11.861  0.2293 -0.7769  0.2781
  377MPD2     H 5641   0.580   4.093  12.163  3.2558  1.5147  0.7187
  377MPD2    H1 5642   0.301   4.372  11.995 -0.7920 -1.7770  0.6369
  377MPD2    H2 5643   0.612   4.206  11.758 -1.7184 -3.1571 -0.4269
  377MPD2    H3 5644   0.400   4.345  11.777 -1.3031  1.9373  2.7140
  377MPD2     N 5645   0.373   4.251  12.224 -0.1336  0.1784  0.0002
  377MPD2    H5 5646   0.277   4.283  12.217 -0.4534 -0.7087  0.3312
  377MPD2    N1 5647   0.723   4.067  11.944 -0.3089  0.7394  0.6658
  377MPD2    H7 5648   0.746   4.041  11.849 -0.7774 -0.3487  0.8534
  378TMC3    C1 5649   0.996   3.819  11.799  0.2109  0.2914 -0.1487
  378TMC3    C2 5650   0.896   3.854  11.886  0.4036  0.9053 -0.7488
  378TMC3    C3 5651   0.922   3.954  11.978 -0.1358 -0.4307 -0.6767
  378TMC3    C4 5652   1.126   3.859  11.817  0.3293 -0.1892  0.0469
  378TMC3    C5 5653   1.152   3.964  11.912 -0.4397 -0.1689 -0.3090
  378TMC3    C6 5654   1.051   4.010  11.991 -0.4935 -0.6025  0.1886
  378TMC3     C 5655   0.957   3.747  11.683  0.8409 -0.3171 -0.0128
  378TMC3     O 5656   0.845   3.702  11.678 -0.3586  0.5046  0.1262
  378TMC3     H 5657   0.792   3.824  11.877  0.6095  0.6114 -2.0328
  378TMC3    H1 5658   1.207   3.816  11.759  0.7314  1.5662 -0.6729
  378TMC3    H2 5659   1.059   4.106  12.041 -0.6673  0.1178 -1.1632
  378TMC3    C7 5660   1.283   4.028  11.927 -0.4827  0.8794 -0.1652
  378TMC3    C8 5661   0.805   4.021  12.042  0.1207 -0.1475  0.2059
  378TMC3    O1 5662   1.310   4.105  12.019 -0.0262 -0.2674 -0.4273
  378TMC3    O2 5663   0.803   4.047  12.162  0.1464  0.7343  0.1293
  379MPD2     C 5664   0.978   2.774  16.473 -0.3230  1.1680 -0.9383
  379MPD2    C1 5665   1.057   2.716  16.370  0.2194 -0.2712  0.0392
  379MPD2    C2 5666   1.147   2.623  16.396  0.0706  0.3827 -0.1094
  379MPD2    C3 5667   1.168   2.582  16.520  0.1127 -0.0814 -0.2085
  379MPD2    C4 5668   1.074   2.611  16.625  0.0705  0.1566 -0.3822
  379MPD2    C5 5669   0.981   2.714  16.594  0.4842  0.2122  0.3440
  379MPD2     H 5670   1.214   2.588  16.319  1.3566  1.2589  0.6047
  379MPD2    H1 5671   1.088   2.565  16.723  1.6854  4.4921  1.4208
  379MPD2    H2 5672   0.906   2.848  16.443 -1.3437  0.0322 -1.2795
  379MPD2    H3 5673   0.917   2.738  16.678 -1.1163 -1.3919 -0.4086
  379MPD2     N 5674   1.280   2.498  16.557  0.2971 -0.3727 -0.1798
  379MPD2    H5 5675   1.278   2.467  16.653  0.5722 -1.4259 -0.5061
  379MPD2    N1 5676   1.054   2.790  16.243 -0.4231 -0.3044 -0.5726
  379MPD2    H7 5677   0.991   2.869  16.231 -1.3940 -1.0142 -0.1618
  380TMC3    C1 5678   1.043   2.820  16.008  0.7561 -0.7239 -0.7933
  380TMC3    C2 5679   1.097   2.784  15.886  0.3723  0.5379 -0.0188
  380TMC3    C3 5680   1.018   2.781  15.775 -0.4291  0.2562 -0.3506
  380TMC3    C4 5681   0.911   2.847  16.025  0.6501 -0.2460  0.4367
  380TMC3    C5 5682   0.845   2.858  15.907 -0.2870  0.8056  0.3745
  380TMC3    C6 5683   0.889   2.820  15.790 -0.0984 -0.1654  0.1527
  380TMC3     C 5684   1.119   2.770  16.124 -0.3001  0.2899  0.3621
  380TMC3     O 5685   1.216   2.700  16.100  0.3577 -0.2291  0.5715
  380TMC3     H 5686   1.200   2.750  15.887  0.0254 -0.4884  3.0987
  380TMC3    H1 5687   0.865   2.860  16.122  3.2913  0.6018  1.5560
  380TMC3    H2 5688   0.826   2.852  15.707 -0.9302  2.1384  1.6703
  380TMC3    C7 5689   0.701   2.868  15.901  0.4955  0.6545  0.2589
  380TMC3    C8 5690   1.084   2.785  15.639  0.1228 -0.2732 -0.2007
  380TMC3    O1 5691   0.654   2.940  15.982 -0.1390  0.5844 -0.3852
  380TMC3    O2 5692   1.200   2.751  15.627 -0.6138  0.6308 -0.2944
  381TMC3    C1 5693   1.222   3.638  15.896 -0.3586  0.1615 -0.2375
  381TMC3    C2 5694   1.314   3.736  15.932  0.3089  0.3141 -0.1131
  381TMC3    C3 5695   1.266   3.845  15.991 -0.0429 -0.0006  0.2580
  381TMC3    C4 5696   1.089   3.667  15.907 -0.1672  0.3501  0.4971
  381TMC3    C5 5697   1.048   3.777  15.973 -0.5368  0.3215 -0.1045
  381TMC3    C6 5698   1.134   3.878  16.011  0.5182 -0.5937  0.1098
  381TMC3     C 5699   1.264   3.549  15.790  0.4786 -0.2973  0.5700
  381TMC3     O 5700   1.183   3.464  15.753 -0.2512  0.3242 -0.3307
  381TMC3     H 5701   1.421   3.720  15.925  0.0191 -0.3566 -3.3831
  381TMC3    H1 5702   1.016   3.592  15.878  1.2905 -1.0561  0.4971
  381TMC3    H2 5703   1.093   3.964  16.064  1.1929 -0.0227 -0.2872
  381TMC3    C7 5704   0.930   3.746  16.053  0.0019 -0.2228  0.6849
  381TMC3    C8 5705   1.362   3.959  16.004  0.2988 -0.0458 -0.0704
  381TMC3    O1 5706   0.892   3.632  16.057 -0.1358 -0.1499  0.1136
  381TMC3    O2 5707   1.462   3.941  15.938  0.2599  0.0736 -0.5088
  382MPD2     C 5708   4.671   1.793   0.239 -0.0772 -0.1003  0.0584
  382MPD2    C1 5709   0.064   1.807   0.174  0.2159  0.3172  0.0542
  382MPD2    C2 5710   0.108   1.718   0.080 -0.4652  0.2429  0.1731
  382MPD2    C3 5711   0.039   1.602   0.052  0.0523  0.2035 -0.4394
  382MPD2    C4 5712   4.651   1.580   0.132 -0.2001  0.9361  0.0845
  382MPD2    C5 5713   4.606   1.675   0.218 -0.6882 -0.6827  0.3742
  382MPD2     H 5714   0.205   1.722   0.031  0.2411 -1.0397  1.4570
  382MPD2    H1 5715   4.589   1.491   0.128 -0.3457  0.9728  1.5772
  382MPD2    H2 5716   4.633   1.872   0.302 -3.7285 -1.4170 -0.4802
  382MPD2    H3 5717   4.525   1.647   0.284 -1.1228 -0.5400 -0.0982
  382MPD2     N 5718   0.086   1.494  17.673 -0.4223 -0.2798  0.0135
  382MPD2    H5 5719   0.012   1.426  17.652  1.8123 -1.8177 -2.9549
  382MPD2    N1 5720   0.157   1.907   0.205 -0.6095  0.4533  0.7249
  382MPD2    H7 5721   0.231   1.918   0.136 -0.5011 -0.5949  0.6753
  383TMC3    C1 5722   0.208   1.337  17.562  0.8305  0.7060 -0.0748
  383TMC3    C2 5723   0.108   1.296  17.477 -0.5334  0.0992  0.3052
  383TMC3    C3 5724   0.134   1.183  17.405  0.5976  0.1379 -0.2883
  383TMC3    C4 5725   0.333   1.284  17.561 -0.0082  0.4717  0.6839
  383TMC3    C5 5726   0.357   1.181  17.478  0.5123  0.6364 -0.2956
  383TMC3    C6 5727   0.259   1.132  17.399 -0.0903  0.4907  0.7756
  383TMC3     C 5728   0.207   1.460  17.630  0.5072 -1.1901 -0.0112
  383TMC3     O 5729   0.311   1.526  17.632  0.3408  0.5533 -0.6917
  383TMC3     H 5730   0.014   1.349  17.472 -0.0178  1.0245  0.4976
  383TMC3    H1 5731   0.401   1.309  17.642  1.0533 -1.5228  0.3926
  383TMC3    H2 5732   0.275   1.056  17.323 -1.1251  1.7590 -0.7121
  383TMC3    C7 5733   0.477   1.106  17.486  0.2041 -0.3260 -0.4374
  383TMC3    C8 5734   0.015   1.111  17.356 -0.1284  0.1359  0.1237
  383TMC3    O1 5735   0.474   0.996  17.429 -0.2791  0.6909 -0.2931
  383TMC3    O2 5736   4.639   1.176  17.330  0.3978 -0.4206  0.1076
  384MPD2     C 5737   1.746   2.115  11.649 -0.0011 -0.0941  0.1727
  384MPD2    C1 5738   1.715   2.030  11.756 -0.3440 -0.7565 -0.8949
  384MPD2    C2 5739   1.740   1.892  11.736  0.5435  0.8374  0.1481
  384MPD2    C3 5740   1.803   1.835  11.629  0.2207 -0.4576  0.3358
  384MPD2    C4 5741   1.833   1.925  11.528 -0.2644 -0.5844 -0.1080
  384MPD2    C5 5742   1.799   2.057  11.540  0.0387  0.1478 -0.3134
  384MPD2     H 5743   1.728   1.824  11.820 -0.0950  0.2535 -0.4264
  384MPD2    H1 5744   1.892   1.908  11.439  2.0073  0.7753  1.1363
  384MPD2    H2 5745   1.740   2.223  11.655  2.5667  0.0728 -0.3377
  384MPD2    H3 5746   1.827   2.113  11.452 -1.6139  1.7335  0.1549
  384MPD2     N 5747   1.836   1.699  11.639  0.0012 -0.1407  0.1391
  384MPD2    H5 5748   1.800   1.647  11.718  2.5609 -0.2410  1.2280
  384MPD2    N1 5749   1.664   2.080  11.879 -0.0724  0.6745 -0.2066
  384MPD2    H7 5750   1.649   2.009  11.949 -0.8399  0.7432 -0.3085
  385TMC3    C1 5751   1.920   1.494  11.579  0.0610 -0.4436 -0.3405
  385TMC3    C2 5752   2.037   1.435  11.561 -0.0501 -0.1409  0.0643
  385TMC3    C3 5753   2.087   1.369  11.663 -0.7072 -0.2159  0.3627
  385TMC3    C4 5754   1.844   1.453  11.684  0.0398 -0.2941  0.5596
  385TMC3    C5 5755   1.892   1.386  11.789 -0.1201 -0.2050 -0.4412
  385TMC3    C6 5756   2.017   1.344  11.776 -0.4417  0.0032  0.2309
  385TMC3     C 5757   1.907   1.631  11.541  0.1774 -0.1765 -0.0588
  385TMC3     O 5758   1.977   1.677  11.451 -0.0383 -0.2285  0.3240
  385TMC3     H 5759   2.105   1.464  11.481  1.2683 -0.4160  1.0962
  385TMC3    H1 5760   1.740   1.484  11.687  0.4536  1.1962 -0.4442
  385TMC3    H2 5761   2.056   1.278  11.853  0.3937  0.3322  0.0869
  385TMC3    C7 5762   1.845   1.453  11.911  0.6185  0.2512  0.3249
  385TMC3    C8 5763   2.201   1.281  11.639 -0.0578 -0.8311  0.1311
  385TMC3    O1 5764   1.726   1.473  11.917 -0.0873 -0.4788  0.0283
  385TMC3    O2 5765   2.281   1.264  11.730 -0.0126  0.3127  0.2201
  386TMC3    C1 5766   2.453   3.913  11.454 -0.5972  0.4018  0.2475
  386TMC3    C2 5767   2.474   3.838  11.344 -0.0067 -0.0082  0.0484
  386TMC3    C3 5768   2.407   3.879  11.231  0.5412  0.1197  0.2093
  386TMC3    C4 5769   2.368   4.021  11.455 -0.2713 -0.0999 -0.1205
  386TMC3    C5 5770   2.291   4.042  11.345 -0.6278 -0.2722  0.0234
  386TMC3    C6 5771   2.318   3.979  11.231  0.1092  0.6033  0.0826
  386TMC3     C 5772   2.538   3.904  11.575  0.3084 -0.0155  0.4417
  386TMC3     O 5773   2.536   3.997  11.654  0.5855  0.6044 -0.7738
  386TMC3     H 5774   2.546   3.757  11.348  0.1736  0.2292  1.9355
  386TMC3    H1 5775   2.350   4.089  11.538 -2.3972 -0.8485  0.0491
  386TMC3    H2 5776   2.263   4.005  11.141  0.8364 -0.9713 -0.8136
  386TMC3    C7 5777   2.170   4.111  11.367  0.3702 -0.0589 -0.3247
  386TMC3    C8 5778   2.411   3.797  11.112  0.5471  0.0327 -0.0013
  386TMC3    O1 5779   2.156   4.165  11.477 -0.0705 -0.6505  0.7181
  386TMC3    O2 5780   2.335   3.831  11.023 -0.4934 -0.3544 -0.9375
  387MPD2     C 5781   4.499   4.286   9.542  0.4947 -0.7072  0.3963
  387MPD2    C1 5782   4.618   4.298   9.615  0.4035 -1.0203 -0.1074
  387MPD2    C2 5783   4.710   4.195   9.595 -0.2301 -0.1042 -0.3478
  387MPD2    C3 5784   4.682   4.079   9.529 -0.2688 -0.7337  0.9027
  387MPD2    C4 5785   4.564   4.066   9.463  0.3481  0.0876  0.2721
  387MPD2    C5 5786   4.476   4.170   9.463 -0.1617  0.5213 -0.8461
  387MPD2     H 5787   0.073   4.199   9.661  0.6627 -1.2970 -1.4525
  387MPD2    H1 5788   4.539   3.982   9.399  1.2169 -0.1231  0.2051
  387MPD2    H2 5789   4.441   4.377   9.544 -2.7801 -2.7796 -0.9422
  387MPD2    H3 5790   4.393   4.166   9.394 -1.9416  2.2431  1.1912
  387MPD2     N 5791   0.062   3.980   9.525  0.1995 -0.0826  0.3702
  387MPD2    H5 5792   0.152   4.018   9.552  0.8096 -1.2696 -0.0170
  387MPD2    N1 5793   4.640   4.403   9.707  0.4172  0.4427 -0.4595
  387MPD2    H7 5794   0.012   4.423   9.738 -0.3518  3.1066  0.2135
  388TMC3    C1 5795   4.627   4.539   9.889 -0.5028  0.1654  0.3910
  388TMC3    C2 5796   4.561   4.630   9.964  0.6445  0.5903 -0.5417
  388TMC3    C3 5797   4.610   4.662  10.086  0.5951 -0.0265  0.0441
  388TMC3    C4 5798   0.011   4.470   9.937 -0.0713  0.1790  0.6971
  388TMC3    C5 5799   0.059   4.507  10.060  0.2641  0.1425  0.4839
  388TMC3    C6 5800   0.004   4.610  10.131  0.7111  0.4919  0.1808
  388TMC3     C 5801   4.551   4.482   9.779  0.2470 -0.3487  0.3123
  388TMC3     O 5802   4.428   4.491   9.778  0.1193  0.2074 -0.0430
  388TMC3     H 5803   4.483   4.696   9.928 -0.8690 -0.6443  0.4929
  388TMC3    H1 5804   0.044   4.376   9.894  0.3170  0.2246  0.9015
  388TMC3    H2 5805   0.051   4.650  10.220  2.3037 -0.3247 -0.2898
  388TMC3    C7 5806   0.140   4.406  10.133 -0.3885 -0.2877 -0.3295
  388TMC3    C8 5807   4.521   0.020  10.176 -0.6528  0.4035  0.6403
  388TMC3    O1 5808   0.114   4.396  10.253  0.2502  0.2288  0.4207
  388TMC3    O2 5809   4.438   0.089  10.115  0.0239 -0.1480  0.0303
  389MPD2     C 5810   4.362   2.715  10.942 -0.4485  0.3723  0.4205
  389MPD2    C1 5811   4.290   2.616  10.875  0.1345 -0.0691  1.0488
  389MPD2    C2 5812   4.224   2.521  10.960 -0.2363  0.1479  0.0003
  389MPD2    C3 5813   4.235   2.523  11.098 -0.3985  0.0252 -0.2946
  389MPD2    C4 5814   4.306   2.628  11.156 -0.3986 -0.0617  0.2408
  389MPD2    C5 5815   4.364   2.728  11.078 -0.0694  0.6301  0.2137
  389MPD2     H 5816   4.174   2.444  10.901 -1.7826  0.7204  0.5706
  389MPD2    H1 5817   4.335   2.635  11.260 -0.4973  2.0114  0.1394
  389MPD2    H2 5818   4.417   2.786  10.881 -2.2971  1.1901 -0.3037
  389MPD2    H3 5819   4.413   2.813  11.124 -1.4260  0.9448  1.0876
  389MPD2     N 5820   4.190   2.415  11.185 -0.4925 -1.0157  0.3116
  389MPD2    H5 5821   4.218   2.422  11.282  0.4148  4.0145 -0.2867
  389MPD2    N1 5822   4.301   2.598  10.735 -0.3644  0.4097  0.0605
  389MPD2    H7 5823   4.374   2.656  10.697  0.8612 -2.5760 -2.1462
  390TMC3    C1 5824   4.088   2.218  11.256  0.2831 -0.0629  0.3392
  390TMC3    C2 5825   4.049   2.086  11.229 -0.8877 -0.2614  0.2647
  390TMC3    C3 5826   3.969   2.018  11.315  0.3782  0.3610  0.0025
  390TMC3    C4 5827   4.040   2.286  11.369  0.8004 -0.9151 -0.4692
  390TMC3    C5 5828   3.980   2.211  11.460  0.5536 -0.0274  0.1631
  390TMC3    C6 5829   3.942   2.081  11.433  0.1935 -0.3920  0.1170
  390TMC3     C 5830   4.127   2.296  11.142  0.6214 -0.2860  0.4903
  390TMC3     O 5831   4.092   2.262  11.031  0.1455  0.0136 -0.7598
  390TMC3     H 5832   4.080   2.049  11.132 -1.3249  0.8823 -0.3106
  390TMC3    H1 5833   4.067   2.390  11.386  1.0762 -1.3878  1.9248
  390TMC3    H2 5834   3.878   2.029  11.504 -1.6321  2.8530  0.8932
  390TMC3    C7 5835   3.918   2.298  11.560  0.0760  0.0131  0.3283
  390TMC3    C8 5836   3.902   1.907  11.256 -0.0932  0.7854  0.0259
  390TMC3    O1 5837   3.963   2.414  11.582 -0.4160 -0.7284  0.3081
  390TMC3    O2 5838   3.936   1.882  11.136 -0.2149 -0.4424  0.0638
  391MPD2     C 5839   2.828   4.170  11.389  0.0199 -0.0405 -0.1602
  391MPD2    C1 5840   2.946   4.199  11.327 -0.3622  0.1095 -0.4404
  391MPD2    C2 5841   2.953   4.200  11.189  0.6808  0.1230 -0.6477
  391MPD2    C3 5842   2.847   4.161  11.117 -0.4889 -0.0282 -0.2746
  391MPD2    C4 5843   2.730   4.123  11.174 -0.4360  0.5879 -0.4324
  391MPD2    C5 5844   2.718   4.130  11.310 -0.2463 -0.3725  0.4226
  391MPD2     H 5845   3.045   4.224  11.136  1.5584 -0.0828  0.7975
  391MPD2    H1 5846   2.649   4.081  11.115 -2.5498  2.9392  0.7932
  391MPD2    H2 5847   2.817   4.172  11.497 -1.9815  2.3103 -0.4094
  391MPD2    H3 5848   2.628   4.094  11.358 -1.2750  2.1032  0.3525
  391MPD2     N 5849   2.872   4.163  10.979 -0.0817  0.5010 -0.2651
  391MPD2    H5 5850   2.960   4.203  10.948 -0.6791  2.4612  0.5532
  391MPD2    N1 5851   3.055   4.236  11.407  0.4246 -0.1986 -0.0680
  391MPD2    H7 5852   3.040   4.232  11.508 -0.3385 -0.1459 -0.1755
  392TMC3    C1 5853   2.817   4.180  10.745 -0.2817  0.1104  0.4709
  392TMC3    C2 5854   2.755   4.114  10.633 -0.1285 -0.3088 -0.4676
  392TMC3    C3 5855   2.819   4.120  10.513  0.4958  1.1078  0.0288
  392TMC3    C4 5856   2.923   4.268  10.733 -0.0615  0.3247 -0.4444
  392TMC3    C5 5857   2.969   4.288  10.609  0.1873  0.0754  0.5746
  392TMC3    C6 5858   2.927   4.210  10.505  0.4418  0.4617 -0.0643
  392TMC3     C 5859   2.774   4.141  10.880  0.1695 -0.3990 -0.0908
  392TMC3     O 5860   2.662   4.095  10.891  0.2572  0.2008 -0.3614
  392TMC3     H 5861   2.673   4.044  10.646 -0.4892  0.0528 -0.7619
  392TMC3    H1 5862   2.961   4.333  10.812 -0.9419  0.0858  0.1738
  392TMC3    H2 5863   2.951   4.224  10.400  0.5182  1.2175  0.0532
  392TMC3    C7 5864   3.094   4.363  10.612 -0.0948  0.4981  0.3594
  392TMC3    C8 5865   2.830   4.000  10.440  0.0586 -0.4901 -0.4137
  392TMC3    O1 5866   3.144   4.401  10.720  0.1006 -0.3861  0.2504
  392TMC3    O2 5867   2.859   3.898  10.509 -0.3399  1.0683 -0.1419
  393TMC3    C1 5868   2.244   1.615  10.433 -0.0811 -0.2215  0.2140
  393TMC3    C2 5869   2.194   1.572  10.554 -0.1122  0.7339 -0.1410
  393TMC3    C3 5870   2.273   1.505  10.639 -0.0117 -1.0891 -0.0004
  393TMC3    C4 5871   2.360   1.575  10.378  0.6447  0.0868  0.0596
  393TMC3    C5 5872   2.436   1.499  10.467 -0.4228  0.5437  0.2028
  393TMC3    C6 5873   2.398   1.469  10.596 -0.0834  0.4083  0.3116
  393TMC3     C 5874   2.169   1.720  10.370 -0.7814  0.5298  0.2046
  393TMC3     O 5875   2.057   1.746  10.408 -0.0277  0.7651  0.0850
  393TMC3     H 5876   2.102   1.621  10.584 -0.5785  0.1111 -0.5738
  393TMC3    H1 5877   2.376   1.597  10.273 -1.7300  3.3947  0.3682
  393TMC3    H2 5878   2.465   1.410  10.658 -0.1871  1.1512  1.1272
  393TMC3    C7 5879   2.559   1.435  10.418 -0.3644  0.4136  0.0713
  393TMC3    C8 5880   2.208   1.409  10.737  0.3050 -0.0051 -0.1188
  393TMC3    O1 5881   2.595   1.337  10.477 -0.2668  0.1809  1.0164
  393TMC3    O2 5882   2.261   1.296  10.741  0.2241  0.4672 -0.2773
  394TMC3    C1 5883   4.238   2.565  10.515 -0.8924  0.5972 -0.1428
  394TMC3    C2 5884   4.131   2.582  10.437  0.3883 -0.5642 -0.5240
  394TMC3    C3 5885   4.154   2.605  10.304  0.8514 -0.1168  0.5795
  394TMC3    C4 5886   4.368   2.564  10.467 -0.1527 -0.4326  0.0216
  394TMC3    C5 5887   4.386   2.590  10.330 -0.1278 -0.1988 -0.2299
  394TMC3    C6 5888   4.280   2.612  10.245  0.1868  0.6017 -0.1361
  394TMC3     C 5889   4.217   2.529  10.648 -0.7828 -0.5831 -0.1826
  394TMC3     O 5890   4.116   2.464  10.671 -0.2362 -0.5210 -0.4596
  394TMC3     H 5891   4.032   2.576  10.479  0.5876 -1.7331 -0.2399
  394TMC3    H1 5892   4.442   2.543  10.544 -0.3305 -0.4271  0.1921
  394TMC3    H2 5893   4.297   2.627  10.139  1.9892 -2.5074 -0.2995
  394TMC3    C7 5894   4.505   2.668  10.292 -0.0661 -0.5206  0.3423
  394TMC3    C8 5895   4.045   2.569  10.210  0.4682  0.5039 -0.7211
  394TMC3    O1 5896   4.498   2.752  10.206  0.3351 -0.7443 -0.5995
  394TMC3    O2 5897   3.942   2.632  10.223  0.0575  0.0342  0.2219
  395TMC3    C1 5898   4.094   0.186  14.444 -0.1287 -0.4142 -0.5892
  395TMC3    C2 5899   4.001   0.232  14.353 -0.3807 -0.7439  0.0612
  395TMC3    C3 5900   4.013   0.356  14.298 -0.8766  0.8786 -0.1180
  395TMC3    C4 5901   4.204   0.257  14.464  0.0678  0.2061  0.0426
  395TMC3    C5 5902   4.234   0.359  14.382  0.2140 -0.3264 -0.0727
  395TMC3    C6 5903   4.138   0.413  14.303  0.2886 -0.5046  0.1259
  395TMC3     C 5904   4.053   0.079  14.533 -0.0437 -0.1613  0.0473
  395TMC3     O 5905   3.932   0.061  14.528  0.0543 -0.1227  0.3443
  395TMC3     H 5906   3.913   0.170  14.338 -2.7104  2.2652  1.3250
  395TMC3    H1 5907   4.277   0.226  14.538 -0.0329  0.5217  0.2764
  395TMC3    H2 5908   4.145   0.515  14.267  0.2375 -0.2079  0.9433
  395TMC3    C7 5909   4.323   0.463  14.427 -0.7324  0.7377  0.6012
  395TMC3    C8 5910   3.909   0.431  14.237  0.1484 -0.2983  0.4916
  395TMC3    O1 5911   4.272   0.570  14.462  0.4271  0.0366 -0.2171
  395TMC3    O2 5912   3.938   0.536  14.176  0.3594  0.1668 -0.2393
  396MPD2     C 5913   3.684   1.436  17.058  0.7461 -0.3191  0.0216
  396MPD2    C1 5914   3.739   1.550  17.113 -0.2004  0.7268  0.4387
  396MPD2    C2 5915   3.688   1.671  17.070  0.4267  0.4160 -0.7223
  396MPD2    C3 5916   3.610   1.687  16.962  0.3183  0.8655 -0.1463
  396MPD2    C4 5917   3.564   1.573  16.901 -0.4084  0.6014 -0.7595
  396MPD2    C5 5918   3.595   1.449  16.955  0.1528 -0.3799 -0.5460
  396MPD2     H 5919   3.710   1.758  17.131  0.8989 -1.0298  1.1569
  396MPD2    H1 5920   3.484   1.578  16.828 -2.0048 -1.2781  0.8809
  396MPD2    H2 5921   3.708   1.338  17.097  0.2948 -0.3992  0.1038
  396MPD2    H3 5922   3.546   1.361  16.916 -0.9567  0.6603 -1.4721
  396MPD2     N 5923   3.567   1.815  16.915 -0.1422  0.5344  0.3729
  396MPD2    H5 5924   3.615   1.892  16.961 -0.2107  1.1511 -0.5969
  396MPD2    N1 5925   3.839   1.525  17.213  0.7035 -0.1035 -0.0697
  396MPD2    H7 5926   3.865   1.428  17.227  1.7150  0.1454 -0.1842
  397TMC3    C1 5927   4.019   1.580  17.347  0.4958 -0.1363  0.0845
  397TMC3    C2 5928   4.099   1.518  17.263 -0.0713  0.8261  0.3986
  397TMC3    C3 5929   4.143   1.393  17.294 -1.2973 -0.3144  0.0562
  397TMC3    C4 5930   3.985   1.522  17.463 -0.6340  0.9483  0.1749
  397TMC3    C5 5931   4.043   1.401  17.499 -0.1840 -1.0462 -0.1549
  397TMC3    C6 5932   4.136   1.339  17.418  0.3327 -0.1130  0.5451
  397TMC3     C 5933   3.902   1.623  17.278  1.0925  0.6842  0.2217
  397TMC3     O 5934   3.856   1.725  17.324  0.6331 -0.6595 -0.1681
  397TMC3     H 5935   4.087   1.541  17.158  0.4949 -1.5809 -0.2076
  397TMC3    H1 5936   3.903   1.570  17.516 -1.2533  0.0071  0.0597
  397TMC3    H2 5937   4.159   1.237  17.446 -0.7223 -0.7681 -0.9545
  397TMC3    C7 5938   3.966   1.310  17.582 -0.3290 -0.6995  0.5233
  397TMC3    C8 5939   4.133   1.306  17.176  0.1350 -0.6679  0.3265
  397TMC3    O1 5940   3.981   1.188  17.581  0.3893 -0.1093 -0.4438
  397TMC3    O2 5941   4.080   1.351  17.076 -0.1778 -0.6925 -0.0120
  398MPD2     C 5942   1.369   2.334  17.652  0.6189  0.7866 -0.1855
  398MPD2    C1 5943   1.467   2.236  17.667  0.2803 -0.0350 -0.1975
  398MPD2    C2 5944   1.598   2.263  17.641 -0.9567  0.1026 -0.9982
  398MPD2    C3 5945   1.634   2.387  17.592  0.0666  0.0812  0.1414
  398MPD2    C4 5946   1.531   2.484  17.576  0.5613  0.0040 -0.2524
  398MPD2    C5 5947   1.405   2.454  17.608 -0.3787  0.5010 -0.1053
  398MPD2     H 5948   1.679   2.200  17.675 -2.4015  0.2795  2.8411
  398MPD2    H1 5949   1.551   2.581  17.533 -2.9600  0.7034 -0.3093
  398MPD2    H2 5950   1.270   2.311  17.690  0.3801  0.9739 -0.6878
  398MPD2    H3 5951   1.337   2.536  17.587 -0.4003  0.0417 -1.8629
  398MPD2     N 5952   1.773   2.418  17.569  0.3933  0.9633 -0.0537
  398MPD2    H5 5953   1.838   2.340  17.573  1.1772  1.8284  3.5551
  398MPD2    N1 5954   1.457   2.113   0.048 -0.7077 -0.2084  0.3410
  398MPD2    H7 5955   1.545   2.063   0.054 -1.1481 -0.9469  0.6869
  399TMC3    C1 5956   1.336   1.942   0.165 -0.1263  0.4933 -0.4255
  399TMC3    C2 5957   1.449   1.863   0.180  0.4675 -1.2708  0.0167
  399TMC3    C3 5958   1.429   1.740   0.230  0.0385 -0.5010 -0.4524
  399TMC3    C4 5959   1.210   1.896   0.201 -0.2870  0.0932 -0.0010
  399TMC3    C5 5960   1.193   1.772   0.253  0.4330  0.2280 -0.7489
  399TMC3    C6 5961   1.303   1.690   0.258 -0.1512 -0.6768 -0.3341
  399TMC3     C 5962   1.334   2.062   0.085  0.0756  1.3319 -0.1035
  399TMC3     O 5963   1.224   2.107   0.050  0.2839  0.6403  0.7501
  399TMC3     H 5964   1.549   1.894   0.151  0.0045  0.0018 -0.2338
  399TMC3    H1 5965   1.128   1.966   0.184  0.8193  0.7350 -2.6080
  399TMC3    H2 5966   1.283   1.588   0.289  0.8162 -1.5751 -2.6704
  399TMC3    C7 5967   1.062   1.725   0.286 -0.1300 -0.2334 -0.0813
  399TMC3    C8 5968   1.541   1.640   0.210  0.0640 -0.1541  0.1579
  399TMC3    O1 5969   1.040   1.605   0.288  0.0474  0.0651 -0.2022
  399TMC3    O2 5970   1.618   1.663   0.118  0.2252 -1.2786  0.4050
  400TMC3    C1 5971   0.143   0.652  16.994  0.2999  0.6078  0.0556
  400TMC3    C2 5972   0.090   0.657  16.866 -0.0969  0.0866  0.3473
  400TMC3    C3 5973   0.060   0.779  16.804 -0.3830  0.3689  0.4746
  400TMC3    C4 5974   0.182   0.763  17.058  0.0108 -0.3108  0.3271
  400TMC3    C5 5975   0.154   0.886  16.997 -0.1336  0.4526 -0.2742
  400TMC3    C6 5976   0.089   0.894  16.873  0.7459  0.4245  0.5828
  400TMC3     C 5977   0.153   0.517  17.051 -0.2200  0.1614 -0.4708
  400TMC3     O 5978   0.129   0.425  16.976 -0.1295 -0.7441 -0.0681
  400TMC3     H 5979   0.046   0.571  16.818  0.5843  0.6460 -1.2744
  400TMC3    H1 5980   0.247   0.760  17.144 -0.1364  1.4792  0.5107
  400TMC3    H2 5981   0.077   0.986  16.817 -1.6961 -0.7553 -0.8309
  400TMC3    C7 5982   0.226   1.005  17.041  0.8118 -0.7077  0.2208
  400TMC3    C8 5983   0.006   0.780  16.671 -0.0790  0.1198 -0.8103
  400TMC3    O1 5984   0.338   0.989  17.096  0.1337 -0.1390 -0.3363
  400TMC3    O2 5985   4.681   0.890  16.633 -0.1911  0.7751 -0.1984
  401MPD2     C 5986   2.353   4.415   0.367 -0.5811 -0.2599 -0.6175
  401MPD2    C1 5987   2.423   4.437   0.483  0.0247  0.3588 -0.2569
  401MPD2    C2 5988   2.411   4.354   0.588  0.2634  0.2977 -1.2542
  401MPD2    C3 5989   2.326   4.248   0.591 -0.3290 -0.7253 -0.1722
  401MPD2    C4 5990   2.253   4.225   0.479  0.8386 -0.9547  0.0435
  401MPD2    C5 5991   2.266   4.309   0.366 -0.5194 -0.2344 -0.4988
  401MPD2     H 5992   2.464   4.380   0.679  0.1206 -0.7246 -0.8848
  401MPD2    H1 5993   2.179   4.146   0.481 -1.6557  1.3758 -0.9871
  401MPD2    H2 5994   2.344   4.480   0.281  0.3995  0.8788  0.1497
  401MPD2    H3 5995   2.213   4.280   0.276 -1.0006  2.7169 -1.1412
  401MPD2     N 5996   2.320   4.156   0.698  0.3871 -0.8629 -0.3889
  401MPD2    H5 5997   2.279   4.064   0.686 -0.6906 -0.4810  0.3146
  401MPD2    N1 5998   2.517   4.543   0.498  0.9705 -0.3402  0.8422
  401MPD2    H7 5999   2.563   4.543   0.588  0.2868 -0.9466  1.1908
  402TMC3    C1 6000   2.375   4.091   0.919 -0.3820 -0.1133 -0.7096
  402TMC3    C2 6001   2.401   4.141   1.046 -0.5091  0.0754  0.2824
  402TMC3    C3 6002   2.488   4.066   1.118  0.2354  0.0976  0.6173
  402TMC3    C4 6003   2.424   3.974   0.870 -1.1788 -0.1404  0.4569
  402TMC3    C5 6004   2.527   3.916   0.934 -0.2545  0.1664  0.3820
  402TMC3    C6 6005   2.557   3.966   1.059 -0.1531  0.7493 -0.4412
  402TMC3     C 6006   2.351   4.195   0.824  0.0133  0.2056  0.1402
  402TMC3     O 6007   2.359   4.313   0.859 -0.0802 -0.0980  0.5773
  402TMC3     H 6008   2.384   4.245   1.074 -0.1065  0.3754 -0.5777
  402TMC3    H1 6009   2.399   3.929   0.774  0.5089 -0.2006  0.0463
  402TMC3    H2 6010   2.639   3.922   1.114  1.1567  1.7924 -1.5372
  402TMC3    C7 6011   2.587   3.803   0.864  0.2122  0.1521 -0.3945
  402TMC3    C8 6012   2.576   4.141   1.201  0.4642 -0.4893  0.2416
  402TMC3    O1 6013   2.515   3.733   0.794  0.0596  0.1683 -0.4645
  402TMC3    O2 6014   2.694   4.101   1.204  0.8122  0.0719 -0.4471
  403MPD2     C 6015   1.276   2.690  13.405  0.0422  0.2901 -0.4313
  403MPD2    C1 6016   1.335   2.569  13.442 -0.0579  0.7801  0.0785
  403MPD2    C2 6017   1.436   2.578  13.539 -0.1310 -0.7762  0.3193
  403MPD2    C3 6018   1.459   2.695  13.605 -0.4358 -0.2746  0.4559
  403MPD2    C4 6019   1.396   2.810  13.568  0.6668  0.1933  0.5732
  403MPD2    C5 6020   1.307   2.812  13.463 -0.1312 -0.0535  0.2970
  403MPD2     H 6021   1.495   2.492  13.570  0.4756 -1.3903 -2.4999
  403MPD2    H1 6022   1.423   2.903  13.617  1.3292  0.8040 -0.9430
  403MPD2    H2 6023   1.202   2.699  13.326 -0.1259 -0.6812 -0.3752
  403MPD2    H3 6024   1.261   2.908  13.441  0.3687 -0.3330 -1.9417
  403MPD2     N 6025   1.549   2.689  13.717  0.0034  0.7505  0.1540
  403MPD2    H5 6026   1.576   2.601  13.759  0.4273  0.9291  0.2596
  403MPD2    N1 6027   1.296   2.449  13.373  0.4830  0.2378 -0.7098
  403MPD2    H7 6028   1.232   2.449  13.294 -0.2381  0.8659 -0.1204
  404TMC3    C1 6029   1.280   2.217  13.337 -0.0916  0.2893  0.1972
  404TMC3    C2 6030   1.275   2.101  13.407 -0.4826 -0.2450  0.0509
  404TMC3    C3 6031   1.235   1.984  13.343 -0.2161 -0.5822  0.4171
  404TMC3    C4 6032   1.258   2.228  13.198  0.1095 -0.3502 -0.0595
  404TMC3    C5 6033   1.225   2.107  13.136 -0.8618  0.3479 -0.1518
  404TMC3    C6 6034   1.212   1.989  13.209  0.9300  0.0782  0.4587
  404TMC3     C 6035   1.340   2.325  13.414  0.5383  0.3417 -0.6301
  404TMC3     O 6036   1.406   2.289  13.512 -0.0235  0.1982  0.1307
  404TMC3     H 6037   1.301   2.096  13.512  1.2770 -0.2744 -0.3944
  404TMC3    H1 6038   1.278   2.316  13.138 -2.4543  0.3581  0.1574
  404TMC3    H2 6039   1.175   1.901  13.157 -1.2844  1.2007  0.1293
  404TMC3    C7 6040   1.202   2.115  12.991 -0.1027 -0.0667 -0.1196
  404TMC3    C8 6041   1.290   1.862  13.383  0.1589  0.4246 -0.0133
  404TMC3    O1 6042   1.241   2.221  12.943  0.2583  0.4724 -0.0411
  404TMC3    O2 6043   1.346   1.789  13.303  0.4577  0.5309  0.4955
  405MPD2     C 6044   1.955   3.102  14.741  0.3299 -0.0712 -0.5193
  405MPD2    C1 6045   1.930   3.002  14.649 -0.4333 -0.2942 -1.2415
  405MPD2    C2 6046   1.838   3.040  14.552  0.6594 -0.1540  0.1660
  405MPD2    C3 6047   1.759   3.152  14.558  0.1503 -0.0246  0.0434
  405MPD2    C4 6048   1.783   3.246  14.655 -0.2537  0.4836  0.1661
  405MPD2    C5 6049   1.886   3.219  14.746  0.5035 -0.1785  0.7042
  405MPD2     H 6050   1.809   2.973  14.473  0.4220  1.4107 -1.0822
  405MPD2    H1 6051   1.730   3.340  14.664 -2.2904 -0.5768 -0.7044
  405MPD2    H2 6052   2.032   3.087  14.816  1.8826  2.6944 -1.5567
  405MPD2    H3 6053   1.924   3.291  14.818 -1.7184  1.0268  0.6897
  405MPD2     N 6054   1.662   3.168  14.460 -0.4156  0.0299  0.0681
  405MPD2    H5 6055   1.653   3.100  14.385 -0.4460 -1.4774  1.4297
  405MPD2    N1 6056   1.989   2.874  14.659 -0.1225  0.3108 -0.1456
  405MPD2    H7 6057   2.057   2.852  14.731 -3.1241 -1.9018  1.9967
  406TMC3    C1 6058   1.358   3.299  14.168 -0.0363 -0.4263 -0.7746
  406TMC3    C2 6059   1.340   3.170  14.141  0.0758  0.7241 -1.1906
  406TMC3    C3 6060   1.387   3.077  14.224 -1.1573  0.1943  0.9010
  406TMC3    C4 6061   1.425   3.341  14.275  0.1716 -0.1262  0.0069
  406TMC3    C5 6062   1.477   3.236  14.348  0.1392  0.1744 -0.1535
  406TMC3    C6 6063   1.457   3.104  14.333  0.0208 -0.4570  0.4697
  406TMC3     C 6064   1.298   3.395  14.077 -0.3598 -0.1372 -0.2724
  406TMC3     O 6065   1.306   3.365  13.960  0.1489 -0.0050  0.3166
  406TMC3     H 6066   1.290   3.131  14.053  1.0629  0.1580 -1.4986
  406TMC3    H1 6067   1.437   3.441  14.314  4.5372 -0.0709 -1.4578
  406TMC3    H2 6068   1.492   3.030  14.403 -0.2713 -2.2118 -1.2486
  406TMC3    C7 6069   1.579   3.276  14.439  0.2191  0.7187  0.0409
  406TMC3    C8 6070   1.370   2.931  14.196 -0.2784  0.2448  0.7393
  406TMC3    O1 6071   1.589   3.394  14.475 -0.1258  0.3084 -0.4352
  406TMC3    O2 6072   1.274   2.889  14.132  0.0244 -0.3165  0.2616
  407MPD2     C 6073   4.169   3.726   9.367 -0.3891 -0.2774  0.8044
  407MPD2    C1 6074   4.301   3.730   9.401 -0.0394  0.1162  0.2565
  407MPD2    C2 6075   4.343   3.799   9.511 -0.2961  0.8136  0.0182
  407MPD2    C3 6076   4.250   3.858   9.599 -0.0603  0.5369  0.1879
  407MPD2    C4 6077   4.118   3.851   9.564  0.0607 -0.4654 -0.1535
  407MPD2    C5 6078   4.084   3.789   9.455  0.4331  1.1260 -0.0358
  407MPD2     H 6079   4.450   3.812   9.521 -0.2152  0.8274 -0.9283
  407MPD2    H1 6080   4.043   3.901   9.623 -0.4974  0.0412 -1.3069
  407MPD2    H2 6081   4.140   3.661   9.285 -2.1693  0.9885  0.4463
  407MPD2    H3 6082   3.978   3.796   9.432  0.4983 -0.8972 -0.9339
  407MPD2     N 6083   4.287   3.917   9.718 -0.6077  0.0441 -0.1540
  407MPD2    H5 6084   4.220   3.972   9.772 -1.5093  0.4766 -1.7218
  407MPD2    N1 6085   4.406   3.679   9.326 -0.1328 -0.1060 -0.1806
  407MPD2    H7 6086   4.498   3.710   9.356 -0.7584  0.6786  0.9542
  408TMC3    C1 6087   4.533   3.534   9.188 -0.0600  0.3867  0.3211
  408TMC3    C2 6088   4.627   3.629   9.186  0.3843 -0.2051  0.0780
  408TMC3    C3 6089   0.030   3.591   9.136  0.1378 -0.4707  1.2136
  408TMC3    C4 6090   4.549   3.402   9.160  0.0529  0.1319 -0.0402
  408TMC3    C5 6091   4.681   3.369   9.130  0.3160  0.5942  0.0823
  408TMC3    C6 6092   0.058   3.461   9.107  0.3460 -1.2025  0.3435
  408TMC3     C 6093   4.396   3.576   9.241 -0.2538 -0.7338  0.2594
  408TMC3     O 6094   4.309   3.492   9.225  1.0278  0.0411 -0.1197
  408TMC3     H 6095   4.603   3.734   9.197  3.5511  0.8488 -3.2231
  408TMC3    H1 6096   4.471   3.328   9.173  0.6726 -0.2696  1.5308
  408TMC3    H2 6097   0.162   3.429   9.104  0.7730  0.3471 -1.0419
  408TMC3    C7 6098   4.707   3.228   9.108  0.8358 -0.2838 -0.2105
  408TMC3    C8 6099   0.143   3.680   9.141  0.2779  0.5311  0.7491
  408TMC3    O1 6100   4.625   3.157   9.161 -0.1559  0.1072 -0.7292
  408TMC3    O2 6101   0.253   3.623   9.129  0.5902 -0.0078  0.4655
  409MPD2     C 6102   3.593   0.714  16.533 -0.1388  0.3250 -0.6942
  409MPD2    C1 6103   3.681   0.673  16.627 -0.6557 -0.1932  0.3701
  409MPD2    C2 6104   3.805   0.722  16.645 -0.3400  0.1069 -0.1542
  409MPD2    C3 6105   3.846   0.830  16.571  0.1130  0.6024  0.4951
  409MPD2    C4 6106   3.761   0.884  16.478 -0.1344  0.0482 -0.3589
  409MPD2    C5 6107   3.634   0.825  16.458  0.3304  0.3494  0.4102
  409MPD2     H 6108   3.864   0.670  16.720 -2.7726  1.5407  2.7328
  409MPD2    H1 6109   3.789   0.965  16.411 -2.7003  1.1367 -0.1120
  409MPD2    H2 6110   3.493   0.674  16.519  0.8299 -2.2650 -0.0482
  409MPD2    H3 6111   3.559   0.856  16.387 -0.5032  0.7199  1.4426
  409MPD2     N 6112   3.973   0.893  16.596 -0.0997  0.1211 -0.2728
  409MPD2    H5 6113   4.005   0.974  16.543 -1.9042  0.0317 -1.4884
  409MPD2    N1 6114   3.641   0.587  16.727  0.1659 -0.2540  0.1760
  409MPD2    H7 6115   3.711   0.569  16.798  0.5973  2.5728  0.4682
  410TMC3    C1 6116   4.183   0.943  16.695  0.5926  0.6900 -0.0252
  410TMC3    C2 6117   4.252   0.932  16.811  0.5036  0.5380  0.1768
  410TMC3    C3 6118   4.380   0.983  16.813 -0.2356  0.4277 -0.0533
  410TMC3    C4 6119   4.238   0.987  16.577 -0.4955  0.1166 -0.3031
  410TMC3    C5 6120   4.359   1.045  16.586  0.1556  0.2078 -0.2638
  410TMC3    C6 6121   4.432   1.047  16.702 -0.3289  0.2934  1.1433
  410TMC3     C 6122   4.068   0.855  16.689  0.1465 -0.2520  0.0795
  410TMC3     O 6123   4.057   0.772  16.778  0.3376  0.1817 -0.3281
  410TMC3     H 6124   4.191   0.910  16.898 -1.0341  1.1572 -0.7450
  410TMC3    H1 6125   4.202   0.971  16.476 -0.9454  1.1106 -0.2977
  410TMC3    H2 6126   4.534   1.084  16.700  0.9030 -3.0074  3.0688
  410TMC3    C7 6127   4.419   1.128  16.487  0.2201  0.8283 -1.0757
  410TMC3    C8 6128   4.433   1.001  16.946 -0.0331  0.3456 -0.9025
  410TMC3    O1 6129   4.526   1.098  16.438 -0.4327 -0.1261  0.0202
  410TMC3    O2 6130   4.508   1.100  16.959 -0.4045  0.2702  0.9649
  411MPD2     C 6131   4.302   0.978  14.312  0.6210  0.4301 -0.9804
  411MPD2    C1 6132   4.197   1.013  14.228  0.3902 -0.3442  0.3341
  411MPD2    C2 6133   4.146   0.924  14.137 -0.3478  0.4696 -0.4759
  411MPD2    C3 6134   4.199   0.796  14.119  0.7836  0.5976 -0.1299
  411MPD2    C4 6135   4.289   0.756  14.212  0.5010 -0.0024  0.0645
  411MPD2    C5 6136   4.345   0.849  14.298  0.4904 -0.4223  0.3553
  411MPD2     H 6137   4.056   0.949  14.082 -0.7113  0.1555 -0.0227
  411MPD2    H1 6138   4.326   0.654  14.206  1.6906  0.3894  0.8203
  411MPD2    H2 6139   4.338   1.035  14.397  0.1927 -0.6392 -0.0817
  411MPD2    H3 6140   4.422   0.815  14.367 -0.7645 -2.0657  0.9686
  411MPD2     N 6141   4.151   0.706  14.026 -0.5102  0.1671 -0.0692
  411MPD2    H5 6142   4.184   0.610  14.034 -0.1928  0.3416  0.7896
  411MPD2    N1 6143   4.140   1.138  14.252  0.0168 -0.0099 -0.3499
  411MPD2    H7 6144   4.161   1.182  14.341  1.0848  2.4774 -1.8241
  412TMC3    C1 6145   4.052   0.626  13.830 -0.7522  0.1376  0.0321
  412TMC3    C2 6146   4.072   0.494  13.876 -0.1177 -0.0467 -0.0958
  412TMC3    C3 6147   4.007   0.390  13.815  0.1606  0.2027 -0.0995
  412TMC3    C4 6148   3.966   0.648  13.722  0.4133  0.5795 -0.8413
  412TMC3    C5 6149   3.903   0.544  13.666 -0.8241  0.2633  0.5790
  412TMC3    C6 6150   3.929   0.415  13.707 -0.0733  0.1451 -0.2322
  412TMC3     C 6151   4.088   0.741  13.912  0.5414 -0.4925 -0.2546
  412TMC3     O 6152   4.054   0.852  13.869 -0.2613 -0.3034  0.0278
  412TMC3     H 6153   4.097   0.479  13.981  2.1365 -2.5877 -1.0087
  412TMC3    H1 6154   3.960   0.751  13.687  1.2957  0.0280 -2.5631
  412TMC3    H2 6155   3.902   0.336  13.638 -1.9713  1.7827 -1.3604
  412TMC3    C7 6156   3.755   0.551  13.657 -0.3800  0.2193 -0.0385
  412TMC3    C8 6157   3.952   0.292  13.901  0.3645 -0.6581 -0.3297
  412TMC3    O1 6158   3.702   0.444  13.658 -0.1805 -0.1177 -0.4592
  412TMC3    O2 6159   4.015   0.256  13.999 -0.3637  0.4194 -0.0400
  413MPD2     C 6160   0.530   3.422  15.295  0.4934 -0.0277 -0.5980
  413MPD2    C1 6161   0.503   3.512  15.199 -0.2257 -0.0261 -0.3062
  413MPD2    C2 6162   0.610   3.572  15.139 -0.6066 -0.3546  0.5765
  413MPD2    C3 6163   0.737   3.526  15.158 -1.1340  0.0469 -0.7864
  413MPD2    C4 6164   0.757   3.439  15.258  0.1702  0.0501 -0.0147
  413MPD2    C5 6165   0.656   3.381  15.327 -0.2063  0.3341 -0.2006
  413MPD2     H 6166   0.601   3.650  15.064  0.8810  0.8829  1.6875
  413MPD2    H1 6167   0.857   3.417  15.295 -0.0657  1.0522  1.2439
  413MPD2    H2 6168   0.447   3.367  15.338  0.4036  1.4109  1.0502
  413MPD2    H3 6169   0.670   3.301  15.399  2.0101  2.0690  1.2635
  413MPD2     N 6170   0.837   3.577  15.073  0.2505  0.1414  0.6333
  413MPD2    H5 6171   0.831   3.666  15.025  1.6839 -1.1877 -2.0431
  413MPD2    N1 6172   0.370   3.550  15.172 -0.2642 -0.4633  0.1803
  413MPD2    H7 6173   0.296   3.509  15.229 -1.1954 -1.1439 -1.5212
  414TMC3    C1 6174   1.069   3.589  15.009  0.0107 -0.1390  0.1293
  414TMC3    C2 6175   1.182   3.516  14.976  0.3524 -0.9567  0.3456
  414TMC3    C3 6176   1.306   3.574  14.969  0.8626  0.0694 -0.8652
  414TMC3    C4 6177   1.089   3.718  15.055  0.8066  0.1926  0.0210
  414TMC3    C5 6178   1.212   3.775  15.048  0.0112  0.2544  0.5697
  414TMC3    C6 6179   1.324   3.702  15.006 -0.0405  0.5924 -0.5027
  414TMC3     C 6180   0.954   3.513  15.059 -0.4152 -0.1245 -0.1242
  414TMC3     O 6181   0.990   3.405  15.104 -0.3503 -0.5948  0.4470
  414TMC3     H 6182   1.168   3.417  14.933  1.2881 -0.0356 -2.0899
  414TMC3    H1 6183   0.997   3.765  15.086  0.9013  0.9954 -0.9294
  414TMC3    H2 6184   1.421   3.750  14.999 -0.1304  0.9298  0.5820
  414TMC3    C7 6185   1.245   3.900  15.111 -0.2055 -0.1596  0.4640
  414TMC3    C8 6186   1.415   3.475  14.960 -0.5929  0.4102 -0.2630
  414TMC3    O1 6187   1.361   3.909  15.149  0.2523 -0.1590 -0.2275
  414TMC3    O2 6188   1.395   3.380  14.886  0.0081 -0.3712 -0.3725
  415TMC3    C1 6189   1.423   1.326   9.716  0.2362  0.0908  0.9632
  415TMC3    C2 6190   1.425   1.446   9.653 -0.2439  0.3036  0.6421
  415TMC3    C3 6191   1.308   1.491   9.597  0.1979  0.7609 -0.1871
  415TMC3    C4 6192   1.308   1.253   9.731  0.0081 -0.3399 -0.4198
  415TMC3    C5 6193   1.193   1.314   9.679  0.0803  0.0650 -0.6415
  415TMC3    C6 6194   1.185   1.425   9.604 -0.0338  0.5334  0.2437
  415TMC3     C 6195   1.522   1.301   9.819 -0.5543 -0.2985 -0.3194
  415TMC3     O 6196   1.518   1.191   9.874  0.6421 -0.4965  0.4285
  415TMC3     H 6197   1.519   1.497   9.636 -0.8199  0.6080 -1.6409
  415TMC3    H1 6198   1.309   1.157   9.781  0.7125  0.3290  0.8467
  415TMC3    H2 6199   1.089   1.461   9.569 -0.4522 -1.9777 -1.1800
  415TMC3    C7 6200   1.063   1.257   9.713  0.1611 -0.7075 -0.1440
  415TMC3    C8 6201   1.308   1.612   9.518  0.4124 -0.2879 -0.5683
  415TMC3    O1 6202   0.972   1.281   9.633  0.4165 -0.2712 -0.1137
  415TMC3    O2 6203   1.206   1.625   9.455 -0.3726  0.2088  0.2000
  416MPD2     C 6204   3.658   0.454  11.659 -0.4944 -0.6564 -0.6582
  416MPD2    C1 6205   3.535   0.519  11.654  0.1034 -0.1933  0.2502
  416MPD2    C2 6206   3.420   0.441  11.643 -0.3351 -0.1058 -1.1622
  416MPD2    C3 6207   3.436   0.303  11.641 -0.2142  0.0732  0.2655
  416MPD2    C4 6208   3.563   0.245  11.658 -0.3101 -0.7643 -0.7855
  416MPD2    C5 6209   3.670   0.321  11.679  0.7017  0.3949 -0.1843
  416MPD2     H 6210   3.324   0.489  11.647 -1.1006 -1.6374 -1.0829
  416MPD2    H1 6211   3.576   0.140  11.636 -1.0881 -0.5538 -2.2480
  416MPD2    H2 6212   3.748   0.513  11.670 -1.0200 -0.1645  0.9727
  416MPD2    H3 6213   3.768   0.275  11.682  1.1087  1.0771 -2.6952
  416MPD2     N 6214   3.332   0.206  11.622 -0.1126 -0.8391 -0.8102
  416MPD2    H5 6215   3.349   0.106  11.617  0.4268 -0.7822 -0.0778
  416MPD2    N1 6216   3.539   0.665  11.634 -0.3418  0.5014 -0.4850
  416MPD2    H7 6217   3.629   0.711  11.648  0.0216 -0.3872  0.0783
  417TMC3    C1 6218   3.469   0.882  11.626  0.2560  0.6929 -0.7213
  417TMC3    C2 6219   3.442   0.911  11.756  0.4018  0.3554  0.3717
  417TMC3    C3 6220   3.364   1.021  11.783 -0.7242  0.3867  0.4656
  417TMC3    C4 6221   3.423   0.961  11.524  0.0980 -0.9929  0.4538
  417TMC3    C5 6222   3.336   1.064  11.556 -0.3462  0.1729  0.8449
  417TMC3    C6 6223   3.311   1.101  11.686 -0.4225  0.3875 -0.0669
  417TMC3     C 6224   3.436   0.743  11.601  0.5471 -0.1696  0.2645
  417TMC3     O 6225   3.324   0.716  11.567  0.1469 -0.0631  0.1749
  417TMC3     H 6226   3.472   0.833  11.825 -3.6465 -0.6757  0.9490
  417TMC3    H1 6227   3.435   0.931  11.421 -1.9028 -1.2225  0.3009
  417TMC3    H2 6228   3.251   1.187  11.712  1.0940  1.8563 -1.4581
  417TMC3    C7 6229   3.218   1.066  11.475  0.0334  0.3278  0.2177
  417TMC3    C8 6230   3.311   1.030  11.914  0.2609  0.1547  0.3525
  417TMC3    O1 6231   3.147   1.163  11.485  0.4264  0.3634  0.6971
  417TMC3    O2 6232   3.215   1.105  11.931 -0.1758  0.1567  0.3154
  418TMC3    C1 6233   2.137   2.439  17.460  0.6035 -0.3920  0.2379
  418TMC3    C2 6234   2.010   2.462  17.443 -0.2489  0.3192 -0.8477
  418TMC3    C3 6235   1.955   2.555  17.525  0.2940 -0.3993 -0.2286
  418TMC3    C4 6236   2.220   2.511  17.542  0.4729  0.9253 -0.0025
  418TMC3    C5 6237   2.157   2.600  17.622  0.6501 -0.0399  0.0059
  418TMC3    C6 6238   2.023   2.628  17.616  0.2589 -0.6188  0.7854
  418TMC3     C 6239   2.191   2.343  17.371 -0.9511  0.2343 -0.1076
  418TMC3     O 6240   2.146   2.332  17.256  0.5367  0.1983  0.0856
  418TMC3     H 6241   1.950   2.398  17.380 -1.1928  1.2292 -0.8696
  418TMC3    H1 6242   2.327   2.500  17.555  0.0460  1.1491  3.7862
  418TMC3    H2 6243   1.970   2.688  17.689 -2.9277 -1.0697 -1.1747
  418TMC3    C7 6244   2.211   2.611   0.053  0.1890 -0.1401 -0.2867
  418TMC3    C8 6245   1.814   2.545  17.547 -0.5310 -0.2353 -0.9614
  418TMC3    O1 6246   2.289   2.519   0.075 -0.4689  0.4856  0.6747
  418TMC3    O2 6247   1.749   2.644  17.584 -0.7476  0.5904  0.5039
  419MPD2     C 6248   0.086   0.079  12.698 -0.4024 -0.0238  0.3000
  419MPD2    C1 6249   0.172   0.173  12.760 -0.5807 -0.0259 -0.4668
  419MPD2    C2 6250   0.152   0.213  12.892  0.3485 -0.1500  0.3495
  419MPD2    C3 6251   0.040   0.167  12.957  0.2427 -0.4894  0.6199
  419MPD2    C4 6252   4.680   0.074  12.894 -0.5832  0.2222  0.5802
  419MPD2    C5 6253   4.702   0.027  12.769 -0.2252  0.1277 -0.5206
  419MPD2     H 6254   0.214   0.288  12.938  1.0615  0.4696 -1.6427
  419MPD2    H1 6255   4.598   0.035  12.954  0.2334  1.0341  2.2043
  419MPD2    H2 6256   0.100   0.044  12.597 -0.3875 -2.0374  0.9977
  419MPD2    H3 6257   4.643   4.677  12.714 -2.0519  0.4050  1.0582
  419MPD2     N 6258   0.018   0.229  13.082 -0.0171  0.3224  0.1009
  419MPD2    H5 6259   0.088   0.299  13.105  0.0484 -0.1958  1.5214
  419MPD2    N1 6260   0.296   0.219  12.696 -0.8998  0.1005 -0.2141
  419MPD2    H7 6261   0.359   0.261  12.764 -0.6596  1.0841 -1.0456
  420TMC3    C1 6262   4.625   0.332  13.250  0.3725 -0.1189  0.0346
  420TMC3    C2 6263   4.525   0.423  13.224 -0.1504 -0.1414  0.1073
  420TMC3    C3 6264   4.536   0.550  13.268 -0.1756 -1.0803  0.2634
  420TMC3    C4 6265   0.020   0.370  13.302  0.1112 -0.3026 -0.6139
  420TMC3    C5 6266   0.032   0.495  13.361  0.7723  0.1620  0.6806
  420TMC3    C6 6267   4.650   0.588  13.337 -0.7030 -0.1285  0.6012
  420TMC3     C 6268   4.630   0.217  13.159  1.0817  0.4536  0.6442
  420TMC3     O 6269   4.522   0.164  13.130  0.1374  0.2127 -0.7494
  420TMC3     H 6270   4.445   0.390  13.159  0.1178 -1.1114  0.2698
  420TMC3    H1 6271   0.094   0.292  13.313  0.4596  0.1696  0.3956
  420TMC3    H2 6272   4.666   0.692  13.362 -1.8780  0.1220  0.3194
  420TMC3    C7 6273   0.138   0.520  13.455  0.5152 -0.7147  0.8027
  420TMC3    C8 6274   4.481   0.666  13.198 -0.6082 -0.6832  0.4376
  420TMC3    O1 6275   0.242   0.453  13.449 -0.4466 -0.6164 -0.6245
  420TMC3    O2 6276   4.560   0.761  13.183  0.1168  0.3956  0.5475
  421TMC3    C1 6277   1.686   2.769  13.893  0.3106 -0.1328 -0.2639
  421TMC3    C2 6278   1.693   2.864  13.989  0.3728  0.4927 -0.4915
  421TMC3    C3 6279   1.765   2.840  14.097 -0.4704 -0.6535 -0.8906
  421TMC3    C4 6280   1.747   2.646  13.901 -0.4384  0.2853 -0.1637
  421TMC3    C5 6281   1.843   2.632  13.996 -0.0121 -0.5730 -0.3897
  421TMC3    C6 6282   1.850   2.729  14.098 -0.1324 -0.2989 -0.2044
  421TMC3     C 6283   1.603   2.803  13.781 -0.5485  0.5556 -0.1029
  421TMC3     O 6284   1.569   2.920  13.768  0.2255  0.2740 -0.5274
  421TMC3     H 6285   1.628   2.949  13.973  0.4666  0.4193 -1.2721
  421TMC3    H1 6286   1.755   2.576  13.819 -1.2224  0.5223 -0.4373
  421TMC3    H2 6287   1.921   2.713  14.177 -0.1175  1.8754  0.2364
  421TMC3    C7 6288   1.950   2.542  13.986 -0.9209 -0.0444  0.5361
  421TMC3    C8 6289   1.816   2.959  14.172 -0.2553  0.2055 -0.1647
  421TMC3    O1 6290   2.054   2.580  14.044 -0.0070  0.7472  0.5966
  421TMC3    O2 6291   1.734   3.038  14.213  0.0827  0.1082  0.5071
  422TMC3    C1 6292   4.444   3.374  12.414  0.4426 -0.1961  0.0558
  422TMC3    C2 6293   4.410   3.499  12.458  0.4764  0.0092  0.2813
  422TMC3    C3 6294   4.288   3.532  12.523 -0.8736  0.2247  0.1757
  422TMC3    C4 6295   4.354   3.272  12.426  0.5711 -0.1877  0.0513
  422TMC3    C5 6296   4.227   3.308  12.477 -0.3997 -0.6620  0.4847
  422TMC3    C6 6297   4.195   3.432  12.534  0.1551  0.0798  0.6288
  422TMC3     C 6298   4.575   3.351  12.342  0.2131  0.2545  0.0458
  422TMC3     O 6299   4.634   3.443  12.279 -0.2134 -0.3939  0.1990
  422TMC3     H 6300   4.481   3.578  12.437 -0.2721  0.4101 -0.7368
  422TMC3    H1 6301   4.373   3.168  12.402 -0.7146 -0.2020 -0.8977
  422TMC3    H2 6302   4.103   3.446  12.590 -0.5072  0.6833 -0.6197
  422TMC3    C7 6303   4.126   3.213  12.462 -0.9640  0.2251 -0.4736
  422TMC3    C8 6304   4.255   3.672  12.542  0.0205  0.3530 -0.6288
  422TMC3    O1 6305   4.161   3.099  12.436  0.7529  0.1497 -0.0128
  422TMC3    O2 6306   4.347   3.755  12.533  0.0576 -0.0615 -0.4107
  423MPD2     C 6307   0.544   0.115   0.176 -0.2346  0.4588 -0.0991
  423MPD2    C1 6308   0.629   0.018   0.229  0.3166  0.6789 -0.1343
  423MPD2    C2 6309   0.702   4.665   0.142 -0.9898 -0.4487 -0.0531
  423MPD2    C3 6310   0.695   4.691   0.003 -0.5092 -0.4552 -1.1045
  423MPD2    C4 6311   0.626   0.075  17.652 -0.5019  0.3432 -0.7858
  423MPD2    C5 6312   0.545   0.150   0.048 -0.3781 -0.6124  0.0766
  423MPD2     H 6313   0.772   4.590   0.177  0.3611  0.3940 -0.9364
  423MPD2    H1 6314   0.625   0.105  17.548 -2.2948  1.8800 -0.3332
  423MPD2    H2 6315   0.472   0.166   0.239  0.4432 -0.3766  1.3471
  423MPD2    H3 6316   0.486   0.231   0.007 -0.1924 -1.0419 -1.0465
  423MPD2     N 6317   0.767   4.616  17.600  0.1362 -0.1589  0.3699
  423MPD2    H5 6318   0.761   4.633  17.501  1.3880 -1.3013  0.0936
  423MPD2    N1 6319   0.640   4.713   0.374 -0.0443  0.4466 -0.1216
  423MPD2    H7 6320   0.683   4.628   0.410 -0.4734 -0.5833 -2.0340
  424TMC3    C1 6321   0.562   0.011   0.604 -0.7963  0.0979 -0.0604
  424TMC3    C2 6322   0.674   4.692   0.666  0.0216  0.2307  0.6785
  424TMC3    C3 6323   0.663   4.670   0.802 -0.8806 -0.2628 -0.5869
  424TMC3    C4 6324   0.454   0.049   0.674  0.1766 -0.1537 -0.0411
  424TMC3    C5 6325   0.456   0.044   0.806 -0.0983 -0.1480  0.2376
  424TMC3    C6 6326   0.564   4.719   0.878 -0.7400  0.6721  0.0217
  424TMC3     C 6327   0.562   0.055   0.471 -0.8679 -0.3213 -0.3632
  424TMC3     O 6328   0.498   0.157   0.460  0.0987 -0.0298  0.4997
  424TMC3     H 6329   0.762   4.691   0.602 -0.5675  1.8009 -0.1555
  424TMC3    H1 6330   0.367   0.084   0.619 -2.0306 -0.0547  3.4631
  424TMC3    H2 6331   0.567   4.717   0.986  0.7245  1.0210 -0.0156
  424TMC3    C7 6332   0.356   0.103   0.892 -0.8123  0.5321 -0.0812
  424TMC3    C8 6333   0.779   4.608   0.865 -0.3789  0.2031 -0.3793
  424TMC3    O1 6334   0.370   0.107   1.017 -0.2194 -0.4350  0.1380
  424TMC3    O2 6335   0.844   4.532   0.794 -0.1433  0.0380  0.8082
  425MPD2     C 6336   4.297   4.247  16.949 -0.3412  0.4585  0.5443
  425MPD2    C1 6337   4.236   4.128  16.965  0.1578  0.3257  0.3066
  425MPD2    C2 6338   4.105   4.133  16.956  0.2125 -0.4078 -0.2943
  425MPD2    C3 6339   4.033   4.248  16.944  0.3457  0.1041 -0.5461
  425MPD2    C4 6340   4.099   4.364  16.933  0.3360 -0.0923  0.6574
  425MPD2    C5 6341   4.235   4.366  16.930  0.0917  0.4839  0.1959
  425MPD2     H 6342   4.047   4.049  16.991 -0.0475  0.8882  2.4570
  425MPD2    H1 6343   4.045   4.457  16.921  1.1340  0.2518 -0.2902
  425MPD2    H2 6344   4.404   4.242  16.931 -0.0564  1.1010  2.0553
  425MPD2    H3 6345   4.291   4.456  16.904 -1.4394  0.6024 -2.5694
  425MPD2     N 6346   3.888   4.242  16.935  0.1742  0.6306 -0.7526
  425MPD2    H5 6347   3.846   4.150  16.930 -0.3477  0.8788 -0.9236
  425MPD2    N1 6348   4.320   4.016  16.998 -0.2859 -0.1348 -0.1432
  425MPD2    H7 6349   4.419   4.033  17.010 -0.5653 -0.2364  2.1970
  426TMC3    C1 6350   4.385   3.797  17.000  0.4385 -0.0030  0.0754
  426TMC3    C2 6351   4.382   3.687  16.918 -0.2591 -0.0004 -0.0814
  426TMC3    C3 6352   4.447   3.570  16.954  0.4104  0.4520 -0.4959
  426TMC3    C4 6353   4.447   3.783  17.125 -0.2046 -0.7625  0.0641
  426TMC3    C5 6354   4.523   3.672  17.154  0.3335 -0.1137  0.2044
  426TMC3    C6 6355   4.527   3.567  17.063  0.3965  0.1594 -0.6799
  426TMC3     C 6356   4.277   3.888  16.992  1.6293  0.3943  0.0750
  426TMC3     O 6357   4.169   3.837  16.953  0.6246  0.1228 -0.1470
  426TMC3     H 6358   4.337   3.700  16.820  1.1716  0.9352 -0.6168
  426TMC3    H1 6359   4.443   3.867  17.193 -0.1537 -1.6328  1.1441
  426TMC3    H2 6360   4.579   3.477  17.092 -0.8567 -0.7507 -1.2962
  426TMC3    C7 6361   4.592   3.655  17.286 -0.3640 -0.1876  0.2825
  426TMC3    C8 6362   4.435   3.443  16.868 -0.2987  1.1769 -0.5514
  426TMC3    O1 6363   4.693   3.584  17.284 -0.2440  0.6846  0.0401
  426TMC3    O2 6364   4.526   3.365  16.884 -0.1998  0.2935 -0.1500
  427MPD2     C 6365   2.884   0.835  14.480  0.0657  0.2018  0.0910
  427MPD2    C1 6366   2.922   0.885  14.600 -0.8211 -0.3641 -0.1321
  427MPD2    C2 6367   2.867   1.006  14.645 -0.1028 -0.3376 -0.3956
  427MPD2    C3 6368   2.778   1.077  14.566  0.3959 -0.0156 -0.4383
  427MPD2    C4 6369   2.751   1.023  14.442 -0.8190  0.5019 -0.9434
  427MPD2    C5 6370   2.801   0.907  14.399 -0.2009  0.0838 -0.0760
  427MPD2     H 6371   2.901   1.047  14.740 -0.5608  0.3701 -0.5332
  427MPD2    H1 6372   2.677   1.065  14.376 -0.2908  1.4874 -0.9107
  427MPD2    H2 6373   2.926   0.747  14.433  1.2055 -0.6015  2.5944
  427MPD2    H3 6374   2.776   0.861  14.304 -0.0328  0.3441 -0.2473
  427MPD2     N 6375   2.696   1.192  14.606  0.0935  0.0663 -0.3934
  427MPD2    H5 6376   2.616   1.229  14.555 -1.0402 -0.2853  1.1602
  427MPD2    N1 6377   3.004   0.826  14.697 -0.3469 -0.5234  0.7263
  427MPD2    H7 6378   3.010   0.874  14.787 -0.4187 -1.9530  1.4988
  428TMC3    C1 6379   3.101   0.645  14.818 -0.8240 -0.1152  0.1746
  428TMC3    C2 6380   3.101   0.509  14.841 -0.3353  0.8049  0.0016
  428TMC3    C3 6381   3.153   0.480  14.968 -0.1717  0.3150 -0.4714
  428TMC3    C4 6382   3.177   0.737  14.890 -0.6724  0.3278 -0.3123
  428TMC3    C5 6383   3.232   0.688  15.001  0.3914 -0.4297  0.8015
  428TMC3    C6 6384   3.220   0.561  15.045 -0.2261  0.1621  0.2136
  428TMC3     C 6385   3.046   0.694  14.695  0.1249  0.0995  0.2574
  428TMC3     O 6386   3.039   0.613  14.599 -0.9370  0.7445  0.0989
  428TMC3     H 6387   3.040   0.441  14.783 -1.8091  1.5171  0.7060
  428TMC3    H1 6388   3.192   0.840  14.860  0.5240  0.5569  1.0649
  428TMC3    H2 6389   3.249   0.531  15.145  0.9340  0.4924 -0.0230
  428TMC3    C7 6390   3.339   0.770  15.054 -0.4990  0.8219 -0.0300
  428TMC3    C8 6391   3.170   0.340  14.998 -0.6045 -0.2244  0.0369
  428TMC3    O1 6392   3.322   0.891  15.046 -0.0568 -0.7351  0.1489
  428TMC3    O2 6393   3.275   0.301  15.049  0.1667  0.1752  0.0325
  429MPD2     C 6394   4.264   1.313   0.194  0.0525  0.1309 -0.3034
  429MPD2    C1 6395   4.295   1.251   0.078  0.3685 -0.1302 -0.2308
  429MPD2    C2 6396   4.342   1.337  17.671  0.4012  0.6813  0.1921
  429MPD2    C3 6397   4.333   1.473  17.677  0.3323  0.0510 -0.5149
  429MPD2    C4 6398   4.286   1.530   0.099 -0.2789  0.0526  0.3152
  429MPD2    C5 6399   4.247   1.451   0.206  1.0179 -0.3834  0.4384
  429MPD2     H 6400   4.389   1.295  17.582 -2.5969 -0.1510 -0.9871
  429MPD2    H1 6401   4.276   1.638   0.108  1.4213 -0.0669  3.6716
  429MPD2    H2 6402   4.241   1.251   0.280 -1.6127 -1.6056 -1.9992
  429MPD2    H3 6403   4.222   1.485   0.306 -0.5887 -0.8812  0.2172
  429MPD2     N 6404   4.381   1.549  17.564  0.1556  0.0964  0.0201
  429MPD2    H5 6405   4.433   1.499  17.492 -1.9120 -1.2599 -0.5323
  429MPD2    N1 6406   4.295   1.113   0.049  0.1813  0.5821 -0.0015
  429MPD2    H7 6407   4.316   1.071  17.652 -0.1015  1.2746 -0.3810
  430TMC3    C1 6408   4.417   1.739  17.429 -0.7497 -0.1229 -0.0547
  430TMC3    C2 6409   4.338   1.758  17.324 -0.6766  0.1979  0.0035
  430TMC3    C3 6410   4.388   1.761  17.197  0.4076 -0.0399 -0.4231
  430TMC3    C4 6411   4.551   1.714  17.411 -0.3785 -0.0253 -0.5711
  430TMC3    C5 6412   4.592   1.701  17.282 -0.9217  0.4477  0.0028
  430TMC3    C6 6413   4.521   1.733  17.170  0.1710 -0.7847  0.0109
  430TMC3     C 6414   4.362   1.685  17.553 -0.1626  0.2007  0.1676
  430TMC3     O 6415   4.279   1.758  17.602  0.2321  0.0721  0.0493
  430TMC3     H 6416   4.234   1.779  17.345 -1.0840 -1.3328 -0.5424
  430TMC3    H1 6417   4.612   1.692  17.498 -0.4791  0.5008 -0.3680
  430TMC3    H2 6418   4.574   1.760  17.079  0.3201 -1.2092 -0.0290
  430TMC3    C7 6419   0.006   1.645  17.274 -0.0760 -0.1888  0.0472
  430TMC3    C8 6420   4.314   1.817  17.093 -0.5243  0.5574 -0.1181
  430TMC3    O1 6421   0.092   1.681  17.350 -0.6030 -0.1648  0.1205
  430TMC3    O2 6422   4.369   1.820  16.986  0.1220  0.2385  0.2879
  431MPD2     C 6423   0.463   1.035  12.850  0.1397  0.3404 -0.5557
  431MPD2    C1 6424   0.531   1.031  12.733  0.6242  0.1976  0.9824
  431MPD2    C2 6425   0.540   0.909  12.667 -1.5644  0.1032  0.0863
  431MPD2    C3 6426   0.480   0.797  12.711  0.7599  0.7235 -0.3265
  431MPD2    C4 6427   0.414   0.806  12.837 -0.5680  0.5101 -0.2275
  431MPD2    C5 6428   0.410   0.921  12.901  0.0792 -0.5647  0.3147
  431MPD2     H 6429   0.576   0.912  12.565  1.1383  0.2532  1.0406
  431MPD2    H1 6430   0.360   0.720  12.877  1.7914 -0.8836 -0.0336
  431MPD2    H2 6431   0.458   1.118  12.920  1.1230 -1.2374  1.3825
  431MPD2    H3 6432   0.363   0.927  12.999  0.8820  2.6434  0.4786
  431MPD2     N 6433   0.478   0.668  12.652  0.2218  0.1997 -0.2969
  431MPD2    H5 6434   0.430   0.585  12.683 -0.5284  1.3942  1.7179
  431MPD2    N1 6435   0.593   1.149  12.678 -0.9272 -0.5576  0.2283
  431MPD2    H7 6436   0.638   1.136  12.588 -0.9550  0.9449 -0.0054
  432TMC3    C1 6437   0.550   0.490  12.512 -0.0332 -0.1207  0.1064
  432TMC3    C2 6438   0.613   0.457  12.397  0.0736 -0.6355  0.2740
  432TMC3    C3 6439   0.579   0.334  12.337 -0.1824  0.6413  0.0002
  432TMC3    C4 6440   0.475   0.398  12.582  0.2486 -0.0606  0.4414
  432TMC3    C5 6441   0.450   0.271  12.525  0.6299  0.9190 -0.2485
  432TMC3    C6 6442   0.499   0.240  12.402 -0.3568  0.3162  0.0484
  432TMC3     C 6443   0.562   0.631  12.556  0.2245 -0.1282 -0.3933
  432TMC3     O 6444   0.644   0.699  12.502  0.0634  0.3050 -0.9630
  432TMC3     H 6445   0.680   0.524  12.345  0.3983 -0.3672  1.0370
  432TMC3    H1 6446   0.430   0.422  12.678 -0.4847 -2.0258  0.5761
  432TMC3    H2 6447   0.474   0.141  12.365  0.1755 -0.7613  2.5919
  432TMC3    C7 6448   0.337   0.192  12.567  0.2290  0.4018 -0.6850
  432TMC3    C8 6449   0.616   0.289  12.197  0.5469 -0.1053  0.2208
  432TMC3    O1 6450   0.283   0.120  12.485 -0.8585 -0.3046 -0.4601
  432TMC3    O2 6451   0.541   0.204  12.149 -0.7621 -0.5551  0.3330
  433MPD2     C 6452   3.843   3.995  10.686  0.4808  1.0136 -0.0580
  433MPD2    C1 6453   3.875   3.888  10.770  0.2941 -0.1364  0.0777
  433MPD2    C2 6454   3.969   3.916  10.873 -0.2877  0.6065 -0.8590
  433MPD2    C3 6455   4.042   4.027  10.875  0.5189 -0.3915  0.0700
  433MPD2    C4 6456   4.016   4.126  10.776 -0.4410  0.7415  0.2683
  433MPD2    C5 6457   3.907   4.112  10.692  0.7123  0.6990 -0.5448
  433MPD2     H 6458   3.974   3.839  10.950  1.4421  1.7297  0.1514
  433MPD2    H1 6459   4.068   4.221  10.777  1.1182 -0.1031 -0.9780
  433MPD2    H2 6460   3.766   3.986  10.610 -0.1477  0.3669  0.6470
  433MPD2    H3 6461   3.878   4.192  10.625 -1.0398  1.2823  0.9145
  433MPD2     N 6462   4.131   4.044  10.984 -0.8827 -0.6925  0.7528
  433MPD2    H5 6463   4.147   3.961  11.041 -0.1670 -0.6769  0.5691
  433MPD2    N1 6464   3.798   3.773  10.763 -0.1532  0.0715  0.2627
  433MPD2    H7 6465   3.721   3.772  10.697  1.1454 -1.6461 -1.2146
  434TMC3    C1 6466   3.742   3.558  10.780 -1.1312  0.8866 -0.0298
  434TMC3    C2 6467   3.786   3.446  10.846 -0.5727  0.8798  0.3564
  434TMC3    C3 6468   3.841   3.350  10.777 -0.2972 -0.5626 -0.7043
  434TMC3    C4 6469   3.754   3.564  10.641  0.1054 -0.3826  0.2739
  434TMC3    C5 6470   3.811   3.454  10.578 -0.0334  0.3343  0.0198
  434TMC3    C6 6471   3.860   3.350  10.641  0.1108  0.1747  0.2360
  434TMC3     C 6472   3.795   3.669  10.846 -0.0896 -0.6118  0.4178
  434TMC3     O 6473   3.852   3.642  10.949 -0.5543 -0.0241 -0.4914
  434TMC3     H 6474   3.760   3.436  10.951  0.1355  2.7877  0.7091
  434TMC3    H1 6475   3.720   3.651  10.584 -0.3348 -0.9643 -0.3522
  434TMC3    H2 6476   3.900   3.265  10.588  1.5144 -0.1335  1.7752
  434TMC3    C7 6477   3.770   3.445  10.441  0.2321  0.0110  0.3566
  434TMC3    C8 6478   3.931   3.267  10.856  0.2605 -0.1367  0.2191
  434TMC3    O1 6479   3.657   3.492  10.419 -0.0535  0.5396  0.0958
  434TMC3    O2 6480   3.908   3.256  10.975  0.6497 -0.6009 -0.0593
  435MPD2     C 6481   1.464   4.559  15.280  0.2273  0.7178  0.1246
  435MPD2    C1 6482   1.440   4.636  15.388  0.9187 -0.5770 -0.0759
  435MPD2    C2 6483   1.535   4.646  15.482 -0.1470 -0.5034 -0.6115
  435MPD2    C3 6484   1.657   4.590  15.463 -0.2762 -0.0364 -0.9679
  435MPD2    C4 6485   1.687   4.527  15.342 -0.1684 -0.3447  0.6669
  435MPD2    C5 6486   1.587   4.508  15.251  0.2281 -0.5160  0.1286
  435MPD2     H 6487   1.508   4.690  15.578 -1.0773 -0.6815 -0.7876
  435MPD2    H1 6488   1.779   4.471  15.329  0.9915  1.1768  2.4277
  435MPD2    H2 6489   1.394   4.555  15.197  2.8121 -0.6538 -1.9889
  435MPD2    H3 6490   1.607   4.448  15.163 -2.5731  1.5657 -1.9402
  435MPD2     N 6491   1.744   4.582  15.568  0.1931  0.1224 -0.3917
  435MPD2    H5 6492   1.700   4.592  15.659  2.4153 -1.0483  0.8235
  435MPD2    N1 6493   1.319   4.710  15.407  0.0124  0.4134  0.2066
  435MPD2    H7 6494   1.310   0.054  15.483  0.3318  1.1221 -0.3777
  436TMC3    C1 6495   1.020   0.112  15.613 -0.1146  0.4178 -0.1841
  436TMC3    C2 6496   1.120   0.112  15.518 -0.0168  1.0563  0.2134
  436TMC3    C3 6497   1.093   0.042  15.401  0.2641  0.5434  0.0596
  436TMC3    C4 6498   0.890   0.064  15.597 -0.3545 -0.3269 -0.6688
  436TMC3    C5 6499   0.867   0.007  15.475  0.2728  0.9858 -0.3903
  436TMC3    C6 6500   0.967   4.722  15.374 -0.4504  0.0988  0.5004
  436TMC3     C 6501   1.063   0.154  15.744 -0.4825  0.8445 -0.8378
  436TMC3     O 6502   1.188   0.149  15.754  0.4353  0.4776  0.5554
  436TMC3     H 6503   1.220   0.148  15.537  0.6699  0.6848 -2.7901
  436TMC3    H1 6504   0.816   0.052  15.675 -0.8378  1.7352 -0.7956
  436TMC3    H2 6505   0.945   4.660  15.288 -1.9679 -0.3422  1.2038
  436TMC3    C7 6506   0.753   4.645  15.469  0.0785 -0.1841  0.6535
  436TMC3    C8 6507   1.202   4.696  15.334  0.6079 -0.1821  0.2609
  436TMC3    O1 6508   0.696   4.617  15.568  0.9499 -0.3452  0.2294
  436TMC3    O2 6509   1.165   4.626  15.242  0.3311  0.0392 -0.2535
  437TMC3    C1 6510   0.208   1.002  12.585  0.4311  0.0800  0.0772
  437TMC3    C2 6511   0.165   1.050  12.705  0.2376  0.3638  0.2570
  437TMC3    C3 6512   0.162   1.184  12.728 -0.1906 -1.1295 -0.0623
  437TMC3    C4 6513   0.260   1.084  12.486  0.3380 -0.3855 -0.5793
  437TMC3    C5 6514   0.264   1.220  12.514  0.1298 -0.4648 -0.0634
  437TMC3    C6 6515   0.230   1.262  12.643  0.3010 -0.5544  0.6559
  437TMC3     C 6516   0.178   0.859  12.557 -0.2512 -0.8389 -0.1780
  437TMC3     O 6517   0.105   0.803  12.636  0.2481  0.3999  0.0975
  437TMC3     H 6518   0.136   0.979  12.781  0.8650 -1.2023 -0.9620
  437TMC3    H1 6519   0.288   1.049  12.388  1.5261 -1.7383  0.2348
  437TMC3    H2 6520   0.216   1.368  12.663 -0.5241 -0.5720  0.1842
  437TMC3    C7 6521   0.328   1.308  12.419  0.1403 -0.7879 -0.1171
  437TMC3    C8 6522   0.129   1.237  12.865  0.6466  0.0432 -0.1641
  437TMC3    O1 6523   0.341   1.260  12.304  0.0857  0.6185  0.1649
  437TMC3    O2 6524   0.177   1.343  12.906  0.5078 -0.2736 -0.4031
  438MPD2     C 6525   2.476   2.372  16.251  0.3116  0.5696  0.9401
  438MPD2    C1 6526   2.567   2.413  16.348  0.7121  0.4047 -0.8133
  438MPD2    C2 6527   2.518   2.493  16.456 -0.0095 -0.0028 -0.2142
  438MPD2    C3 6528   2.382   2.528  16.463 -0.5199  0.0487 -1.1079
  438MPD2    C4 6529   2.307   2.478  16.359 -0.0931  0.0874 -0.5696
  438MPD2    C5 6530   2.348   2.405  16.257 -0.2291 -0.8225 -0.3406
  438MPD2     H 6531   2.585   2.509  16.540 -1.7875  0.4423  1.0959
  438MPD2    H1 6532   2.201   2.501  16.366  0.3087  2.1188 -0.9943
  438MPD2    H2 6533   2.511   2.310  16.169 -1.6206  0.9410 -0.1547
  438MPD2    H3 6534   2.275   2.371  16.184 -0.6049  1.7580 -1.1820
  438MPD2     N 6535   2.318   2.605  16.561  0.3127 -0.0078 -0.2684
  438MPD2    H5 6536   2.216   2.607  16.564  0.3107  1.1151 -1.0266
  438MPD2    N1 6537   2.699   2.369  16.344  0.1750  0.4232 -0.0554
  438MPD2    H7 6538   2.749   2.379  16.432 -0.5146 -0.0424  0.3802
  439TMC3    C1 6539   2.910   2.282  16.259  0.0568  0.4355 -0.6927
  439TMC3    C2 6540   2.981   2.223  16.162 -0.0726  0.5137  0.8881
  439TMC3    C3 6541   3.103   2.178  16.181 -0.3203  0.7502  0.0445
  439TMC3    C4 6542   2.961   2.292  16.389 -0.3021 -0.8517  1.0163
  439TMC3    C5 6543   3.094   2.247  16.406  0.2951 -0.1196  0.2493
  439TMC3    C6 6544   3.169   2.199  16.300  0.6365  0.1969  0.1927
  439TMC3     C 6545   2.765   2.307  16.240  0.3998  0.5057  0.1144
  439TMC3     O 6546   2.723   2.277  16.131 -0.1057 -0.0583 -0.2291
  439TMC3     H 6547   2.924   2.207  16.071 -0.8290  2.2259  1.0385
  439TMC3    H1 6548   2.900   2.315  16.476 -1.2694  0.7540 -0.0646
  439TMC3    H2 6549   3.265   2.152  16.322  0.0200 -1.3319 -0.4021
  439TMC3    C7 6550   3.123   2.199  16.541 -0.2587  0.0152 -0.3978
  439TMC3    C8 6551   3.175   2.113  16.071  0.9161 -0.0323  0.3969
  439TMC3    O1 6552   3.210   2.265  16.595 -0.5703  0.0156 -0.5993
  439TMC3    O2 6553   3.269   2.037  16.094 -0.1968 -0.1323  0.3638
  440MPD2     C 6554   1.148   3.226  14.482  1.3943 -0.3226 -0.6503
  440MPD2    C1 6555   1.247   3.254  14.570  0.2028  0.7694  0.1113
  440MPD2    C2 6556   1.301   3.146  14.634  0.4302 -0.2936 -0.3544
  440MPD2    C3 6557   1.270   3.011  14.619  0.5936  0.0309 -0.1380
  440MPD2    C4 6558   1.170   2.985  14.524 -0.2620  0.0240 -0.5377
  440MPD2    C5 6559   1.115   3.097  14.451 -0.5440  0.6282  0.4389
  440MPD2     H 6560   1.366   3.171  14.717 -0.3293 -1.3937  0.5839
  440MPD2    H1 6561   1.142   2.883  14.505 -0.5984 -0.1110  0.6839
  440MPD2    H2 6562   1.105   3.303  14.418  1.6696  2.3715  2.4062
  440MPD2    H3 6563   1.043   3.080  14.371  2.0256  0.4035 -1.8371
  440MPD2     N 6564   1.346   2.909  14.677  0.0080 -0.4791 -0.3325
  440MPD2    H5 6565   1.317   2.812  14.671  1.1149 -0.8710  0.7805
  440MPD2    N1 6566   1.295   3.383  14.606  0.0024  0.1259 -0.1726
  440MPD2    H7 6567   1.370   3.390  14.674 -1.1287 -0.4614  1.1467
  441TMC3    C1 6568   1.519   2.816  14.830  0.5740 -0.7983  0.2207
  441TMC3    C2 6569   1.643   2.844  14.875 -0.2704  0.0924 -1.0001
  441TMC3    C3 6570   1.687   2.848  15.005 -0.0440  0.1820  0.1330
  441TMC3    C4 6571   1.431   2.786  14.933  0.0700 -0.2737 -0.1303
  441TMC3    C5 6572   1.474   2.789  15.062 -0.2537 -0.7318  0.5480
  441TMC3    C6 6573   1.599   2.824  15.106 -0.0547 -0.1513  0.0386
  441TMC3     C 6574   1.474   2.923  14.740 -0.3237 -0.4470  0.0273
  441TMC3     O 6575   1.553   3.020  14.741  0.0266  0.5623 -0.1961
  441TMC3     H 6576   1.722   2.874  14.807  1.1682  3.6429  2.2171
  441TMC3    H1 6577   1.326   2.783  14.904  0.3522 -2.0271 -0.9773
  441TMC3    H2 6578   1.632   2.812  15.209 -2.2156 -1.4540  0.5648
  441TMC3    C7 6579   1.376   2.773  15.169 -0.4920 -0.0376 -0.7490
  441TMC3    C8 6580   1.773   2.955  15.041  0.2666  0.4165  0.9204
  441TMC3    O1 6581   1.420   2.797  15.281 -0.5813 -0.1227 -0.3667
  441TMC3    O2 6582   1.836   2.937  15.145  0.9335  0.2369  0.0448
  442MPD2     C 6583   3.836   4.024  15.988  0.4541 -0.0363 -0.3045
  442MPD2    C1 6584   3.750   3.956  16.066 -0.1218  0.2259 -0.2211
  442MPD2    C2 6585   3.782   3.818  16.082  0.3051 -0.2868  0.3382
  442MPD2    C3 6586   3.883   3.751  16.006  0.0823 -0.1808  0.7982
  442MPD2    C4 6587   3.964   3.832  15.936 -0.1274  0.0299 -0.2716
  442MPD2    C5 6588   3.935   3.963  15.919 -0.4970 -0.3878 -0.4280
  442MPD2     H 6589   3.712   3.763  16.144  0.6841 -1.3191 -0.1484
  442MPD2    H1 6590   4.044   3.791  15.876  0.1582  0.5709 -0.2567
  442MPD2    H2 6591   3.831   4.132  15.981  2.0944 -0.0357 -1.7782
  442MPD2    H3 6592   3.998   4.014  15.848 -1.0246  0.0774 -0.5635
  442MPD2     N 6593   3.913   3.612  16.012  0.4853  0.4873  0.2878
  442MPD2    H5 6594   3.999   3.579  15.968  0.9478  1.8572  0.1767
  442MPD2    N1 6595   3.647   4.008  16.142 -0.3634 -0.4661  0.0254
  442MPD2    H7 6596   3.587   3.938  16.186 -0.2864 -0.2066  0.5443
  443TMC3    C1 6597   3.489   4.163  16.221  0.4302  0.4064 -0.2290
  443TMC3    C2 6598   3.403   4.251  16.160  0.1938 -0.7458  0.6005
  443TMC3    C3 6599   3.267   4.247  16.197 -0.5534 -0.0383 -1.1624
  443TMC3    C4 6600   3.438   4.068  16.303 -0.2245 -0.2975  0.2447
  443TMC3    C5 6601   3.306   4.075  16.348  0.6653 -0.0621  0.2585
  443TMC3    C6 6602   3.223   4.170  16.299  0.3283  0.1623 -0.5806
  443TMC3     C 6603   3.608   4.138  16.150 -0.3741  0.4307  0.8055
  443TMC3     O 6604   3.661   4.232  16.093  0.0685 -0.3219  0.0395
  443TMC3     H 6605   3.444   4.316  16.084 -2.0602  1.2691  1.1070
  443TMC3    H1 6606   3.502   3.994  16.350 -0.8178  0.2791  1.9683
  443TMC3    H2 6607   3.116   4.181  16.315  0.1145 -1.5189 -0.7657
  443TMC3    C7 6608   3.282   4.029  16.482  0.5661  0.0515  0.8584
  443TMC3    C8 6609   3.160   4.315  16.127 -0.3506 -0.1905 -0.3706
  443TMC3    O1 6610   3.345   3.929  16.521 -0.5254 -0.1957  0.6253
  443TMC3    O2 6611   3.072   4.367  16.199 -0.3594 -0.6772  0.6286
  444MPD2     C 6612   4.333   3.339  17.280  0.1330  1.0506  0.0313
  444MPD2    C1 6613   4.258   3.227  17.242  0.7638  0.1217 -0.1113
  444MPD2    C2 6614   4.321   3.103  17.231 -0.1503 -0.0192  0.0346
  444MPD2    C3 6615   4.462   3.092  17.250  0.5677 -0.3132  0.1249
  444MPD2    C4 6616   4.524   3.204  17.284 -0.3328  0.1081 -0.0975
  444MPD2    C5 6617   4.461   3.319  17.308 -0.1066 -0.6258 -0.8479
  444MPD2     H 6618   4.267   3.009  17.225 -1.6019  0.9169 -1.4511
  444MPD2    H1 6619   4.632   3.207  17.286 -0.4003  1.7187  1.0877
  444MPD2    H2 6620   4.292   3.435  17.309 -1.4762  0.0132  1.1637
  444MPD2    H3 6621   4.526   3.404  17.328 -2.1291  0.6442  0.3645
  444MPD2     N 6622   4.516   2.963  17.237  0.0771 -0.5338 -0.2143
  444MPD2    H5 6623   4.446   2.892  17.218 -1.9020  0.8526  1.9009
  444MPD2    N1 6624   4.126   3.238  17.212  0.0549  0.3391 -0.4770
  444MPD2    H7 6625   4.085   3.146  17.195  0.8292 -0.0176 -0.4023
  445TMC3    C1 6626   4.680   2.796  17.286  0.4820 -0.4484  0.3755
  445TMC3    C2 6627   4.594   2.712  17.359  0.3341  0.4429  0.0386
  445TMC3    C3 6628   4.636   2.585  17.369 -0.5310 -0.2755  0.4703
  445TMC3    C4 6629   0.077   2.748  17.237  0.5030  0.0068 -0.0632
  445TMC3    C5 6630   0.102   2.616  17.241  0.5971  0.3254 -0.2003
  445TMC3    C6 6631   0.017   2.532  17.300  0.2531  0.2167 -0.3674
  445TMC3     C 6632   4.647   2.936  17.266 -0.4175  0.4602 -0.0022
  445TMC3     O 6633   0.015   3.017  17.274  0.0404 -0.1965 -0.2133
  445TMC3     H 6634   4.512   2.756  17.414  1.4465  1.2563  1.0456
  445TMC3    H1 6635   0.136   2.817  17.179 -1.5084  0.9777 -0.9784
  445TMC3    H2 6636   0.043   2.428  17.314  0.2462  0.3803  0.8990
  445TMC3    C7 6637   0.232   2.577  17.173 -0.2483 -0.5869 -0.3232
  445TMC3    C8 6638   4.556   2.501  17.464  0.3914  0.0245  0.2133
  445TMC3    O1 6639   0.320   2.664  17.152  0.5473  0.6282 -0.4540
  445TMC3    O2 6640   4.432   2.517  17.472  0.1926 -0.4850 -0.2180
  446MPD2     C 6641   4.030   3.554  11.336  0.0911 -0.9191 -0.0469
  446MPD2    C1 6642   4.008   3.472  11.223 -0.1330 -0.2865  0.1984
  446MPD2    C2 6643   4.115   3.441  11.143 -0.6070 -0.0604  0.0778
  446MPD2    C3 6644   4.246   3.480  11.176  0.1206  0.2631 -0.2269
  446MPD2    C4 6645   4.267   3.557  11.286  0.1434  0.5371  0.2341
  446MPD2    C5 6646   4.160   3.590  11.367 -0.1066 -0.7051  0.0400
  446MPD2     H 6647   4.094   3.395  11.047 -3.9397 -1.8751  1.6934
  446MPD2    H1 6648   4.366   3.589  11.316  0.8345 -1.9806  0.6332
  446MPD2    H2 6649   3.961   3.582  11.415 -0.2431  0.1823 -0.7242
  446MPD2    H3 6650   4.189   3.644  11.457  1.2174 -1.7611  0.2466
  446MPD2     N 6651   4.351   3.438  11.091 -0.4886  0.3294  0.4420
  446MPD2    H5 6652   4.327   3.388  11.007  0.3613 -0.4749  0.6812
  446MPD2    N1 6653   3.878   3.418  11.193 -0.6590  0.2049  0.2711
  446MPD2    H7 6654   3.868   3.348  11.120 -2.6427  1.8183 -1.0134
  447TMC3    C1 6655   4.563   3.399  11.012 -0.9177 -0.8589  0.1375
  447TMC3    C2 6656   4.510   3.433  10.895  0.2971 -0.1181 -0.1772
  447TMC3    C3 6657   4.570   3.378  10.782 -0.1648  0.6095  0.2009
  447TMC3    C4 6658   4.667   3.311  11.032  0.6524  0.6790 -0.1703
  447TMC3    C5 6659   4.714   3.253  10.912  0.0799 -0.0729  0.2381
  447TMC3    C6 6660   4.685   3.310  10.793  0.1228 -0.2807 -0.4091
  447TMC3     C 6661   4.485   3.444  11.128 -0.3844  0.6301 -0.3841
  447TMC3     O 6662   4.536   3.448  11.240 -0.3599  0.3117 -0.2787
  447TMC3     H 6663   4.441   3.514  10.877  0.6685  0.5362  1.2729
  447TMC3    H1 6664   4.711   3.290  11.129 -1.9561  0.4762  0.9983
  447TMC3    H2 6665   4.722   3.255  10.707  1.0987 -0.2733  0.0036
  447TMC3    C7 6666   0.106   3.166  10.931  0.5417  0.0023 -0.2534
  447TMC3    C8 6667   4.558   3.470  10.666  0.2104  0.2813 -0.3807
  447TMC3    O1 6668   0.189   3.169  10.842  0.4294  0.1655  0.4824
  447TMC3    O2 6669   4.454   3.530  10.654 -0.3333  0.4817 -0.0415
  448TMC3    C1 6670   1.778   3.869  17.375  0.7235  0.0976  0.5805
  448TMC3    C2 6671   1.806   3.853  17.236  0.4982  0.3369 -0.7090
  448TMC3    C3 6672   1.936   3.871  17.198 -0.3776 -1.3826 -0.0724
  448TMC3    C4 6673   1.873   3.887  17.468  0.6364 -0.2298  0.2399
  448TMC3    C5 6674   1.996   3.901  17.418 -0.4899 -0.1300  0.6753
  448TMC3    C6 6675   2.035   3.898  17.289 -0.2177  0.2673 -0.0833
  448TMC3     C 6676   1.636   3.884  17.406  0.3707 -0.2045 -0.1642
  448TMC3     O 6677   1.612   3.941  17.511 -0.0246 -0.0828  0.2990
  448TMC3     H 6678   1.720   3.866  17.172 -0.4962  0.4377  0.6428
  448TMC3    H1 6679   1.844   3.903  17.572 -0.8206 -1.0207 -0.0547
  448TMC3    H2 6680   2.139   3.917  17.264  0.3490 -3.4046 -0.4570
  448TMC3    C7 6681   2.091   3.950  17.511 -0.3125  0.1710  0.6671
  448TMC3    C8 6682   1.988   3.831  17.062  0.0942 -0.8909 -0.4572
  448TMC3    O1 6683   2.165   4.042  17.472  0.3753 -0.3261  0.2666
  448TMC3    O2 6684   2.104   3.797  17.052  0.1195  0.4498  0.1303
  449MPD2     C 6685   3.826   2.245  13.225  0.7952  0.4583  0.1694
  449MPD2    C1 6686   3.752   2.130  13.248 -0.1146  0.9949  0.0634
  449MPD2    C2 6687   3.705   2.104  13.376  0.3646 -0.6078 -0.0359
  449MPD2    C3 6688   3.720   2.190  13.479  0.4064 -0.7857 -0.0372
  449MPD2    C4 6689   3.799   2.304  13.459  0.3706 -0.5317 -0.5760
  449MPD2    C5 6690   3.851   2.326  13.334  1.3151 -0.0106  0.1468
  449MPD2     H 6691   3.648   2.014  13.399  0.3572 -0.5020  0.3498
  449MPD2    H1 6692   3.831   2.377  13.533  0.2527 -0.2876 -0.7628
  449MPD2    H2 6693   3.880   2.259  13.131 -1.5743  0.3194 -1.2047
  449MPD2    H3 6694   3.906   2.418  13.324 -0.4832  0.9903 -0.5414
  449MPD2     N 6695   3.666   2.150  13.603  0.5212  0.0969 -0.2705
  449MPD2    H5 6696   3.612   2.064  13.599  0.3177  0.3118 -2.2848
  449MPD2    N1 6697   3.739   2.024  13.155 -0.0138  0.7200 -0.0397
  449MPD2    H7 6698   3.686   1.947  13.194 -0.6729  0.2487 -1.8683
  450TMC3    C1 6699   3.717   1.902  12.960 -0.1481  0.1135 -0.1681
  450TMC3    C2 6700   3.811   1.801  12.937  0.1294  0.5733  0.2049
  450TMC3    C3 6701   3.762   1.675  12.943  0.3427  0.2227  0.2124
  450TMC3    C4 6702   3.591   1.877  12.996 -0.2186 -0.8307 -0.1971
  450TMC3    C5 6703   3.562   1.747  13.018 -0.0281  1.3059  0.5126
  450TMC3    C6 6704   3.640   1.642  12.987  0.8446 -0.6210  1.0483
  450TMC3     C 6705   3.779   2.019  13.025  0.2914 -0.2047 -0.3485
  450TMC3     O 6706   3.864   2.081  12.956  0.2643  0.2258  0.3148
  450TMC3     H 6707   3.913   1.836  12.924 -0.6131  2.3441 -1.0346
  450TMC3    H1 6708   3.536   1.958  13.044 -0.4004  0.4798 -2.5870
  450TMC3    H2 6709   3.605   1.543  13.014 -0.1752 -0.0947  1.6338
  450TMC3    C7 6710   3.514   1.736  13.155  0.1583  0.2428 -0.6546
  450TMC3    C8 6711   3.852   1.561  12.937 -0.4995  0.6577 -0.3777
  450TMC3    O1 6712   3.580   1.801  13.230  0.4869 -0.0242  0.4098
  450TMC3    O2 6713   3.805   1.456  12.979  0.1185  0.0294  0.2630
  451MPD2     C 6714   4.073   1.706   1.953 -0.0791 -0.4166 -0.0437
  451MPD2    C1 6715   4.121   1.779   1.845  0.2889  0.0663  0.2436
  451MPD2    C2 6716   4.225   1.718   1.773  0.0925  0.1364  0.7001
  451MPD2    C3 6717   4.271   1.590   1.808 -0.1313 -1.3322 -0.6434
  451MPD2    C4 6718   4.219   1.526   1.912 -0.3099  0.1456  0.2450
  451MPD2    C5 6719   4.126   1.585   1.991  0.3430 -0.7285  0.1317
  451MPD2     H 6720   4.284   1.765   1.695  0.1463 -2.8277 -1.0421
  451MPD2    H1 6721   4.260   1.430   1.942 -0.0837  0.0532 -0.3659
  451MPD2    H2 6722   3.987   1.747   2.005  0.3816  0.8399 -0.2749
  451MPD2    H3 6723   4.077   1.521   2.064 -1.3254 -1.3209 -1.4998
  451MPD2     N 6724   4.389   1.530   1.751 -0.8069 -0.3855 -0.1517
  451MPD2    H5 6725   4.421   1.441   1.787  1.6637  1.2929  1.7861
  451MPD2    N1 6726   4.076   1.911   1.817  0.5979  0.0363 -0.7068
  451MPD2    H7 6727   4.008   1.954   1.880  1.2620 -1.5564  1.1089
  452TMC3    C1 6728   4.571   1.518   1.591 -0.2962 -1.0841  0.5354
  452TMC3    C2 6729   4.653   1.463   1.683  0.1205  0.0311  0.0141
  452TMC3    C3 6730   0.063   1.444   1.646 -0.1433 -0.1346 -0.3141
  452TMC3    C4 6731   4.614   1.561   1.467 -0.1194  0.1453 -0.3956
  452TMC3    C5 6732   0.021   1.539   1.434 -0.3560  0.0927 -0.2410
  452TMC3    C6 6733   0.108   1.485   1.520  0.5580  0.4549  0.2439
  452TMC3     C 6734   4.448   1.583   1.638  0.3046  0.8667  0.1359
  452TMC3     O 6735   4.420   1.674   1.565 -0.5378  0.1355 -0.0343
  452TMC3     H 6736   4.626   1.450   1.787 -4.1123 -0.4570 -1.1246
  452TMC3    H1 6737   4.550   1.622   1.404 -1.7734  0.6146  1.7031
  452TMC3    H2 6738   0.210   1.465   1.490 -0.6795 -2.8193 -1.7976
  452TMC3    C7 6739   0.043   1.500   1.297 -0.1027  0.0195  0.8424
  452TMC3    C8 6740   0.148   1.399   1.755  0.0577 -0.1965  0.4878
  452TMC3    O1 6741   0.157   1.478   1.271 -0.4461 -0.0893  0.7598
  452TMC3    O2 6742   0.094   1.336   1.841 -0.2646  0.3079  0.1387
  453TMC3    C1 6743   1.647   2.767  11.658 -0.4108  0.6146 -0.3215
  453TMC3    C2 6744   1.566   2.691  11.743 -0.7549  0.0074  0.0009
  453TMC3    C3 6745   1.520   2.578  11.683 -0.2059  0.1975  0.0689
  453TMC3    C4 6746   1.653   2.747  11.519 -0.0953  0.5860 -0.0870
  453TMC3    C5 6747   1.604   2.627  11.468 -0.2746 -0.1556 -0.8098
  453TMC3    C6 6748   1.535   2.545  11.547 -0.4905 -0.1768  0.3905
  453TMC3     C 6749   1.730   2.865  11.698 -0.2847  0.2444  0.7439
  453TMC3     O 6750   1.800   2.921  11.618 -0.2519 -0.1747  0.8692
  453TMC3     H 6751   1.560   2.705  11.850 -3.9176 -0.7650 -0.0883
  453TMC3    H1 6752   1.693   2.823  11.453  0.3510 -0.1983 -0.7134
  453TMC3    H2 6753   1.496   2.452  11.509  0.3874 -0.1292 -0.6188
  453TMC3    C7 6754   1.671   2.584  11.348  0.2385 -0.2552 -0.2290
  453TMC3    C8 6755   1.411   2.512  11.751  0.1026 -0.4557 -0.4811
  453TMC3    O1 6756   1.739   2.669  11.291  0.3389 -0.4150  0.2078
  453TMC3    O2 6757   1.356   2.571  11.844  0.0109 -0.1536  0.1347
  454MPD2     C 6758   0.246   2.442  16.634  0.7863  0.0472 -0.6813
  454MPD2    C1 6759   0.169   2.557  16.646  0.0153  0.3722 -0.0872
  454MPD2    C2 6760   0.081   2.564  16.757  0.2218  1.0448  0.5977
  454MPD2    C3 6761   0.058   2.452  16.833 -0.0173  0.8655 -0.0723
  454MPD2    C4 6762   0.137   2.346  16.816  0.1749 -0.0034  0.9020
  454MPD2    C5 6763   0.238   2.343  16.723 -0.3176  0.8988  0.0642
  454MPD2     H 6764   0.025   2.656  16.771 -0.6036  0.8766 -1.5407
  454MPD2    H1 6765   0.126   2.254  16.872 -1.3847 -0.1777  0.3202
  454MPD2    H2 6766   0.309   2.421  16.549  0.2134  1.2457 -1.4027
  454MPD2    H3 6767   0.311   2.263  16.722 -1.3481 -0.0385 -0.1553
  454MPD2     N 6768   4.680   2.446  16.941 -0.3371  0.1483 -0.3934
  454MPD2    H5 6769   4.689   2.373  17.012  1.6856 -0.7017 -1.4988
  454MPD2    N1 6770   0.186   2.674  16.567 -0.6456 -0.1484  0.3191
  454MPD2    H7 6771   0.130   2.754  16.597 -2.0699 -0.8836 -0.3707
  455TMC3    C1 6772   4.516   2.603  16.829  0.4520  0.2300  0.4093
  455TMC3    C2 6773   4.471   2.733  16.850  1.2241  0.1983 -0.5236
  455TMC3    C3 6774   4.426   2.801  16.733 -0.3432 -0.1057  0.1109
  455TMC3    C4 6775   4.503   2.539  16.711  0.0530  0.1258  0.8284
  455TMC3    C5 6776   4.459   2.603  16.600 -0.2908 -0.6198 -0.4977
  455TMC3    C6 6777   4.430   2.739  16.608  0.3367 -1.0490  0.3030
  455TMC3     C 6778   4.571   2.535  16.948 -0.1597  0.1514 -0.2114
  455TMC3     O 6779   4.506   2.569  17.051  0.0745  0.0240 -0.3721
  455TMC3     H 6780   4.466   2.784  16.945 -0.5409 -1.0751  0.0707
  455TMC3    H1 6781   4.553   2.443  16.705 -0.6542 -0.3595  2.6544
  455TMC3    H2 6782   4.417   2.794  16.515  0.7166 -0.8683  0.3583
  455TMC3    C7 6783   4.452   2.527  16.478 -0.3476 -0.2331 -0.2668
  455TMC3    C8 6784   4.401   2.942  16.738 -0.2945  0.1427 -1.5299
  455TMC3    O1 6785   4.475   2.588  16.372  0.2383 -0.2845 -0.3931
  455TMC3    O2 6786   4.412   2.991  16.848  0.1228 -1.4253  0.2486
  456MPD2     C 6787   2.598   2.763  16.300 -0.7075 -0.9880 -0.2060
  456MPD2    C1 6788   2.691   2.811  16.395  0.0784  0.5161 -0.4778
  456MPD2    C2 6789   2.649   2.919  16.479 -0.1370  0.0930  0.2397
  456MPD2    C3 6790   2.528   2.985  16.464 -0.5309  0.2496 -0.3984
  456MPD2    C4 6791   2.442   2.928  16.375 -0.4624 -0.3270 -0.1692
  456MPD2    C5 6792   2.473   2.816  16.295  0.0281 -0.4362  0.3245
  456MPD2     H 6793   2.715   2.958  16.555 -0.4645  0.2618  0.4378
  456MPD2    H1 6794   2.344   2.967  16.352  0.2292  1.3454 -0.3195
  456MPD2    H2 6795   2.622   2.688  16.226  0.5181  1.7469 -2.5965
  456MPD2    H3 6796   2.400   2.775  16.227 -0.7332  3.6885 -1.2970
  456MPD2     N 6797   2.502   3.105  16.530  0.4381 -0.2121  0.2873
  456MPD2    H5 6798   2.580   3.142  16.584  0.3853  0.0687  0.1731
  456MPD2    N1 6799   2.816   2.749  16.402  0.6938  0.3827 -0.1878
  456MPD2    H7 6800   2.824   2.674  16.334  2.5687 -0.9778  1.5602
  457TMC3    C1 6801   2.410   3.301  16.592  0.8350  0.6895 -0.2218
  457TMC3    C2 6802   2.327   3.401  16.569 -0.3184 -0.4438  0.1546
  457TMC3    C3 6803   2.360   3.528  16.614  0.1779 -0.2007  0.6254
  457TMC3    C4 6804   2.533   3.321  16.656  0.1112  0.3032  0.2818
  457TMC3    C5 6805   2.568   3.453  16.692 -0.3593 -0.9696  0.0399
  457TMC3    C6 6806   2.484   3.556  16.666 -0.2187  0.1189  0.4059
  457TMC3     C 6807   2.386   3.180  16.522  0.4828 -0.8994 -0.3093
  457TMC3     O 6808   2.282   3.159  16.467  0.3426  0.5338 -0.4824
  457TMC3     H 6809   2.223   3.386  16.541  0.3570 -0.0703 -2.5891
  457TMC3    H1 6810   2.585   3.237  16.702 -1.1062 -0.5899  0.0257
  457TMC3    H2 6811   2.499   3.660  16.695 -0.7573 -0.0987  1.4630
  457TMC3    C7 6812   2.673   3.469  16.797 -0.2112  0.6386 -0.2971
  457TMC3    C8 6813   2.261   3.628  16.642 -0.4188  0.0280 -0.0971
  457TMC3    O1 6814   2.737   3.368  16.833  0.1631  0.2044 -0.1570
  457TMC3    O2 6815   2.293   3.721  16.715 -0.0361 -0.2141  0.9289
  458MPD2     C 6816   0.538   1.759  12.271 -0.3486  0.8059  0.3056
  458MPD2    C1 6817   0.497   1.761  12.403 -0.0387 -0.4195  0.2894
  458MPD2    C2 6818   0.443   1.648  12.469  0.0984  0.3161  0.0908
  458MPD2    C3 6819   0.426   1.531  12.403  0.7186  0.6152  0.2615
  458MPD2    C4 6820   0.464   1.529  12.266 -0.2562  0.4066 -0.2201
  458MPD2    C5 6821   0.523   1.634  12.208 -0.0146 -0.0837  0.1516
  458MPD2     H 6822   0.428   1.654  12.576  0.9125  2.6767  0.0562
  458MPD2    H1 6823   0.455   1.437  12.208  0.3656 -0.3402  0.8542
  458MPD2    H2 6824   0.553   1.856  12.225  0.0890  1.2166  1.2922
  458MPD2    H3 6825   0.545   1.629  12.102 -0.2752 -1.5470  0.1802
  458MPD2     N 6826   0.363   1.428  12.474 -0.1106  0.1754  0.3555
  458MPD2    H5 6827   0.340   1.442  12.572 -0.8474 -1.3775  0.3925
  458MPD2    N1 6828   0.530   1.881  12.469 -0.0662  1.1344 -0.8859
  458MPD2    H7 6829   0.580   1.957  12.425 -0.6072  0.9065 -1.8818
  459TMC3    C1 6830   0.590   2.012  12.659 -0.3891 -0.1304  0.2746
  459TMC3    C2 6831   0.641   2.113  12.579  0.4121 -0.4507  0.1345
  459TMC3    C3 6832   0.712   2.214  12.643  0.4919  0.0949 -0.2176
  459TMC3    C4 6833   0.621   2.010  12.797  0.2616 -0.6138 -0.3625
  459TMC3    C5 6834   0.684   2.114  12.853 -1.2267 -0.0251  0.2713
  459TMC3    C6 6835   0.727   2.216  12.779 -0.2230  0.6502 -0.4781
  459TMC3     C 6836   0.509   1.901  12.606 -0.6282  0.7247 -0.2903
  459TMC3     O 6837   0.437   1.846  12.690  0.4533  0.2871 -0.1581
  459TMC3     H 6838   0.600   2.145  12.484 -1.8927  2.7344  2.1829
  459TMC3    H1 6839   0.581   1.927  12.855 -0.3062 -1.5022 -2.0128
  459TMC3    H2 6840   0.773   2.306  12.817  1.0084  0.3875 -1.3292
  459TMC3    C7 6841   0.701   2.106  12.996  0.4720  0.3231  0.3625
  459TMC3    C8 6842   0.770   2.320  12.568 -0.8313 -0.5580  0.6648
  459TMC3    O1 6843   0.652   2.004  13.048  0.3899  0.1327  0.0424
  459TMC3    O2 6844   0.783   2.431  12.617  0.2222 -0.5329  0.3699
  460MPD2     C 6845   0.123   3.604  10.477  0.4374  0.2684  0.1257
  460MPD2    C1 6846   4.711   3.586  10.510 -0.0727  0.2619  0.9706
  460MPD2    C2 6847   4.615   3.646  10.423 -0.2582  0.2300  0.3560
  460MPD2    C3 6848   4.651   3.729  10.316 -0.4923  0.4536 -0.7107
  460MPD2    C4 6849   0.066   3.746  10.295  0.6915 -0.0039  0.2299
  460MPD2    C5 6850   0.157   3.688  10.379  0.2335  0.0928  0.1171
  460MPD2     H 6851   4.510   3.629  10.444 -0.4610 -0.4135 -1.1602
  460MPD2    H1 6852   0.096   3.800  10.206  0.6116  0.6984  0.6194
  460MPD2    H2 6853   0.205   3.549  10.520 -0.1941 -2.2801 -1.9078
  460MPD2    H3 6854   0.264   3.695  10.363  0.4622  1.5790  2.3435
  460MPD2     N 6855   4.561   3.806  10.229 -0.4480 -0.1961  0.1438
  460MPD2    H5 6856   4.602   3.865  10.157 -1.6964 -1.2320 -1.4250
  460MPD2    N1 6857   4.682   3.499  10.615 -0.9319 -0.9665 -0.4258
  460MPD2    H7 6858   0.037   3.446  10.652 -1.3688 -1.7521 -0.6479
  461TMC3    C1 6859   4.372   3.868  10.118 -0.3709 -0.4136  0.1744
  461TMC3    C2 6860   4.450   3.876  10.009  0.3832  0.1190 -0.1114
  461TMC3    C3 6861   4.401   3.963   9.912  0.1345 -0.5261  0.0927
  461TMC3    C4 6862   4.255   3.933  10.143  0.5023  1.0796 -0.2643
  461TMC3    C5 6863   4.226   4.033  10.057  0.0120 -0.0018  0.3492
  461TMC3    C6 6864   4.290   4.040   9.940  0.0488 -0.3266 -0.0066
  461TMC3     C 6865   4.424   3.797  10.230  0.5156  0.2418  0.0748
  461TMC3     O 6866   4.348   3.728  10.294  0.1865  0.5742 -0.1883
  461TMC3     H 6867   4.525   3.800   9.991 -1.0023 -2.1621  3.8753
  461TMC3    H1 6868   4.213   3.918  10.242  1.0876 -0.8788 -0.3158
  461TMC3    H2 6869   4.257   4.109   9.863  0.4713 -1.9501 -1.6532
  461TMC3    C7 6870   4.087   4.074  10.061  0.0171  0.4438  0.2544
  461TMC3    C8 6871   4.413   3.915   9.778 -0.2072  0.2454  0.3099
  461TMC3    O1 6872   4.024   4.082   9.954  0.5532  0.7606  0.2149
  461TMC3    O2 6873   4.518   3.860   9.753 -0.1349  0.1691  0.2888
  462TMC3    C1 6874   4.407   0.055   0.344 -0.0971  0.5661  0.2629
  462TMC3    C2 6875   4.424   4.652   0.292  0.0296 -0.0205  0.1238
  462TMC3    C3 6876   4.329   4.621   0.191 -0.6949  0.3328 -0.4709
  462TMC3    C4 6877   4.312   0.147   0.311 -0.0942 -0.6477  0.1316
  462TMC3    C5 6878   4.220   0.111   0.219 -0.5337  0.9118 -0.1626
  462TMC3    C6 6879   4.237   4.716   0.151 -0.0451  0.1809 -0.2963
  462TMC3     C 6880   4.531   0.118   0.381  0.4100  0.7257  0.3031
  462TMC3     O 6881   4.638   0.058   0.358  0.0037 -0.2658  0.7969
  462TMC3     H 6882   4.507   4.591   0.325 -0.2758 -1.3129 -1.4893
  462TMC3    H1 6883   4.310   0.249   0.347  0.7496 -1.0383  1.2681
  462TMC3    H2 6884   4.167   4.689   0.072  0.5771  4.1640 -2.2048
  462TMC3    C7 6885   4.103   0.190   0.203  0.4953  0.2888  0.9658
  462TMC3    C8 6886   4.379   4.531   0.092  0.0456 -0.4736 -0.2645
  462TMC3    O1 6887   4.026   0.166   0.115 -0.2009 -0.0085  0.1525
  462TMC3    O2 6888   4.343   4.554  17.668  0.5143 -0.1099  0.0389
  463MPD2     C 6889   0.988   0.299   2.219  0.2230  0.1494  0.6771
  463MPD2    C1 6890   0.985   0.305   2.080  0.3608  0.0234  0.3502
  463MPD2    C2 6891   1.100   0.341   2.006  0.1789 -0.1522  0.4270
  463MPD2    C3 6892   1.221   0.353   2.070  0.0468 -0.9685 -0.3631
  463MPD2    C4 6893   1.221   0.353   2.204 -0.1231 -0.1369  0.3299
  463MPD2    C5 6894   1.111   0.336   2.277  0.3589 -0.4202  0.1948
  463MPD2     H 6895   1.092   0.342   1.898 -2.7930  0.6350  0.6410
  463MPD2    H1 6896   1.309   0.374   2.264 -0.4195  1.5341  0.1740
  463MPD2    H2 6897   0.909   0.279   2.290 -0.6390  0.6481 -0.1376
  463MPD2    H3 6898   1.110   0.331   2.386 -0.0229  1.2044  0.2651
  463MPD2     N 6899   1.345   0.372   2.008  0.0797  0.1892  0.3415
  463MPD2    H5 6900   1.429   0.398   2.058 -0.9763  1.3400  1.5294
  463MPD2    N1 6901   0.869   0.280   2.005 -0.5637 -0.1253  0.0388
  463MPD2    H7 6902   0.873   0.292   1.905 -0.8433  2.5280  0.3261
  464TMC3    C1 6903   0.659   0.224   1.944 -0.5537  0.4680  0.0039
  464TMC3    C2 6904   0.702   0.192   1.821  0.4418 -0.5795  0.4170
  464TMC3    C3 6905   0.606   0.174   1.725 -0.3167  0.0733 -0.9849
  464TMC3    C4 6906   0.529   0.261   1.968  0.3509  0.2136  0.0910
  464TMC3    C5 6907   0.440   0.253   1.868 -0.2353  0.0445 -0.2182
  464TMC3    C6 6908   0.474   0.210   1.740  0.0656  0.2420  0.6286
  464TMC3     C 6909   0.747   0.241   2.055 -0.6606  0.7201 -0.1033
  464TMC3     O 6910   0.715   0.208   2.170  0.2316  0.1575  0.2889
  464TMC3     H 6911   0.802   0.165   1.790  0.7615 -1.9569  2.5952
  464TMC3    H1 6912   0.502   0.283   2.071  0.4006 -2.5933  0.6980
  464TMC3    H2 6913   0.403   0.214   1.658 -0.3617 -0.2094  0.9753
  464TMC3    C7 6914   0.301   0.253   1.907 -0.2063 -0.2024 -0.2533
  464TMC3    C8 6915   0.623   0.063   1.637 -0.0270 -0.7156 -0.6980
  464TMC3    O1 6916   0.284   0.288   2.017 -0.1451  0.5716 -0.4343
  464TMC3    O2 6917   0.530   0.055   1.555  0.7506 -0.1040  0.0185
  465MPD2     C 6918   1.703   3.441  16.787 -0.2073  0.4233  0.1708
  465MPD2    C1 6919   1.806   3.350  16.791 -0.0364 -0.6191 -0.1646
  465MPD2    C2 6920   1.823   3.269  16.678 -0.3512 -0.4060  0.0050
  465MPD2    C3 6921   1.737   3.283  16.565 -0.4324 -0.0557  0.1854
  465MPD2    C4 6922   1.631   3.372  16.567  0.3915  0.6095 -0.7154
  465MPD2    C5 6923   1.623   3.453  16.675 -0.3266  0.3488  0.1337
  465MPD2     H 6924   1.890   3.184  16.669 -1.6564 -1.3202 -1.0918
  465MPD2    H1 6925   1.573   3.394  16.478 -1.1808  0.2986  0.2489
  465MPD2    H2 6926   1.681   3.507  16.870 -3.3703 -1.4464  0.8178
  465MPD2    H3 6927   1.547   3.530  16.673 -0.1270  0.4816 -2.7309
  465MPD2     N 6928   1.760   3.192  16.457 -0.1374 -0.4162 -0.6579
  465MPD2    H5 6929   1.839   3.129  16.465  0.2923  0.2987  0.6601
  465MPD2    N1 6930   1.896   3.329  16.897 -0.2176 -0.2333 -0.8402
  465MPD2    H7 6931   1.973   3.265  16.882  1.7391  2.1601 -1.1421
  466TMC3    C1 6932   1.603   2.860  16.285 -0.1834  0.2868  0.0384
  466TMC3    C2 6933   1.541   2.881  16.164  0.3894  0.6734  0.7364
  466TMC3    C3 6934   1.558   2.991  16.092 -0.3106  0.2872 -0.2882
  466TMC3    C4 6935   1.681   2.958  16.333 -0.3604 -0.0489  0.6589
  466TMC3    C5 6936   1.702   3.074  16.262  0.0908 -0.3200 -0.1782
  466TMC3    C6 6937   1.634   3.086  16.144  1.1014  0.1839 -0.2177
  466TMC3     C 6938   1.508   2.830  16.394  0.7423  0.1041 -0.6205
  466TMC3     O 6939   1.390   2.858  16.380 -0.2085  0.4179  0.5160
  466TMC3     H 6940   1.467   2.805  16.144  0.5357  0.6203  0.3886
  466TMC3    H1 6941   1.704   2.954  16.439  3.1354  2.3583 -0.0017
  466TMC3    H2 6942   1.654   3.177  16.089  1.2114  0.4052  0.1862
  466TMC3    C7 6943   1.670   3.179  16.350  0.2616 -0.1764 -0.1831
  466TMC3    C8 6944   1.431   3.024  16.023  0.7616 -0.5977  0.5288
  466TMC3    O1 6945   1.554   3.205  16.339  0.0680 -0.8453  0.5366
  466TMC3    O2 6946   1.380   2.947  15.941  0.1469 -0.7649 -0.1179
  467TMC3    C1 6947   2.621   1.630  13.639 -1.4078 -0.1989 -0.1100
  467TMC3    C2 6948   2.673   1.664  13.518  0.3088 -0.3384  0.3948
  467TMC3    C3 6949   2.633   1.782  13.463  0.4721  0.1856 -0.0480
  467TMC3    C4 6950   2.548   1.719  13.713  0.1830 -0.7800 -0.4612
  467TMC3    C5 6951   2.496   1.826  13.652  0.9555 -1.0079 -0.2902
  467TMC3    C6 6952   2.531   1.859  13.523 -0.4336  0.4032 -0.9154
  467TMC3     C 6953   2.718   1.556  13.721 -0.6258 -0.1475  0.8964
  467TMC3     O 6954   2.777   1.607  13.816 -0.3983 -0.2984  0.0282
  467TMC3     H 6955   2.754   1.606  13.474 -0.0576 -0.4844 -0.0840
  467TMC3    H1 6956   2.530   1.696  13.818 -0.5845  0.8282 -0.2369
  467TMC3    H2 6957   2.491   1.957  13.498  1.1781  1.9998  2.8028
  467TMC3    C7 6958   2.352   1.851  13.666  0.0385  0.3777  0.3030
  467TMC3    C8 6959   2.718   1.860  13.375  0.1164 -0.2411 -0.6215
  467TMC3    O1 6960   2.305   1.952  13.614  0.0849 -0.1757 -0.2393
  467TMC3    O2 6961   2.693   1.978  13.358 -0.2233 -0.0873  0.3725
  468MPD2     C 6962   2.017   2.887  10.209 -0.1436  0.1485  0.2261
  468MPD2    C1 6963   2.001   2.931  10.340  0.7941  0.7259  0.4060
  468MPD2    C2 6964   1.957   2.843  10.432 -0.6084  0.9174  0.6221
  468MPD2    C3 6965   1.917   2.720  10.392 -0.2392 -0.0291  0.2600
  468MPD2    C4 6966   1.932   2.680  10.261  0.1134 -0.2981 -0.0356
  468MPD2    C5 6967   1.981   2.760  10.170  0.3432  0.2953 -0.3790
  468MPD2     H 6968   1.961   2.867  10.538  0.6001 -0.0266  0.7998
  468MPD2    H1 6969   1.888   2.586  10.229 -0.2444  0.6594 -2.3368
  468MPD2    H2 6970   2.065   2.945  10.131  0.4789  0.8707  1.1421
  468MPD2    H3 6971   1.992   2.718  10.070 -0.1622  2.8909 -1.5112
  468MPD2     N 6972   1.861   2.620  10.476  0.3338  0.1739  0.6467
  468MPD2    H5 6973   1.864   2.527  10.435  3.6001  0.2422  0.7461
  468MPD2    N1 6974   2.036   3.058  10.379  0.1331 -0.3331  0.7364
  468MPD2    H7 6975   2.035   3.072  10.479  0.6736  0.2308  0.6686
  469TMC3    C1 6976   2.110   3.271  10.369  0.1490  0.3236  0.0849
  469TMC3    C2 6977   2.173   3.256  10.484 -0.5438 -0.9015  0.1993
  469TMC3    C3 6978   2.215   3.376  10.550  0.1250 -0.0664  0.7913
  469TMC3    C4 6979   2.085   3.393  10.315 -0.3219 -0.1760  0.3158
  469TMC3    C5 6980   2.122   3.501  10.384 -0.3387 -0.1410 -0.2163
  469TMC3    C6 6981   2.203   3.499  10.491 -0.0644 -0.0404  0.2602
  469TMC3     C 6982   2.068   3.161  10.295  0.9242  0.0210 -0.1664
  469TMC3     O 6983   2.066   3.170  10.174  0.4110 -0.1095  0.4326
  469TMC3     H 6984   2.193   3.159  10.526 -1.3220 -1.0200  0.2878
  469TMC3    H1 6985   2.017   3.403  10.231  1.1285  1.3192 -0.6838
  469TMC3    H2 6986   2.240   3.590  10.539 -0.6636  0.8511 -0.9638
  469TMC3    C7 6987   2.079   3.633  10.327 -0.2590  0.2905 -0.0682
  469TMC3    C8 6988   2.333   3.357  10.638 -0.4068 -0.2731  0.4750
  469TMC3    O1 6989   2.052   3.635  10.212 -0.0382 -0.0772 -0.1633
  469TMC3    O2 6990   2.389   3.255  10.628 -0.0503  0.1421 -0.1345
  470TMC3    C1 6991   4.031   1.936   0.898  0.3115  0.6852  0.3494
  470TMC3    C2 6992   4.011   2.071   0.884 -0.7856  0.1567 -0.3317
  470TMC3    C3 6993   4.022   2.150   0.994  0.1049  0.3204  0.0065
  470TMC3    C4 6994   4.037   1.881   1.025  1.2588  0.3243  0.0749
  470TMC3    C5 6995   4.033   1.963   1.134  0.7651 -0.4424  0.0150
  470TMC3    C6 6996   4.029   2.097   1.113  0.5472 -0.4094 -0.2140
  470TMC3     C 6997   4.005   1.847   0.792  0.6915  0.8286  0.2848
  470TMC3     O 6998   3.966   1.900   0.691  0.1122  0.0294 -0.0930
  470TMC3     H 6999   3.973   2.114   0.792  0.6561 -0.6858 -1.3237
  470TMC3    H1 7000   4.048   1.774   1.038  0.1353  0.0328 -1.4317
  470TMC3    H2 7001   4.031   2.152   1.207 -1.2631 -2.7287  1.1637
  470TMC3    C7 7002   4.040   1.911   1.269  0.2942 -0.1780  0.4594
  470TMC3    C8 7003   3.975   2.292   0.997  0.0944  0.5499  0.0915
  470TMC3    O1 7004   3.995   1.976   1.364 -0.2972  0.1434 -0.1550
  470TMC3    O2 7005   3.926   2.329   1.102  0.3884  0.1976  0.1834
  471MPD2     C 7006   3.864   1.958  16.876 -0.0071  0.3684 -0.3320
  471MPD2    C1 7007   3.973   1.894  16.820 -0.2280  0.1371  0.2532
  471MPD2    C2 7008   4.087   1.862  16.901 -0.1306 -0.7435 -0.5601
  471MPD2    C3 7009   4.089   1.895  17.040 -0.0302 -0.2438  0.2915
  471MPD2    C4 7010   3.977   1.956  17.083 -0.4032 -0.3342 -0.3026
  471MPD2    C5 7011   3.865   1.988  17.006  0.0493 -0.5900  0.9550
  471MPD2     H 7012   4.165   1.799  16.860  1.7561  2.5372 -1.9833
  471MPD2    H1 7013   3.972   1.989  17.186  0.5914  0.0527 -0.3748
  471MPD2    H2 7014   3.786   1.996  16.811 -2.6363 -0.8102  2.1916
  471MPD2    H3 7015   3.780   2.038  17.051  0.5337  0.2547  0.9301
  471MPD2     N 7016   4.196   1.875  17.128 -0.3392  0.5622 -0.1365
  471MPD2    H5 7017   4.182   1.904  17.224 -0.3127 -2.5211  0.7796
  471MPD2    N1 7018   3.981   1.863  16.677 -0.0579  0.5820  0.5725
  471MPD2    H7 7019   4.075   1.835  16.649 -0.3131  1.0448 -0.7384
  472TMC3    C1 7020   3.892   1.839  16.456 -0.2718 -0.6636  0.1170
  472TMC3    C2 7021   3.784   1.803  16.386 -0.0024  0.3123 -0.2861
  472TMC3    C3 7022   3.803   1.774  16.254 -0.1026 -0.4836  0.0349
  472TMC3    C4 7023   4.017   1.823  16.410  0.1696 -0.1731  0.2914
  472TMC3    C5 7024   4.034   1.809  16.278  0.3839 -0.4928 -0.4063
  472TMC3    C6 7025   3.928   1.785  16.194 -0.1282  0.4615 -0.2500
  472TMC3     C 7026   3.870   1.865  16.595 -0.3604 -0.3620 -0.5117
  472TMC3     O 7027   3.754   1.886  16.630  0.3131  0.4095  0.1233
  472TMC3     H 7028   3.684   1.794  16.428 -0.8179  0.8175 -2.1376
  472TMC3    H1 7029   4.108   1.846  16.464 -1.3659  3.0213  1.5146
  472TMC3    H2 7030   3.940   1.772  16.087 -0.0514  0.3618 -0.2292
  472TMC3    C7 7031   4.162   1.760  16.235 -0.7264  0.3636 -0.3163
  472TMC3    C8 7032   3.724   1.663  16.198 -0.7207  0.0656 -0.0430
  472TMC3    O1 7033   4.218   1.804  16.137 -0.2324  0.1569 -0.1091
  472TMC3    O2 7034   3.706   1.652  16.076 -0.2474 -0.1014 -0.2914
  473MPD2     C 7035   4.132   4.170  13.937 -0.0438  0.2373  0.1271
  473MPD2    C1 7036   4.240   4.210  13.861  0.0969 -0.5138 -0.0752
  473MPD2    C2 7037   4.350   4.262  13.927 -0.6165  0.6827  0.4227
  473MPD2    C3 7038   4.349   4.276  14.065 -0.0633 -0.6233  0.3875
  473MPD2    C4 7039   4.236   4.239  14.133 -0.3387 -0.6248 -0.4770
  473MPD2    C5 7040   4.123   4.191  14.068 -0.1735 -0.8684 -0.2637
  473MPD2     H 7041   4.433   4.301  13.869 -0.3858 -0.1757  0.1853
  473MPD2    H1 7042   4.219   4.260  14.239  3.9158 -1.4122  0.3346
  473MPD2    H2 7043   4.046   4.132  13.883  1.3316 -0.6788 -1.4281
  473MPD2    H3 7044   4.029   4.162  14.112 -0.6909  0.6213 -0.3773
  473MPD2     N 7045   4.448   4.339  14.131  0.7370  0.5388  0.0826
  473MPD2    H5 7046   4.427   4.361  14.228 -0.2525  0.1733 -0.0481
  473MPD2    N1 7047   4.240   4.222  13.722  0.6565 -0.3628 -0.7329
  473MPD2    H7 7048   4.323   4.252  13.673  1.3081  1.2849  1.3942
  474TMC3    C1 7049   4.605   4.497  14.149 -0.6412  0.5696  0.3291
  474TMC3    C2 7050   4.509   4.593  14.186  0.5373 -0.0272 -0.5972
  474TMC3    C3 7051   4.552   4.693  14.266 -0.1977  0.5560  1.0812
  474TMC3    C4 7052   0.011   4.507  14.189 -0.1683 -0.0088  0.0802
  474TMC3    C5 7053   0.048   4.605  14.277 -0.5280  0.0659 -0.3889
  474TMC3    C6 7054   4.674   4.686  14.326  0.1980  0.2561 -0.0507
  474TMC3     C 7055   4.559   4.387  14.081  0.1347 -0.4318  0.3926
  474TMC3     O 7056   4.613   4.374  13.970  1.0768  0.1563 -0.1431
  474TMC3     H 7057   4.411   4.596  14.139  1.1308  0.5123 -1.8174
  474TMC3    H1 7058   0.080   4.428  14.159  1.4303  1.8325 -1.0694
  474TMC3    H2 7059   4.693   0.045  14.395 -0.8784 -0.8727  1.5842
  474TMC3    C7 7060   0.168   4.574  14.342  0.2500  0.3533 -0.3795
  474TMC3    C8 7061   4.513   0.103  14.231 -0.6577  0.2568  0.3907
  474TMC3    O1 7062   0.261   4.533  14.274  0.5322  0.2988  0.2076
  474TMC3    O2 7063   4.555   0.195  14.299 -0.5519  0.3167  0.0838
  475MPD2     C 7064   2.985   1.392  10.147 -0.9109 -0.3118 -0.8262
  475MPD2    C1 7065   2.923   1.514  10.108 -0.4835 -0.0624  0.0852
  475MPD2    C2 7066   2.794   1.540  10.153 -0.6806 -0.3259  0.5222
  475MPD2    C3 7067   2.730   1.456  10.242  0.1792 -0.2034  0.2054
  475MPD2    C4 7068   2.795   1.338  10.275 -0.3572  0.5996 -0.0927
  475MPD2    C5 7069   2.917   1.310  10.233 -0.0784 -0.2145 -0.3113
  475MPD2     H 7070   2.752   1.633  10.117  0.3891  1.1220  3.0011
  475MPD2    H1 7071   2.762   1.264  10.347 -1.5972 -0.8388 -2.1600
  475MPD2    H2 7072   3.085   1.361  10.118 -0.6411  0.9688 -1.2885
  475MPD2    H3 7073   2.952   1.212  10.265 -1.8112 -0.5968  0.4181
  475MPD2     N 7074   2.612   1.497  10.310 -0.7632 -0.3090  0.0447
  475MPD2    H5 7075   2.568   1.580  10.271  2.3614  0.0949 -2.6441
  475MPD2    N1 7076   2.995   1.601  10.022 -0.0472 -0.1327 -0.7786
  475MPD2    H7 7077   3.091   1.581   9.994 -0.6027 -1.4779 -1.7200
  476TMC3    C1 7078   3.040   1.789   9.896  0.1846 -0.6871 -0.0460
  476TMC3    C2 7079   2.992   1.882   9.808  0.0473  0.6237 -0.2807
  476TMC3    C3 7080   3.034   2.012   9.809 -0.0922  0.0178 -0.1417
  476TMC3    C4 7081   3.147   1.829   9.969 -0.4536 -0.8209 -0.3164
  476TMC3    C5 7082   3.195   1.954   9.962  0.2257  0.8248 -0.7129
  476TMC3    C6 7083   3.141   2.051   9.888 -0.6070 -0.0209  0.2551
  476TMC3     C 7084   2.941   1.706   9.959  0.3689 -0.0998  0.3435
  476TMC3     O 7085   2.827   1.737   9.937  0.7187 -0.6469 -0.5700
  476TMC3     H 7086   2.907   1.857   9.746  0.0183 -1.3720  0.5577
  476TMC3    H1 7087   3.183   1.770  10.053  0.4744 -2.0868 -1.6216
  476TMC3    H2 7088   3.177   2.154   9.893  2.0250 -0.8589 -1.1299
  476TMC3    C7 7089   3.266   2.001  10.079  0.7041  0.0705  1.3787
  476TMC3    C8 7090   2.928   2.117   9.804  0.5907  0.2868 -0.1639
  476TMC3    O1 7091   3.213   1.973  10.187  1.1077  0.5565 -0.2783
  476TMC3    O2 7092   2.960   2.233   9.799 -0.1038 -0.0081  0.2364
  477MPD2     C 7093   0.107   2.601  11.584  0.1327  0.9973  0.4844
  477MPD2    C1 7094   0.087   2.725  11.639 -0.6290 -0.0952  0.6423
  477MPD2    C2 7095   0.181   2.762  11.730 -0.4296 -0.7922 -0.3992
  477MPD2    C3 7096   0.290   2.679  11.762 -0.2758  0.5407  0.6080
  477MPD2    C4 7097   0.297   2.552  11.713 -0.1879 -0.5733  0.5352
  477MPD2    C5 7098   0.208   2.518  11.617  0.1915 -0.1148  0.2107
  477MPD2     H 7099   0.175   2.853  11.789  0.7067 -1.4095  0.6675
  477MPD2    H1 7100   0.377   2.482  11.733  0.3280 -0.2106 -0.2417
  477MPD2    H2 7101   0.028   2.567  11.518 -0.0799 -0.1581  1.3394
  477MPD2    H3 7102   0.223   2.420  11.572  0.0934  0.5895 -1.3502
  477MPD2     N 7103   0.396   2.726  11.850 -0.1269  0.6185 -0.1704
  477MPD2    H5 7104   0.376   2.795  11.921  0.8763  0.5629  0.1628
  477MPD2    N1 7105   4.698   2.798  11.598  0.0228  0.3824  0.1362
  477MPD2    H7 7106   4.641   2.753  11.527  4.2215  0.9514 -3.5787
  478TMC3    C1 7107   4.594   3.020  11.562  0.4387  0.3553  0.3326
  478TMC3    C2 7108   4.570   3.132  11.623 -0.6058  0.0075  0.2193
  478TMC3    C3 7109   4.475   3.219  11.565  0.4832  0.4771  0.0132
  478TMC3    C4 7110   4.541   2.998  11.438 -0.7475  0.6504  0.3224
  478TMC3    C5 7111   4.449   3.082  11.380  0.2594 -0.1243  0.1866
  478TMC3    C6 7112   4.422   3.206  11.435 -0.2320  0.3773  0.0169
  478TMC3     C 7113   4.680   2.927  11.641 -0.2749  0.3067 -0.5164
  478TMC3     O 7114   0.011   2.981  11.738 -0.7623 -0.2368 -0.5217
  478TMC3     H 7115   4.595   3.156  11.726 -0.3425  0.9032 -0.0528
  478TMC3    H1 7116   4.590   2.924  11.376 -1.8425 -0.4136  0.7399
  478TMC3    H2 7117   4.368   3.285  11.383  1.8774  2.8688  1.6290
  478TMC3    C7 7118   4.447   3.054  11.233 -0.1420  0.2205 -0.6790
  478TMC3    C8 7119   4.471   3.349  11.620  0.3201 -0.4287 -0.5637
  478TMC3    O1 7120   4.555   3.023  11.188 -0.2773  0.4921  0.2258
  478TMC3    O2 7121   4.447   3.358  11.740  0.3416  0.2257  0.0926
  479MPD2     C 7122   3.651   0.640  15.194 -0.4934  0.0088  0.0127
  479MPD2    C1 7123   3.556   0.735  15.160 -0.0841 -0.0420 -0.0963
  479MPD2    C2 7124   3.567   0.862  15.201  0.4980  0.7300 -0.2678
  479MPD2    C3 7125   3.673   0.900  15.279 -0.3049 -0.9374  0.3796
  479MPD2    C4 7126   3.760   0.799  15.320  0.3612  0.3519 -0.6486
  479MPD2    C5 7127   3.758   0.673  15.273  0.3652  0.8505  0.2609
  479MPD2     H 7128   3.487   0.934  15.187  0.7592  1.2302  0.8026
  479MPD2    H1 7129   3.838   0.825  15.391 -0.9848  0.1039  0.9250
  479MPD2    H2 7130   3.639   0.538  15.160  0.1368 -0.9001  2.5402
  479MPD2    H3 7131   3.825   0.598  15.313 -0.1017 -0.2805 -1.0775
  479MPD2     N 7132   3.679   1.028  15.348 -0.0882 -0.2425 -0.1294
  479MPD2    H5 7133   3.748   1.049  15.419 -1.0766  1.1722  0.3989
  479MPD2    N1 7134   3.439   0.690  15.100 -0.2371  0.7255 -0.1307
  479MPD2    H7 7135   3.438   0.592  15.076  0.5070  0.1245  2.2564
  480TMC3    C1 7136   3.845   1.265  15.537 -0.5949 -0.5760  0.7318
  480TMC3    C2 7137   3.908   1.349  15.448  0.1860  0.3456  0.6029
  480TMC3    C3 7138   3.832   1.393  15.340  0.1203  0.3875  0.3732
  480TMC3    C4 7139   3.728   1.212  15.503  0.2897 -0.5550 -0.1367
  480TMC3    C5 7140   3.659   1.254  15.390 -0.3257  0.0369 -0.1980
  480TMC3    C6 7141   3.710   1.347  15.305 -0.1361  0.0501  0.0350
  480TMC3     C 7142   3.926   1.191  15.642  0.4437  0.1324  0.1309
  480TMC3     O 7143   3.878   1.079  15.660  0.7709 -0.3478  0.2116
  480TMC3     H 7144   4.010   1.378  15.468  1.3481 -1.2974 -2.9090
  480TMC3    H1 7145   3.686   1.138  15.569 -1.0673 -1.8833 -2.4765
  480TMC3    H2 7146   3.657   1.372  15.214  0.4324  0.3149 -0.2218
  480TMC3    C7 7147   3.616   1.143  15.309  0.1048  0.7747 -0.1198
  480TMC3    C8 7148   3.919   1.461  15.248  0.3174  0.4765  0.3863
  480TMC3    O1 7149   3.547   1.166  15.209 -0.8359  0.2911  0.2728
  480TMC3    O2 7150   4.027   1.501  15.290  0.2024  0.7940  0.2763
  481MPD2     C 7151   1.342   0.489  14.233  0.5103  0.0170  0.3686
  481MPD2    C1 7152   1.214   0.535  14.242  0.0774  0.5016  0.1909
  481MPD2    C2 7153   1.162   0.563  14.368 -0.0693  0.3539  0.0986
  481MPD2    C3 7154   1.232   0.542  14.481 -0.4586  0.5899 -0.3928
  481MPD2    C4 7155   1.359   0.494  14.467  0.3504  0.2335 -0.0936
  481MPD2    C5 7156   1.410   0.471  14.342  0.3130 -0.4632 -0.0622
  481MPD2     H 7157   1.064   0.609  14.380 -0.1725 -0.2948  1.7308
  481MPD2    H1 7158   1.414   0.464  14.556 -1.0078  0.2753  0.7655
  481MPD2    H2 7159   1.396   0.477  14.140  1.2697 -1.3090  0.9668
  481MPD2    H3 7160   1.513   0.438  14.330  0.0473 -1.3735  0.1808
  481MPD2     N 7161   1.184   0.564  14.616  0.1109 -0.4492  0.6109
  481MPD2    H5 7162   1.253   0.544  14.688 -0.4379  0.1945  1.3244
  481MPD2    N1 7163   1.135   0.540  14.128  0.1410 -0.4801 -0.4041
  481MPD2    H7 7164   1.180   0.501  14.045  2.2257  0.4033  0.3074
  482TMC3    C1 7165   0.965   0.601  13.977 -0.1791 -0.0117  0.1348
  482TMC3    C2 7166   1.002   0.488  13.906  0.0131  0.0042 -0.0365
  482TMC3    C3 7167   0.918   0.449  13.805  0.0804  1.1478  0.1226
  482TMC3    C4 7168   0.861   0.678  13.946  0.2167  0.0228  0.3226
  482TMC3    C5 7169   0.776   0.635  13.851  0.0965 -0.0516 -0.2201
  482TMC3    C6 7170   0.800   0.514  13.778  0.2445 -0.5192 -0.7969
  482TMC3     C 7171   1.023   0.618  14.110  0.6550  0.6774 -0.0379
  482TMC3     O 7172   0.961   0.681  14.196 -0.0950  0.5081  0.0497
  482TMC3     H 7173   1.093   0.435  13.933  0.4987  0.8930  0.0669
  482TMC3    H1 7174   0.836   0.766  14.004  0.3414 -0.1492  0.6376
  482TMC3    H2 7175   0.728   0.482  13.703 -2.6431  1.0392  1.2867
  482TMC3    C7 7176   0.639   0.696  13.858 -0.0184  0.1711  0.3709
  482TMC3    C8 7177   0.957   0.340  13.716  0.4486  0.1607  1.5542
  482TMC3    O1 7178   0.628   0.800  13.921 -0.0333  0.3845  0.2688
  482TMC3    O2 7179   0.881   0.311  13.625  0.1466  0.3020 -0.4667
  483TMC3    C1 7180   2.659   4.722   0.445  0.9768  0.2296  0.2202
  483TMC3    C2 7181   2.653   0.129   0.422 -0.2653  0.5212 -0.2905
  483TMC3    C3 7182   2.714   0.213   0.507  0.5477  0.2092 -0.0922
  483TMC3    C4 7183   2.742   4.672   0.542  0.1773  0.0706  0.5102
  483TMC3    C5 7184   2.811   0.036   0.625  0.0840  0.2819 -0.7835
  483TMC3    C6 7185   2.794   0.174   0.608 -0.5910  1.3247  0.5640
  483TMC3     C 7186   2.552   4.635   0.404  0.3569 -0.1584 -0.3921
  483TMC3     O 7187   2.494   4.664   0.296  0.0363  0.1817 -0.0253
  483TMC3     H 7188   2.574   0.153   0.352  0.0903 -0.6622 -1.1045
  483TMC3    H1 7189   2.759   4.564   0.542 -2.5746 -0.3524  2.9195
  483TMC3    H2 7190   2.858   0.235   0.671  0.5756  1.4923 -0.7829
  483TMC3    C7 7191   2.930   4.700   0.688 -0.0614  0.3821  0.5126
  483TMC3    C8 7192   2.768   0.328   0.443  0.6143 -0.4100  0.0928
  483TMC3    O1 7193   3.007   0.065   0.721  0.3377 -0.5959  0.0268
  483TMC3    O2 7194   2.880   0.373   0.473  0.3680  0.0513  0.4017
  484MPD2     C 7195   0.906   2.491  12.371 -0.6906  0.1144  0.3970
  484MPD2    C1 7196   0.922   2.351  12.377 -0.0585  0.6677  0.4380
  484MPD2    C2 7197   1.007   2.281  12.296  0.3231 -0.1741  0.0276
  484MPD2    C3 7198   1.100   2.356  12.229  0.1673  0.1313 -0.1662
  484MPD2    C4 7199   1.091   2.494  12.217  0.2173 -0.3809 -0.6613
  484MPD2    C5 7200   0.996   2.562  12.291  0.5224 -0.0286  0.7446
  484MPD2     H 7201   1.009   2.173  12.296  0.0989 -0.1785  0.1043
  484MPD2    H1 7202   1.146   2.550  12.141 -1.5525 -0.1085 -1.7388
  484MPD2    H2 7203   0.821   2.537  12.420 -1.0789  0.6698 -0.8048
  484MPD2    H3 7204   0.976   2.666  12.267 -1.7024 -0.8038 -0.8121
  484MPD2     N 7205   1.206   2.300  12.154 -0.4597  0.0892 -0.5179
  484MPD2    H5 7206   1.268   2.379  12.141  1.6496 -1.3959  0.6079
  484MPD2    N1 7207   0.835   2.270  12.460  0.1168  0.3382  0.0563
  484MPD2    H7 7208   0.838   2.171  12.440 -0.3490  0.5262 -0.9126
  485TMC3    C1 7209   1.379   2.142  12.129  1.1991 -0.1724 -0.7003
  485TMC3    C2 7210   1.436   2.036  12.194 -0.1618  0.9446 -0.1447
  485TMC3    C3 7211   1.569   2.020  12.190 -0.6119 -0.4195 -0.0331
  485TMC3    C4 7212   1.454   2.234  12.055  1.1041  0.0925 -0.4074
  485TMC3    C5 7213   1.586   2.210  12.045  0.0059  0.1445 -0.4565
  485TMC3    C6 7214   1.646   2.107  12.114  0.5533  0.4764 -0.0590
  485TMC3     C 7215   1.237   2.161  12.155 -0.6788  0.1850  0.5604
  485TMC3     O 7216   1.169   2.060  12.172  0.3803 -0.2171 -0.1144
  485TMC3     H 7217   1.364   1.972  12.244 -0.4401  1.7094  0.4231
  485TMC3    H1 7218   1.417   2.316  11.995  1.8937  1.4082  0.8927
  485TMC3    H2 7219   1.753   2.096  12.102  0.7827  0.4107  2.0953
  485TMC3    C7 7220   1.629   2.206  11.908  0.3299 -0.3556  0.0808
  485TMC3    C8 7221   1.627   1.898  12.161 -0.0923  0.0159  0.0019
  485TMC3    O1 7222   1.617   2.306  11.837 -0.1421  0.1993 -0.2884
  485TMC3    O2 7223   1.579   1.847  12.061 -0.0297 -0.8094 -0.0125
  486MPD2     C 7224   3.277   1.067  13.059  0.2463  0.0040  0.2974
  486MPD2    C1 7225   3.233   1.050  12.931  0.0340  0.2172 -0.2464
  486MPD2    C2 7226   3.256   1.156  12.841  0.0988 -0.0278 -0.1474
  486MPD2    C3 7227   3.306   1.278  12.886 -0.7328  0.3354  0.3976
  486MPD2    C4 7228   3.333   1.291  13.022 -0.2551  0.2529  0.1471
  486MPD2    C5 7229   3.313   1.190  13.109 -0.4230  0.2314  0.2350
  486MPD2     H 7230   3.235   1.141  12.736 -1.7852  3.0660 -0.2027
  486MPD2    H1 7231   3.384   1.375  13.069 -1.5658 -0.2932  2.5407
  486MPD2    H2 7232   3.269   0.986  13.131 -0.2896  0.7035  1.0354
  486MPD2    H3 7233   3.351   1.198  13.211 -0.2849 -1.3431  0.3011
  486MPD2     N 7234   3.342   1.379  12.791  0.9577 -0.4597  0.0562
  486MPD2    H5 7235   3.348   1.354  12.693 -3.5045 -0.1437 -0.2964
  486MPD2    N1 7236   3.176   0.929  12.895 -0.0491  0.3764 -0.1983
  486MPD2    H7 7237   3.177   0.848  12.956  0.3568  0.6787  0.1889
  487TMC3    C1 7238   3.051   0.760  12.779 -0.0517 -0.4872  0.3571
  487TMC3    C2 7239   2.961   0.739  12.678  0.2527 -0.2489  0.2062
  487TMC3    C3 7240   2.905   0.618  12.668  0.1947 -0.4902 -0.6321
  487TMC3    C4 7241   3.101   0.658  12.851 -1.0317  0.0486 -0.8678
  487TMC3    C5 7242   3.037   0.535  12.846  0.2322 -0.1838  0.0902
  487TMC3    C6 7243   2.937   0.513  12.755  0.1666 -0.4061  0.4563
  487TMC3     C 7244   3.114   0.894  12.776  0.6630  0.2705  0.0062
  487TMC3     O 7245   3.100   0.963  12.675 -0.5810  0.3088 -0.1692
  487TMC3     H 7246   2.933   0.821  12.613 -0.8470  1.5121  2.9259
  487TMC3    H1 7247   3.168   0.686  12.931 -1.0488  0.5675 -1.0355
  487TMC3    H2 7248   2.924   0.412  12.719 -1.4132 -0.2222  0.4949
  487TMC3    C7 7249   3.028   0.471  12.972  0.3521 -0.5600 -0.4134
  487TMC3    C8 7250   2.771   0.624  12.639  0.8491 -0.4516 -0.1575
  487TMC3    O1 7251   3.111   0.502  13.057 -0.0665  0.7068  0.3431
  487TMC3    O2 7252   2.716   0.732  12.606  0.0024  0.4081 -0.0110
  488MPD2     C 7253   3.258   3.217  16.401  0.3139  0.6291  0.3718
  488MPD2    C1 7254   3.245   3.353  16.410  0.4731  0.4122  1.1757
  488MPD2    C2 7255   3.219   3.409  16.537 -0.1759 -0.0260  0.5940
  488MPD2    C3 7256   3.202   3.327  16.646  0.0001 -0.0480 -0.0691
  488MPD2    C4 7257   3.200   3.191  16.626  0.2142 -0.1691  0.0797
  488MPD2    C5 7258   3.236   3.134  16.506  0.4427  0.6709 -0.0239
  488MPD2     H 7259   3.226   3.517  16.548 -0.0825 -0.1581  1.8957
  488MPD2    H1 7260   3.190   3.124  16.711  2.8268  0.3475  0.7777
  488MPD2    H2 7261   3.279   3.160  16.311  0.2905 -0.2187  0.8919
  488MPD2    H3 7262   3.255   3.028  16.498 -0.5444  0.4154  1.0794
  488MPD2     N 7263   3.168   3.393  16.767  0.0361 -0.1571  0.1321
  488MPD2    H5 7264   3.159   3.494  16.769 -2.2059 -0.3915  0.7665
  488MPD2    N1 7265   3.296   3.434  16.304  0.0753 -0.1392 -0.2552
  488MPD2    H7 7266   3.307   3.531  16.332 -0.9707 -0.2759  0.6302
  489TMC3    C1 7267   3.130   3.408  16.990 -0.0771  0.2981  0.3360
  489TMC3    C2 7268   3.082   3.529  16.944 -0.5640  0.0693 -0.0305
  489TMC3    C3 7269   3.139   3.641  16.994 -0.8432  0.1331 -0.5741
  489TMC3    C4 7270   3.205   3.401  17.103 -0.1091 -0.2689 -0.3080
  489TMC3    C5 7271   3.250   3.522  17.162  0.2114 -0.3127 -1.1335
  489TMC3    C6 7272   3.230   3.637  17.099  0.0090  0.9488  0.1925
  489TMC3     C 7273   3.154   3.319  16.883  0.1993 -0.0927 -0.5715
  489TMC3     O 7274   3.189   3.210  16.919 -0.8033  0.0921  0.2466
  489TMC3     H 7275   3.012   3.526  16.861 -1.8284  1.8072  0.9963
  489TMC3    H1 7276   3.235   3.305  17.142 -2.1542 -0.2420  1.3115
  489TMC3    H2 7277   3.278   3.725  17.141  1.3876 -1.1060  2.9680
  489TMC3    C7 7278   3.337   3.523  17.282 -0.0206  0.5434  0.0643
  489TMC3    C8 7279   3.145   3.748  16.902 -0.2047 -0.6981  0.0362
  489TMC3    O1 7280   3.376   3.634  17.328  0.3394 -0.3785 -0.0807
  489TMC3    O2 7281   3.107   3.724  16.788 -0.5938  0.0442 -0.1619
  490MPD2     C 7282   4.306   3.139  17.588  0.3495 -0.5436  0.6964
  490MPD2    C1 7283   4.296   3.030  17.674  0.2507  0.0330 -0.1990
  490MPD2    C2 7284   4.326   3.045   0.116  0.6039  0.0131  0.2569
  490MPD2    C3 7285   4.371   3.165   0.166  0.0893  0.0511  0.6166
  490MPD2    C4 7286   4.370   3.274   0.082 -0.8938 -0.1093 -1.6765
  490MPD2    C5 7287   4.347   3.257  17.637  0.6027 -0.4223 -0.8795
  490MPD2     H 7288   4.314   2.957   0.178  2.3656 -0.1742  0.3531
  490MPD2    H1 7289   4.399   3.372   0.117  1.1076 -1.3039  0.0057
  490MPD2    H2 7290   4.288   3.128  17.482 -0.3520  1.5611  0.5949
  490MPD2    H3 7291   4.354   3.335  17.562  1.2624 -0.4259 -0.8241
  490MPD2     N 7292   4.423   3.174   0.297 -0.2153 -0.8452 -0.5362
  490MPD2    H5 7293   4.475   3.259   0.314 -2.2479 -0.3917  3.2991
  490MPD2    N1 7294   4.235   2.904  17.638 -0.0286 -0.0811  0.6778
  490MPD2    H7 7295   4.222   2.837   0.019  1.7900 -1.1545  0.0245
  491TMC3    C1 7296   4.126   2.743  17.507  0.1400  0.0827 -0.1533
  491TMC3    C2 7297   4.161   2.629  17.584 -0.0827 -0.3877 -0.5409
  491TMC3    C3 7298   4.103   2.510  17.554 -0.3961 -0.2000 -0.2857
  491TMC3    C4 7299   4.056   2.724  17.394  0.2396 -0.0126  0.7555
  491TMC3    C5 7300   3.997   2.600  17.375  0.3525 -0.3867 -0.0339
  491TMC3    C6 7301   4.017   2.497  17.457 -0.2445  0.0293 -0.3638
  491TMC3     C 7302   4.163   2.879  17.530  0.2099 -0.3713 -0.3688
  491TMC3     O 7303   4.136   2.965  17.451  0.3536 -0.2739 -0.4718
  491TMC3     H 7304   4.239   2.628  17.660  0.5386  1.0025 -1.1449
  491TMC3    H1 7305   4.036   2.802  17.322  0.6427 -0.0841  0.5637
  491TMC3    H2 7306   3.974   2.401  17.427  0.1205 -0.1140 -0.4260
  491TMC3    C7 7307   3.934   2.573  17.248  0.9891 -0.7964  0.3608
  491TMC3    C8 7308   4.090   2.425  17.670  0.3753 -0.6653  0.0377
  491TMC3    O1 7309   3.933   2.454  17.219 -0.5675  0.0261 -0.6004
  491TMC3    O2 7310   4.153   2.450   0.081  0.3781  0.3835  0.0434
  492MPD2     C 7311   0.065   2.106  11.419  0.5514 -0.2384  0.1622
  492MPD2    C1 7312   0.013   2.012  11.332  0.0412  0.1071  0.1688
  492MPD2    C2 7313   4.656   1.904  11.389  0.2334  0.0139 -0.5693
  492MPD2    C3 7314   4.650   1.886  11.528  0.0367 -0.5945  0.5356
  492MPD2    C4 7315   0.002   1.976  11.608  0.6495  0.0566 -0.4055
  492MPD2    C5 7316   0.054   2.093  11.557 -0.2181  0.2110 -0.1956
  492MPD2     H 7317   4.599   1.833  11.330  0.1779 -0.9891  0.6891
  492MPD2    H1 7318   4.713   1.971  11.715  0.2351  0.5883 -0.4226
  492MPD2    H2 7319   0.129   2.188  11.390  1.2041 -0.6142  0.5247
  492MPD2    H3 7320   0.103   2.165  11.622  0.2078 -0.5078  0.2761
  492MPD2     N 7321   4.582   1.783  11.591  0.0399 -0.5389  0.2582
  492MPD2    H5 7322   4.565   1.799  11.690  0.1763  1.6326 -0.0560
  492MPD2    N1 7323   0.023   2.031  11.190 -0.3296 -0.1973  0.0174
  492MPD2    H7 7324   0.085   2.106  11.160 -0.4535  0.0829  0.4695
  493TMC3    C1 7325   4.712   1.991  10.959 -0.0901 -0.4759 -0.4391
  493TMC3    C2 7326   0.103   2.053  10.919 -0.0688  0.1321 -0.0440
  493TMC3    C3 7327   0.129   2.061  10.787  0.1796 -0.1312  0.1721
  493TMC3    C4 7328   4.628   1.931  10.872 -0.0133  0.0690  0.2558
  493TMC3    C5 7329   4.671   1.939  10.743 -0.2928  0.0179 -0.3246
  493TMC3    C6 7330   0.046   2.012  10.689 -0.1827  0.0869 -0.1068
  493TMC3     C 7331   4.676   1.961  11.100 -0.1469 -0.3023 -0.5481
  493TMC3     O 7332   4.601   1.866  11.119  0.0413 -0.3401 -0.3083
  493TMC3     H 7333   0.176   2.097  10.987  1.8078 -1.7364 -0.8485
  493TMC3    H1 7334   4.534   1.880  10.892  0.0158  0.7438  2.0728
  493TMC3    H2 7335   0.060   2.012  10.582  0.6132 -3.7942  0.0246
  493TMC3    C7 7336   4.601   1.854  10.641  0.6589 -0.6546 -0.0546
  493TMC3    C8 7337   0.263   2.092  10.751  0.1464  0.1829 -0.6068
  493TMC3    O1 7338   4.594   1.898  10.526 -0.6206 -0.0903  0.4331
  493TMC3    O2 7339   0.345   2.047  10.833  0.4353 -0.1507 -0.1880
  494TMC3    C1 7340   0.529   4.204   0.196  0.4149  0.5418 -0.1558
  494TMC3    C2 7341   0.584   4.078   0.215  0.4611 -0.0435 -0.5415
  494TMC3    C3 7342   0.626   4.023   0.099 -0.4235  0.2982  0.1124
  494TMC3    C4 7343   0.498   4.270   0.085  0.2788 -0.6364  0.5310
  494TMC3    C5 7344   0.532   4.202  17.665  0.3819 -1.0954  0.2792
  494TMC3    C6 7345   0.599   4.079  17.671  0.7814 -0.5328  0.4875
  494TMC3     C 7346   0.482   4.255   0.324  0.0228  0.9257  0.5132
  494TMC3     O 7347   0.486   4.187   0.426  0.3948 -0.0694 -0.2138
  494TMC3     H 7348   0.590   4.027   0.310 -2.7587  0.7074  0.0604
  494TMC3    H1 7349   0.446   4.366   0.082  2.1557  0.3883  1.1118
  494TMC3    H2 7350   0.630   4.031  17.579 -0.2025 -1.8687  0.8643
  494TMC3    C7 7351   0.495   4.261  17.532 -0.1607  0.3482  0.4418
  494TMC3    C8 7352   0.684   3.889   0.105 -0.1240 -0.6055  0.5136
  494TMC3    O1 7353   0.483   4.195  17.425  0.3720 -0.2509  0.2412
  494TMC3    O2 7354   0.667   3.840   0.217 -0.3714 -0.8136  0.0352
  495TMC3    C1 7355   3.959   1.290  14.241  0.0898 -0.3172 -0.5388
  495TMC3    C2 7356   3.834   1.276  14.191 -0.4697  0.4811 -0.2313
  495TMC3    C3 7357   3.731   1.287  14.278  0.4343 -0.1203 -0.7594
  495TMC3    C4 7358   3.977   1.320  14.376  0.0806  0.2544 -0.3955
  495TMC3    C5 7359   3.865   1.332  14.456  0.1751 -0.5607 -0.9622
  495TMC3    C6 7360   3.744   1.308  14.415  0.4440 -0.0083  0.3124
  495TMC3     C 7361   4.048   1.195  14.169  0.3699 -0.7077 -0.5905
  495TMC3     O 7362   4.028   1.170  14.053  0.4271 -0.2361 -0.1760
  495TMC3     H 7363   3.820   1.256  14.085 -2.2837 -0.8465  0.2425
  495TMC3    H1 7364   4.073   1.323  14.427 -0.0664 -0.5384 -0.0677
  495TMC3    H2 7365   3.660   1.338  14.478  1.7028  1.8331  1.1178
  495TMC3    C7 7366   3.877   1.338  14.596 -0.2577 -0.7136  0.0263
  495TMC3    C8 7367   3.590   1.266  14.233 -0.2178 -0.1922  0.7691
  495TMC3    O1 7368   3.787   1.290  14.661  0.3103  0.1188 -0.2728
  495TMC3    O2 7369   3.504   1.328  14.295  0.3375 -0.6080  0.4743
  496MPD2     C 7370   0.907   1.425  15.128  0.0482  0.1766  0.0678
  496MPD2    C1 7371   0.977   1.391  15.242  0.2414 -1.2380  0.1793
  496MPD2    C2 7372   0.924   1.420  15.369 -0.4153 -0.8170 -0.3281
  496MPD2    C3 7373   0.790   1.473  15.376  0.3086 -0.0798  0.2045
  496MPD2    C4 7374   0.727   1.494  15.264  0.1072  0.5993 -0.2397
  496MPD2    C5 7375   0.786   1.485  15.142  0.3439  0.2381 -0.0152
  496MPD2     H 7376   0.972   1.403  15.464  1.4500  0.5692 -1.0178
  496MPD2    H1 7377   0.621   1.516  15.261 -0.6614 -2.9949  0.5020
  496MPD2    H2 7378   0.954   1.410  15.032 -0.3495 -1.5582  0.1416
  496MPD2    H3 7379   0.728   1.512  15.055 -1.1116  0.5439  1.0526
  496MPD2     N 7380   0.714   1.486  15.490  0.1958 -0.1903  0.0668
  496MPD2    H5 7381   0.615   1.506  15.478  0.2743  1.4727  2.1056
  496MPD2    N1 7382   1.104   1.341  15.219  0.2123  0.0257  0.2519
  496MPD2    H7 7383   1.140   1.351  15.125  1.5856 -0.0965  0.7687
  497TMC3    C1 7384   0.659   1.474  15.722 -0.3773  0.2705 -0.2250
  497TMC3    C2 7385   0.527   1.517  15.700 -0.4473 -0.3011 -0.0290
  497TMC3    C3 7386   0.450   1.543  15.808  0.3593 -0.8824 -0.4798
  497TMC3    C4 7387   0.705   1.445  15.854  0.6117  0.0060 -0.7091
  497TMC3    C5 7388   0.623   1.469  15.959 -0.6275 -1.0975  0.7342
  497TMC3    C6 7389   0.494   1.520  15.938  0.0219 -0.0802 -0.5071
  497TMC3     C 7390   0.758   1.461  15.618 -0.0315 -0.4720 -0.3049
  497TMC3     O 7391   0.870   1.425  15.654 -0.1148 -0.2887  0.2448
  497TMC3     H 7392   0.492   1.541  15.600  0.3510  2.0284  0.2626
  497TMC3    H1 7393   0.807   1.414  15.868  1.1858  0.9211 -2.7780
  497TMC3    H2 7394   0.428   1.543  16.020  2.3164  0.6318  1.1563
  497TMC3    C7 7395   0.666   1.439  16.097  0.2794  0.1588 -0.0069
  497TMC3    C8 7396   0.302   1.564  15.790 -0.0585 -0.2510  1.0478
  497TMC3    O1 7397   0.575   1.400  16.172  0.0759 -0.1614 -0.3834
  497TMC3    O2 7398   0.242   1.609  15.884  0.0564 -0.8126  0.1620
  498MPD2     C 7399   1.529   1.980   9.243  0.6509 -0.6197 -0.3376
  498MPD2    C1 7400   1.619   1.926   9.321  0.5095 -0.6647  0.5950
  498MPD2    C2 7401   1.588   1.840   9.420 -0.1544  0.2848  0.3029
  498MPD2    C3 7402   1.458   1.789   9.427 -0.3010  0.4637 -0.2418
  498MPD2    C4 7403   1.362   1.852   9.355  0.0170  0.3110  0.0216
  498MPD2    C5 7404   1.395   1.948   9.268 -0.1946  0.7323  0.1740
  498MPD2     H 7405   1.659   1.790   9.485  0.7987 -0.0180 -0.9789
  498MPD2    H1 7406   1.258   1.820   9.358 -0.5764  2.2179  0.2214
  498MPD2    H2 7407   1.549   2.056   9.169  2.8882 -0.2165  0.6577
  498MPD2    H3 7408   1.318   1.995   9.208 -0.2389 -0.3897 -0.6503
  498MPD2     N 7409   1.428   1.682   9.513 -0.2329 -0.1102 -0.2824
  498MPD2    H5 7410   1.503   1.653   9.575 -2.2513 -1.5694  1.4815
  498MPD2    N1 7411   1.756   1.968   9.317  0.0490  0.1185 -0.0937
  498MPD2    H7 7412   1.818   1.924   9.384  1.8616  1.5898 -0.8092
  499TMC3    C1 7413   1.957   2.080   9.268  0.3393  0.8706 -0.0276
  499TMC3    C2 7414   2.031   1.978   9.321 -0.4829 -0.5014 -0.4492
  499TMC3    C3 7415   2.157   2.014   9.359  0.0027  0.4567  0.4594
  499TMC3    C4 7416   1.999   2.213   9.257  0.0187  0.2462 -0.1809
  499TMC3    C5 7417   2.125   2.242   9.304  0.2608  0.0666 -0.7412
  499TMC3    C6 7418   2.205   2.148   9.362 -0.4185  0.2459  0.6092
  499TMC3     C 7419   1.817   2.059   9.233 -0.5176  0.0018 -0.6572
  499TMC3     O 7420   1.762   2.139   9.162  0.6324 -1.2459  0.1243
  499TMC3     H 7421   1.993   1.876   9.313 -1.3366 -0.2124 -0.0650
  499TMC3    H1 7422   1.930   2.285   9.214 -1.4041 -0.1548  1.4519
  499TMC3    H2 7423   2.309   2.171   9.381 -0.8419  2.1920  0.5650
  499TMC3    C7 7424   2.181   2.373   9.277  0.2688 -0.1066 -0.4991
  499TMC3    C8 7425   2.246   1.922   9.431 -0.0252  0.0012 -0.0133
  499TMC3    O1 7426   2.277   2.396   9.347  0.6129  0.4129 -0.0960
  499TMC3    O2 7427   2.341   1.968   9.493 -0.0556 -0.1155 -0.0344
  500MPD2     C 7428   3.687   3.040  10.670 -0.5875  0.3548  0.1167
  500MPD2    C1 7429   3.679   3.052  10.528 -0.6343  0.2995  0.4032
  500MPD2    C2 7430   3.553   3.093  10.471 -0.0480  1.1012  0.5212
  500MPD2    C3 7431   3.442   3.112  10.553 -0.6565 -0.0951 -0.2764
  500MPD2    C4 7432   3.451   3.084  10.686  0.1915 -0.1319  0.1071
  500MPD2    C5 7433   3.571   3.048  10.741  0.7088  0.5816  0.3419
  500MPD2     H 7434   3.541   3.114  10.365  0.7794 -2.4876 -0.2837
  500MPD2    H1 7435   3.364   3.091  10.750  0.5321 -3.0192  0.8851
  500MPD2    H2 7436   3.774   3.003  10.723  0.5947  0.0187 -2.0744
  500MPD2    H3 7437   3.568   3.032  10.848  1.0247 -1.0816  0.0929
  500MPD2     N 7438   3.313   3.140  10.510 -0.0988  0.2705 -0.4413
  500MPD2    H5 7439   3.248   3.132  10.588  0.9237 -3.3760  0.0773
  500MPD2    N1 7440   3.791   3.022  10.441 -0.9551 -0.3141 -0.7015
  500MPD2    H7 7441   3.777   3.047  10.344  0.7330 -0.8679 -1.0717
  501TMC3    C1 7442   4.008   2.930  10.385 -0.6021 -0.3307  0.1416
  501TMC3    C2 7443   3.982   2.959  10.258 -0.4149  0.2403 -0.2662
  501TMC3    C3 7444   4.089   3.002  10.179  0.6361 -0.5154 -0.0956
  501TMC3    C4 7445   4.135   2.934  10.435  0.4405  0.0114  0.0237
  501TMC3    C5 7446   4.240   2.969  10.352  0.3726 -0.0966 -0.1385
  501TMC3    C6 7447   4.215   3.004  10.223  0.6352  0.0718  0.4820
  501TMC3     C 7448   3.905   2.959  10.482  0.1975  0.1535  0.0532
  501TMC3     O 7449   3.941   2.919  10.593  0.2192  0.5193 -0.2765
  501TMC3     H 7450   3.881   2.955  10.219 -0.9170 -0.8913  1.1886
  501TMC3    H1 7451   4.160   2.910  10.538  1.2731  0.7975 -0.0014
  501TMC3    H2 7452   4.291   3.034  10.153  1.3508  1.5177  1.8734
  501TMC3    C7 7453   4.376   2.991  10.414  0.0418 -0.3272 -0.2222
  501TMC3    C8 7454   4.071   3.026  10.029  0.3776  1.0733  0.3553
  501TMC3    O1 7455   4.401   2.926  10.515  0.0137  0.1601  0.5355
  501TMC3    O2 7456   4.154   2.973   9.954  0.1089 -0.4701  0.0528
  502TMC3    C1 7457   3.371   2.780  15.417  0.0692 -0.2882 -0.1640
  502TMC3    C2 7458   3.330   2.880  15.335 -0.3709 -0.2997 -0.6807
  502TMC3    C3 7459   3.243   2.858  15.236  0.2063 -0.5202  0.3380
  502TMC3    C4 7460   3.320   2.652  15.405 -0.2491 -0.0860  0.2039
  502TMC3    C5 7461   3.216   2.642  15.313  0.2747  0.2280  0.5101
  502TMC3    C6 7462   3.184   2.738  15.218 -0.3757 -0.3443 -0.0370
  502TMC3     C 7463   3.507   2.791  15.473 -0.4858 -0.2229  0.0902
  502TMC3     O 7464   3.554   2.905  15.487 -0.1904 -0.1660 -0.5720
  502TMC3     H 7465   3.382   2.975  15.347  0.1493 -0.2956 -2.9326
  502TMC3    H1 7466   3.339   2.567  15.470  0.4637  0.5988  0.8935
  502TMC3    H2 7467   3.130   2.709  15.129  0.9019 -2.7207 -0.0517
  502TMC3    C7 7468   3.157   2.512  15.300 -0.9581  0.8663  0.0759
  502TMC3    C8 7469   3.241   2.966  15.131 -0.0620  0.0578  0.6663
  502TMC3    O1 7470   3.230   2.417  15.321  0.7324  0.0589  0.0953
  502TMC3    O2 7471   3.324   3.054  15.133  0.5098 -0.0640  0.5340
  503MPD2     C 7472   0.318   3.075  16.765 -0.6263  0.4596  0.3680
  503MPD2    C1 7473   0.334   3.104  16.894  0.5478 -0.2141 -0.4313
  503MPD2    C2 7474   0.402   3.021  16.979 -0.5065  0.0718 -0.1470
  503MPD2    C3 7475   0.461   2.907  16.935  0.0289 -0.1637 -0.1778
  503MPD2    C4 7476   0.445   2.883  16.802  0.1475 -0.2009  0.2295
  503MPD2    C5 7477   0.369   2.961  16.723 -0.2251  0.6111  0.1846
  503MPD2     H 7478   0.406   3.052  17.083  1.8950  1.5156 -0.6645
  503MPD2    H1 7479   0.490   2.798  16.751  0.2581 -0.6390  1.0578
  503MPD2    H2 7480   0.260   3.133  16.694  0.3628  2.4386  1.1825
  503MPD2    H3 7481   0.356   2.936  16.619 -0.5739  0.2103  0.3287
  503MPD2     N 7482   0.542   2.833  17.024 -0.2803 -0.1182 -1.1163
  503MPD2    H5 7483   0.537   2.857  17.122  0.4427  1.3464 -1.4440
  503MPD2    N1 7484   0.255   3.205  16.955  0.3176  0.4660  0.2747
  503MPD2    H7 7485   0.284   3.240  17.046  0.1239  2.2507 -0.3448
  504TMC3    C1 7486   0.690   2.657  17.086  0.0102 -0.1362 -0.0529
  504TMC3    C2 7487   0.639   2.652  17.211  0.4825 -0.0951 -0.1909
  504TMC3    C3 7488   0.695   2.567  17.298  0.2698 -0.2983 -0.1469
  504TMC3    C4 7489   0.798   2.592  17.049 -0.2945 -0.2017  0.1810
  504TMC3    C5 7490   0.863   2.517  17.144 -0.3967  0.5691 -0.0780
  504TMC3    C6 7491   0.814   2.497  17.269  0.2681  0.4458  0.2585
  504TMC3     C 7492   0.634   2.743  16.979  0.0448  0.1232  0.4532
  504TMC3     O 7493   0.657   2.712  16.867  0.4357 -0.0788 -0.1710
  504TMC3     H 7494   0.552   2.709  17.240 -0.1332 -1.2096  0.1852
  504TMC3    H1 7495   0.836   2.608  16.949 -1.9237  2.2174 -0.0210
  504TMC3    H2 7496   0.862   2.435  17.343 -0.2733  2.6884  2.4785
  504TMC3    C7 7497   0.979   2.442  17.099  0.3602  0.5050  0.3077
  504TMC3    C8 7498   0.650   2.570  17.439 -0.1148  1.0807 -0.0035
  504TMC3    O1 7499   1.003   2.451  16.979  0.2206 -0.4442 -0.3179
  504TMC3    O2 7500   0.532   2.603  17.456 -0.2043  0.0103  0.0654
  505MPD2     C 7501   1.180   0.920  10.989  0.0453  0.1414  0.1335
  505MPD2    C1 7502   1.182   0.947  10.860 -0.3084 -0.5028  0.0434
  505MPD2    C2 7503   1.297   0.986  10.789 -0.0817 -0.4083 -0.2926
  505MPD2    C3 7504   1.415   0.995  10.866 -0.0196 -0.4574  0.4251
  505MPD2    C4 7505   1.411   0.981  11.006 -0.7446  0.0451 -0.3598
  505MPD2    C5 7506   1.295   0.930  11.065  0.1813  0.1220  0.2463
  505MPD2     H 7507   1.299   1.015  10.685  0.3029  0.7415  0.0327
  505MPD2    H1 7508   1.497   0.996  11.070 -0.9620  2.6306 -0.6634
  505MPD2    H2 7509   1.091   0.884  11.038  1.4476 -1.2838  1.6499
  505MPD2    H3 7510   1.296   0.919  11.172 -2.2287  3.4524  0.6146
  505MPD2     N 7511   1.542   1.023  10.806  0.5678 -0.2620  0.2013
  505MPD2    H5 7512   1.621   1.037  10.868 -0.2438  0.0748  1.1502
  505MPD2    N1 7513   1.062   0.922  10.790 -0.8968 -0.4220 -0.2066
  505MPD2    H7 7514   0.996   0.857  10.832  0.2230 -0.7308  1.0827
  506TMC3    C1 7515   0.939   0.877  10.604 -0.0304  0.1521  0.2091
  506TMC3    C2 7516   0.900   0.909  10.474 -0.4128 -0.1969 -0.5073
  506TMC3    C3 7517   0.848   0.807  10.399  0.8227 -0.0664 -0.5513
  506TMC3    C4 7518   0.937   0.746  10.633  0.0543 -0.2239 -0.3238
  506TMC3    C5 7519   0.914   0.645  10.549 -0.5014  0.4667 -0.0523
  506TMC3    C6 7520   0.872   0.680  10.420  0.1089 -1.0479 -0.6464
  506TMC3     C 7521   1.037   0.962  10.664 -1.2173 -0.1474  0.0461
  506TMC3     O 7522   1.090   1.048  10.592  0.0641 -0.3729 -0.2623
  506TMC3     H 7523   0.865   1.011  10.460 -2.0151 -0.3688  2.0565
  506TMC3    H1 7524   0.966   0.713  10.732  1.3984 -1.5914 -1.1716
  506TMC3    H2 7525   0.868   0.607  10.340 -0.2506  0.5168 -2.0357
  506TMC3    C7 7526   1.009   0.539  10.553 -0.3505 -0.3711  0.2271
  506TMC3    C8 7527   0.809   0.844  10.264  0.2492 -0.2816  0.1400
  506TMC3    O1 7528   0.984   0.434  10.496 -0.0982  0.4783 -0.1051
  506TMC3    O2 7529   0.726   0.766  10.205 -0.3083  0.3350  0.0796
  507TMC3    C1 7530   1.889   2.509  14.765 -0.0388  0.0494 -0.1580
  507TMC3    C2 7531   1.863   2.421  14.664  1.0560  1.2785  0.2257
  507TMC3    C3 7532   1.921   2.442  14.542 -0.0204 -0.0287  0.3808
  507TMC3    C4 7533   1.959   2.621  14.752  0.3006  0.0403 -0.5378
  507TMC3    C5 7534   2.014   2.642  14.624 -0.3832 -0.1341 -0.6559
  507TMC3    C6 7535   1.992   2.556  14.523  0.2269 -0.4857 -0.2564
  507TMC3     C 7536   1.816   2.499  14.887  0.0707  0.6102  0.4601
  507TMC3     O 7537   1.864   2.570  14.977 -0.6543  0.0777  0.3296
  507TMC3     H 7538   1.796   2.336  14.666  1.8296  0.6804  0.7501
  507TMC3    H1 7539   1.953   2.697  14.829  0.6519 -3.3651  2.8567
  507TMC3    H2 7540   2.037   2.586  14.429  0.4460 -1.0151 -0.3208
  507TMC3    C7 7541   1.969   2.773  14.573 -0.1459  0.2903 -0.1148
  507TMC3    C8 7542   1.815   2.427  14.446 -0.0509 -0.6512  0.2565
  507TMC3    O1 7543   1.911   2.772  14.467  0.1835  0.5136 -0.8992
  507TMC3    O2 7544   1.776   2.312  14.428 -0.0495 -0.9152 -0.1685
  508MPD2     C 7545   2.859   0.013  15.893  1.0070  0.2004 -0.4482
  508MPD2    C1 7546   2.917   0.133  15.883  0.8350 -0.1224  0.2226
  508MPD2    C2 7547   2.878   0.220  15.786  0.3874  0.0198  0.7609
  508MPD2    C3 7548   2.782   0.188  15.692  0.1314  0.0798  0.1702
  508MPD2    C4 7549   2.736   0.059  15.700 -0.2729 -0.2312  0.4375
  508MPD2    C5 7550   2.773   4.695  15.797  0.4295  0.0842  0.1079
  508MPD2     H 7551   2.925   0.317  15.776 -0.0427  0.2773  1.2200
  508MPD2    H1 7552   2.675   0.019  15.620 -2.7339  2.8575  0.7734
  508MPD2    H2 7553   2.887   4.657  15.962 -1.1687 -0.0157  0.2026
  508MPD2    H3 7554   2.735   4.594  15.792  0.8452 -0.0690  0.0301
  508MPD2     N 7555   2.755   0.279  15.586 -0.5004  0.0092 -0.2808
  508MPD2    H5 7556   2.813   0.362  15.580 -0.1741 -0.2648 -0.9741
  508MPD2    N1 7557   3.023   0.163  15.981  0.1711  0.0950  0.4371
  508MPD2    H7 7558   3.025   0.099  16.059  1.7717 -0.4236 -0.0454
  509TMC3    C1 7559   2.607   0.613  15.381 -0.4988  0.2444  0.0124
  509TMC3    C2 7560   2.720   0.643  15.318 -0.2049  0.5676  0.1342
  509TMC3    C3 7561   2.819   0.544  15.311  0.6705 -0.0042  0.2625
  509TMC3    C4 7562   2.576   0.484  15.431 -0.6315 -0.0397  0.2931
  509TMC3    C5 7563   2.666   0.384  15.407 -0.6111 -0.1865 -0.6957
  509TMC3    C6 7564   2.790   0.411  15.356 -0.4678  0.4102  0.2688
  509TMC3     C 7565   2.515   0.712  15.413 -0.0043  0.4591 -0.6693
  509TMC3     O 7566   2.459   0.713  15.522 -0.3102 -0.4236 -0.0899
  509TMC3     H 7567   2.737   0.746  15.286 -0.6704  0.5415 -0.2059
  509TMC3    H1 7568   2.473   0.469  15.462 -0.6656  0.9215  0.6577
  509TMC3    H2 7569   2.864   0.334  15.338  0.1297  0.1800  3.6005
  509TMC3    C7 7570   2.661   0.271  15.492 -0.3844  0.0523 -0.0471
  509TMC3    C8 7571   2.960   0.570  15.302 -0.2726 -1.2046  0.4385
  509TMC3    O1 7572   2.554   0.208  15.494 -0.2484  0.2647 -0.0540
  509TMC3    O2 7573   3.040   0.475  15.285  0.6081  0.1182 -0.1197
  510MPD2     C 7574   0.749   2.002  14.556  0.1538 -0.3674 -0.2474
  510MPD2    C1 7575   0.786   1.888  14.619  0.0678  0.6559 -0.9499
  510MPD2    C2 7576   0.910   1.836  14.593  0.0818 -0.5233  0.7764
  510MPD2    C3 7577   0.998   1.897  14.500 -0.4503  0.7332 -0.4306
  510MPD2    C4 7578   0.959   2.019  14.443  0.6340  0.8414 -0.6673
  510MPD2    C5 7579   0.839   2.076  14.477 -0.3286  0.2115 -0.7086
  510MPD2     H 7580   0.939   1.751  14.654 -1.9588 -0.0861  2.3454
  510MPD2    H1 7581   1.020   2.074  14.372  1.1147  1.9752  0.6187
  510MPD2    H2 7582   0.658   2.054  14.582  0.5981 -0.7863  2.1456
  510MPD2    H3 7583   0.802   2.171  14.441  2.4338  2.2476  1.8304
  510MPD2     N 7584   1.111   1.825  14.465  0.0494  0.6009 -0.8121
  510MPD2    H5 7585   1.111   1.725  14.484 -2.1341  0.3412 -2.2165
  510MPD2    N1 7586   0.707   1.809  14.698 -0.5032  0.4131 -0.0825
  510MPD2    H7 7587   0.738   1.716  14.723  3.2079  1.6605  0.0234
  511TMC3    C1 7588   0.514   1.719  14.792 -0.1681  0.5440 -0.4082
  511TMC3    C2 7589   0.461   1.744  14.917 -0.1330  0.3141 -0.2211
  511TMC3    C3 7590   0.439   1.629  14.995 -0.0215 -0.7279 -0.0974
  511TMC3    C4 7591   0.526   1.595  14.739 -0.5863 -0.2494  0.0713
  511TMC3    C5 7592   0.486   1.485  14.813  0.6390  0.4305 -0.2109
  511TMC3    C6 7593   0.446   1.498  14.949 -0.7821  0.6251 -0.3381
  511TMC3     C 7594   0.572   1.831  14.729 -0.0529  0.0367  0.9491
  511TMC3     O 7595   0.502   1.933  14.719 -0.3917  0.3140 -0.8922
  511TMC3     H 7596   0.445   1.846  14.950 -0.8281  0.5362 -1.2656
  511TMC3    H1 7597   0.558   1.580  14.636  1.8383  2.0668  0.5057
  511TMC3    H2 7598   0.464   1.415  15.015 -1.3231  0.4686 -0.3836
  511TMC3    C7 7599   0.478   1.352  14.749 -0.4152 -0.4816  0.3918
  511TMC3    C8 7600   0.408   1.656  15.133  0.8409 -0.2155 -0.4663
  511TMC3    O1 7601   0.518   1.345  14.633 -0.2472  0.5971 -0.0381
  511TMC3    O2 7602   0.320   1.597  15.194  0.8029  0.3787 -0.3918
  512TMC3    C1 7603   3.711   0.729  13.049 -0.7081  0.1438  0.8926
  512TMC3    C2 7604   3.777   0.684  13.169 -0.3003 -0.0133  0.9731
  512TMC3    C3 7605   3.788   0.546  13.189  0.7410 -0.3014  0.1044
  512TMC3    C4 7606   3.706   0.636  12.949  0.5242  0.0482 -0.1415
  512TMC3    C5 7607   3.739   0.505  12.970 -0.1137  0.0762  0.3183
  512TMC3    C6 7608   3.776   0.450  13.089  0.0909  0.6862  0.0119
  512TMC3     C 7609   3.723   0.869  13.005 -0.1881  0.8042 -0.6835
  512TMC3     O 7610   3.798   0.943  13.063 -0.3410  0.3491  0.9370
  512TMC3     H 7611   3.775   0.757  13.248 -0.6615 -0.0787  1.0218
  512TMC3    H1 7612   3.699   0.674  12.848 -0.7825  0.6340  0.1656
  512TMC3    H2 7613   3.814   0.349  13.098 -1.9347  0.1176  2.1599
  512TMC3    C7 7614   3.788   0.431  12.852  0.2054  0.0271 -0.2658
  512TMC3    C8 7615   3.886   0.504  13.278  0.3098  1.1326 -0.6689
  512TMC3    O1 7616   3.792   0.501  12.750  0.0386  0.1493 -0.0761
  512TMC3    O2 7617   3.889   0.388  13.310 -0.1425  0.1121  0.1914
  513MPD2     C 7618   0.779   0.813  13.033  0.2241 -0.7913 -0.2882
  513MPD2    C1 7619   0.796   0.938  12.976 -0.5544 -0.7859 -0.0809
  513MPD2    C2 7620   0.775   1.049  13.059  0.5193 -0.0025  0.4153
  513MPD2    C3 7621   0.725   1.042  13.189 -0.5390  0.1489 -0.0630
  513MPD2    C4 7622   0.702   0.913  13.237  0.4861 -0.7234 -0.1729
  513MPD2    C5 7623   0.724   0.800  13.162  0.0189 -0.9118  0.5432
  513MPD2     H 7624   0.800   1.146  13.018  0.0933 -0.2311 -0.3728
  513MPD2    H1 7625   0.652   0.896  13.332  1.1178 -1.3738  0.0453
  513MPD2    H2 7626   0.795   0.722  12.975 -1.3149  0.6758 -3.0092
  513MPD2    H3 7627   0.698   0.703  13.204 -0.4924 -0.7686  0.5675
  513MPD2     N 7628   0.720   1.159  13.278  0.0408  0.0537 -0.0107
  513MPD2    H5 7629   0.733   1.250  13.237 -1.7141  0.0009 -0.6809
  513MPD2    N1 7630   0.855   0.954  12.852 -0.6858 -0.2428 -0.6863
  513MPD2    H7 7631   0.865   1.049  12.817 -3.2715  0.2729 -0.0733
  514TMC3    C1 7632   0.980   0.921  12.658 -0.2705  1.3814 -0.6243
  514TMC3    C2 7633   1.112   0.887  12.663  0.1039 -0.2547 -0.6173
  514TMC3    C3 7634   1.204   0.993  12.664 -0.4966  0.1177  0.1718
  514TMC3    C4 7635   0.944   1.052  12.635  0.3226  0.4729 -0.7413
  514TMC3    C5 7636   1.035   1.158  12.643 -0.2929 -0.5874 -0.0560
  514TMC3    C6 7637   1.172   1.125  12.647  0.4859  0.8444 -0.1677
  514TMC3     C 7638   0.902   0.857  12.761 -1.5683  0.0672  0.3980
  514TMC3     O 7639   0.912   0.735  12.780 -0.1971 -0.5719  0.1503
  514TMC3     H 7640   1.149   0.794  12.703 -0.0972 -0.9299 -2.0049
  514TMC3    H1 7641   0.838   1.077  12.642  0.4159  0.0889  2.0780
  514TMC3    H2 7642   1.248   1.201  12.657  0.1140  1.3344 -1.1388
  514TMC3    C7 7643   1.005   1.259  12.740  0.4740 -0.2052 -0.1500
  514TMC3    C8 7644   1.336   0.962  12.619 -0.1379 -1.1901  0.0029
  514TMC3    O1 7645   0.898   1.237  12.795  0.4255  0.0380 -0.1836
  514TMC3    O2 7646   1.429   0.990  12.684  0.0185 -0.0486  0.3140
  515MPD2     C 7647   3.559   2.875  14.956  0.0624 -0.0627  0.0661
  515MPD2    C1 7648   3.660   2.886  14.855  0.1107 -0.0291 -0.2351
  515MPD2    C2 7649   3.790   2.924  14.884 -0.3011  0.1626 -1.0630
  515MPD2    C3 7650   3.823   2.953  15.015 -0.4821  0.0683 -0.6750
  515MPD2    C4 7651   3.728   2.941  15.114  0.2311  1.0942 -0.7430
  515MPD2    C5 7652   3.598   2.912  15.081  0.0838  0.6493  0.5557
  515MPD2     H 7653   3.860   2.930  14.802 -0.6177 -0.8383 -1.4120
  515MPD2    H1 7654   3.754   2.973  15.214 -1.2254 -0.7130  0.2139
  515MPD2    H2 7655   3.454   2.856  14.936 -0.0630  1.5468 -0.8256
  515MPD2    H3 7656   3.526   2.917  15.163 -0.6395 -1.0041  0.0069
  515MPD2     N 7657   3.955   2.984  15.044  0.0367  0.2628 -0.1651
  515MPD2    H5 7658   4.020   2.970  14.967 -0.4184 -0.3004 -0.4440
  515MPD2    N1 7659   3.631   2.839  14.722  0.0849 -0.1369  0.8135
  515MPD2    H7 7660   3.553   2.777  14.702  2.9564 -3.8791  1.1154
  516TMC3    C1 7661   3.684   2.732  14.534 -0.1575 -1.3458  1.3703
  516TMC3    C2 7662   3.742   2.740  14.414 -0.6678 -1.0615 -0.2213
  516TMC3    C3 7663   3.758   2.620  14.346  0.0552 -0.3601 -0.4584
  516TMC3    C4 7664   3.667   2.611  14.601  0.8332  0.3347  0.6933
  516TMC3    C5 7665   3.709   2.493  14.539 -0.8870 -0.0112  0.3211
  516TMC3    C6 7666   3.754   2.497  14.408 -0.0886 -0.3590 -0.3559
  516TMC3     C 7667   3.724   2.836  14.618 -0.5640 -0.3471 -0.0454
  516TMC3     O 7668   3.820   2.909  14.592 -0.2745 -0.2345  0.4312
  516TMC3     H 7669   3.750   2.839  14.370  0.3110 -0.9284  0.2396
  516TMC3    H1 7670   3.641   2.610  14.706 -1.2286 -0.4467  0.1798
  516TMC3    H2 7671   3.766   2.408  14.348 -0.6724 -0.7800  0.1577
  516TMC3    C7 7672   3.784   2.418  14.631  0.1124  0.0699 -0.0298
  516TMC3    C8 7673   3.759   2.631  14.206 -1.0341 -0.5367  0.8743
  516TMC3    O1 7674   3.821   2.476  14.734  0.1493  0.2032  0.6021
  516TMC3    O2 7675   3.711   2.534  14.141 -0.3840 -0.0069 -0.0863
  517MPD2     C 7676   3.238   4.718  17.076  0.2459  0.0654 -1.1714
  517MPD2    C1 7677   3.352   4.703  17.150  0.0392  0.3307 -0.0898
  517MPD2    C2 7678   3.394   0.093  17.219  0.3287  0.0795 -0.2605
  517MPD2    C3 7679   3.316   0.210  17.230 -0.0288 -0.3384  0.2494
  517MPD2    C4 7680   3.201   0.215  17.159 -0.3182 -0.2119  0.3188
  517MPD2    C5 7681   3.161   0.110  17.086 -0.0819 -0.7204  0.4819
  517MPD2     H 7682   3.481   0.078  17.282  0.1800 -1.3903 -0.4103
  517MPD2    H1 7683   3.140   0.304  17.147 -0.4636 -0.5358 -1.3463
  517MPD2    H2 7684   3.209   4.648  16.999 -1.9979 -0.4801  0.1468
  517MPD2    H3 7685   3.082   0.124  17.014 -0.1046 -0.9968  0.4538
  517MPD2     N 7686   3.354   0.326  17.305  0.0082  0.0639  0.3265
  517MPD2    H5 7687   3.296   0.409  17.305 -0.0932 -0.0054  0.0831
  517MPD2    N1 7688   3.431   4.589  17.130  0.3484  0.5109  0.4053
  517MPD2    H7 7689   3.529   4.588  17.156  0.8483  0.9154 -1.4563
  518TMC3    C1 7690   3.463   4.358  17.051  0.1069  0.5247  0.3402
  518TMC3    C2 7691   3.429   4.219  17.064  0.5394  0.5074 -0.3193
  518TMC3    C3 7692   3.527   4.138  17.011 -0.7083  0.0282 -0.1767
  518TMC3    C4 7693   3.582   4.406  16.995  0.2667 -0.3316  0.2017
  518TMC3    C5 7694   3.668   4.310  16.947  0.1403 -0.3011  0.0815
  518TMC3    C6 7695   3.637   4.182  16.948  0.3259  0.2862  0.0220
  518TMC3     C 7696   3.372   4.460  17.105  0.7362 -0.0554 -0.5213
  518TMC3     O 7697   3.254   4.427  17.117  0.4555 -0.4065 -0.4578
  518TMC3     H 7698   3.354   4.179  17.131  1.9609  3.1874  2.8874
  518TMC3    H1 7699   3.606   4.510  16.981 -1.2892 -0.2197 -1.5854
  518TMC3    H2 7700   3.691   4.115  16.882 -1.2513 -2.1817  1.2166
  518TMC3    C7 7701   3.807   4.350  16.929  0.3302  0.0087  0.4992
  518TMC3    C8 7702   3.501   3.992  17.015  0.0197  0.6475 -0.5677
  518TMC3    O1 7703   3.819   4.467  16.925  0.4623  0.2823  0.2646
  518TMC3    O2 7704   3.442   3.952  17.115  0.3726  0.2945 -0.3553
  519MPD2     C 7705   0.741   3.152  14.103  0.2044 -0.1501  0.2973
  519MPD2    C1 7706   0.622   3.080  14.087 -0.2364  0.4620  0.1460
  519MPD2    C2 7707   0.628   2.949  14.107 -0.1850  0.1313 -0.1498
  519MPD2    C3 7708   0.745   2.892  14.152 -0.3565  0.3323 -0.4447
  519MPD2    C4 7709   0.865   2.961  14.158  0.1920  0.5405  0.0544
  519MPD2    C5 7710   0.859   3.100  14.137  0.1803  0.3559  0.0842
  519MPD2     H 7711   0.537   2.893  14.089 -0.8333  0.4085  2.1739
  519MPD2    H1 7712   0.956   2.917  14.196  0.6488  2.3803  1.1273
  519MPD2    H2 7713   0.743   3.260  14.093 -0.6780 -0.2850 -1.2657
  519MPD2    H3 7714   0.945   3.163  14.158  0.9636 -0.9021  0.6619
  519MPD2     N 7715   0.743   2.753  14.189 -0.3876  0.5616  0.5993
  519MPD2    H5 7716   0.836   2.712  14.189 -1.0092 -0.8568  0.2020
  519MPD2    N1 7717   0.493   3.133  14.064 -0.5034  0.3545 -0.0443
  519MPD2    H7 7718   0.425   3.058  14.067  0.2527 -0.3241  0.1133
  520TMC3    C1 7719   0.657   2.532  14.209  0.0684  0.0695 -0.2761
  520TMC3    C2 7720   0.551   2.449  14.169  0.0149 -0.2425 -0.1165
  520TMC3    C3 7721   0.585   2.322  14.134 -0.6260 -0.0667  0.8574
  520TMC3    C4 7722   0.783   2.479  14.229 -0.2665 -0.3820  0.3046
  520TMC3    C5 7723   0.804   2.347  14.208 -0.3728 -0.6892 -0.0658
  520TMC3    C6 7724   0.709   2.266  14.155 -0.0494  0.1416  0.1667
  520TMC3     C 7725   0.630   2.677  14.212 -0.2536 -0.6416 -0.5558
  520TMC3     O 7726   0.520   2.719  14.235 -0.1408 -0.6084 -0.6145
  520TMC3     H 7727   0.456   2.497  14.150  0.9821  1.0689 -1.6748
  520TMC3    H1 7728   0.863   2.538  14.273  1.1915 -2.0976 -0.0749
  520TMC3    H2 7729   0.730   2.159  14.148 -1.4352  0.0847 -3.0867
  520TMC3    C7 7730   0.942   2.306  14.195 -0.3123 -0.4214  0.2241
  520TMC3    C8 7731   0.483   2.254  14.053 -0.3543  0.0432 -0.2502
  520TMC3    O1 7732   1.015   2.312  14.293 -0.1840  0.8904  0.0359
  520TMC3    O2 7733   0.526   2.165  13.978 -0.2634  0.1121  0.1921
  521MPD2     C 7734   1.712   0.534  17.312  0.2872 -0.6335  0.7285
  521MPD2    C1 7735   1.705   0.485  17.187 -0.4144  0.7510 -0.2468
  521MPD2    C2 7736   1.826   0.442  17.128  0.1809  0.5963  0.1451
  521MPD2    C3 7737   1.945   0.433  17.198  0.1237  0.7730  0.4394
  521MPD2    C4 7738   1.947   0.464  17.328  0.3902 -0.9798  0.7738
  521MPD2    C5 7739   1.831   0.517  17.384 -0.3561 -0.7329 -0.1395
  521MPD2     H 7740   1.830   0.396  17.030 -1.7142  0.3061  0.2183
  521MPD2    H1 7741   2.037   0.454  17.387  0.8109  4.5078  1.1162
  521MPD2    H2 7742   1.623   0.571  17.361  0.6464  1.7829 -0.4828
  521MPD2    H3 7743   1.831   0.538  17.490  1.3877 -0.8108 -0.1248
  521MPD2     N 7744   2.054   0.393  17.124  0.1091 -0.3808 -0.6954
  521MPD2    H5 7745   2.038   0.397  17.024 -0.0886 -0.7875 -0.6820
  521MPD2    N1 7746   1.582   0.482  17.114  0.1479 -0.2215 -0.5024
  521MPD2    H7 7747   1.503   0.516  17.168  0.4231 -0.2027 -0.1183
  522TMC3    C1 7748   2.279   0.357  17.054  0.0359 -0.1913  0.5838
  522TMC3    C2 7749   2.416   0.350  17.081 -1.4516  0.0098  0.0786
  522TMC3    C3 7750   2.501   0.328  16.971  0.2722  0.1906  0.1898
  522TMC3    C4 7751   2.232   0.343  16.929 -0.0249  0.0490  0.5807
  522TMC3    C5 7752   2.317   0.333  16.827 -0.5889 -0.3460 -0.0705
  522TMC3    C6 7753   2.453   0.321  16.841 -0.1062  0.3511  0.7759
  522TMC3     C 7754   2.185   0.371  17.165  0.4643 -0.3999  0.8790
  522TMC3     O 7755   2.238   0.369  17.277 -0.8035  0.1402  0.4172
  522TMC3     H 7756   2.457   0.371  17.179 -0.1532  1.6791 -0.8145
  522TMC3    H1 7757   2.126   0.355  16.910  0.5872  0.3535 -2.5837
  522TMC3    H2 7758   2.505   0.266  16.764  2.0273  4.5647 -0.7885
  522TMC3    C7 7759   2.265   0.320  16.691 -0.1955  0.5120  0.1118
  522TMC3    C8 7760   2.647   0.326  16.995 -0.7012  0.2799 -0.4505
  522TMC3    O1 7761   2.344   0.282  16.607  0.5924 -0.3713 -1.1271
  522TMC3    O2 7762   2.689   0.331  17.108 -0.1622 -0.5329 -0.0641
  523MPD2     C 7763   3.888   4.178  10.350  0.0511 -0.3377  0.6499
  523MPD2    C1 7764   3.910   4.137  10.222  0.3158 -0.6595  0.5064
  523MPD2    C2 7765   3.801   4.130  10.131  0.2220  0.6590 -0.0120
  523MPD2    C3 7766   3.675   4.165  10.173 -0.5733 -0.0485  0.3818
  523MPD2    C4 7767   3.653   4.204  10.303  0.6911 -0.5251  0.0208
  523MPD2    C5 7768   3.763   4.207  10.389  0.6700  0.6026 -0.2399
  523MPD2     H 7769   3.818   4.095  10.029  0.7518 -1.0639  0.6609
  523MPD2    H1 7770   3.555   4.227  10.342 -0.1425 -1.6235 -1.4410
  523MPD2    H2 7771   3.959   4.175  10.432 -2.0293 -0.5481  2.4453
  523MPD2    H3 7772   3.740   4.233  10.492 -0.4963 -1.0867 -0.0736
  523MPD2     N 7773   3.569   4.173  10.087  0.0950 -0.2187 -0.7046
  523MPD2    H5 7774   3.489   4.226  10.123 -0.2768 -1.0277 -0.3524
  523MPD2    N1 7775   4.043   4.089  10.196  0.0562 -1.2342  0.0320
  523MPD2    H7 7776   4.106   4.082  10.275 -0.2305  0.5563  0.4079
  524TMC3    C1 7777   3.456   4.167   9.872 -0.3838  0.7790 -0.5265
  524TMC3    C2 7778   3.412   4.086   9.771 -0.8139  0.2051 -0.1039
  524TMC3    C3 7779   3.307   4.142   9.699  0.3625  0.5514  0.3031
  524TMC3    C4 7780   3.417   4.300   9.885 -0.0535  0.3688  0.1807
  524TMC3    C5 7781   3.312   4.343   9.821 -0.0768 -0.2108 -0.2647
  524TMC3    C6 7782   3.252   4.267   9.723  0.3765  0.0545 -0.5972
  524TMC3     C 7783   3.562   4.122   9.956  0.1828 -0.2381  0.0821
  524TMC3     O 7784   3.627   4.030   9.912 -0.0672  0.3485  0.0284
  524TMC3     H 7785   3.443   3.982   9.769  2.2377  1.1513 -1.1550
  524TMC3    H1 7786   3.464   4.365   9.958  0.0421 -0.0963  0.5345
  524TMC3    H2 7787   3.169   4.303   9.662 -1.0051 -1.4013  0.4280
  524TMC3    C7 7788   3.237   4.452   9.882 -0.1738  0.6480  0.1134
  524TMC3    C8 7789   3.255   4.065   9.592 -0.4031 -0.2941 -0.5926
  524TMC3    O1 7790   3.242   4.461  10.004  0.0762  0.0982  0.0130
  524TMC3    O2 7791   3.223   4.127   9.493  0.1920  0.0365  0.4505
  525MPD2     C 7792   2.092   2.177  14.401 -0.4243 -0.3444 -0.8538
  525MPD2    C1 7793   2.204   2.181  14.476 -0.2798  0.6073 -0.1853
  525MPD2    C2 7794   2.299   2.271  14.436 -0.4531 -0.2525 -0.2997
  525MPD2    C3 7795   2.277   2.373  14.339  1.4002 -0.0097 -0.4572
  525MPD2    C4 7796   2.155   2.365  14.275 -1.2578 -0.4515 -0.0459
  525MPD2    C5 7797   2.065   2.269  14.302 -0.3584 -0.9017  0.1395
  525MPD2     H 7798   2.391   2.263  14.492 -1.5550  0.3716  1.5814
  525MPD2    H1 7799   2.129   2.432  14.194 -0.5317 -1.2922 -0.9754
  525MPD2    H2 7800   2.014   2.103  14.415 -1.6649  1.4571  1.7848
  525MPD2    H3 7801   1.974   2.271  14.244 -0.0250  1.3384 -0.3118
  525MPD2     N 7802   2.367   2.482  14.307 -0.1514  0.3761 -0.3265
  525MPD2    H5 7803   2.332   2.555  14.246  2.2244  0.3252 -1.7472
  525MPD2    N1 7804   2.234   2.098  14.584  0.4478  0.3255  0.2914
  525MPD2    H7 7805   2.323   2.110  14.630  1.7051  1.4286 -2.4367
  526TMC3    C1 7806   2.212   1.934  14.748  0.6286 -0.5585  0.7309
  526TMC3    C2 7807   2.131   1.898  14.853 -0.2083 -0.8755  0.7456
  526TMC3    C3 7808   2.192   1.881  14.977 -0.3027 -0.6515 -0.2361
  526TMC3    C4 7809   2.345   1.926  14.764 -0.1269  0.2279  0.3206
  526TMC3    C5 7810   2.401   1.886  14.882  0.6246  0.0352  0.8289
  526TMC3    C6 7811   2.327   1.870  14.998  0.6967  0.6348 -0.3760
  526TMC3     C 7812   2.148   2.003  14.637 -0.2247 -1.0082  0.0046
  526TMC3     O 7813   2.028   1.982  14.619 -0.2301  0.1084  0.0419
  526TMC3     H 7814   2.023   1.909  14.849 -0.0050  1.6201  1.9958
  526TMC3    H1 7815   2.410   1.939  14.679  0.8712 -1.8606  0.7724
  526TMC3    H2 7816   2.371   1.825  15.086  1.4746  2.1862  0.0330
  526TMC3    C7 7817   2.527   1.825  14.889 -0.1629  0.3960 -0.9924
  526TMC3    C8 7818   2.105   1.889  15.093 -1.0854 -0.1909  0.5037
  526TMC3    O1 7819   2.572   1.817  15.005  0.6868 -0.3989 -0.5662
  526TMC3    O2 7820   1.985   1.876  15.080 -0.1525  0.0480  0.4892
  527MPD2     C 7821   4.566   0.180   0.942  0.2037 -0.0926 -0.4449
  527MPD2    C1 7822   4.672   0.198   1.029 -0.5526  0.7392 -0.0357
  527MPD2    C2 7823   0.079   0.183   0.991  0.3874  0.3391 -0.7282
  527MPD2    C3 7824   0.112   0.129   0.866  0.6404  0.9479 -0.1793
  527MPD2    C4 7825   0.007   0.097   0.783 -0.2313  0.0553 -0.2388
  527MPD2    C5 7826   4.603   0.136   0.819  0.3000 -0.0111  0.1283
  527MPD2     H 7827   0.159   0.205   1.060  1.7724 -1.9274 -1.5862
  527MPD2    H1 7828   0.021   0.054   0.684  0.1064 -0.7966  0.1819
  527MPD2    H2 7829   4.462   0.192   0.968  0.1833 -0.9825 -0.1261
  527MPD2    H3 7830   4.524   0.115   0.748  0.8229 -0.8812 -0.1853
  527MPD2     N 7831   0.240   0.095   0.824  0.0738  0.0630  0.3634
  527MPD2    H5 7832   0.252   0.043   0.738  1.4937  0.4246  0.3430
  527MPD2    N1 7833   4.647   0.229   1.163  0.6622 -0.3955  0.3805
  527MPD2    H7 7834   0.009   0.256   1.213  0.0032  0.2262  1.1484
  528TMC3    C1 7835   4.540   0.301   1.355 -0.4594 -0.8266 -0.1957
  528TMC3    C2 7836   4.665   0.345   1.404 -0.3715 -0.3984  0.6399
  528TMC3    C3 7837   4.664   0.382   1.531 -0.2259 -0.3457  0.4151
  528TMC3    C4 7838   4.430   0.308   1.437  0.2087 -0.4522  0.4448
  528TMC3    C5 7839   4.441   0.345   1.566 -0.5899  0.3115  0.4409
  528TMC3    C6 7840   4.558   0.382   1.622  0.2485  0.2776  0.2463
  528TMC3     C 7841   4.529   0.248   1.226  0.3923  0.2741 -0.5278
  528TMC3     O 7842   4.414   0.235   1.187 -0.3931  0.2200 -0.6726
  528TMC3     H 7843   0.028   0.362   1.340  0.9512 -0.1718  2.4850
  528TMC3    H1 7844   4.332   0.272   1.405  0.6394 -1.0177 -0.2545
  528TMC3    H2 7845   4.572   0.396   1.728  1.5912  0.9254 -0.0206
  528TMC3    C7 7846   4.331   0.303   1.654 -0.7135 -0.3100  0.5477
  528TMC3    C8 7847   0.064   0.448   1.590  0.1176 -0.5408 -0.1459
  528TMC3    O1 7848   4.247   0.222   1.607  0.3191 -0.3759  0.0856
  528TMC3    O2 7849   0.061   0.514   1.692 -0.4125 -0.3605 -0.0991
  529MPD2     C 7850   2.267   3.962   1.383  0.0250  0.1039  0.2150
  529MPD2    C1 7851   2.332   3.843   1.347 -0.5274  0.6129 -0.4463
  529MPD2    C2 7852   2.288   3.788   1.234 -0.0666  0.5851  0.2519
  529MPD2    C3 7853   2.194   3.844   1.148 -0.7994  0.0519 -0.4456
  529MPD2    C4 7854   2.133   3.962   1.183  0.1763 -0.6300 -0.1205
  529MPD2    C5 7855   2.164   4.017   1.305  0.2663  0.3643 -0.3080
  529MPD2     H 7856   2.351   3.707   1.199  0.5211  0.6267  1.2355
  529MPD2    H1 7857   2.059   4.009   1.120 -1.0662  0.2015  1.9348
  529MPD2    H2 7858   2.277   4.011   1.479 -1.2369  2.9854 -1.1233
  529MPD2    H3 7859   2.113   4.107   1.337  1.6564  1.4688 -1.1982
  529MPD2     N 7860   2.149   3.791   1.025 -0.0255  0.3037  0.0334
  529MPD2    H5 7861   2.095   3.852   0.966  1.1443  0.4787 -0.8546
  529MPD2    N1 7862   2.444   3.795   1.417  0.1041 -0.3575  0.0554
  529MPD2    H7 7863   2.493   3.720   1.369 -1.6409 -0.8710 -0.8852
  530TMC3    C1 7864   2.617   3.792   1.574  0.1771 -0.0608 -0.4205
  530TMC3    C2 7865   2.692   3.866   1.654 -0.0401  0.1794 -0.4164
  530TMC3    C3 7866   2.821   3.828   1.674 -0.7856  0.3076  0.8772
  530TMC3    C4 7867   2.666   3.675   1.516 -0.2567 -0.1372  0.0179
  530TMC3    C5 7868   2.797   3.645   1.527 -0.1110  0.2584  0.3194
  530TMC3    C6 7869   2.870   3.713   1.612 -0.1446  0.1388  0.1827
  530TMC3     C 7870   2.489   3.849   1.536 -0.2952 -0.0201 -0.2450
  530TMC3     O 7871   2.447   3.937   1.612  0.9791 -0.3146  0.0368
  530TMC3     H 7872   2.661   3.958   1.702  1.7698  0.6269 -0.0973
  530TMC3    H1 7873   2.610   3.617   1.444 -1.1703  1.6364 -0.6844
  530TMC3    H2 7874   2.967   3.674   1.640 -0.2458  1.3807  2.2742
  530TMC3    C7 7875   2.860   3.533   1.469  0.2429  0.2128 -0.3974
  530TMC3    C8 7876   2.895   3.891   1.781 -0.3706 -0.4549 -0.3983
  530TMC3    O1 7877   2.982   3.528   1.472  0.2695  0.0523  0.1439
  530TMC3    O2 7878   2.840   3.936   1.877 -0.4523  0.1460 -0.0913
  531MPD2     C 7879   1.127   1.621  13.063 -0.5340 -0.1402 -0.3455
  531MPD2    C1 7880   1.048   1.514  13.071 -0.1041  0.2849 -0.5342
  531MPD2    C2 7881   1.027   1.434  12.963 -0.0167  0.2514  0.3520
  531MPD2    C3 7882   1.078   1.465  12.842 -0.0903  0.1306 -0.0570
  531MPD2    C4 7883   1.159   1.575  12.827 -0.3832  0.5054  0.9195
  531MPD2    C5 7884   1.184   1.652  12.941  0.5115 -0.3655  0.9929
  531MPD2     H 7885   0.972   1.345  12.990 -1.4471  0.9019 -0.4601
  531MPD2    H1 7886   1.205   1.603  12.732 -1.7772  0.0967  0.1179
  531MPD2    H2 7887   1.142   1.695  13.141  0.6196  0.1672 -0.8732
  531MPD2    H3 7888   1.245   1.741  12.937 -1.9285  1.1580 -1.9272
  531MPD2     N 7889   1.073   1.376  12.736 -0.2229  0.6659  0.6044
  531MPD2    H5 7890   1.127   1.402  12.654 -1.2519  0.8659 -0.0092
  531MPD2    N1 7891   0.976   1.476  13.189 -0.1147  0.2485  0.0707
  531MPD2    H7 7892   0.911   1.398  13.180  1.0869 -0.6656 -0.7772
  532TMC3    C1 7893   0.898   1.469  13.419  0.1280  0.4287  0.3283
  532TMC3    C2 7894   0.800   1.383  13.380  0.4022  0.3250  0.5019
  532TMC3    C3 7895   0.762   1.281  13.464  0.1251 -0.1806 -0.4986
  532TMC3    C4 7896   0.961   1.457  13.540  1.0026  0.1180 -0.1194
  532TMC3    C5 7897   0.919   1.355  13.625 -0.4978  0.0507 -0.1985
  532TMC3    C6 7898   0.818   1.270  13.589  0.3247 -0.3549 -0.5484
  532TMC3     C 7899   0.982   1.536  13.314  0.6104 -0.0340  0.1003
  532TMC3     O 7900   1.061   1.619  13.362  0.0228  0.6397 -0.1591
  532TMC3     H 7901   0.739   1.419  13.298 -0.3116 -1.4492  0.2646
  532TMC3    H1 7902   1.014   1.544  13.578  0.2356  0.0543  1.1063
  532TMC3    H2 7903   0.794   1.185  13.652 -0.9632  1.0553  0.8885
  532TMC3    C7 7904   1.033   1.298  13.702  0.0931 -0.0498 -0.4183
  532TMC3    C8 7905   0.714   1.155  13.416  0.4118 -0.6641  0.2465
  532TMC3    O1 7906   1.000   1.221  13.795 -0.4681  0.4464  0.1029
  532TMC3    O2 7907   0.678   1.071  13.498  0.1409  0.2596 -0.3866
  533TMC3    C1 7908   2.519   2.649  14.374  0.8363  0.3401  0.2988
  533TMC3    C2 7909   2.647   2.671  14.424 -0.0254  0.0872 -1.0847
  533TMC3    C3 7910   2.671   2.782  14.496  0.4042  1.2589 -0.8247
  533TMC3    C4 7911   2.415   2.733  14.408  0.1493 -0.8448 -0.0543
  533TMC3    C5 7912   2.436   2.833  14.492  0.2863  0.4359 -0.3394
  533TMC3    C6 7913   2.567   2.864  14.536  0.1724  0.2994  0.0786
  533TMC3     C 7914   2.484   2.511  14.374  0.1748  0.1461 -0.3736
  533TMC3     O 7915   2.552   2.442  14.453 -0.0566 -0.0244  0.2654
  533TMC3     H 7916   2.717   2.600  14.381 -0.0624 -1.7099  1.7657
  533TMC3    H1 7917   2.314   2.718  14.372 -0.9765  0.5384  2.5033
  533TMC3    H2 7918   2.579   2.961  14.584 -0.7806  2.0350 -3.1099
  533TMC3    C7 7919   2.355   2.813  14.607 -0.3529 -0.3159  0.5447
  533TMC3    C8 7920   2.806   2.831  14.489 -0.7941  0.6120  0.1195
  533TMC3    O1 7921   2.296   2.702  14.610  0.7732  0.0612  0.3824
  533TMC3    O2 7922   2.834   2.944  14.529  0.3362 -0.0060  0.0749
  534MPD2     C 7923   0.012   0.186   1.964  0.6939 -0.6937  0.5818
  534MPD2    C1 7924   0.083   0.170   1.844 -0.5619  0.5561 -0.7573
  534MPD2    C2 7925   0.021   0.115   1.734 -0.1640  0.4641 -0.0589
  534MPD2    C3 7926   4.609   0.075   1.744 -0.7709  0.0557 -0.5350
  534MPD2    C4 7927   4.540   0.103   1.859 -1.2782  0.5127  0.2379
  534MPD2    C5 7928   4.607   0.149   1.969  0.3610  0.0006 -0.0917
  534MPD2     H 7929   0.081   0.096   1.646 -1.5583 -1.6737 -0.5604
  534MPD2    H1 7930   4.434   0.084   1.869 -0.9079 -1.6012  0.2029
  534MPD2    H2 7931   0.058   0.238   2.047  2.0770 -2.1846  0.7482
  534MPD2    H3 7932   4.541   0.168   2.053 -0.7286 -1.5948 -0.5729
  534MPD2     N 7933   4.535   0.013   1.638  0.6402  0.3486 -0.1559
  534MPD2    H5 7934   4.443   4.700   1.663 -0.2997  1.5645 -1.7975
  534MPD2    N1 7935   0.219   0.201   1.812  0.8566  0.1346  0.1214
  534MPD2    H7 7936   0.248   0.176   1.718  0.9172 -1.3076  0.5110
  535TMC3    C1 7937   4.469   4.654   1.433 -0.0988  0.5954  0.0300
  535TMC3    C2 7938   4.335   4.679   1.457  0.0420 -1.2318  0.5843
  535TMC3    C3 7939   4.241   4.654   1.358 -0.0407 -0.1805  0.3998
  535TMC3    C4 7940   4.509   4.604   1.317 -0.2407  0.2644  0.0898
  535TMC3    C5 7941   4.415   4.581   1.219  0.3910  0.0883 -0.2600
  535TMC3    C6 7942   4.279   4.608   1.241  0.4043  1.1564  0.1249
  535TMC3     C 7943   4.578   4.715   1.514  0.3023  0.5337  0.8083
  535TMC3     O 7944   4.683   0.014   1.459 -0.3046  0.1226  0.2059
  535TMC3     H 7945   4.303   0.000   1.551  1.1337  1.5610 -0.3472
  535TMC3    H1 7946   4.614   4.588   1.295 -0.3652  0.5371 -0.7093
  535TMC3    H2 7947   4.197   4.597   1.172  0.8077 -1.1250  0.0089
  535TMC3    C7 7948   4.462   4.543   1.090  0.1098 -0.5312  0.2568
  535TMC3    C8 7949   4.097   4.663   1.385 -0.8146  0.6158  0.7295
  535TMC3    O1 7950   4.569   4.485   1.093  0.0197 -0.0993 -0.0385
  535TMC3    O2 7951   4.030   4.573   1.331 -0.3679  0.9267 -0.9131
  536MPD2     C 7952   3.960   2.233  16.440  0.7136  0.9652 -0.6059
  536MPD2    C1 7953   3.838   2.187  16.395  0.5084 -0.2336 -0.2157
  536MPD2    C2 7954   3.821   2.151  16.264 -0.2515 -0.3093 -0.4188
  536MPD2    C3 7955   3.931   2.144  16.178 -0.9703 -0.1562  0.4154
  536MPD2    C4 7956   4.051   2.199  16.223  0.3134 -0.0883 -0.2743
  536MPD2    C5 7957   4.063   2.244  16.347 -0.1284 -0.1035 -0.2907
  536MPD2     H 7958   3.724   2.139  16.218 -0.7070 -0.4520  0.5835
  536MPD2    H1 7959   4.142   2.199  16.164  0.0925  0.1527 -0.6126
  536MPD2    H2 7960   3.982   2.257  16.543 -0.1613  0.8884 -0.4045
  536MPD2    H3 7961   4.156   2.283  16.387 -0.2645  0.3733 -0.4375
  536MPD2     N 7962   3.930   2.090  16.044  0.5896  0.0187  0.1293
  536MPD2    H5 7963   4.022   2.088  16.001  0.3715  1.0749 -0.3868
  536MPD2    N1 7964   3.732   2.191  16.492  0.2082  0.1507  0.5829
  536MPD2    H7 7965   3.756   2.225  16.584 -3.2155 -0.4168  1.6732
  537TMC3    C1 7966   3.536   2.139  16.603 -0.0064  0.0574  0.2793
  537TMC3    C2 7967   3.585   2.228  16.696  0.1512 -0.2335  0.5901
  537TMC3    C3 7968   3.558   2.194  16.827  0.3014 -0.0641 -0.0299
  537TMC3    C4 7969   3.467   2.016  16.639  0.0887  0.2244 -0.2675
  537TMC3    C5 7970   3.492   1.980  16.771 -0.5120  0.2976 -0.9377
  537TMC3    C6 7971   3.533   2.067  16.870  0.0813  0.3057  0.1975
  537TMC3     C 7972   3.605   2.136  16.479 -0.5534  1.0122  0.4855
  537TMC3     O 7973   3.552   2.083  16.383  0.0226  0.3956 -1.0605
  537TMC3     H 7974   3.617   2.327  16.666 -0.5456 -1.0358 -2.7581
  537TMC3    H1 7975   3.432   1.949  16.562 -1.0998  0.1479  0.3429
  537TMC3    H2 7976   3.540   2.048  16.977 -1.1969  0.2357  0.2649
  537TMC3    C7 7977   3.491   1.843  16.808 -0.7526 -0.2051  0.1981
  537TMC3    C8 7978   3.614   2.293  16.913  0.0869 -0.2452  0.0868
  537TMC3    O1 7979   3.425   1.772  16.737 -0.5170  0.0777 -0.3268
  537TMC3    O2 7980   3.666   2.248  17.012  0.1571  0.1907  0.7286
  538TMC3    C1 7981   0.080   3.876  10.655 -0.0838  0.5433 -0.5048
  538TMC3    C2 7982   0.194   3.949  10.658 -0.1172  0.0296  0.5688
  538TMC3    C3 7983   0.196   4.056  10.574  0.3378  0.4525  0.4660
  538TMC3    C4 7984   4.690   3.914  10.591 -0.3913 -0.3851  0.0752
  538TMC3    C5 7985   4.702   4.011  10.494  0.3447 -0.0452 -0.2275
  538TMC3    C6 7986   0.087   4.092  10.490  0.9125  0.0751 -0.2180
  538TMC3     C 7987   0.046   3.806  10.774 -0.0427 -0.3343  0.1461
  538TMC3     O 7988   4.658   3.823  10.822 -0.4058  0.0329 -0.4773
  538TMC3     H 7989   0.283   3.932  10.717 -0.7878  2.4789  2.2723
  538TMC3    H1 7990   4.594   3.864  10.592  0.0546 -1.1724  2.5562
  538TMC3    H2 7991   0.101   4.179  10.427 -1.8521 -1.0434 -2.3724
  538TMC3    C7 7992   4.572   4.068  10.455 -0.5606 -0.4440 -0.1577
  538TMC3    C8 7993   0.321   4.123  10.572  0.3232  0.3210 -0.0455
  538TMC3    O1 7994   4.476   4.037  10.526 -0.5110 -0.5965  0.0540
  538TMC3    O2 7995   0.418   4.066  10.614 -0.0132  0.0728  0.5504
  539MPD2     C 7996   4.541   3.627  11.719 -0.6429  0.4514  0.3141
  539MPD2    C1 7997   4.535   3.584  11.583 -0.0511  0.0584 -0.1008
  539MPD2    C2 7998   4.541   3.680  11.486 -0.2400 -0.0037  0.2544
  539MPD2    C3 7999   4.554   3.815  11.516  0.1271 -0.1060 -0.6989
  539MPD2    C4 8000   4.562   3.848  11.645  0.3593  0.2498 -0.2723
  539MPD2    C5 8001   4.564   3.754  11.745  0.4258 -0.0409  0.2861
  539MPD2     H 8002   4.539   3.643  11.384  0.4873  0.7826 -0.0444
  539MPD2    H1 8003   4.554   3.950  11.681 -2.0554  0.3373 -1.1135
  539MPD2    H2 8004   4.535   3.558  11.803 -4.0381 -0.7355 -0.8836
  539MPD2    H3 8005   4.572   3.785  11.848  1.9259  0.8345 -0.0762
  539MPD2     N 8006   4.544   3.919  11.419  0.3642  0.2670  0.9566
  539MPD2    H5 8007   4.550   4.015  11.452  0.8285  1.3762 -2.3700
  539MPD2    N1 8008   4.511   3.448  11.537 -0.4128 -0.4686 -0.2650
  539MPD2    H7 8009   4.522   3.427  11.439 -1.9251 -1.6266 -0.1823
  540TMC3    C1 8010   4.474   4.042  11.227 -0.5417  0.5400 -0.0631
  540TMC3    C2 8011   4.357   4.032  11.155 -0.1278  0.2706 -0.7612
  540TMC3    C3 8012   4.291   4.145  11.131 -0.5768 -0.2301 -0.1790
  540TMC3    C4 8013   4.522   4.152  11.288  0.0287 -0.6248 -0.1914
  540TMC3    C5 8014   4.451   4.266  11.269  0.3058 -0.8151  0.1435
  540TMC3    C6 8015   4.334   4.264  11.193 -0.1412  0.6091  0.6410
  540TMC3     C 8016   4.508   3.909  11.287 -0.0251 -0.4644  0.2315
  540TMC3     O 8017   4.491   3.810  11.225 -0.2881  0.5727 -0.1597
  540TMC3     H 8018   4.330   3.935  11.114 -0.3206 -1.1392  2.7276
  540TMC3    H1 8019   4.614   4.143  11.346  1.0931  1.0937 -1.6012
  540TMC3    H2 8020   4.271   4.351  11.185 -1.1682 -0.2635 -0.8330
  540TMC3    C7 8021   4.448   4.352  11.388  0.7354 -0.7408 -0.0542
  540TMC3    C8 8022   4.205   4.156  11.016 -0.0965  0.2751  0.9544
  540TMC3    O1 8023   4.465   4.296  11.494 -0.2054  0.2166  0.0591
  540TMC3    O2 8024   4.203   4.266  10.964 -0.2031  0.4836  0.2951
  541MPD2     C 8025   2.831   1.121  13.295  0.7501  0.0690  0.7175
  541MPD2    C1 8026   2.741   1.113  13.191  0.3993  0.0794  0.4842
  541MPD2    C2 8027   2.770   1.178  13.070  0.0414  1.0472  0.9280
  541MPD2    C3 8028   2.886   1.252  13.056 -0.1115  1.3170 -0.9015
  541MPD2    C4 8029   2.976   1.258  13.159 -0.0921  0.1096  0.3271
  541MPD2    C5 8030   2.950   1.188  13.280  0.2865 -0.6396  0.1716
  541MPD2     H 8031   2.706   1.181  12.983 -0.7122 -0.5164  1.4451
  541MPD2    H1 8032   3.072   1.306  13.144  0.3930 -1.0495 -0.3219
  541MPD2    H2 8033   2.822   1.072  13.392  0.4150 -1.6151 -0.1540
  541MPD2    H3 8034   3.019   1.193  13.363  0.4703  1.4766 -0.1099
  541MPD2     N 8035   2.926   1.314  12.938 -0.2274  0.1342 -0.1151
  541MPD2    H5 8036   3.007   1.373  12.950  0.0077 -0.4358  1.1227
  541MPD2    N1 8037   2.617   1.046  13.217  0.6660 -0.2159 -0.6758
  541MPD2    H7 8038   2.604   1.009  13.310 -1.2545 -0.5839 -1.0730
  542TMC3    C1 8039   2.978   1.301  12.709  0.6119 -0.9532  0.2548
  542TMC3    C2 8040   2.989   1.223  12.598 -0.2027 -0.1766 -0.2282
  542TMC3    C3 8041   3.043   1.281  12.485 -0.0089  0.2678 -0.7602
  542TMC3    C4 8042   3.006   1.434  12.705 -0.4238 -0.0359 -0.0174
  542TMC3    C5 8043   3.055   1.486  12.589  0.1660  0.0747 -0.8144
  542TMC3    C6 8044   3.083   1.412  12.478  0.5328 -1.0282  0.6733
  542TMC3     C 8045   2.905   1.248  12.822  0.1924  0.0323  0.2473
  542TMC3     O 8046   2.821   1.170  12.781  0.3343 -0.0332 -0.1410
  542TMC3     H 8047   2.952   1.121  12.594  0.6643 -0.4281 -1.6570
  542TMC3    H1 8048   2.986   1.509  12.782  0.7433 -0.5304  0.7631
  542TMC3    H2 8049   3.126   1.453  12.388 -0.2837 -1.1846  0.2146
  542TMC3    C7 8050   3.046   1.629  12.572  0.8530  0.2407  0.2316
  542TMC3    C8 8051   3.078   1.193  12.376  0.3603  0.1990  0.9115
  542TMC3    O1 8052   3.064   1.707  12.663  0.0363 -0.1105 -0.1230
  542TMC3    O2 8053   3.078   1.253  12.267 -0.3598  0.1831 -0.4126
  543TMC3    C1 8054   2.285   2.747  16.737 -0.0164  0.7068 -0.3188
  543TMC3    C2 8055   2.172   2.676  16.768 -1.0357 -0.8835 -0.0943
  543TMC3    C3 8056   2.080   2.741  16.840 -0.3992  0.4353  0.4225
  543TMC3    C4 8057   2.293   2.879  16.761  0.0243 -0.8500  0.2289
  543TMC3    C5 8058   2.197   2.945  16.829  0.4873  0.4054  0.7025
  543TMC3    C6 8059   2.083   2.876  16.866 -0.2925  0.0288 -0.5522
  543TMC3     C 8060   2.379   2.688  16.647 -0.6846 -0.2080  0.1113
  543TMC3     O 8061   2.497   2.716  16.658 -0.3218  0.4891  0.0651
  543TMC3     H 8062   2.178   2.568  16.771 -0.7311 -0.9002 -1.2806
  543TMC3    H1 8063   2.376   2.925  16.709 -1.1780 -1.3312 -2.0884
  543TMC3    H2 8064   2.004   2.928  16.918 -1.4336 -1.9210 -0.3474
  543TMC3    C7 8065   2.201   3.083  16.843  0.1049  0.5634  0.9747
  543TMC3    C8 8066   1.968   2.657  16.895 -0.2371  0.6371  0.5389
  543TMC3    O1 8067   2.101   3.146  16.817  0.2542 -0.0719  0.3969
  543TMC3    O2 8068   1.965   2.543  16.848 -0.3432  0.0661 -0.0751
  544MPD2     C 8069   1.634   2.484  17.245  0.1246  0.1282  0.3575
  544MPD2    C1 8070   1.752   2.430  17.189 -0.2784  0.1201 -0.6390
  544MPD2    C2 8071   1.831   2.507  17.098  0.4953  0.1692  0.1491
  544MPD2    C3 8072   1.803   2.642  17.074 -0.0913  0.1077 -0.3310
  544MPD2    C4 8073   1.688   2.694  17.138 -0.0160 -0.5452 -0.5270
  544MPD2    C5 8074   1.608   2.614  17.211 -0.3981 -0.3607 -0.3824
  544MPD2     H 8075   1.922   2.466  17.054  1.5380  0.6705  1.8262
  544MPD2    H1 8076   1.662   2.799  17.133  0.2317 -0.4914 -0.6620
  544MPD2    H2 8077   1.553   2.424  17.284 -0.8819  0.4327 -1.2379
  544MPD2    H3 8078   1.516   2.668  17.232  1.9664  2.9644  1.5415
  544MPD2     N 8079   1.885   2.718  16.991 -0.5411 -0.1158 -0.4080
  544MPD2    H5 8080   1.889   2.819  16.998 -0.8439 -0.2895  2.0357
  544MPD2    N1 8081   1.777   2.291  17.208  0.7565  0.2280  0.7137
  544MPD2    H7 8082   1.713   2.246  17.273 -1.8155  0.7653 -1.4262
  545TMC3    C1 8083   1.892   2.098  17.225  0.2118 -0.3309  0.0703
  545TMC3    C2 8084   1.986   2.024  17.161  0.0798  0.6788 -0.3890
  545TMC3    C3 8085   2.076   1.966  17.246  0.0625  0.2748  0.1739
  545TMC3    C4 8086   1.883   2.117  17.360 -0.1962  0.1083 -0.6739
  545TMC3    C5 8087   1.977   2.052  17.438 -0.0855 -0.5132 -0.2620
  545TMC3    C6 8088   2.081   1.979  17.384  0.2686 -0.5044 -0.3620
  545TMC3     C 8089   1.874   2.210  17.144 -0.6830  0.5762  0.5494
  545TMC3     O 8090   1.942   2.234  17.046 -0.0872  0.3200  0.4655
  545TMC3     H 8091   1.988   2.004  17.055 -0.3728 -1.1522 -0.0490
  545TMC3    H1 8092   1.799   2.169  17.405  0.2026 -1.4948  1.9372
  545TMC3    H2 8093   2.171   1.956  17.440  0.9538 -0.7803 -1.5646
  545TMC3    C7 8094   1.987   2.097  17.570 -0.1539 -0.6283 -0.2069
  545TMC3    C8 8095   2.178   1.874  17.187 -0.0335  0.1885 -0.2724
  545TMC3    O1 8096   1.946   2.211  17.581 -0.1343  0.1889 -0.1319
  545TMC3    O2 8097   2.218   1.794  17.266 -0.1547 -0.5013 -0.1474
  546MPD2     C 8098   3.735   2.570  17.659  0.5609  0.6842  0.0619
  546MPD2    C1 8099   3.667   2.580  17.540 -0.3565  0.2823 -0.2004
  546MPD2    C2 8100   3.672   2.707  17.474 -0.3692 -0.5538 -0.1475
  546MPD2    C3 8101   3.757   2.809  17.517  0.0336  0.1922 -0.1457
  546MPD2    C4 8102   3.822   2.794  17.643  1.1405  0.3576 -0.4798
  546MPD2    C5 8103   3.808   2.677   0.019 -0.4559  0.2999 -0.1366
  546MPD2     H 8104   3.620   2.723  17.380 -1.3028 -0.1883  0.4260
  546MPD2    H1 8105   3.875   2.879  17.683  1.5042  0.7676 -1.8202
  546MPD2    H2 8106   3.720   2.485   0.032  1.0698  0.2597 -0.3663
  546MPD2    H3 8107   3.864   2.674   0.112 -0.4696  0.0463 -0.1376
  546MPD2     N 8108   3.791   2.930  17.444 -0.8224  0.1436  0.1797
  546MPD2    H5 8109   3.865   2.993  17.475 -2.6312  1.9836  0.7625
  546MPD2    N1 8110   3.587   2.473  17.497  0.2746  0.2239  0.0693
  546MPD2    H7 8111   3.582   2.389  17.554 -0.6079  0.1124 -0.1686
  547TMC3    C1 8112   3.443   2.343  17.366 -0.1919 -0.4816 -0.5054
  547TMC3    C2 8113   3.411   2.302  17.236  0.1413  0.8074  0.3425
  547TMC3    C3 8114   3.287   2.230  17.222  0.1502  0.1444  0.3863
  547TMC3    C4 8115   3.364   2.308  17.473  0.0299  0.5870  0.3572
  547TMC3    C5 8116   3.246   2.250  17.451  0.3590 -0.0282  0.4145
  547TMC3    C6 8117   3.203   2.208  17.329 -0.9173  0.2151  0.4350
  547TMC3     C 8118   3.513   2.472  17.380  0.3777 -0.2866 -0.1018
  547TMC3     O 8119   3.500   2.558  17.295  0.1129  0.2784  0.5855
  547TMC3     H 8120   3.477   2.327  17.153 -0.0627 -1.1083 -0.3867
  547TMC3    H1 8121   3.380   2.365  17.563  1.4797  0.8990 -0.0959
  547TMC3    H2 8122   3.107   2.160  17.316 -1.3244  0.6414  1.8837
  547TMC3    C7 8123   3.160   2.256  17.569 -0.6352 -1.1890  0.5879
  547TMC3    C8 8124   3.240   2.204  17.083  0.7805 -0.5228 -0.6935
  547TMC3    O1 8125   3.213   2.261  17.677  0.0650  0.5299  0.1914
  547TMC3    O2 8126   3.296   2.268  16.999  0.0812 -0.6881  0.0593
  548MPD2     C 8127   3.596   2.881  11.971 -0.0147 -0.2417 -0.2279
  548MPD2    C1 8128   3.587   2.796  12.077 -0.2878 -0.0829  0.1525
  548MPD2    C2 8129   3.690   2.700  12.096 -0.5949 -0.4983  0.0440
  548MPD2    C3 8130   3.806   2.695  12.021 -0.1928  0.3137  0.2045
  548MPD2    C4 8131   3.817   2.790  11.920  0.5010  0.1626 -0.5165
  548MPD2    C5 8132   3.719   2.884  11.908 -0.5020  0.0945  0.7948
  548MPD2     H 8133   3.683   2.627  12.175  1.0271  1.4421  1.9590
  548MPD2    H1 8134   3.894   2.782  11.843 -0.9890  1.0110 -2.0871
  548MPD2    H2 8135   3.520   2.958  11.960  0.7534  0.8295  1.9302
  548MPD2    H3 8136   3.739   2.957  11.830 -0.9313 -0.1282  0.4758
  548MPD2     N 8137   3.893   2.579  12.030  0.4831 -0.3829  0.2295
  548MPD2    H5 8138   3.869   2.502  12.091  1.4741 -0.7542  0.1474
  548MPD2    N1 8139   3.478   2.818  12.166  0.6817  0.6619  0.1198
  548MPD2    H7 8140   3.411   2.891  12.143 -3.0605 -2.3417  1.5210
  549TMC3    C1 8141   3.311   2.767  12.331 -0.2089  0.5959  0.6590
  549TMC3    C2 8142   3.226   2.855  12.264 -0.3222  0.1526 -0.1020
  549TMC3    C3 8143   3.094   2.843  12.288 -0.2021 -0.2961 -0.1310
  549TMC3    C4 8144   3.263   2.667  12.410 -0.2304 -0.6935  0.2571
  549TMC3    C5 8145   3.131   2.647  12.417 -0.1806  0.0561  0.4589
  549TMC3    C6 8146   3.045   2.734  12.361  0.3007 -0.2659 -0.4668
  549TMC3     C 8147   3.448   2.740  12.279  0.3413  0.3894 -0.9115
  549TMC3     O 8148   3.504   2.644  12.323 -0.1915  0.2540 -0.2083
  549TMC3     H 8149   3.265   2.942  12.213  0.6377 -0.4417 -0.3720
  549TMC3    H1 8150   3.329   2.603  12.468  0.7086  0.7631  0.7908
  549TMC3    H2 8151   2.941   2.734  12.391 -0.3122  2.4338 -2.5684
  549TMC3    C7 8152   3.072   2.533  12.494 -0.8829  0.0450  0.3168
  549TMC3    C8 8153   2.999   2.944  12.248  0.1866 -0.5875  1.0109
  549TMC3    O1 8154   2.952   2.539  12.496  0.4382 -0.9983  0.2375
  549TMC3    O2 8155   2.882   2.906  12.248  0.0535  0.1468 -0.4785
  550TMC3    C1 8156   2.467   0.952  11.896  0.2536 -0.3648 -0.3630
  550TMC3    C2 8157   2.440   1.037  11.995  0.3364 -0.3064 -0.0882
  550TMC3    C3 8158   2.308   1.060  12.018  0.6254  0.6148  0.0722
  550TMC3    C4 8159   2.373   0.896  11.817 -0.1801 -0.2780 -0.6831
  550TMC3    C5 8160   2.237   0.934  11.840 -0.1422 -0.0806 -1.0242
  550TMC3    C6 8161   2.204   1.014  11.944 -0.6271  0.1852  0.0985
  550TMC3     C 8162   2.614   0.935  11.882  0.1805  0.4186 -0.4116
  550TMC3     O 8163   2.688   1.036  11.884 -0.2735  0.3008  0.5205
  550TMC3     H 8164   2.516   1.072  12.064  0.0623  2.3711 -1.1633
  550TMC3    H1 8165   2.405   0.847  11.726  0.9364  1.2095 -1.0831
  550TMC3    H2 8166   2.099   1.034  11.966 -0.8570 -1.4741  0.4546
  550TMC3    C7 8167   2.124   0.857  11.789  0.2721 -0.2338  0.8120
  550TMC3    C8 8168   2.268   1.110  12.146  0.7110 -0.9326  0.1065
  550TMC3    O1 8169   2.015   0.913  11.801  0.2762 -0.3430  0.6210
  550TMC3    O2 8170   2.336   1.198  12.193  0.1779 -0.4459 -0.8393
  551TMC3    C1 8171   4.374   3.342  13.108 -0.5180 -0.1308 -0.3486
  551TMC3    C2 8172   4.509   3.341  13.088  0.0451 -0.2539  0.1056
  551TMC3    C3 8173   4.577   3.449  13.128  0.5587  0.0446 -0.1428
  551TMC3    C4 8174   4.321   3.431  13.196  0.1666  0.1167  0.6075
  551TMC3    C5 8175   4.389   3.543  13.230 -0.1918  0.6494  0.1973
  551TMC3    C6 8176   4.523   3.557  13.200  1.2033  0.1248  0.8005
  551TMC3     C 8177   4.304   3.248  13.017  0.6554 -0.6128  0.2788
  551TMC3     O 8178   4.370   3.166  12.953 -0.2830 -0.0529 -0.1176
  551TMC3     H 8179   4.560   3.270  13.025 -2.0526 -1.1249 -0.6022
  551TMC3    H1 8180   4.216   3.424  13.223  0.2143  0.2701  0.8413
  551TMC3    H2 8181   4.583   3.641  13.233  0.8319  0.0716  1.6294
  551TMC3    C7 8182   4.344   3.631  13.343 -0.2086 -0.1829  0.2350
  551TMC3    C8 8183   4.714   3.462  13.085  0.6683  0.6021 -0.1498
  551TMC3    O1 8184   4.420   3.714  13.389 -0.1758  0.3509 -0.0422
  551TMC3    O2 8185   0.047   3.350  13.076 -0.2534  0.2049 -0.1235
  552MPD2     C 8186   1.305   0.805  13.970  0.6465 -0.1305 -0.0296
  552MPD2    C1 8187   1.387   0.700  13.935  0.6207 -0.8210 -0.0269
  552MPD2    C2 8188   1.499   0.670  14.016 -0.1150 -0.1298  0.0173
  552MPD2    C3 8189   1.520   0.743  14.130  0.1681  0.4019  0.9153
  552MPD2    C4 8190   1.437   0.854  14.160  0.7173  0.1589 -0.5048
  552MPD2    C5 8191   1.322   0.877  14.085 -0.5411 -0.3429 -0.0194
  552MPD2     H 8192   1.560   0.588  13.980 -0.5289  0.4145 -1.9698
  552MPD2    H1 8193   1.461   0.916  14.246 -0.2606 -2.4873  1.6545
  552MPD2    H2 8194   1.211   0.834  13.924  0.2638  1.1372  1.5708
  552MPD2    H3 8195   1.249   0.954  14.107 -1.3392 -1.2609  0.5636
  552MPD2     N 8196   1.640   0.728  14.203  0.5960 -0.2824 -0.1860
  552MPD2    H5 8197   1.666   0.807  14.261 -0.4309 -1.3845  1.8171
  552MPD2    N1 8198   1.367   0.633  13.809  0.7376 -0.0492 -0.1824
  552MPD2    H7 8199   1.440   0.568  13.782  2.4642  0.8357  2.4191
  553TMC3    C1 8200   1.256   0.585  13.610  0.1750  0.6844 -1.0314
  553TMC3    C2 8201   1.220   0.653  13.496  0.0229 -0.6438  0.3190
  553TMC3    C3 8202   1.275   0.606  13.377 -0.5891  0.7038  0.5436
  553TMC3    C4 8203   1.350   0.478  13.613 -0.2515  0.1493 -0.7387
  553TMC3    C5 8204   1.405   0.450  13.492  0.5011  0.1692 -0.3476
  553TMC3    C6 8205   1.377   0.512  13.378 -0.3893  0.6500  0.1473
  553TMC3     C 8206   1.265   0.671  13.727  0.2422  0.1892 -0.2920
  553TMC3     O 8207   1.176   0.749  13.733 -0.0468  0.8057 -0.2865
  553TMC3     H 8208   1.154   0.738  13.503  0.7258  0.1442 -2.8845
  553TMC3    H1 8209   1.356   0.418  13.703  1.1909  1.2551 -0.0840
  553TMC3    H2 8210   1.425   0.486  13.284  0.3869  0.8475  0.4878
  553TMC3    C7 8211   1.518   0.360  13.484 -0.1475  0.1693  0.3268
  553TMC3    C8 8212   1.315   0.705  13.283 -0.0459  0.2743  0.3495
  553TMC3    O1 8213   1.514   0.295  13.376 -0.3176 -0.4508 -0.3418
  553TMC3    O2 8214   1.427   0.706  13.236  0.3048  0.2938  0.2605
  554TMC3    C1 8215   3.426   4.151  11.587  0.7238 -0.4584 -0.1101
  554TMC3    C2 8216   3.307   4.168  11.533 -0.0988  0.0652 -0.1090
  554TMC3    C3 8217   3.278   4.284  11.472  0.4931  0.0477  1.0054
  554TMC3    C4 8218   3.524   4.239  11.569 -0.3986  0.1489 -0.0754
  554TMC3    C5 8219   3.496   4.354  11.501 -0.4058  1.4136  0.2675
  554TMC3    C6 8220   3.374   4.384  11.456  0.2223 -0.6101  0.9895
  554TMC3     C 8221   3.439   4.028  11.666 -0.1192 -0.6707  0.1446
  554TMC3     O 8222   3.353   3.941  11.659 -0.2925  0.1232 -0.1540
  554TMC3     H 8223   3.236   4.087  11.546  0.0642 -0.0154  0.2884
  554TMC3    H1 8224   3.630   4.219  11.583 -0.3037 -0.7006 -2.0270
  554TMC3    H2 8225   3.355   4.460  11.381 -0.9852 -2.8263 -0.9351
  554TMC3    C7 8226   3.579   4.378  11.389  0.5002  0.3473 -0.4786
  554TMC3    C8 8227   3.182   4.279  11.365  1.1005  1.0344 -0.0790
  554TMC3    O1 8228   3.530   4.350  11.281 -0.5422 -0.3798  1.0636
  554TMC3    O2 8229   3.228   4.310  11.255 -0.9871 -0.5140  0.2965
  555TMC3    C1 8230   2.952   4.114  15.423 -1.1317  0.2057  0.2210
  555TMC3    C2 8231   2.955   4.122  15.560  0.6413 -0.2682 -0.6053
  555TMC3    C3 8232   2.992   4.005  15.629  0.3766  0.0820  0.5097
  555TMC3    C4 8233   2.972   3.997  15.351 -0.5670  0.1699 -0.2766
  555TMC3    C5 8234   3.017   3.896  15.418  0.0913 -0.2044  0.1824
  555TMC3    C6 8235   3.020   3.890  15.556  0.1300 -0.0394 -0.6844
  555TMC3     C 8236   2.912   4.236  15.352  0.3209 -0.0001  0.6853
  555TMC3     O 8237   2.867   4.222  15.236 -0.1970  0.4529  0.4179
  555TMC3     H 8238   2.915   4.207  15.612  2.2229 -0.3212  0.6991
  555TMC3    H1 8239   2.959   4.000  15.244  0.6975 -0.6577 -0.4457
  555TMC3    H2 8240   3.065   3.799  15.593  1.6851  0.1264 -2.1679
  555TMC3    C7 8241   3.017   3.761  15.354 -0.1263 -0.2777  0.0757
  555TMC3    C8 8242   2.969   3.993  15.773  0.4325  0.0381  0.0185
  555TMC3    O1 8243   2.982   3.666  15.422 -0.4001  0.0225 -0.0323
  555TMC3    O2 8244   2.941   4.103  15.825  0.0079  0.3235  0.3540
  556MPD2     C 8245   0.643   0.772  10.767 -0.2398  0.1428 -0.5433
  556MPD2    C1 8246   0.633   0.648  10.820  1.5828 -0.3269 -0.0679
  556MPD2    C2 8247   0.562   0.549  10.749  0.3673 -0.0784 -0.8909
  556MPD2    C3 8248   0.531   0.581  10.614 -0.5333 -0.2868 -0.4879
  556MPD2    C4 8249   0.569   0.704  10.556  0.8643  0.6210  0.2706
  556MPD2    C5 8250   0.611   0.796  10.638  0.0094 -0.0224  0.5247
  556MPD2     H 8251   0.531   0.452  10.787  0.4127  0.1033 -0.3961
  556MPD2    H1 8252   0.553   0.739  10.454 -0.6719  0.2060  0.3669
  556MPD2    H2 8253   0.677   0.855  10.827 -0.7478 -2.0102  2.7137
  556MPD2    H3 8254   0.628   0.893  10.592 -0.7076  0.8453  2.0738
  556MPD2     N 8255   0.464   0.481  10.542 -0.1089  0.2939 -0.2184
  556MPD2    H5 8256   0.459   0.386  10.579  1.0543 -0.1803 -1.2569
  556MPD2    N1 8257   0.678   0.625  10.951  0.5095  0.4294  0.1593
  556MPD2    H7 8258   0.648   0.540  10.997  1.5035 -0.3142 -0.5548
  557TMC3    C1 8259   0.333   0.395  10.368  0.6310 -0.2012 -0.1528
  557TMC3    C2 8260   0.239   0.426  10.274 -0.2628  0.2653 -0.6069
  557TMC3    C3 8261   0.193   0.313  10.200  0.1190 -0.0655  0.1598
  557TMC3    C4 8262   0.374   0.266  10.386 -0.3443 -0.7507  0.1361
  557TMC3    C5 8263   0.318   0.161  10.316  0.2414  0.0566  0.8038
  557TMC3    C6 8264   0.227   0.180  10.217 -0.5086  0.5355 -0.1218
  557TMC3     C 8265   0.396   0.511  10.427  0.3776 -0.2113  0.9635
  557TMC3     O 8266   0.355   0.622  10.395  0.5076 -0.4234  0.3779
  557TMC3     H 8267   0.204   0.527  10.258  2.5128  0.8775 -2.7774
  557TMC3    H1 8268   0.455   0.242  10.454  0.4462 -1.1141 -0.9447
  557TMC3    H2 8269   0.184   0.093  10.169  3.3425 -0.8226 -1.0751
  557TMC3    C7 8270   0.313   0.026  10.373  0.6456  0.4479  0.2231
  557TMC3    C8 8271   0.082   0.335  10.103  0.1104 -0.1426  0.0412
  557TMC3    O1 8272   0.201   4.703  10.374  0.3721 -0.3678 -0.2199
  557TMC3    O2 8273   0.003   0.430  10.124 -0.0624 -0.0688 -0.1313
  558TMC3    C1 8274   3.134   3.172  10.380  0.1963  0.0270 -0.3084
  558TMC3    C2 8275   3.085   3.047  10.417 -0.1337 -0.3188 -0.4503
  558TMC3    C3 8276   2.971   3.000  10.352 -0.5333  0.8286  0.1044
  558TMC3    C4 8277   3.069   3.242  10.280  0.4090 -0.5950 -0.7620
  558TMC3    C5 8278   2.978   3.177  10.195  1.0181 -0.2072  0.2216
  558TMC3    C6 8279   2.919   3.061  10.237  0.2638  0.2927 -0.0059
  558TMC3     C 8280   3.273   3.195  10.392  0.2834  0.2373 -0.1405
  558TMC3     O 8281   3.344   3.232  10.298  0.1714 -0.1349  0.0295
  558TMC3     H 8282   3.132   2.985  10.493 -1.6906  0.5359  1.2066
  558TMC3    H1 8283   3.108   3.337  10.245 -0.5089  0.3266  0.7485
  558TMC3    H2 8284   2.832   3.020  10.187 -0.3266  0.5560  0.8220
  558TMC3    C7 8285   2.902   3.255  10.101  0.2294  0.4232 -0.2962
  558TMC3    C8 8286   2.925   2.865  10.376  0.3599 -0.1360 -0.3864
  558TMC3    O1 8287   2.876   3.370  10.134 -0.2416  0.4526  0.5309
  558TMC3    O2 8288   2.861   2.814  10.281  0.2885 -0.4074 -0.5041
  559MPD2     C 8289   3.035   3.413  10.625  0.0856 -0.4031 -0.3780
  559MPD2    C1 8290   3.019   3.298  10.697 -0.5435 -0.5169  0.4442
  559MPD2    C2 8291   3.108   3.278  10.799  0.1527  0.0475  0.7934
  559MPD2    C3 8292   3.193   3.374  10.845  0.8047 -0.4050  0.2184
  559MPD2    C4 8293   3.202   3.492  10.777 -0.3719 -0.1647  0.3576
  559MPD2    C5 8294   3.121   3.515  10.664  0.0819 -0.4900 -0.2679
  559MPD2     H 8295   3.096   3.194  10.867  0.1469 -0.2262  0.4571
  559MPD2    H1 8296   3.271   3.570  10.809  0.8309 -0.7159 -0.8557
  559MPD2    H2 8297   2.984   3.439  10.533 -3.5648 -1.0600  1.4328
  559MPD2    H3 8298   3.119   3.614  10.620 -0.8647 -0.6246 -0.5268
  559MPD2     N 8299   3.280   3.340  10.950 -0.0976 -0.5499  0.1145
  559MPD2    H5 8300   3.255   3.253  10.996  0.4153 -0.8870 -0.2520
  559MPD2    N1 8301   2.911   3.213  10.670 -0.1250  0.0941 -0.0874
  559MPD2    H7 8302   2.854   3.240  10.590 -2.6133  1.3906  2.1226
  560TMC3    C1 8303   3.448   3.360  11.111 -0.0004 -0.0911 -0.8700
  560TMC3    C2 8304   3.462   3.228  11.094 -0.6997  0.4307 -0.2611
  560TMC3    C3 8305   3.571   3.170  11.159 -0.0988  0.3590  0.8340
  560TMC3    C4 8306   3.548   3.435  11.168 -0.0947  0.2626 -0.9873
  560TMC3    C5 8307   3.649   3.373  11.224 -0.2661 -0.0428 -0.0239
  560TMC3    C6 8308   3.664   3.241  11.234  0.0838  0.1818 -0.1040
  560TMC3     C 8309   3.360   3.430  11.019  0.3455 -0.3217  0.2788
  560TMC3     O 8310   3.381   3.549  11.009 -0.0107  0.3652 -0.7098
  560TMC3     H 8311   3.393   3.163  11.041  0.5297  0.8660 -2.4106
  560TMC3    H1 8312   3.563   3.542  11.161 -2.9987  0.6183 -1.6019
  560TMC3    H2 8313   3.756   3.200  11.273 -0.7628 -1.2198  0.4140
  560TMC3    C7 8314   3.769   3.448  11.265 -0.9231  0.7368  0.1257
  560TMC3    C8 8315   3.592   3.036  11.118  0.2655  0.0364  0.1883
  560TMC3    O1 8316   3.743   3.558  11.317 -0.1144  0.0836  0.0726
  560TMC3    O2 8317   3.500   2.957  11.108 -0.7731  0.2617 -0.2832
  561TMC3    C1 8318   0.852   2.087  11.064 -0.1448 -0.3170  0.9822
  561TMC3    C2 8319   0.784   2.038  11.167  0.0075  0.2487 -0.9753
  561TMC3    C3 8320   0.761   2.122  11.271  0.2293  0.2186  0.1120
  561TMC3    C4 8321   0.914   2.211  11.062 -0.1827  0.0804 -0.9447
  561TMC3    C5 8322   0.893   2.292  11.170 -0.4950 -0.2005 -0.6637
  561TMC3    C6 8323   0.815   2.249  11.273  0.0931  0.2739  0.3343
  561TMC3     C 8324   0.833   2.025  10.935  0.0618  0.2024  0.4031
  561TMC3     O 8325   0.730   1.966  10.913 -0.4017 -0.3823 -0.7243
  561TMC3     H 8326   0.725   1.950  11.147  1.6036 -1.3907  1.6204
  561TMC3    H1 8327   0.967   2.251  10.976 -0.4943 -0.4942 -1.4080
  561TMC3    H2 8328   0.792   2.323  11.349 -1.1637 -0.5928  0.8088
  561TMC3    C7 8329   0.978   2.403  11.195 -0.0918  0.4252 -0.8728
  561TMC3    C8 8330   0.729   2.060  11.397 -0.1142  0.0366  0.6538
  561TMC3    O1 8331   0.935   2.499  11.261 -0.3336  0.0812  0.6407
  561TMC3    O2 8332   0.742   1.935  11.401 -0.5889  0.0243 -0.3681
  562TMC3    C1 8333   2.518   4.508  16.150 -0.2028  0.1881 -0.6228
  562TMC3    C2 8334   2.477   4.636  16.159  0.4310 -0.2306  0.4371
  562TMC3    C3 8335   2.427   4.692  16.045 -0.6086  0.1588  0.1377
  562TMC3    C4 8336   2.527   4.442  16.035  0.3651 -0.1177 -0.2422
  562TMC3    C5 8337   2.475   4.507  15.924  0.5186  0.1329  0.5957
  562TMC3    C6 8338   2.427   4.628  15.924  0.1631 -0.4924 -0.0579
  562TMC3     C 8339   2.580   4.459  16.271  0.1032 -0.1177 -0.1153
  562TMC3     O 8340   2.565   4.532  16.368 -0.1914  0.0486 -0.2794
  562TMC3     H 8341   2.496   4.696  16.248 -0.8564 -0.4857  0.8849
  562TMC3    H1 8342   2.585   4.351  16.022  1.3236  0.3504  0.8178
  562TMC3    H2 8343   2.397   4.672  15.829 -1.5820  1.9881  1.6365
  562TMC3    C7 8344   2.484   4.448  15.789  0.1736  0.5662  0.0685
  562TMC3    C8 8345   2.310   0.047  16.077 -0.8055 -0.2026  0.0422
  562TMC3    O1 8346   2.471   4.522  15.693  0.5349  0.4744  0.1229
  562TMC3    O2 8347   2.295   0.084  16.192 -0.4395  1.2343  0.2296
  563MPD2     C 8348   0.141   1.209  15.639 -0.0977 -0.0649  0.3328
  563MPD2    C1 8349   0.109   1.220  15.775  0.5502  0.3940  0.1296
  563MPD2    C2 8350   0.203   1.190  15.865  0.5600 -0.5186 -0.5267
  563MPD2    C3 8351   0.337   1.177  15.824 -0.2170  0.5179 -0.8561
  563MPD2    C4 8352   0.367   1.170  15.689  0.0526  0.1570  0.1863
  563MPD2    C5 8353   0.272   1.189  15.598 -0.0103  0.0616 -0.2289
  563MPD2     H 8354   0.179   1.178  15.970  0.1820  1.8690 -0.3292
  563MPD2    H1 8355   0.472   1.185  15.663  0.5241 -1.7593  0.9884
  563MPD2    H2 8356   0.063   1.211  15.563 -0.7154 -1.1396  0.9474
  563MPD2    H3 8357   0.293   1.176  15.493 -1.1188 -0.1419 -0.4290
  563MPD2     N 8358   0.430   1.156  15.930  0.0981  0.0576 -0.0130
  563MPD2    H5 8359   0.392   1.161  16.024  1.6064  0.0876  0.5983
  563MPD2    N1 8360   4.694   1.243  15.807  0.0361  0.8628 -0.9986
  563MPD2    H7 8361   4.630   1.232  15.729  0.8599 -1.7833 -1.3047
  564TMC3    C1 8362   4.538   1.195  15.975  0.0562 -0.5265 -0.4530
  564TMC3    C2 8363   4.487   1.120  15.874  0.2356 -0.3095 -0.0213
  564TMC3    C3 8364   4.454   0.991  15.903  0.3640  0.6381  0.1725
  564TMC3    C4 8365   4.565   1.144  16.101 -0.0740  0.2831 -0.8036
  564TMC3    C5 8366   4.547   1.015  16.131 -0.7188  0.0592  0.8688
  564TMC3    C6 8367   4.476   0.942  16.031  0.8539 -0.2365 -0.3439
  564TMC3     C 8368   4.657   1.270  15.937 -0.1297  0.4498 -0.0312
  564TMC3     O 8369   4.714   1.338  16.020  0.0056  0.6741 -0.0486
  564TMC3     H 8370   4.471   1.158  15.774  1.8373 -1.0157 -0.5527
  564TMC3    H1 8371   4.618   1.200  16.177  0.5858  0.5448 -1.4692
  564TMC3    H2 8372   4.460   0.836  16.046  2.6208 -0.5358 -0.6062
  564TMC3    C7 8373   4.679   0.956  16.169  0.0810  0.1542 -0.5510
  564TMC3    C8 8374   4.460   0.892  15.805 -0.4112 -0.1917  0.0472
  564TMC3    O1 8375   0.011   0.995  16.271  0.0413  0.5704 -0.1659
  564TMC3    O2 8376   4.412   0.786  15.839 -0.3193  0.4410 -0.4388
  565TMC3    C1 8377   0.371   1.677  10.119  0.8432  0.4473 -0.5397
  565TMC3    C2 8378   0.408   1.610  10.240  0.1570  0.4666 -0.5009
  565TMC3    C3 8379   0.368   1.480  10.251  0.7671 -0.0718 -0.1741
  565TMC3    C4 8380   0.282   1.625  10.033  0.1524 -0.3441  0.2281
  565TMC3    C5 8381   0.232   1.499  10.055 -0.6258  0.6600  0.1872
  565TMC3    C6 8382   0.288   1.418  10.160  0.0008 -0.1988 -0.1982
  565TMC3     C 8383   0.449   1.792  10.070  0.2568  0.0830 -0.0367
  565TMC3     O 8384   0.392   1.868   9.992 -0.1270 -0.1489  0.7092
  565TMC3     H 8385   0.466   1.662  10.316  2.5862 -1.4426 -1.0499
  565TMC3    H1 8386   0.242   1.687   9.953  0.7173  0.9616  0.9511
  565TMC3    H2 8387   0.283   1.310  10.151 -0.5027 -0.2130  0.2399
  565TMC3    C7 8388   0.155   1.441   9.949  0.0383 -0.4189  0.2570
  565TMC3    C8 8389   0.429   1.407  10.360  0.6110  0.9837  0.3364
  565TMC3    O1 8390   0.144   1.503   9.846  0.3105 -0.4383 -0.1772
  565TMC3    O2 8391   0.527   1.464  10.408  0.4060  0.3419 -0.3270
  566MPD2     C 8392   1.845   3.375  13.995  0.1653 -0.1562  0.2957
  566MPD2    C1 8393   1.849   3.493  13.924  0.3027 -0.6326  0.3308
  566MPD2    C2 8394   1.735   3.539  13.859  0.3426 -0.3848  0.2411
  566MPD2    C3 8395   1.619   3.463  13.865 -0.0179  0.3029  0.2682
  566MPD2    C4 8396   1.614   3.348  13.941  0.3403  0.1135 -0.1373
  566MPD2    C5 8397   1.728   3.300  13.997 -0.3008  0.0668  0.3667
  566MPD2     H 8398   1.733   3.637  13.813 -0.9166 -0.7038 -0.3937
  566MPD2    H1 8399   1.523   3.291  13.956  0.2530  1.0280  2.8202
  566MPD2    H2 8400   1.927   3.332  14.052  0.0937 -0.7239 -0.0230
  566MPD2    H3 8401   1.720   3.209  14.056  0.6632  1.0046  1.9386
  566MPD2     N 8402   1.497   3.503  13.803  0.1216 -0.3280 -0.1527
  566MPD2    H5 8403   1.419   3.458  13.851 -0.7758  0.4910 -0.8401
  566MPD2    N1 8404   1.968   3.564  13.923  0.3981 -0.3736  0.2675
  566MPD2    H7 8405   2.036   3.525  13.989 -0.1294 -0.5967  0.6753
  567TMC3    C1 8406   2.108   3.735  13.848  0.4871  0.1656 -0.4797
  567TMC3    C2 8407   2.165   3.789  13.741  0.8031  0.2056  0.4398
  567TMC3    C3 8408   2.280   3.855  13.751 -0.2094  0.4136 -0.3139
  567TMC3    C4 8409   2.167   3.749  13.974  0.0861 -0.7072 -0.6812
  567TMC3    C5 8410   2.284   3.824  13.979  0.0666 -0.1401  0.3576
  567TMC3    C6 8411   2.348   3.879  13.871  0.0118 -0.3444  0.6044
  567TMC3     C 8412   1.993   3.653  13.822 -0.4976 -0.0313  0.6080
  567TMC3     O 8413   1.932   3.667  13.714  0.6988  0.1162 -0.0958
  567TMC3     H 8414   2.110   3.782  13.648  2.2872  0.0762 -0.4326
  567TMC3    H1 8415   2.114   3.702  14.056  0.1539  0.3650 -0.0277
  567TMC3    H2 8416   2.431   3.947  13.886 -0.2655  0.0758  0.2363
  567TMC3    C7 8417   2.339   3.855  14.107  0.8153 -0.8234  0.0224
  567TMC3    C8 8418   2.325   3.920  13.627 -0.6342  0.3561  0.4686
  567TMC3    O1 8419   2.460   3.863  14.110 -0.2735  0.0264 -0.6238
  567TMC3    O2 8420   2.235   3.933  13.544  0.3319  0.0899  0.4415
  568MPD2     C 8421   4.166   4.494  16.026 -0.0934 -0.0128 -0.2865
  568MPD2    C1 8422   4.240   4.515  16.137 -0.2733  0.0916 -0.0573
  568MPD2    C2 8423   4.350   4.602  16.127 -0.0027 -0.1734 -0.7187
  568MPD2    C3 8424   4.381   4.654  16.006  0.5644  0.0198  0.0558
  568MPD2    C4 8425   4.303   4.619  15.890 -0.6201 -0.2994  0.3572
  568MPD2    C5 8426   4.191   4.544  15.902  0.7251  0.3202 -0.4148
  568MPD2     H 8427   4.415   4.623  16.212 -3.0836  0.2618  1.5203
  568MPD2    H1 8428   4.326   4.665  15.795  1.4261  0.6646  1.3096
  568MPD2    H2 8429   4.072   4.441  16.037 -0.1954  0.4282  0.9343
  568MPD2    H3 8430   4.117   4.525  15.826  0.2521 -0.7795  0.3114
  568MPD2     N 8431   4.489   0.023  15.997  0.0716 -0.6171 -0.4650
  568MPD2    H5 8432   4.527   0.062  16.082 -0.5203  0.3905 -0.6582
  568MPD2    N1 8433   4.199   4.456  16.260  0.5334 -0.9125 -0.1338
  568MPD2    H7 8434   4.104   4.420  16.258  0.4436 -0.8184  2.5509
  569TMC3    C1 8435   4.654   0.158  15.892 -0.5064  0.3034  0.5807
  569TMC3    C2 8436   4.666   0.236  16.005  0.4920  0.8626 -0.8394
  569TMC3    C3 8437   0.036   0.331  15.998  0.7608 -0.2563  0.6334
  569TMC3    C4 8438   0.003   0.174  15.774 -0.3049  0.6607  0.1809
  569TMC3    C5 8439   0.098   0.273  15.772  0.0226  0.3086  0.2097
  569TMC3    C6 8440   0.109   0.354  15.883 -0.4755  0.2385  0.5567
  569TMC3     C 8441   4.556   0.053  15.879  0.0354  0.0114  0.3571
  569TMC3     O 8442   4.535   0.015  15.766  0.3932  0.4622 -0.0994
  569TMC3     H 8443   4.595   0.241  16.086 -0.1852  0.4902 -1.4110
  569TMC3    H1 8444   4.720   0.115  15.683 -1.7695 -0.8794  1.2907
  569TMC3    H2 8445   0.178   0.438  15.879 -0.1510 -0.0038  1.0809
  569TMC3    C7 8446   0.093   0.356  15.653 -0.0463  0.0137  0.0228
  569TMC3    C8 8447   4.708   0.451  16.039  0.2109  0.4128 -0.5517
  569TMC3    O1 8448   0.189   0.354  15.575  0.5230  0.3378 -0.2230
  569TMC3    O2 8449   4.616   0.495  15.975 -0.1567 -0.2500 -0.0357
  570TMC3    C1 8450   3.382   3.499  16.090 -1.1359  0.0958  0.1344
  570TMC3    C2 8451   3.474   3.453  15.996  0.3417 -0.6238  0.3382
  570TMC3    C3 8452   3.502   3.530  15.885 -0.2299 -0.1152 -0.0138
  570TMC3    C4 8453   3.325   3.622  16.083 -0.4192  0.1359  0.2481
  570TMC3    C5 8454   3.367   3.698  15.979 -0.6590  0.2278 -0.2067
  570TMC3    C6 8455   3.453   3.656  15.878  0.1341 -0.0806  0.0560
  570TMC3     C 8456   3.323   3.393  16.170  0.0888  0.1103 -0.3789
  570TMC3     O 8457   3.305   3.285  16.117  0.3662  0.9421  0.6676
  570TMC3     H 8458   3.521   3.357  16.013  0.5226 -0.5560  0.2179
  570TMC3    H1 8459   3.255   3.651  16.160 -0.4609 -1.3314  0.7682
  570TMC3    H2 8460   3.495   3.720  15.801 -1.8981 -1.6299 -2.3472
  570TMC3    C7 8461   3.338   3.834  15.987  0.5388  0.4680  0.7401
  570TMC3    C8 8462   3.614   3.494  15.800 -0.0006  0.2054 -0.2887
  570TMC3    O1 8463   3.338   3.888  16.095  0.2693  0.1740  0.5204
  570TMC3    O2 8464   3.674   3.583  15.742  0.3260  0.4121  0.1355
  571MPD2     C 8465   1.317   0.023  17.100  0.1050  0.5459 -0.1017
  571MPD2    C1 8466   1.316   4.653  17.200 -0.2144  0.8316  0.5445
  571MPD2    C2 8467   1.250   4.687  17.317 -0.4895  0.0199  0.0478
  571MPD2    C3 8468   1.194   0.091  17.337 -0.2223 -0.2716  0.2314
  571MPD2    C4 8469   1.225   0.187  17.249 -0.7100 -0.0707 -0.0443
  571MPD2    C5 8470   1.288   0.152  17.133  0.1606  0.2177  1.0093
  571MPD2     H 8471   1.226   4.604  17.384 -0.6046  0.5632  0.6811
  571MPD2    H1 8472   1.187   0.288  17.259 -0.0565  0.4332 -2.6081
  571MPD2    H2 8473   1.373   0.007  17.009  0.6634  0.7911  0.1980
  571MPD2    H3 8474   1.315   0.230  17.062 -0.7215  2.1028  2.7513
  571MPD2     N 8475   1.118   0.135  17.451  0.1383  0.0845 -0.4138
  571MPD2    H5 8476   1.081   0.230  17.459  1.1069  0.4477 -0.1875
  571MPD2    N1 8477   1.349   4.519  17.170 -0.1244  0.4200 -0.3033
  571MPD2    H7 8478   1.414   4.514  17.092  0.4205  1.4778  0.0819
  572TMC3    C1 8479   1.014   0.135  17.655  0.0849  0.4728 -1.3324
  572TMC3    C2 8480   1.027   0.078   0.086 -0.4047 -0.1589 -0.3318
  572TMC3    C3 8481   0.975   0.142   0.190 -0.6376  0.4925 -0.6653
  572TMC3    C4 8482   0.930   0.246  17.627  0.1529  0.7574  0.9602
  572TMC3    C5 8483   0.862   0.298   0.046 -0.7510 -0.0644 -0.6531
  572TMC3    C6 8484   0.890   0.252   0.171 -0.6925  0.6526 -0.5163
  572TMC3     C 8485   1.072   0.058  17.550 -0.1155  0.1158 -0.2396
  572TMC3     O 8486   1.082   4.658  17.566  0.5538  0.1770  0.3184
  572TMC3     H 8487   1.084   4.712   0.109  1.8026  1.4929  0.5996
  572TMC3    H1 8488   0.918   0.290  17.529  1.0231  1.5755  1.2159
  572TMC3    H2 8489   0.820   0.287   0.247  1.9630  0.5709  1.9464
  572TMC3    C7 8490   0.751   0.380   0.017 -0.0540  0.3641  0.0147
  572TMC3    C8 8491   0.993   0.081   0.320 -0.3273  0.0192 -1.0758
  572TMC3    O1 8492   0.709   0.363  17.595  0.0549 -0.5887  0.5665
  572TMC3    O2 8493   1.029   4.686   0.322 -0.8231 -0.5694  0.0887
  573MPD2     C 8494   3.200   1.611   0.995  0.6543  0.0501  0.0263
  573MPD2    C1 8495   3.067   1.589   1.004  0.1063 -0.0160 -0.6003
  573MPD2    C2 8496   2.983   1.636   0.902 -0.5175 -0.2340 -0.7862
  573MPD2    C3 8497   3.031   1.722   0.805 -0.2305  0.6611 -0.0699
  573MPD2    C4 8498   3.163   1.738   0.796  0.4166 -0.2599  0.3373
  573MPD2    C5 8499   3.247   1.694   0.896  0.4574 -0.5290 -0.1666
  573MPD2     H 8500   2.875   1.625   0.907 -0.4403 -0.4480  0.5550
  573MPD2    H1 8501   3.204   1.795   0.713  0.2620 -1.9604 -0.8975
  573MPD2    H2 8502   3.268   1.589   1.078  1.0040 -1.4858 -0.6706
  573MPD2    H3 8503   3.351   1.724   0.903  0.5798 -1.3071  1.4171
  573MPD2     N 8504   2.950   1.768   0.696 -0.3552 -0.2536 -0.4103
  573MPD2    H5 8505   3.003   1.804   0.617  0.3796 -1.2549 -0.3737
  573MPD2    N1 8506   3.031   1.501   1.105 -0.1766  0.6712  1.0570
  573MPD2    H7 8507   3.106   1.452   1.153  1.3057  1.5720 -0.3269
  574TMC3    C1 8508   2.756   1.798   0.563  0.0884  0.2068 -0.3342
  574TMC3    C2 8509   2.628   1.839   0.553 -0.9871  0.2558 -0.0679
  574TMC3    C3 8510   2.568   1.835   0.433 -0.2975  0.4759 -0.0740
  574TMC3    C4 8511   2.820   1.732   0.458 -0.0845  0.1846  0.5628
  574TMC3    C5 8512   2.750   1.726   0.338 -0.2701 -0.7564  0.1182
  574TMC3    C6 8513   2.631   1.788   0.322 -0.5752  0.3917 -0.3363
  574TMC3     C 8514   2.815   1.781   0.696 -0.0391  0.0133  0.2625
  574TMC3     O 8515   2.744   1.792   0.796  0.5573  0.2782  0.4520
  574TMC3     H 8516   2.576   1.873   0.642  1.0315  1.2879  0.7193
  574TMC3    H1 8517   2.908   1.671   0.473  0.2514  0.1461 -1.5781
  574TMC3    H2 8518   2.583   1.805   0.226 -1.3508  0.2648  0.0252
  574TMC3    C7 8519   2.800   1.633   0.235 -0.7250 -0.0051 -0.1717
  574TMC3    C8 8520   2.445   1.912   0.422 -0.7261 -0.2506 -0.1443
  574TMC3    O1 8521   2.900   1.570   0.264  0.5277 -0.5427 -0.5788
  574TMC3    O2 8522   2.447   2.002   0.507  0.6519 -0.4365  0.4281
  575TMC3    C1 8523   1.055   1.268  10.895 -0.0719  0.0762 -0.1236
  575TMC3    C2 8524   1.039   1.243  11.033 -0.2522  0.1221  0.0634
  575TMC3    C3 8525   0.912   1.206  11.063 -0.0742 -0.2699  1.0947
  575TMC3    C4 8526   0.958   1.253  10.800 -0.1264 -0.3555 -0.5552
  575TMC3    C5 8527   0.831   1.216  10.845 -0.0063 -0.0996  0.3968
  575TMC3    C6 8528   0.814   1.176  10.976  0.5548  0.5688 -0.2878
  575TMC3     C 8529   1.187   1.313  10.851 -0.0337 -0.0140 -0.1961
  575TMC3     O 8530   1.258   1.367  10.936  0.4140  0.0306 -0.3421
  575TMC3     H 8531   1.120   1.242  11.104  0.6036 -0.5620 -0.9146
  575TMC3    H1 8532   0.979   1.258  10.693 -0.6339 -0.5815 -0.6641
  575TMC3    H2 8533   0.712   1.152  11.006  1.3373  0.4283  2.2593
  575TMC3    C7 8534   0.734   1.186  10.745  0.7696 -0.2659 -0.5831
  575TMC3    C8 8535   0.891   1.164  11.203 -0.5793  0.3292 -0.3517
  575TMC3    O1 8536   0.766   1.203  10.627 -0.2621  0.3535 -0.1226
  575TMC3    O2 8537   0.988   1.179  11.277 -0.4460  0.2728 -0.1281
  576MPD2     C 8538   0.352   2.805  12.574 -0.1270 -0.4057  0.4935
  576MPD2    C1 8539   0.379   2.875  12.458 -0.2034 -0.7887  1.1230
  576MPD2    C2 8540   0.326   3.003  12.450  0.5623 -0.3420  0.1081
  576MPD2    C3 8541   0.250   3.062  12.550  0.1626  0.2752  0.1170
  576MPD2    C4 8542   0.231   2.989  12.666  0.3292  0.6338 -0.8739
  576MPD2    C5 8543   0.281   2.860  12.678  0.4889  0.3367 -0.0556
  576MPD2     H 8544   0.329   3.052  12.354  1.2477 -0.5522  0.0254
  576MPD2    H1 8545   0.183   3.032  12.753 -0.7864  0.1107 -1.2323
  576MPD2    H2 8546   0.387   2.704  12.592  0.6811 -0.6440 -2.4326
  576MPD2    H3 8547   0.258   2.814  12.774  0.4322  0.8501  0.1785
  576MPD2     N 8548   0.191   3.192  12.530 -0.0789 -0.1860  0.0699
  576MPD2    H5 8549   0.216   3.247  12.449 -0.6157 -1.5439 -1.0034
  576MPD2    N1 8550   0.448   2.814  12.354  0.0456  0.2667 -0.0810
  576MPD2    H7 8551   0.483   2.877  12.283  0.6889 -1.3531 -1.2114
  577TMC3    C1 8552   0.531   2.643  12.221 -0.0243 -0.1017 -1.4118
  577TMC3    C2 8553   0.606   2.524  12.221  0.4024 -0.3628  0.4614
  577TMC3    C3 8554   0.683   2.508  12.108  0.5789  0.1971  0.0598
  577TMC3    C4 8555   0.500   2.716  12.107 -0.1320  0.2362 -0.4619
  577TMC3    C5 8556   0.575   2.688  11.995  0.0979 -0.1553 -0.2224
  577TMC3    C6 8557   0.679   2.600  12.002 -0.0173 -0.7391  0.0850
  577TMC3     C 8558   0.478   2.682  12.351 -0.6920  0.0034  0.6078
  577TMC3     O 8559   0.438   2.579  12.411  0.1672 -0.7570  0.0939
  577TMC3     H 8560   0.618   2.457  12.305 -1.3625 -1.3443 -0.0904
  577TMC3    H1 8561   0.404   2.763  12.087 -1.0244 -0.5050  2.0543
  577TMC3    H2 8562   0.746   2.592  11.918  0.8215 -0.7501  0.7581
  577TMC3    C7 8563   0.510   2.658  11.876 -0.6789  0.6303 -0.2262
  577TMC3    C8 8564   0.706   2.376  12.067 -0.6165  0.5100 -0.3865
  577TMC3    O1 8565   0.556   2.564  11.811  0.3186  0.4474 -0.3015
  577TMC3    O2 8566   0.701   2.288  12.155  0.1676  0.1529  0.1119
  578MPD2     C 8567   2.509   4.424   1.422 -0.4898  0.6230  0.4856
  578MPD2    C1 8568   2.580   4.332   1.349  0.8432 -0.0242  0.0081
  578MPD2    C2 8569   2.725   4.353   1.346 -0.7057 -1.0474 -0.4141
  578MPD2    C3 8570   2.787   4.450   1.416 -0.6042  0.1053 -0.5145
  578MPD2    C4 8571   2.714   4.534   1.498 -0.1461  0.9498  0.0513
  578MPD2    C5 8572   2.579   4.521   1.492 -0.1467 -0.3794 -0.2501
  578MPD2     H 8573   2.786   4.283   1.290  0.4048 -0.3573 -0.0531
  578MPD2    H1 8574   2.754   4.625   1.541 -1.8823  1.7002  0.0667
  578MPD2    H2 8575   2.401   4.411   1.426 -0.3278 -0.4046  1.3597
  578MPD2    H3 8576   2.529   4.602   1.544 -1.9002 -1.2022 -0.6597
  578MPD2     N 8577   2.926   4.468   1.402 -0.3016  0.2872  0.2660
  578MPD2    H5 8578   2.975   4.406   1.338 -0.9688 -0.7884  0.7923
  578MPD2    N1 8579   2.516   4.245   1.270  0.3703 -0.3506  0.1433
  578MPD2    H7 8580   2.415   4.255   1.266  0.4449 -0.1823 -1.3307
  579TMC3    C1 8581   3.151   4.536   1.431  0.1432 -0.4623  0.1537
  579TMC3    C2 8582   3.239   4.609   1.503 -0.2570 -0.3602 -0.2053
  579TMC3    C3 8583   3.373   4.597   1.468 -0.3161 -0.1614  0.0228
  579TMC3    C4 8584   3.186   4.456   1.323 -0.0633 -0.1770  0.7085
  579TMC3    C5 8585   3.324   4.444   1.295 -0.1830 -0.4030  0.7779
  579TMC3    C6 8586   3.416   4.515   1.365  0.0409  0.6030 -0.7382
  579TMC3     C 8587   3.004   4.553   1.474 -0.3162  0.2178  0.4423
  579TMC3     O 8588   2.981   4.631   1.560  0.6899 -0.4231 -0.2492
  579TMC3     H 8589   3.219   4.660   1.597  1.9992  0.0679  0.0633
  579TMC3    H1 8590   3.115   4.397   1.267 -0.8763  1.7092 -0.2562
  579TMC3    H2 8591   3.521   4.499   1.342 -0.3338 -2.0648 -0.5335
  579TMC3    C7 8592   3.370   4.335   1.210 -0.0243  0.0843 -0.1827
  579TMC3    C8 8593   3.462   4.679   1.547  0.3830 -0.5547  0.1260
  579TMC3    O1 8594   3.485   4.337   1.178  0.3978 -0.0576 -0.7244
  579TMC3    O2 8595   3.417   0.056   1.600  0.2228  0.3346  1.1131
  580TMC3    C1 8596   2.961   2.081  11.715  0.0841 -0.5598 -0.0318
  580TMC3    C2 8597   3.075   2.151  11.723 -0.2697 -0.4367 -0.4435
  580TMC3    C3 8598   3.189   2.077  11.730  0.2558 -0.8953  0.6662
  580TMC3    C4 8599   2.954   1.944  11.721 -0.5824  0.0749  0.3204
  580TMC3    C5 8600   3.071   1.876  11.729  0.5266  0.4462  0.2479
  580TMC3    C6 8601   3.188   1.938  11.738 -0.1822  0.7533  0.3252
  580TMC3     C 8602   2.851   2.152  11.663  0.7621  0.3090 -0.2053
  580TMC3     O 8603   2.737   2.106  11.661  0.2353  0.0756  0.3738
  580TMC3     H 8604   3.085   2.258  11.730 -0.5373 -0.5634  1.8568
  580TMC3    H1 8605   2.856   1.900  11.709 -0.4153  0.2708 -1.7140
  580TMC3    H2 8606   3.280   1.881  11.731  0.0187  1.3536 -2.0618
  580TMC3    C7 8607   3.070   1.743  11.788 -0.0146 -0.2689 -0.6977
  580TMC3    C8 8608   3.318   2.139  11.698  0.1776 -0.4741  0.4874
  580TMC3    O1 8609   3.014   1.648  11.736 -0.0577  0.1104  0.6503
  580TMC3    O2 8610   3.371   2.075  11.608 -0.5112 -0.9212 -0.0990
  581MPD2     C 8611   0.619   2.434  14.909  0.4813 -0.4770 -0.5203
  581MPD2    C1 8612   0.599   2.514  15.026  0.2659 -0.0353  0.4122
  581MPD2    C2 8613   0.481   2.591  15.047 -0.3931  1.2027  0.0281
  581MPD2    C3 8614   0.384   2.577  14.948 -0.6671 -0.2666 -0.0433
  581MPD2    C4 8615   0.411   2.497  14.838 -0.4076 -0.3810  0.8120
  581MPD2    C5 8616   0.523   2.430  14.813  0.5677  0.2002 -0.6641
  581MPD2     H 8617   0.459   2.646  15.137  1.4957  2.3649 -0.2039
  581MPD2    H1 8618   0.332   2.469  14.769  0.8461 -3.2342  0.5611
  581MPD2    H2 8619   0.700   2.364  14.890  1.6545  0.7169  0.0595
  581MPD2    H3 8620   0.530   2.359  14.731  1.1929 -0.5515  0.0475
  581MPD2     N 8621   0.266   2.646  14.963  0.5135  0.4756 -0.0901
  581MPD2    H5 8622   0.265   2.719  15.034 -2.1992  1.5563 -1.2568
  581MPD2    N1 8623   0.698   2.508  15.127  0.2612 -0.9613 -0.4249
  581MPD2    H7 8624   0.768   2.441  15.096  0.4791 -1.0561  0.2716
  582TMC3    C1 8625   0.811   2.505  15.332 -0.6913  0.0452  0.3789
  582TMC3    C2 8626   0.814   2.528  15.464  0.4917  0.4202  0.2461
  582TMC3    C3 8627   0.902   2.457  15.540  0.4314 -0.4145 -0.2816
  582TMC3    C4 8628   0.891   2.411  15.268 -0.3084 -0.4946  0.3233
  582TMC3    C5 8629   0.961   2.333  15.356  0.5641  0.5981 -0.4025
  582TMC3    C6 8630   0.962   2.349  15.487 -1.0035  0.0798 -0.4636
  582TMC3     C 8631   0.697   2.551  15.258 -0.1058 -0.2178 -0.1790
  582TMC3     O 8632   0.610   2.617  15.315 -0.6161 -0.2701  0.0348
  582TMC3     H 8633   0.742   2.598  15.505  0.9873  2.1564 -1.8142
  582TMC3    H1 8634   0.894   2.390  15.162 -1.1426 -4.1043  1.0382
  582TMC3    H2 8635   1.026   2.286  15.549 -0.7643  1.0892  0.3220
  582TMC3    C7 8636   1.056   2.238  15.297  0.9281 -0.4059  0.1753
  582TMC3    C8 8637   0.897   2.468  15.684  0.0375 -0.0593  0.8843
  582TMC3    O1 8638   1.166   2.245  15.352  0.1907  0.6403  0.2527
  582TMC3    O2 8639   0.797   2.508  15.740 -0.3529  0.0940 -0.2478
  583MPD2     C 8640   0.698   3.756  16.236  0.2188  0.7220  0.1116
  583MPD2    C1 8641   0.786   3.864  16.219 -0.0866  0.0378 -0.3370
  583MPD2    C2 8642   0.764   3.979  16.296 -0.0170  0.3338  0.1949
  583MPD2    C3 8643   0.679   3.973  16.402  0.6536  0.0111 -0.3954
  583MPD2    C4 8644   0.601   3.862  16.423  0.2741  0.2895  0.1992
  583MPD2    C5 8645   0.613   3.749  16.341  0.1040 -0.1316 -0.8181
  583MPD2     H 8646   0.837   4.059  16.292 -0.6416  0.8802 -0.4245
  583MPD2    H1 8647   0.532   3.850  16.506 -2.0895  0.2498 -1.7687
  583MPD2    H2 8648   0.704   3.668  16.174  0.7947 -0.5742  2.0281
  583MPD2    H3 8649   0.556   3.659  16.362  0.5943 -0.2820 -0.1255
  583MPD2     N 8650   0.696   4.081  16.493 -0.3027 -0.0607  0.3514
  583MPD2    H5 8651   0.750   4.159  16.456 -1.0620 -0.3363 -1.3348
  583MPD2    N1 8652   0.892   3.854  16.123  1.1421 -0.2101 -0.6423
  583MPD2    H7 8653   0.927   3.945  16.098  0.4171 -0.6234 -3.1964
  584TMC3    C1 8654   0.628   4.228  16.678 -0.3171 -0.0207  1.4426
  584TMC3    C2 8655   0.671   4.338  16.604  0.6229 -0.2176 -0.5319
  584TMC3    C3 8656   0.654   4.463  16.662 -0.3450  0.0840  0.2574
  584TMC3    C4 8657   0.589   4.241  16.808 -0.5352  0.1710  0.3467
  584TMC3    C5 8658   0.598   4.365  16.874 -0.4574  0.1495  0.3499
  584TMC3    C6 8659   0.631   4.479  16.797  0.0768 -0.6537  0.1092
  584TMC3     C 8660   0.627   4.090  16.613  0.1553  0.2963  0.0566
  584TMC3     O 8661   0.532   4.028  16.644 -0.2999 -0.5529 -0.0660
  584TMC3     H 8662   0.687   4.327  16.497 -1.6913 -2.7878 -0.5903
  584TMC3    H1 8663   0.567   4.153  16.867 -0.3606  0.0550  0.2386
  584TMC3    H2 8664   0.635   4.576  16.844 -0.7823 -0.0843 -0.9761
  584TMC3    C7 8665   0.555   4.383  17.008 -0.0025  0.2523  0.4566
  584TMC3    C8 8666   0.701   4.574  16.584 -0.7291 -0.8335  0.0199
  584TMC3    O1 8667   0.519   4.274  17.050  0.0208 -0.1020 -0.7153
  584TMC3    O2 8668   0.693   4.557  16.466  0.4401 -0.7752 -0.3921
  585MPD2     C 8669   0.015   3.790   0.971 -0.7792 -0.7689 -0.3607
  585MPD2    C1 8670   0.007   3.764   0.838  0.3059  0.6643  0.6094
  585MPD2    C2 8671   4.703   3.634   0.801 -0.2140  0.0607  0.0241
  585MPD2    C3 8672   4.667   3.535   0.888  0.6993 -0.4943 -0.4844
  585MPD2    C4 8673   4.678   3.567   1.020  0.0139 -0.6058 -0.0214
  585MPD2    C5 8674   0.003   3.687   1.060 -0.1591  0.0686  0.5680
  585MPD2     H 8675   4.703   3.608   0.696 -2.9874  1.5292 -0.3440
  585MPD2    H1 8676   4.655   3.495   1.098 -1.7087  1.3218  1.2708
  585MPD2    H2 8677   0.037   3.893   0.997 -0.5854 -0.6708 -0.9063
  585MPD2    H3 8678   0.015   3.710   1.165  3.4843 -1.6256  0.5344
  585MPD2     N 8679   4.621   3.406   0.842 -0.3049  0.8849  0.2724
  585MPD2    H5 8680   4.606   3.330   0.907 -1.0553 -0.5052 -1.5384
  585MPD2    N1 8681   0.038   3.862   0.736  0.3967  0.0776  0.4596
  585MPD2    H7 8682   0.054   3.958   0.764 -1.8024  0.4014  0.5657
  586TMC3    C1 8683   4.539   3.239   0.684  0.4859 -0.4145  0.3292
  586TMC3    C2 8684   4.595   3.140   0.756 -0.2884 -0.0216 -0.3146
  586TMC3    C3 8685   4.635   3.029   0.693 -0.3564  1.2207 -0.7741
  586TMC3    C4 8686   4.496   3.226   0.552 -0.3026  0.4638  0.0622
  586TMC3    C5 8687   4.533   3.108   0.492 -0.2026 -0.8858 -0.7498
  586TMC3    C6 8688   4.609   3.014   0.560 -0.3054 -0.1962 -0.1684
  586TMC3     C 8689   4.563   3.378   0.716  0.1318  0.4473 -0.6305
  586TMC3     O 8690   4.531   3.467   0.634 -0.1459  0.3938 -0.4323
  586TMC3     H 8691   4.632   3.158   0.856 -2.1092  0.3649  0.3057
  586TMC3    H1 8692   4.441   3.305   0.501  0.2505  1.4685  1.0162
  586TMC3    H2 8693   4.626   2.914   0.522 -2.5621 -0.2467 -1.0446
  586TMC3    C7 8694   4.447   3.072   0.384 -0.2235 -0.3345 -0.2848
  586TMC3    C8 8695   4.681   2.919   0.772  0.3126 -0.0374 -0.2436
  586TMC3    O1 8696   4.420   2.953   0.384 -0.6320  0.3005 -0.1448
  586TMC3    O2 8697   4.670   2.933   0.894  0.3627 -0.0765  0.0921
  587TMC3    C1 8698   2.505   1.782  16.500  0.0940  0.3120  0.0663
  587TMC3    C2 8699   2.433   1.898  16.479  0.1607 -0.3081  0.3553
  587TMC3    C3 8700   2.492   1.999  16.415 -0.3901  0.5748  0.2359
  587TMC3    C4 8701   2.639   1.768  16.466 -0.1427 -0.9172 -0.6337
  587TMC3    C5 8702   2.691   1.881  16.407  0.3430  0.2461  0.2956
  587TMC3    C6 8703   2.625   1.995  16.380 -0.4100  0.1789 -0.6617
  587TMC3     C 8704   2.437   1.677  16.572 -0.6585 -0.3538  0.0564
  587TMC3     O 8705   2.506   1.586  16.613  0.5342 -1.2940  0.0494
  587TMC3     H 8706   2.338   1.912  16.529  0.3891  3.2026 -0.1514
  587TMC3    H1 8707   2.702   1.685  16.494  0.2195 -0.2328  0.5544
  587TMC3    H2 8708   2.671   2.069  16.315 -1.1014 -0.0651 -1.4280
  587TMC3    C7 8709   2.837   1.884  16.385 -0.7886 -0.2012 -0.7705
  587TMC3    C8 8710   2.410   2.048  16.309  0.1307 -0.1540 -0.2894
  587TMC3    O1 8711   2.888   1.997  16.389  0.1270  0.2528  0.4620
  587TMC3    O2 8712   2.452   2.042  16.194 -0.3218 -0.2241 -0.1302
  588TMC3    C1 8713   0.142   3.765   9.556 -0.1119 -0.1378  0.1505
  588TMC3    C2 8714   0.135   3.628   9.543 -0.0709 -0.5548 -0.2245
  588TMC3    C3 8715   0.204   3.546   9.624  0.0407  0.7041 -0.6488
  588TMC3    C4 8716   0.223   3.813   9.653  0.0962 -0.4280 -0.5329
  588TMC3    C5 8717   0.282   3.728   9.742 -0.1866  0.3824  0.3053
  588TMC3    C6 8718   0.285   3.596   9.723  0.2113 -0.1430  0.0461
  588TMC3     C 8719   0.051   3.849   9.484 -0.5009 -0.2346 -0.5956
  588TMC3     O 8720   4.680   3.788   9.437  0.3866  0.2017 -0.2706
  588TMC3     H 8721   0.058   3.585   9.481  0.8395 -0.7841 -1.1866
  588TMC3    H1 8722   0.229   3.919   9.673 -0.4480 -0.2381 -1.3823
  588TMC3    H2 8723   0.347   3.541   9.793 -1.2117 -1.1547  0.5059
  588TMC3    C7 8724   0.348   3.778   9.860  0.5352 -0.2485  0.4649
  588TMC3    C8 8725   0.163   3.404   9.624  0.0547  0.0165  0.4652
  588TMC3    O1 8726   0.355   3.694   9.950  0.1774  0.2897  0.2005
  588TMC3    O2 8727   0.062   3.384   9.555 -0.2758  0.1973  0.0582
  589TMC3    C1 8728   3.386   2.854   1.164  0.6727 -0.3976  0.1966
  589TMC3    C2 8729   3.282   2.792   1.231  0.2621 -1.2146  0.4147
  589TMC3    C3 8730   3.261   2.671   1.190  0.3158  0.3586 -0.7206
  589TMC3    C4 8731   3.456   2.811   1.057 -0.3419 -0.6545  0.6724
  589TMC3    C5 8732   3.420   2.686   1.012  0.0869 -0.5656  0.2939
  589TMC3    C6 8733   3.331   2.616   1.084 -0.6289 -0.1629  0.3222
  589TMC3     C 8734   3.410   2.989   1.203 -0.8633  0.5483 -0.3290
  589TMC3     O 8735   3.460   3.060   1.118  0.0848  0.6745  0.1649
  589TMC3     H 8736   3.211   2.835   1.302 -1.2929 -0.8466 -1.3698
  589TMC3    H1 8737   3.541   2.864   1.015 -1.6955  2.2014  1.5458
  589TMC3    H2 8738   3.328   2.509   1.069  0.6847  0.1482 -2.0642
  589TMC3    C7 8739   3.541   2.612   0.960  0.0236  0.4532 -0.4527
  589TMC3    C8 8740   3.231   2.578   1.307  0.2624  0.5788  0.8749
  589TMC3    O1 8741   3.549   2.495   1.001 -0.2260 -0.2921  0.3497
  589TMC3    O2 8742   3.137   2.617   1.379 -0.0855  0.2125  0.0303
  590MPD2     C 8743   3.676   0.258  16.543  0.2269 -1.0509 -0.5881
  590MPD2    C1 8744   3.646   0.335  16.429 -0.0901 -0.5438 -0.0981
  590MPD2    C2 8745   3.748   0.417  16.388 -0.6740  0.2168 -0.8997
  590MPD2    C3 8746   3.873   0.409  16.442  0.1018 -0.5392  0.2100
  590MPD2    C4 8747   3.895   0.334  16.556 -0.7564 -0.0791  0.1959
  590MPD2    C5 8748   3.796   0.260  16.611  0.3516 -0.3342  0.3035
  590MPD2     H 8749   3.720   0.479  16.304  1.5844 -0.2708 -2.0029
  590MPD2    H1 8750   3.989   0.316  16.606 -0.3683 -0.8973 -0.8271
  590MPD2    H2 8751   3.599   0.198  16.590 -0.6648 -0.2528 -1.0356
  590MPD2    H3 8752   3.819   0.200  16.698  2.3594 -0.6392 -0.4344
  590MPD2     N 8753   3.972   0.478  16.382  0.0258  0.0802 -0.2799
  590MPD2    H5 8754   3.951   0.528  16.296 -0.8264 -0.4790 -0.3997
  590MPD2    N1 8755   3.517   0.334  16.372  0.4387 -0.4012 -0.5888
  590MPD2    H7 8756   3.446   0.277  16.418 -0.1943  0.3786 -0.6041
  591TMC3    C1 8757   4.191   0.544  16.318  0.1482  0.8260 -1.1428
  591TMC3    C2 8758   4.240   0.471  16.215 -0.4908 -0.3332 -0.0569
  591TMC3    C3 8759   4.248   0.518  16.086  0.0755 -0.2168 -0.3386
  591TMC3    C4 8760   4.162   0.679  16.295  0.4338  0.4644  0.3663
  591TMC3    C5 8761   4.153   0.720  16.170  0.3005  0.6954  0.7527
  591TMC3    C6 8762   4.206   0.648  16.060  0.4392 -0.5104 -0.6601
  591TMC3     C 8763   4.106   0.466  16.409 -0.0308  0.3697 -0.3164
  591TMC3     O 8764   4.163   0.396  16.491  0.1797 -0.2891  0.0387
  591TMC3     H 8765   4.253   0.366  16.239 -2.1240 -0.4850  0.1686
  591TMC3    H1 8766   4.126   0.748  16.371 -0.5284 -1.0556  1.3104
  591TMC3    H2 8767   4.212   0.699  15.964  0.8239 -0.2287 -0.4877
  591TMC3    C7 8768   4.164   0.867  16.155 -0.0721  0.1067  0.2645
  591TMC3    C8 8769   4.268   0.425  15.979 -0.0615  0.3871  0.6192
  591TMC3    O1 8770   4.218   0.918  16.253  0.0378  0.3647 -0.0331
  591TMC3    O2 8771   4.269   0.304  16.006 -0.1769  0.0067  0.0943
  592MPD2     C 8772   4.345   1.590  11.161  0.4119  0.2761 -0.0399
  592MPD2    C1 8773   4.278   1.679  11.240  0.2273  0.2491  0.5436
  592MPD2    C2 8774   4.155   1.644  11.295  0.2227  0.1520  0.1278
  592MPD2    C3 8775   4.109   1.515  11.276 -0.2632 -0.0681 -0.2257
  592MPD2    C4 8776   4.186   1.424  11.210  0.1993 -0.2977  0.4588
  592MPD2    C5 8777   4.306   1.460  11.155  0.0206  1.2347  0.6676
  592MPD2     H 8778   4.097   1.720  11.347  1.0462  1.5579 -1.0037
  592MPD2    H1 8779   4.163   1.319  11.205  0.5404 -0.2627 -1.7595
  592MPD2    H2 8780   4.437   1.618  11.111  1.1534 -1.0178  0.5850
  592MPD2    H3 8781   4.368   1.383  11.111 -0.0594  0.6233  1.6313
  592MPD2     N 8782   3.986   1.474  11.342 -0.1233 -0.3559 -0.3103
  592MPD2    H5 8783   3.931   1.548  11.383 -0.6564  0.4653 -2.4783
  592MPD2    N1 8784   4.328   1.814  11.256 -0.3298 -0.0587  0.1192
  592MPD2    H7 8785   4.402   1.833  11.189 -0.7903  1.0688 -0.0605
  593TMC3    C1 8786   4.351   2.025  11.359 -0.3266 -0.3326  0.0208
  593TMC3    C2 8787   4.345   2.091  11.482  0.1318  0.2405 -0.6471
  593TMC3    C3 8788   4.407   2.209  11.493 -0.6843 -0.4786  0.7690
  593TMC3    C4 8789   4.396   2.087  11.246  0.7796 -0.1199 -0.1891
  593TMC3    C5 8790   4.460   2.208  11.263  0.1372  0.8416 -0.4423
  593TMC3    C6 8791   4.466   2.268  11.390  1.2644 -0.6298 -0.4356
  593TMC3     C 8792   4.282   1.901  11.357  0.7892  0.6357  0.0409
  593TMC3     O 8793   4.204   1.884  11.454 -0.1040 -0.0092  0.2436
  593TMC3     H 8794   4.304   2.047  11.572 -0.8399  1.2609 -0.5983
  593TMC3    H1 8795   4.415   2.038  11.151  0.8796 -0.0303 -0.2163
  593TMC3    H2 8796   4.507   2.367  11.407  2.1030 -1.0088 -0.2407
  593TMC3    C7 8797   4.526   2.275  11.154 -0.7994 -0.4167  0.5473
  593TMC3    C8 8798   4.455   2.248  11.626 -0.5816 -0.6682 -0.1324
  593TMC3    O1 8799   4.599   2.367  11.192  0.7861  0.5421  0.4660
  593TMC3    O2 8800   4.467   2.156  11.707  0.1322  0.7314 -0.0972
  594MPD2     C 8801   2.192   0.884  13.992  0.5582 -0.3546  0.6644
  594MPD2    C1 8802   2.227   0.879  14.120  0.2010 -0.6689 -0.0334
  594MPD2    C2 8803   2.345   0.953  14.163  0.3276 -0.9524 -0.1526
  594MPD2    C3 8804   2.423   1.016  14.069  0.2297  1.1561  0.3296
  594MPD2    C4 8805   2.384   1.010  13.936  0.4706  0.3321 -0.1551
  594MPD2    C5 8806   2.277   0.937  13.898  0.0248  0.2135  0.1925
  594MPD2     H 8807   2.374   0.956  14.268  0.8916 -0.9435 -0.3111
  594MPD2    H1 8808   2.433   1.056  13.851 -0.4752  0.6215 -0.5419
  594MPD2    H2 8809   2.114   0.818  13.955  0.1507 -1.4694  3.5171
  594MPD2    H3 8810   2.247   0.944  13.794 -0.6851  0.0290  0.3793
  594MPD2     N 8811   2.532   1.100  14.117  0.0252 -0.4542  0.3951
  594MPD2    H5 8812   2.542   1.108  14.217  0.5701  2.0048  0.1395
  594MPD2    N1 8813   2.126   0.825  14.199  0.4403  0.6785  0.1191
  594MPD2    H7 8814   2.054   0.777  14.147 -0.8105  0.9089  1.6219
  595TMC3    C1 8815   2.935   1.308  14.130 -0.7134  0.3596  0.1048
  595TMC3    C2 8816   2.854   1.219  14.070  0.1936 -0.5233 -0.0324
  595TMC3    C3 8817   2.719   1.233  14.105  0.4268 -0.1288  0.4894
  595TMC3    C4 8818   2.906   1.399  14.228 -0.0482 -0.9572 -0.1557
  595TMC3    C5 8819   2.772   1.400  14.264  0.7201  0.1384  0.0766
  595TMC3    C6 8820   2.683   1.312  14.206  0.9515 -0.0821 -0.3244
  595TMC3     C 8821   3.079   1.293  14.106  0.0739 -0.7752 -0.3016
  595TMC3     O 8822   3.150   1.393  14.114  0.2785 -0.1072 -0.1815
  595TMC3     H 8823   2.878   1.157  13.985 -0.5896  1.2121 -1.5153
  595TMC3    H1 8824   2.979   1.472  14.261 -2.9815  2.5248 -1.3351
  595TMC3    H2 8825   2.579   1.330  14.229  0.7296 -2.6242  0.6486
  595TMC3    C7 8826   2.726   1.468  14.382 -0.3182  0.2635  0.3916
  595TMC3    C8 8827   2.619   1.160  14.033 -0.5923  0.3872 -0.1913
  595TMC3    O1 8828   2.607   1.492  14.396 -0.4604  0.3495 -0.2068
  595TMC3    O2 8829   2.652   1.128  13.920  0.6629  0.1865  0.5514
  596MPD2     C 8830   1.505   3.654  16.302 -0.1930 -0.0347  0.4029
  596MPD2    C1 8831   1.555   3.777  16.264  0.5458 -0.2232  0.4191
  596MPD2    C2 8832   1.620   3.784  16.147  0.1383  0.2190  0.7494
  596MPD2    C3 8833   1.648   3.671  16.072  0.2962 -0.3388 -0.2125
  596MPD2    C4 8834   1.621   3.549  16.125  0.5552  0.0776 -0.5248
  596MPD2    C5 8835   1.529   3.542  16.231 -0.5454 -0.0298  0.5085
  596MPD2     H 8836   1.626   3.885  16.109  1.3739  0.0306  0.4575
  596MPD2    H1 8837   1.653   3.456  16.078  0.0747  1.0602 -2.8073
  596MPD2    H2 8838   1.451   3.635  16.393 -0.0648 -0.4422  0.3960
  596MPD2    H3 8839   1.494   3.444  16.260  0.5981 -0.7044 -0.4201
  596MPD2     N 8840   1.727   3.678  15.949  0.0907  0.3011 -0.4205
  596MPD2    H5 8841   1.742   3.597  15.890 -0.9607  0.1273 -0.4508
  596MPD2    N1 8842   1.537   3.895  16.333  0.1927  0.3376  0.4115
  596MPD2    H7 8843   1.587   3.973  16.293 -1.4465  1.2574  0.1644
  597TMC3    C1 8844   1.501   4.030  16.512  0.5300 -0.0907 -0.6760
  597TMC3    C2 8845   1.602   4.108  16.465  0.1352  0.1958  0.8775
  597TMC3    C3 8846   1.618   4.232  16.513 -0.2922 -0.1442  0.2905
  597TMC3    C4 8847   1.410   4.074  16.610 -0.8969  0.0909  0.4025
  597TMC3    C5 8848   1.429   4.198  16.656  0.5827  0.1334 -0.5318
  597TMC3    C6 8849   1.529   4.283  16.607  0.2084  0.0141  0.5599
  597TMC3     C 8850   1.467   3.905  16.448  0.8001 -0.3530 -0.2614
  597TMC3     O 8851   1.397   3.825  16.502 -0.0320 -0.4460  0.0029
  597TMC3     H 8852   1.679   4.069  16.399 -1.4481 -0.2737 -0.7105
  597TMC3    H1 8853   1.330   4.006  16.637 -1.3061  0.1906 -0.5594
  597TMC3    H2 8854   1.561   4.374  16.657  0.5808  0.4425 -0.4607
  597TMC3    C7 8855   1.340   4.250  16.757  0.0065 -0.4695 -0.2268
  597TMC3    C8 8856   1.733   4.317  16.482 -0.2576 -0.4434  0.2863
  597TMC3    O1 8857   1.284   4.162  16.822 -0.6984  0.4500 -0.2917
  597TMC3    O2 8858   1.720   4.432  16.518 -0.2225 -0.4728  0.1538
  598TMC3    C1 8859   0.399   0.557  15.297 -0.2688 -0.3028 -0.4399
  598TMC3    C2 8860   0.332   0.442  15.290  0.8765  0.0556  0.8096
  598TMC3    C3 8861   0.274   0.408  15.169 -0.7875 -0.0354  0.0958
  598TMC3    C4 8862   0.410   0.643  15.197 -0.7114  0.2935  0.6127
  598TMC3    C5 8863   0.354   0.607  15.074 -0.2426  0.1123 -0.6951
  598TMC3    C6 8864   0.288   0.491  15.066 -0.3077  0.8341  0.6897
  598TMC3     C 8865   0.473   0.586  15.413 -0.0180 -0.3820 -0.0614
  598TMC3     O 8866   0.548   0.680  15.406 -0.0405  0.0438 -0.3226
  598TMC3     H 8867   0.327   0.367  15.368 -1.5478  0.1341  0.7349
  598TMC3    H1 8868   0.458   0.738  15.217  0.6161  0.3833 -3.0166
  598TMC3    H2 8869   0.248   0.458  14.971  0.7317  0.9921  0.2028
  598TMC3    C7 8870   0.403   0.663  14.955 -0.3656  1.0669  0.5028
  598TMC3    C8 8871   0.213   0.279  15.155 -0.4785 -0.6292  0.2600
  598TMC3    O1 8872   0.411   0.599  14.853 -0.0422 -0.2200 -0.0449
  598TMC3    O2 8873   0.230   0.218  15.048  0.0644 -0.1153  0.0905
  599MPD2     C 8874   4.658   3.284  16.255 -0.1483  0.8074 -0.3562
  599MPD2    C1 8875   4.608   3.163  16.223  0.4351 -0.4366 -0.0319
  599MPD2    C2 8876   4.480   3.158  16.168 -0.1329 -0.5164  0.5271
  599MPD2    C3 8877   4.405   3.273  16.149 -0.3767  0.3769 -0.5120
  599MPD2    C4 8878   4.463   3.397  16.178 -0.5690 -0.1339 -0.4037
  599MPD2    C5 8879   4.590   3.400  16.235 -0.0810  0.6775 -0.0536
  599MPD2     H 8880   4.436   3.061  16.148 -0.5771  0.0741 -1.3575
  599MPD2    H1 8881   4.405   3.488  16.171 -2.0153 -1.0240 -0.1820
  599MPD2    H2 8882   0.039   3.298  16.280 -0.2964 -1.3483  1.4188
  599MPD2    H3 8883   4.649   3.491  16.243 -0.0216  0.9464 -3.3625
  599MPD2     N 8884   4.275   3.280  16.101  0.4118 -0.3776  0.4079
  599MPD2    H5 8885   4.233   3.371  16.116  1.7710  0.4234 -0.6398
  599MPD2    N1 8886   4.683   3.042  16.251 -0.2522  0.0821 -0.1339
  599MPD2    H7 8887   0.050   3.062  16.293 -1.4919  2.0887  1.5767
  600TMC3    C1 8888   4.054   3.218  16.054  0.1203  0.3014  0.3156
  600TMC3    C2 8889   3.970   3.119  16.094  0.3038  0.8109 -0.2822
  600TMC3    C3 8890   3.851   3.161  16.137  0.3232  0.1016 -0.1896
  600TMC3    C4 8891   4.020   3.347  16.046 -0.1708  0.5866  0.5162
  600TMC3    C5 8892   3.889   3.381  16.079 -0.7846 -0.7305 -0.0883
  600TMC3    C6 8893   3.802   3.290  16.132 -0.4908 -0.0076 -0.0751
  600TMC3     C 8894   4.195   3.181  16.043  0.4083 -0.4669 -0.1255
  600TMC3     O 8895   4.231   3.069  16.012 -0.0732 -0.8014  0.3271
  600TMC3     H 8896   3.999   3.015  16.102  0.4007  0.9720  1.5144
  600TMC3    H1 8897   4.085   3.418  15.995  0.4805 -0.1939  0.2738
  600TMC3    H2 8898   3.699   3.313  16.156 -0.0982  1.5374  0.0690
  600TMC3    C7 8899   3.840   3.522  16.087  0.5083 -0.3831 -0.0157
  600TMC3    C8 8900   3.790   3.078  16.239  0.0593  0.4134 -0.3760
  600TMC3    O1 8901   3.732   3.536  16.147  0.2233 -0.2855  0.2468
  600TMC3    O2 8902   3.794   2.955  16.243  0.1450 -0.1271  0.2114
  601MPD2     C 8903   0.455   0.767   0.040 -0.0176  0.2549 -0.3881
  601MPD2    C1 8904   0.554   0.788   0.137  0.5349 -0.4504  0.4382
  601MPD2    C2 8905   0.623   0.678   0.180  0.1114  0.7934 -0.0936
  601MPD2    C3 8906   0.609   0.561   0.108  0.0668  0.1482  0.2180
  601MPD2    C4 8907   0.503   0.541   0.019  0.1272  0.4419 -0.1420
  601MPD2    C5 8908   0.433   0.646  17.680 -0.1700  0.2114  0.1802
  601MPD2     H 8909   0.702   0.686   0.253 -1.1825  0.9639  1.2970
  601MPD2    H1 8910   0.491   0.446  17.662 -2.1967  0.6235  0.1043
  601MPD2    H2 8911   0.399   0.857   0.016 -0.7906 -0.0779  0.2015
  601MPD2    H3 8912   0.363   0.625  17.600  1.1455 -1.9120 -0.4189
  601MPD2     N 8913   0.716   0.470   0.120  0.0134  0.2025  0.4773
  601MPD2    H5 8914   0.779   0.478   0.199  0.8329 -0.2252 -0.1302
  601MPD2    N1 8915   0.595   0.914   0.185 -0.3430 -0.1140  0.1268
  601MPD2    H7 8916   0.676   0.920   0.246 -0.2058 -1.1993  0.0637
  602TMC3    C1 8917   0.643   1.144   0.186 -0.9844 -0.7807 -0.7347
  602TMC3    C2 8918   0.772   1.118   0.199  0.1064  0.0994  0.3884
  602TMC3    C3 8919   0.852   1.220   0.227 -0.8391 -0.4228 -0.0416
  602TMC3    C4 8920   0.588   1.269   0.187  0.6383  0.1802 -0.0242
  602TMC3    C5 8921   0.679   1.372   0.216 -0.2982  0.2830 -0.7531
  602TMC3    C6 8922   0.814   1.353   0.226 -0.6768  0.3202 -0.0850
  602TMC3     C 8923   0.548   1.035   0.150  0.2309 -0.2333 -0.3522
  602TMC3     O 8924   0.439   1.065   0.104 -0.3467  0.6325  0.5392
  602TMC3     H 8925   0.811   1.017   0.190 -0.2961  0.2512 -3.0953
  602TMC3    H1 8926   0.483   1.286   0.168  0.2281  0.2526  2.2215
  602TMC3    H2 8927   0.881   1.431   0.259  1.3062 -1.0630 -0.8308
  602TMC3    C7 8928   0.643   1.499   0.162 -0.1802  0.2217 -0.3811
  602TMC3    C8 8929   0.992   1.189   0.192  0.0021 -0.0945 -0.5068
  602TMC3    O1 8930   0.523   1.513   0.144 -0.1556 -0.4480  0.1539
  602TMC3    O2 8931   1.032   1.075   0.190  0.0484 -0.3597 -0.0859
  603TMC3    C1 8932   0.020   1.088  11.097  0.3486 -0.5297  0.0356
  603TMC3    C2 8933   0.007   1.093  11.234 -0.3365  0.0320 -0.1130
  603TMC3    C3 8934   4.711   1.214  11.292  0.1426  0.5368  0.0724
  603TMC3    C4 8935   0.013   1.203  11.022  0.2780 -0.7666  0.4115
  603TMC3    C5 8936   4.707   1.321  11.082 -1.0076 -0.3009  0.5973
  603TMC3    C6 8937   4.698   1.333  11.220 -0.1458  0.5460  0.5394
  603TMC3     C 8938   4.715   0.967  11.022  0.4871 -0.1451 -0.0360
  603TMC3     O 8939   0.027   0.961  10.906 -0.1263  0.2850  0.0866
  603TMC3     H 8940   0.020   1.001  11.291  0.7636  1.3498  1.7458
  603TMC3    H1 8941   0.016   1.193  10.914 -0.2818  0.5205  0.2717
  603TMC3    H2 8942   4.662   1.424  11.267 -0.2964  1.3988 -1.2350
  603TMC3    C7 8943   4.716   1.451  11.012 -0.1785  0.2254  0.1585
  603TMC3    C8 8944   4.677   1.199  11.432  0.0358  0.7195 -0.5903
  603TMC3    O1 8945   0.056   1.543  11.065 -0.0812  0.1997  0.5243
  603TMC3    O2 8946   4.622   1.094  11.467  0.2141 -0.3022  0.3003
  604MPD2     C 8947   1.085   0.491  16.136  0.3796  0.0244 -0.0894
  604MPD2    C1 8948   0.959   0.431  16.138 -0.1592 -0.0181 -0.0657
  604MPD2    C2 8949   0.918   0.348  16.035  0.0560  0.1155 -0.6054
  604MPD2    C3 8950   1.007   0.310  15.933  0.0524 -0.3300  0.2023
  604MPD2    C4 8951   1.136   0.360  15.937 -0.2290 -0.5274  1.0672
  604MPD2    C5 8952   1.171   0.458  16.031  0.1579  0.2509  0.4831
  604MPD2     H 8953   0.819   0.304  16.023  0.0892  0.7922 -3.4530
  604MPD2    H1 8954   1.218   0.343  15.868 -0.2535 -0.2846  0.9795
  604MPD2    H2 8955   1.115   0.556  16.216  1.1383  0.0820 -0.4216
  604MPD2    H3 8956   1.265   0.512  16.025  0.1987  0.3296  1.8240
  604MPD2     N 8957   0.974   0.214  15.831 -0.5561 -0.1330  0.3747
  604MPD2    H5 8958   0.876   0.191  15.818 -0.9659  1.2066  1.0354
  604MPD2    N1 8959   0.882   0.452  16.245 -0.2689 -0.0742 -0.0258
  604MPD2    H7 8960   0.918   0.513  16.318  1.1269 -0.7159 -0.1814
  605TMC3    C1 8961   0.688   0.466  16.380 -0.1184 -0.0232 -0.0753
  605TMC3    C2 8962   0.764   0.514  16.478  0.3047  0.7784 -0.8867
  605TMC3    C3 8963   0.715   0.613  16.563  0.3579  0.3396  0.1051
  605TMC3    C4 8964   0.565   0.519  16.354  0.2436  0.2592 -0.7386
  605TMC3    C5 8965   0.518   0.620  16.438  0.2279  0.2667  0.6637
  605TMC3    C6 8966   0.588   0.665  16.549 -0.7173 -0.1883  0.2706
  605TMC3     C 8967   0.747   0.409  16.263  0.2535  1.0530  0.6337
  605TMC3     O 8968   0.680   0.329  16.203 -0.1372 -0.2355 -0.3321
  605TMC3     H 8969   0.864   0.477  16.497 -1.4847 -4.0277 -0.7950
  605TMC3    H1 8970   0.509   0.478  16.271  1.1002 -2.0550 -0.1671
  605TMC3    H2 8971   0.543   0.744  16.607 -0.1812  1.4123 -1.4931
  605TMC3    C7 8972   0.417   0.707  16.386 -0.3112  0.0858 -0.2737
  605TMC3    C8 8973   0.816   0.676  16.647  0.6953  0.1593 -0.0142
  605TMC3    O1 8974   0.317   0.740  16.453  0.2852  0.0392 -0.2179
  605TMC3    O2 8975   0.908   0.616  16.704 -0.1326  0.5156 -0.0618
  606TMC3    C1 8976   1.776   2.967   0.084 -0.9404 -0.0590 -0.7433
  606TMC3    C2 8977   1.854   2.921   0.179 -0.2970 -0.9256 -0.0545
  606TMC3    C3 8978   1.809   2.814   0.252 -0.4827 -0.3817  0.1955
  606TMC3    C4 8979   1.645   2.935   0.068 -0.4142  0.0383 -0.5985
  606TMC3    C5 8980   1.599   2.831   0.144  0.0253 -0.1790  0.5862
  606TMC3    C6 8981   1.683   2.768   0.232 -0.1902 -0.0622  0.1950
  606TMC3     C 8982   1.833   3.079   0.017 -0.2992  0.2566 -0.2718
  606TMC3     O 8983   1.904   3.154   0.081 -0.4887  0.5383 -0.4312
  606TMC3     H 8984   1.951   2.959   0.208  0.1217 -2.9045  1.1982
  606TMC3    H1 8985   1.582   2.998   0.006 -0.6376  0.5539  0.1495
  606TMC3    H2 8986   1.654   2.679   0.287 -2.2070 -0.4609 -1.5247
  606TMC3    C7 8987   1.463   2.782   0.127 -0.4016  0.1977 -0.2351
  606TMC3    C8 8988   1.851   2.813   0.395  0.1995 -0.0744 -0.5798
  606TMC3    O1 8989   1.425   2.699   0.205 -0.7251  0.2163 -0.2117
  606TMC3    O2 8990   1.821   2.709   0.453 -0.4898  0.1790  0.1554
  607MPD2     C 8991   3.944   1.160  11.667 -0.1084  0.0874 -0.2337
  607MPD2    C1 8992   3.975   1.253  11.767 -0.1830  1.0084 -0.4293
  607MPD2    C2 8993   3.903   1.249  11.886  0.3769 -0.6082  0.1577
  607MPD2    C3 8994   3.803   1.163  11.911  0.5517  0.1385  0.5253
  607MPD2    C4 8995   3.760   1.071  11.815  0.5269 -0.3078  0.4208
  607MPD2    C5 8996   3.840   1.065  11.692  0.4856  0.3535  0.7478
  607MPD2     H 8997   3.924   1.319  11.966  5.4582 -0.6119 -1.1853
  607MPD2    H1 8998   3.678   1.003  11.836  1.3638 -1.1902  0.8528
  607MPD2    H2 8999   3.996   1.156  11.572 -1.8854 -1.9778 -1.1166
  607MPD2    H3 9000   3.819   0.990  11.617  0.2346 -0.9434  2.1069
  607MPD2     N 9001   3.765   1.166  12.045  0.2106  0.0430  0.4538
  607MPD2    H5 9002   3.809   1.239  12.099  0.4621  1.2766 -1.4176
  607MPD2    N1 9003   4.082   1.340  11.761  0.2195 -0.2095 -0.2533
  607MPD2    H7 9004   4.101   1.414  11.829 -1.0658 -0.7968  0.7494
  608TMC3    C1 9005   4.287   1.429  11.694  0.8862  0.1303 -0.1203
  608TMC3    C2 9006   4.316   1.442  11.831 -0.1329  0.3647 -0.3913
  608TMC3    C3 9007   4.412   1.537  11.864  0.8106 -0.7845 -0.2738
  608TMC3    C4 9008   4.364   1.499  11.599 -0.3478  0.8967 -0.1057
  608TMC3    C5 9009   4.456   1.589  11.646 -0.3772  0.6201  0.3209
  608TMC3    C6 9010   4.477   1.620  11.780  0.8794  0.6374  0.3222
  608TMC3     C 9011   4.172   1.349  11.659 -0.4783  0.5489  0.4280
  608TMC3     O 9012   4.179   1.286  11.554  0.5504  0.0561 -0.0780
  608TMC3     H 9013   4.276   1.375  11.905  0.0057 -0.8939 -1.4589
  608TMC3    H1 9014   4.340   1.482  11.495 -1.1763  0.7944  0.1007
  608TMC3    H2 9015   4.541   1.703  11.810  1.0985  0.1043  1.3579
  608TMC3    C7 9016   4.520   1.669  11.540 -0.0726 -0.6575  0.0627
  608TMC3    C8 9017   4.416   1.575  12.008  0.1211 -0.3123  0.1858
  608TMC3    O1 9018   4.532   1.629  11.425  0.0700  0.0299 -0.2458
  608TMC3    O2 9019   4.511   1.642  12.041 -0.0118  0.2823  0.1862
  609TMC3    C1 9020   2.407   0.027   8.934  0.0114 -0.2540 -0.1265
  609TMC3    C2 9021   2.455   4.702   8.811 -0.1427  0.2318 -0.1093
  609TMC3    C3 9022   2.577   4.644   8.809 -0.4441  0.1479 -0.3655
  609TMC3    C4 9023   2.472   4.719   9.046  0.4877 -0.4826 -0.0588
  609TMC3    C5 9024   2.588   4.651   9.042  1.1381  0.1481  0.1093
  609TMC3    C6 9025   2.647   4.616   8.923 -0.1164 -0.1420  0.1218
  609TMC3     C 9026   2.274   0.099   8.949 -0.2306 -0.6900 -0.2673
  609TMC3     O 9027   2.239   0.117   9.064 -0.6953 -0.2385  0.0864
  609TMC3     H 9028   2.392   4.711   8.724 -0.4043  3.1007  0.3896
  609TMC3    H1 9029   2.432   0.045   9.134  1.0822 -0.5293  0.2330
  609TMC3    H2 9030   2.748   4.578   8.922 -0.8328 -2.0722  1.4040
  609TMC3    C7 9031   2.656   4.617   9.163 -0.1393  0.5478  0.2101
  609TMC3    C8 9032   2.638   4.603   8.678 -0.2110 -0.6516  0.0705
  609TMC3    O1 9033   2.632   4.689   9.257 -0.3077 -0.5476  0.3041
  609TMC3    O2 9034   2.720   4.511   8.668 -0.7171  0.1027 -0.1883
  610TMC3    C1 9035   4.513   1.281  12.566  0.4336  0.4198 -0.0881
  610TMC3    C2 9036   4.449   1.300  12.444  0.7513  0.4480  0.4216
  610TMC3    C3 9037   4.352   1.210  12.403 -0.0217 -0.0227  0.2854
  610TMC3    C4 9038   4.472   1.183  12.645 -0.1552 -0.1085 -0.0378
  610TMC3    C5 9039   4.372   1.096  12.608  0.0163 -0.3075  1.0286
  610TMC3    C6 9040   4.325   1.103  12.479 -0.3880 -0.0745  0.5549
  610TMC3     C 9041   4.594   1.394  12.617 -0.3590 -0.4243 -0.5414
  610TMC3     O 9042   4.604   1.423  12.734 -0.3503 -0.1616  0.3189
  610TMC3     H 9043   4.477   1.384  12.381  0.5543 -0.0627 -0.3485
  610TMC3    H1 9044   4.503   1.170  12.748  1.7872 -1.7784 -0.8548
  610TMC3    H2 9045   4.251   1.028  12.452  1.3034 -2.2034  1.8291
  610TMC3    C7 9046   4.270   1.049  12.710 -0.3420  0.0325 -0.7269
  610TMC3    C8 9047   4.369   1.193  12.257  0.3689 -0.3360 -0.4111
  610TMC3    O1 9048   4.155   1.068  12.675 -0.0842  0.8039  0.0165
  610TMC3    O2 9049   4.473   1.242  12.215  0.8086  0.2504  0.3945
  611MPD2     C 9050   3.958   0.934   9.947  0.3315  0.3255 -0.0040
  611MPD2    C1 9051   3.961   1.000  10.070  0.3710  0.8337  0.3815
  611MPD2    C2 9052   4.069   1.087  10.100  0.3117  0.5299 -0.2179
  611MPD2    C3 9053   4.163   1.127  10.007 -0.9666  0.5664  0.0295
  611MPD2    C4 9054   4.155   1.060   9.887 -0.5280  0.3757 -0.5981
  611MPD2    C5 9055   4.054   0.967   9.860  0.2698 -0.0854 -0.3438
  611MPD2     H 9056   4.058   1.143  10.192  1.0037  0.3498 -0.0295
  611MPD2    H1 9057   4.232   1.086   9.816 -0.7811  1.1010 -0.6055
  611MPD2    H2 9058   3.878   0.868   9.917  1.1287 -0.7157  0.1771
  611MPD2    H3 9059   4.071   0.920   9.764  1.7575  0.5530 -0.4015
  611MPD2     N 9060   4.277   1.216  10.019  0.0645  0.3371 -0.0796
  611MPD2    H5 9061   4.329   1.231   9.933  0.8280  0.7852  0.4542
  611MPD2    N1 9062   3.862   0.956  10.160 -1.0760  0.5036 -0.4173
  611MPD2    H7 9063   3.785   0.897  10.129 -1.0215 -0.2966  0.9351
  612TMC3    C1 9064   4.406   1.387  10.122 -0.7442  0.5044  0.4544
  612TMC3    C2 9065   4.500   1.413  10.219  0.4221 -0.1828 -0.0899
  612TMC3    C3 9066   4.589   1.512  10.186  0.2043 -0.6070  0.1310
  612TMC3    C4 9067   4.407   1.455  10.002 -0.1099 -0.0362 -0.0887
  612TMC3    C5 9068   4.511   1.545   9.963  0.3968 -0.4569 -0.1023
  612TMC3    C6 9069   4.603   1.574  10.061  0.2012  0.2522 -0.6175
  612TMC3     C 9070   4.321   1.270  10.136  0.0015 -1.4187  0.1368
  612TMC3     O 9071   4.278   1.232  10.247  0.0327  0.3126  0.0551
  612TMC3     H 9072   4.493   1.353  10.309 -0.0789  2.6579  1.7597
  612TMC3    H1 9073   4.316   1.440   9.945  0.0724 -0.5684 -0.2341
  612TMC3    H2 9074   4.674   1.654  10.045 -1.7370  2.6343  2.6115
  612TMC3    C7 9075   4.498   1.630   9.847  1.0083  0.0767 -0.0046
  612TMC3    C8 9076   4.687   1.552  10.287  0.0415  0.5756  0.6524
  612TMC3    O1 9077   4.587   1.718   9.830  0.2781 -0.2543  0.5814
  612TMC3    O2 9078   0.037   1.651  10.263 -0.6476  0.2576 -0.2027
  613MPD2     C 9079   2.342   3.006  16.014 -0.2901 -0.0850  0.6458
  613MPD2    C1 9080   2.421   3.119  16.026  0.3887 -1.0465 -0.6230
  613MPD2    C2 9081   2.418   3.221  15.932  0.2466 -0.5582 -0.0246
  613MPD2    C3 9082   2.340   3.208  15.820 -0.6126 -0.1247  0.0161
  613MPD2    C4 9083   2.262   3.088  15.801  0.1470 -0.5378  0.5591
  613MPD2    C5 9084   2.256   2.998  15.903  0.2947 -0.1884 -0.1404
  613MPD2     H 9085   2.486   3.305  15.931 -0.8640  0.3481  0.6608
  613MPD2    H1 9086   2.207   3.066  15.710  0.2890  0.1131  0.3177
  613MPD2    H2 9087   2.335   2.927  16.088  2.8946 -0.5383  0.4600
  613MPD2    H3 9088   2.194   2.909  15.894 -2.5970  1.8550 -0.2869
  613MPD2     N 9089   2.333   3.310  15.719 -0.4817  0.3372  0.3553
  613MPD2    H5 9090   2.294   3.275  15.633 -0.1266  0.9470 -0.0523
  613MPD2    N1 9091   2.521   3.113  16.126 -0.2906 -0.0679  0.3116
  613MPD2    H7 9092   2.539   3.019  16.159 -1.0892 -0.1459  0.5293
  614TMC3    C1 9093   2.701   3.202  16.246  0.5968 -0.0371  0.4012
  614TMC3    C2 9094   2.785   3.129  16.180 -0.2809 -0.2938  0.9304
  614TMC3    C3 9095   2.915   3.169  16.150  0.2327 -0.0243  0.8029
  614TMC3    C4 9096   2.743   3.314  16.308  0.2870  0.5233 -0.6966
  614TMC3    C5 9097   2.877   3.350  16.300 -0.9672 -0.8889  0.1853
  614TMC3    C6 9098   2.967   3.273  16.222  0.6579 -0.2304 -0.6223
  614TMC3     C 9099   2.578   3.228  16.180 -0.2357  0.8455  0.1703
  614TMC3     O 9100   2.543   3.344  16.163  0.0312 -0.5031 -0.3837
  614TMC3     H 9101   2.757   3.031  16.145 -4.1385  0.6043  1.4953
  614TMC3    H1 9102   2.680   3.391  16.353  1.3030 -0.1289  1.8356
  614TMC3    H2 9103   3.068   3.311  16.217 -0.4217  2.3183 -3.1050
  614TMC3    C7 9104   2.919   3.490  16.304 -0.3530 -0.1822  0.0564
  614TMC3    C8 9105   2.930   3.186  16.004  0.1666  0.8586  0.2406
  614TMC3    O1 9106   2.879   3.554  16.399 -0.5476  0.1752  0.0699
  614TMC3    O2 9107   2.833   3.163  15.937 -0.5787 -0.3299 -0.2133
  615MPD2     C 9108   2.629   0.333  16.200 -0.4880 -0.2339  0.5310
  615MPD2    C1 9109   2.527   0.432  16.207 -1.3224  0.2711 -0.0618
  615MPD2    C2 9110   2.442   0.448  16.099 -0.4166  0.4322 -0.2743
  615MPD2    C3 9111   2.454   0.373  15.982 -0.4122 -0.0665 -0.3442
  615MPD2    C4 9112   2.568   0.289  15.973 -0.7870  0.7370 -0.5331
  615MPD2    C5 9113   2.635   0.256  16.086 -0.5838 -0.3891 -0.0504
  615MPD2     H 9114   2.364   0.522  16.111 -1.9040 -0.9353 -1.6588
  615MPD2    H1 9115   2.590   0.225  15.889 -0.6484  0.2791 -0.1453
  615MPD2    H2 9116   2.694   0.311  16.284  1.9164 -0.4841 -1.4159
  615MPD2    H3 9117   2.720   0.189  16.099 -0.0520  0.0647 -1.1903
  615MPD2     N 9118   2.355   0.384  15.878  0.0675  0.3264 -0.0466
  615MPD2    H5 9119   2.371   0.318  15.803  1.7722 -0.4127  0.9753
  615MPD2    N1 9120   2.511   0.522  16.317 -0.4771 -0.2666 -0.7569
  615MPD2    H7 9121   2.442   0.595  16.304  1.5649  2.0839  1.5162
  616TMC3    C1 9122   2.547   0.621  16.525  0.3275  0.1874  1.5643
  616TMC3    C2 9123   2.624   0.626  16.643  0.6048 -0.0746  0.5936
  616TMC3    C3 9124   2.569   0.676  16.754  0.4123  0.5080 -0.1625
  616TMC3    C4 9125   2.414   0.664  16.532  0.0670  0.1226  0.2754
  616TMC3    C5 9126   2.364   0.707  16.652 -0.1076 -0.4028  0.1890
  616TMC3    C6 9127   2.437   0.706  16.763  0.2388 -0.0810  0.2480
  616TMC3     C 9128   2.591   0.526  16.427 -0.1296  0.1095 -0.1930
  616TMC3     O 9129   2.682   0.449  16.462 -0.0674 -0.2736  0.2564
  616TMC3     H 9130   2.722   0.581  16.647  0.6297  0.0996  2.0628
  616TMC3    H1 9131   2.341   0.648  16.453 -0.6814 -0.8036  1.1603
  616TMC3    H2 9132   2.395   0.709  16.862 -1.8202  1.6910 -0.6755
  616TMC3    C7 9133   2.233   0.770  16.664  0.8793  0.1643  0.0320
  616TMC3    C8 9134   2.641   0.693  16.880 -0.1455  1.0262  0.1654
  616TMC3    O1 9135   2.178   0.773  16.775 -0.2545  0.0564  0.6778
  616TMC3    O2 9136   2.581   0.701  16.988  0.3562  0.1530 -0.4057
  617MPD2     C 9137   0.278   3.922  13.563  0.2145  0.3147  0.8439
  617MPD2    C1 9138   0.314   3.821  13.645  0.1837 -0.2345  0.9093
  617MPD2    C2 9139   0.230   3.763  13.741 -0.0575  0.2512 -0.8964
  617MPD2    C3 9140   0.096   3.798  13.738  0.1184 -0.7792 -0.1279
  617MPD2    C4 9141   0.059   3.902  13.658  0.3402  0.1074 -0.5671
  617MPD2    C5 9142   0.150   3.967  13.573 -0.4168  0.7173  0.2553
  617MPD2     H 9143   0.264   3.674  13.793  0.0276  0.4985 -0.5306
  617MPD2    H1 9144   4.676   3.925  13.655  0.2114 -0.8856 -4.0647
  617MPD2    H2 9145   0.342   3.976  13.495  0.7562  0.3015  1.3446
  617MPD2    H3 9146   0.106   4.038  13.505 -0.2103 -0.5440 -1.2080
  617MPD2     N 9147   0.004   3.733  13.823  0.4626  0.4375  0.1456
  617MPD2    H5 9148   4.626   3.745  13.818  0.7884  1.7471 -3.1437
  617MPD2    N1 9149   0.447   3.789  13.632  0.6989  0.2504 -0.0399
  617MPD2    H7 9150   0.500   3.852  13.573 -0.0424 -1.8873 -3.0127
  618TMC3    C1 9151   0.643   3.654  13.643  0.1221 -0.4520 -0.2545
  618TMC3    C2 9152   0.714   3.551  13.709  0.1291 -0.1855 -0.6217
  618TMC3    C3 9153   0.834   3.504  13.659 -0.5168 -0.2473  0.0278
  618TMC3    C4 9154   0.693   3.717  13.531  0.0240 -0.5579 -0.4926
  618TMC3    C5 9155   0.814   3.666  13.492  0.0357 -0.0199  0.0269
  618TMC3    C6 9156   0.888   3.564  13.549  0.0388 -0.0684  0.0124
  618TMC3     C 9157   0.517   3.692  13.701  0.7507  0.3211  0.1159
  618TMC3     O 9158   0.478   3.631  13.800  0.2105  0.4885 -0.1551
  618TMC3     H 9159   0.672   3.515  13.803 -1.2515  0.1553 -1.1019
  618TMC3    H1 9160   0.636   3.792  13.477  1.4445 -0.5297 -1.9590
  618TMC3    H2 9161   0.970   3.520  13.494 -1.1451  0.2835 -2.0459
  618TMC3    C7 9162   0.855   3.711  13.360 -0.4120 -0.2953 -0.7839
  618TMC3    C8 9163   0.903   3.402  13.731 -0.2986  0.5545 -0.0192
  618TMC3    O1 9164   0.761   3.759  13.291  0.1859 -0.0855  0.9516
  618TMC3    O2 9165   0.843   3.355  13.827  0.1611 -0.6777 -0.3423
  619MPD2     C 9166   1.949   0.735  13.432  1.2774  0.0806 -0.0848
  619MPD2    C1 9167   1.890   0.764  13.307 -0.8810 -0.3887  0.0365
  619MPD2    C2 9168   1.833   0.657  13.237 -0.3512  0.1836 -0.4924
  619MPD2    C3 9169   1.847   0.526  13.280 -0.4204 -1.2807  0.1367
  619MPD2    C4 9170   1.911   0.502  13.399  0.0559  0.4431 -0.0751
  619MPD2    C5 9171   1.950   0.605  13.476  0.4582  0.2624  0.8114
  619MPD2     H 9172   1.783   0.683  13.145 -0.8707 -0.3229 -0.3455
  619MPD2    H1 9173   1.920   0.401  13.439  1.5694  0.6461  0.0817
  619MPD2    H2 9174   1.972   0.810  13.507 -0.0637 -0.3457  0.7533
  619MPD2    H3 9175   1.987   0.593  13.577  0.8919  1.1546  0.7561
  619MPD2     N 9176   1.790   0.415  13.205  0.1373 -0.6347 -0.5935
  619MPD2    H5 9177   1.790   0.325  13.252 -1.6200 -1.8836 -3.0452
  619MPD2    N1 9178   1.886   0.898  13.260 -0.1243 -0.7025 -0.2826
  619MPD2    H7 9179   1.830   0.909  13.176  2.0726  0.9688 -1.5312
  620TMC3    C1 9180   1.876   1.135  13.274  0.4296 -0.5497 -0.8147
  620TMC3    C2 9181   1.831   1.129  13.141  0.1589 -0.3980 -0.0770
  620TMC3    C3 9182   1.702   1.186  13.114 -0.4820  0.4526  0.1665
  620TMC3    C4 9183   1.819   1.218  13.377  0.0113 -0.1179  0.1921
  620TMC3    C5 9184   1.710   1.287  13.333  0.6099  0.5711 -0.5422
  620TMC3    C6 9185   1.651   1.268  13.209  0.4390  0.0409 -0.5928
  620TMC3     C 9186   1.924   1.010  13.333 -0.6988 -0.0238 -0.0950
  620TMC3     O 9187   1.973   1.025  13.440 -0.1101 -0.2600 -0.0305
  620TMC3     H 9188   1.876   1.064  13.068 -0.6093  0.6734 -1.5043
  620TMC3    H1 9189   1.868   1.225  13.474 -1.3953 -0.3417  0.9210
  620TMC3    H2 9190   1.559   1.323  13.189  0.5432  0.8355  1.0982
  620TMC3    C7 9191   1.607   1.330  13.424 -0.0061  0.1119  0.2203
  620TMC3    C8 9192   1.611   1.081  13.077  0.4195 -0.6654 -1.2027
  620TMC3    O1 9193   1.518   1.396  13.376 -0.1329  0.2933  0.1217
  620TMC3    O2 9194   1.652   0.965  13.103 -0.0513  0.2475  0.1763
  621MPD2     C 9195   2.087   3.989   8.953  0.6291  0.3193 -0.2456
  621MPD2    C1 9196   2.068   3.968   9.086  0.1068 -0.1257  0.2418
  621MPD2    C2 9197   2.109   4.057   9.180 -0.0813  0.2717 -0.9196
  621MPD2    C3 9198   2.170   4.175   9.137 -0.4135  0.1371  0.2063
  621MPD2    C4 9199   2.186   4.199   9.002 -0.1360 -0.0381 -0.7416
  621MPD2    C5 9200   2.152   4.104   8.910  0.0791 -0.0162  0.3770
  621MPD2     H 9201   2.095   4.029   9.283 -3.2697  1.3047 -1.0722
  621MPD2    H1 9202   2.221   4.288   8.950 -0.7541  0.6285 -0.0259
  621MPD2    H2 9203   2.076   3.899   8.894 -1.2893  0.1684  0.3466
  621MPD2    H3 9204   2.168   4.121   8.805 -0.5033  0.2936  0.3444
  621MPD2     N 9205   2.225   4.271   9.224  0.2083 -0.3572  0.8243
  621MPD2    H5 9206   2.229   4.245   9.322  2.2607 -2.2621  0.2421
  621MPD2    N1 9207   2.031   3.844   9.144  0.0478 -0.7325 -0.0692
  621MPD2    H7 9208   2.042   3.833   9.245 -2.9056 -0.4739  0.2950
  622TMC3    C1 9209   2.003   3.612   9.153  0.4715 -0.0811 -0.8625
  622TMC3    C2 9210   2.063   3.637   9.277  0.9678 -0.4926  0.2247
  622TMC3    C3 9211   2.010   3.583   9.389 -0.2899 -0.1060 -0.0236
  622TMC3    C4 9212   1.900   3.529   9.134 -0.2882 -0.2137  0.3528
  622TMC3    C5 9213   1.850   3.469   9.246  0.0382 -0.0186  0.7685
  622TMC3    C6 9214   1.893   3.507   9.374 -0.3048 -0.0585  0.0695
  622TMC3     C 9215   1.980   3.732   9.071 -0.1775 -0.1411 -0.2164
  622TMC3     O 9216   1.911   3.725   8.965 -0.2840  0.9951 -0.8886
  622TMC3     H 9217   2.155   3.695   9.271  0.4121  0.3490 -0.0936
  622TMC3    H1 9218   1.856   3.517   9.035 -1.6438  1.8047  0.7162
  622TMC3    H2 9219   1.827   3.473   9.453  0.4581  2.2575  1.6950
  622TMC3    C7 9220   1.806   3.335   9.243 -0.5785  0.1844  0.2329
  622TMC3    C8 9221   2.015   3.685   9.489  0.1286  0.1659  0.2096
  622TMC3    O1 9222   1.754   3.294   9.345  0.6075 -0.0434  0.1717
  622TMC3    O2 9223   2.060   3.794   9.448 -0.3521  0.1192 -0.2407
  623MPD2     C 9224   1.227   1.272  16.018 -0.6583  0.2279 -0.6974
  623MPD2    C1 9225   1.173   1.173  16.099 -0.3399  0.2650 -0.1287
  623MPD2    C2 9226   1.261   1.110  16.191 -0.1084  0.0317 -0.9123
  623MPD2    C3 9227   1.395   1.141  16.202 -0.0592 -0.0570 -0.0044
  623MPD2    C4 9228   1.445   1.236  16.120  0.3934 -0.4242 -0.5163
  623MPD2    C5 9229   1.361   1.300  16.036  0.1535  0.3357  0.2163
  623MPD2     H 9230   1.227   1.032  16.258 -0.4011 -0.6994 -1.9118
  623MPD2    H1 9231   1.550   1.263  16.122  0.4841 -1.1255  3.0332
  623MPD2    H2 9232   1.171   1.344  15.960  0.6786  1.7846 -0.0671
  623MPD2    H3 9233   1.410   1.363  15.962  0.6741  2.0866  2.0546
  623MPD2     N 9234   1.462   1.072  16.310 -0.2409 -0.0868  0.4713
  623MPD2    H5 9235   1.411   0.997  16.355 -0.4429  0.5123  1.2269
  623MPD2    N1 9236   1.033   1.138  16.095 -0.7025  0.1102 -0.1291
  623MPD2    H7 9237   0.979   1.190  16.026 -0.8192 -0.5886 -0.5663
  624TMC3    C1 9238   1.674   0.793  16.533  0.1332 -0.8022 -0.0980
  624TMC3    C2 9239   1.551   0.777  16.603 -0.5212  0.5012 -0.6981
  624TMC3    C3 9240   1.468   0.884  16.614  0.4176  1.0253  0.1055
  624TMC3    C4 9241   1.703   0.908  16.462 -0.2658  0.0478 -0.0072
  624TMC3    C5 9242   1.607   1.009  16.468  0.1023 -0.3363  0.2763
  624TMC3    C6 9243   1.489   0.996  16.537  0.3550  0.0279 -0.9130
  624TMC3     C 9244   1.762   0.679  16.545  0.1826 -0.3156  0.4081
  624TMC3     O 9245   1.748   0.590  16.630  0.0861 -0.6840 -0.3168
  624TMC3     H 9246   1.535   0.684  16.658 -0.3988  0.1319 -1.2832
  624TMC3    H1 9247   1.789   0.921  16.398  0.5538  1.6725  1.4295
  624TMC3    H2 9248   1.415   1.076  16.544  0.1224 -0.2607 -0.1016
  624TMC3    C7 9249   1.593   1.083  16.350 -0.1337 -0.0909  0.3969
  624TMC3    C8 9250   1.337   0.849  16.663  0.5528  0.2787 -0.2594
  624TMC3    O1 9251   1.693   1.111  16.288  0.8005  0.4779 -0.1793
  624TMC3    O2 9252   1.302   0.731  16.678 -0.2470  0.0657  0.3746
  625MPD2     C 9253   1.656   2.033   0.466 -0.0512  0.1559  0.5076
  625MPD2    C1 9254   1.657   2.168   0.504 -0.3168 -0.4600  0.0956
  625MPD2    C2 9255   1.769   2.218   0.566 -0.1380  0.1874 -0.5952
  625MPD2    C3 9256   1.885   2.150   0.571  0.0475  0.1366  0.3564
  625MPD2    C4 9257   1.888   2.022   0.531  0.4581 -0.7140 -0.0453
  625MPD2    C5 9258   1.768   1.962   0.489  0.8557 -0.3750 -0.4222
  625MPD2     H 9259   1.768   2.323   0.593  0.6512 -0.0664  0.4484
  625MPD2    H1 9260   1.981   1.966   0.526  0.3837 -0.8114 -0.3505
  625MPD2    H2 9261   1.568   1.978   0.436  1.7666 -2.9692  0.8896
  625MPD2    H3 9262   1.778   1.857   0.466 -0.5631 -1.1404  2.4266
  625MPD2     N 9263   1.996   2.221   0.619  0.2988 -0.4519 -0.2576
  625MPD2    H5 9264   1.987   2.322   0.623 -0.8931 -0.5929  0.6752
  625MPD2    N1 9265   1.543   2.249   0.496  0.6466  0.0608  0.4963
  625MPD2    H7 9266   1.563   2.343   0.525 -1.5898  0.8572 -0.5025
  626TMC3    C1 9267   1.338   2.343   0.438 -0.3969 -0.1973 -0.2647
  626TMC3    C2 9268   1.239   2.347   0.343  0.9391 -0.2422  0.2672
  626TMC3    C3 9269   1.136   2.439   0.358 -0.0619  0.6730  0.5751
  626TMC3    C4 9270   1.331   2.433   0.543  0.3318 -0.0984  0.7978
  626TMC3    C5 9271   1.223   2.508   0.564 -0.5264  0.0298 -0.4737
  626TMC3    C6 9272   1.131   2.523   0.466 -0.2350  0.0638  0.0546
  626TMC3     C 9273   1.420   2.226   0.441 -0.6617  0.4641  0.0455
  626TMC3     O 9274   1.372   2.118   0.400 -0.6332  0.1080 -0.1307
  626TMC3     H 9275   1.238   2.282   0.257 -1.1305  0.3401 -0.1561
  626TMC3    H1 9276   1.416   2.439   0.610  2.3175 -1.2635 -1.6103
  626TMC3    H2 9277   1.061   2.605   0.468  0.4073  0.6013  0.3580
  626TMC3    C7 9278   1.227   2.584   0.684 -0.3326  0.1937  0.1639
  626TMC3    C8 9279   1.039   2.447   0.250  0.9673  0.5342 -0.2633
  626TMC3    O1 9280   1.332   2.589   0.748  0.1254 -0.2434  0.4054
  626TMC3    O2 9281   1.065   2.382   0.147 -0.2275 -0.6186 -0.1572
  627MPD2     C 9282   4.220   2.592  14.614  0.1140  0.1675 -0.0450
  627MPD2    C1 9283   4.324   2.531  14.688  0.2851  0.6418 -0.1755
  627MPD2    C2 9284   4.326   2.396  14.689 -0.3449  0.5374  0.0339
  627MPD2    C3 9285   4.231   2.315  14.627  0.1175  0.4819 -0.1208
  627MPD2    C4 9286   4.133   2.376  14.559 -0.2625 -0.0846  0.9924
  627MPD2    C5 9287   4.134   2.513  14.544  0.0167 -0.1788 -0.2545
  627MPD2     H 9288   4.405   2.345  14.743 -1.6744 -0.4668  1.0223
  627MPD2    H1 9289   4.061   2.311  14.511  0.2826 -0.4052  0.5986
  627MPD2    H2 9290   4.211   2.700  14.617 -2.3744 -0.1326  3.9098
  627MPD2    H3 9291   4.061   2.559  14.477  1.2697  0.9774 -0.8280
  627MPD2     N 9292   4.257   2.175  14.641  0.1706  0.0645 -0.0709
  627MPD2    H5 9293   4.335   2.144  14.699 -0.9470  0.9298  1.9056
  627MPD2    N1 9294   4.431   2.596  14.753 -0.3944  0.2080  0.2718
  627MPD2    H7 9295   4.512   2.539  14.773  0.8980  1.8230 -0.3828
  628TMC3    C1 9296   4.562   2.769  14.841 -0.5137  0.5197 -0.5218
  628TMC3    C2 9297   4.655   2.689  14.898 -0.3163  0.3939 -0.3147
  628TMC3    C3 9298   0.056   2.729  14.933  0.4413  0.0423  0.3790
  628TMC3    C4 9299   4.599   2.901  14.824 -0.7489  0.1914  0.3384
  628TMC3    C5 9300   0.005   2.942  14.858 -0.4965  0.3842  1.6028
  628TMC3    C6 9301   0.093   2.865  14.924 -0.4038  0.7087 -0.3778
  628TMC3     C 9302   4.444   2.726  14.776 -0.5837 -0.0407  0.2454
  628TMC3     O 9303   4.368   2.817  14.745 -0.3547 -0.1118 -0.5176
  628TMC3     H 9304   4.651   2.582  14.914  0.5187  0.4734  0.3981
  628TMC3    H1 9305   4.534   2.970  14.771 -0.6525 -0.1201 -0.1862
  628TMC3    H2 9306   0.197   2.893  14.937 -0.7538  2.3980 -1.2883
  628TMC3    C7 9307   0.050   3.077  14.826 -0.2529  0.6174 -0.3127
  628TMC3    C8 9308   0.152   2.635  14.888 -0.4299  0.3891 -0.1208
  628TMC3    O1 9309   0.123   3.129  14.909  0.2880  0.7752  0.4817
  628TMC3    O2 9310   0.124   2.563  14.792 -0.0640  0.1849  0.0088
  629MPD2     C 9311   3.079   0.865  17.104  1.2853 -0.1135 -0.5116
  629MPD2    C1 9312   3.103   0.847  16.973  0.9415 -0.4451 -0.3494
  629MPD2    C2 9313   3.004   0.792  16.889  1.0041  0.5229 -0.3072
  629MPD2    C3 9314   2.880   0.755  16.941  0.8532  0.6114 -0.4845
  629MPD2    C4 9315   2.862   0.760  17.079  0.3385  0.4310  0.0257
  629MPD2    C5 9316   2.962   0.810  17.153  0.2696 -0.1505  0.0983
  629MPD2     H 9317   3.024   0.773  16.784  1.7439 -0.5113  0.0171
  629MPD2    H1 9318   2.772   0.721  17.124  1.5464 -1.2528  1.0077
  629MPD2    H2 9319   3.146   0.918  17.172  0.8544  0.4720 -0.5447
  629MPD2    H3 9320   2.935   0.826  17.257  0.7549  0.0443  0.1960
  629MPD2     N 9321   2.774   0.707  16.854  0.5601 -0.3270  0.2678
  629MPD2    H5 9322   2.796   0.709  16.755  2.0610  0.7401  0.6250
  629MPD2    N1 9323   3.233   0.888  16.923  0.1464  0.4464  0.1884
  629MPD2    H7 9324   3.299   0.924  16.991  1.7563  1.1773 -1.7741
  630TMC3    C1 9325   3.406   0.925  16.777  0.2593 -0.3717  0.3019
  630TMC3    C2 9326   3.429   1.029  16.688 -0.2979 -0.2861 -0.2147
  630TMC3    C3 9327   3.553   1.084  16.695  0.2518 -0.5626  0.6281
  630TMC3    C4 9328   3.495   0.886  16.872  0.7310  0.0780  0.0699
  630TMC3    C5 9329   3.619   0.935  16.863 -0.5323  0.9969 -0.0141
  630TMC3    C6 9330   3.647   1.042  16.787  0.1165 -0.1400 -0.1726
  630TMC3     C 9331   3.268   0.898  16.793  0.0289 -0.4224 -0.0862
  630TMC3     O 9332   3.207   0.858  16.698 -0.0332  0.5610 -0.2162
  630TMC3     H 9333   3.352   1.073  16.626 -1.7294 -2.0589  0.2920
  630TMC3    H1 9334   3.480   0.792  16.923 -0.0154  0.0082 -0.2838
  630TMC3    H2 9335   3.748   1.083  16.783  0.2034 -0.3201  0.2439
  630TMC3    C7 9336   3.725   0.879  16.947 -0.0945  0.1119 -0.0438
  630TMC3    C8 9337   3.593   1.192  16.602 -0.4992  0.5421 -0.6176
  630TMC3    O1 9338   3.714   0.763  16.982 -0.5633 -0.4792  0.0643
  630TMC3    O2 9339   3.695   1.258  16.627 -0.3573 -0.1239  0.0270
  631MPD2     C 9340   1.363   0.757  15.611 -0.0793 -0.2319  0.6470
  631MPD2    C1 9341   1.470   0.810  15.547  0.2808 -0.1093 -0.1925
  631MPD2    C2 9342   1.594   0.748  15.563 -0.1247  0.0283  0.6632
  631MPD2    C3 9343   1.614   0.639  15.635  0.0976 -0.6019  0.0095
  631MPD2    C4 9344   1.508   0.588  15.704 -0.4204 -0.0205  0.2303
  631MPD2    C5 9345   1.388   0.647  15.690  0.0598  0.2816 -0.2011
  631MPD2     H 9346   1.684   0.792  15.521 -1.1528  1.1459 -0.3694
  631MPD2    H1 9347   1.516   0.499  15.766  1.0786  0.4194  0.6684
  631MPD2    H2 9348   1.266   0.805  15.614 -1.4667 -3.0022  0.0253
  631MPD2    H3 9349   1.307   0.604  15.747  0.6450  3.1690  2.8206
  631MPD2     N 9350   1.740   0.585  15.641  1.0818  0.0581 -0.2372
  631MPD2    H5 9351   1.817   0.642  15.607  2.1556 -1.1713  0.1614
  631MPD2    N1 9352   1.456   0.931  15.471 -0.5481  0.5666  0.5175
  631MPD2    H7 9353   1.362   0.943  15.436 -0.4099  0.1439  0.0009
  632TMC3    C1 9354   1.503   1.130  15.355 -0.1694  0.3676  0.2317
  632TMC3    C2 9355   1.374   1.156  15.374  0.3626 -0.2544 -0.6312
  632TMC3    C3 9356   1.312   1.235  15.274  0.6120  0.1474  0.3025
  632TMC3    C4 9357   1.577   1.179  15.256 -0.0017  0.3057 -0.8076
  632TMC3    C5 9358   1.512   1.263  15.165  0.5533  0.5790 -0.8525
  632TMC3    C6 9359   1.383   1.294  15.166 -0.2783  0.3506  0.1247
  632TMC3     C 9360   1.560   1.016  15.435 -0.2152 -0.5677 -0.3704
  632TMC3     O 9361   1.678   1.009  15.453  0.0984 -0.0911 -0.2291
  632TMC3     H 9362   1.304   1.108  15.442  0.2521 -1.2132 -1.4212
  632TMC3    H1 9363   1.676   1.136  15.249 -0.5856 -1.4191  1.5286
  632TMC3    H2 9364   1.342   1.361  15.092  0.9113  0.9718  0.0329
  632TMC3    C7 9365   1.573   1.294  15.037  0.3423 -0.4248 -0.4744
  632TMC3    C8 9366   1.181   1.281  15.313  0.1388 -0.2247 -0.1301
  632TMC3    O1 9367   1.509   1.322  14.936  0.2006 -0.2641  0.5173
  632TMC3    O2 9368   1.133   1.235  15.411  0.1948  0.1394 -0.0106
  633MPD2     C 9369   0.633   3.512  16.778  0.6215  0.2986  0.6098
  633MPD2    C1 9370   0.744   3.456  16.729  0.3359 -0.5167  0.1497
  633MPD2    C2 9371   0.797   3.328  16.776  0.0669  1.2269 -0.3575
  633MPD2    C3 9372   0.729   3.260  16.870  0.7925  0.6304  0.1322
  633MPD2    C4 9373   0.612   3.321  16.920  0.9024  0.4420  0.2625
  633MPD2    C5 9374   0.560   3.440  16.874  0.0587 -0.2577 -0.3193
  633MPD2     H 9375   0.883   3.285  16.726 -1.3210  1.0999 -2.6446
  633MPD2    H1 9376   0.561   3.269  17.000  1.3239  1.7764  1.3928
  633MPD2    H2 9377   0.597   3.610  16.748  0.2074  0.6724  2.3580
  633MPD2    H3 9378   0.469   3.481  16.916 -1.0649 -2.4733 -0.6010
  633MPD2     N 9379   0.777   3.150  16.939 -0.0744 -0.5246  0.1944
  633MPD2    H5 9380   0.718   3.104  17.007  1.2117 -0.5855  1.2579
  633MPD2    N1 9381   0.819   3.531  16.637 -0.0370 -0.1074  0.0195
  633MPD2    H7 9382   0.897   3.489  16.588  0.4645  1.1863 -0.2957
  634TMC3    C1 9383   0.912   3.703  16.518 -0.2429  0.6072 -0.1866
  634TMC3    C2 9384   0.948   3.607  16.430 -0.2251  0.3096 -0.1976
  634TMC3    C3 9385   1.051   3.636  16.351 -0.0893 -0.5056  0.2100
  634TMC3    C4 9386   0.965   3.827  16.525 -0.2202 -0.0175  0.1065
  634TMC3    C5 9387   1.072   3.853  16.443  0.3291 -1.3027  0.0190
  634TMC3    C6 9388   1.113   3.755  16.354  0.2807  0.9677  0.3046
  634TMC3     C 9389   0.818   3.668  16.627 -0.0453  0.2717 -0.6112
  634TMC3     O 9390   0.780   3.764  16.696  0.1536  0.2947  0.4871
  634TMC3     H 9391   0.914   3.505  16.420 -1.1839  0.4991  1.1288
  634TMC3    H1 9392   0.918   3.901  16.588  0.0752 -1.9822  2.6508
  634TMC3    H2 9393   1.204   3.772  16.297 -0.0124  0.3514 -0.3554
  634TMC3    C7 9394   1.099   3.984  16.399 -0.6721 -0.3245 -0.1325
  634TMC3    C8 9395   1.132   3.528  16.289  1.1323  0.0176 -0.3124
  634TMC3    O1 9396   1.164   4.007  16.297 -0.7691  0.1630  0.3495
  634TMC3    O2 9397   1.230   3.496  16.354 -0.3867  0.4107 -0.3408
  635TMC3    C1 9398   1.351   4.280  17.180 -0.0688 -0.7521 -0.0706
  635TMC3    C2 9399   1.472   4.283  17.113  0.2463 -0.3232 -0.4385
  635TMC3    C3 9400   1.523   4.160  17.081 -0.3164 -0.7836 -0.2400
  635TMC3    C4 9401   1.280   4.171  17.195 -0.0804 -0.1781  0.3665
  635TMC3    C5 9402   1.330   4.050  17.158  0.4272  0.7782 -0.3970
  635TMC3    C6 9403   1.455   4.044  17.096 -0.3962 -0.2216 -0.0005
  635TMC3     C 9404   1.296   4.403  17.230  0.7371 -0.5694 -0.6719
  635TMC3     O 9405   1.225   4.390  17.326 -0.0990 -0.5234 -0.1590
  635TMC3     H 9406   1.534   4.372  17.112 -1.3892  0.8132 -1.4693
  635TMC3    H1 9407   1.187   4.177  17.251 -0.5801 -0.7267 -0.4050
  635TMC3    H2 9408   1.511   3.952  17.085  1.1638  0.7686 -0.2032
  635TMC3    C7 9409   1.228   3.966  17.094 -0.4825  0.3280 -0.1330
  635TMC3    C8 9410   1.651   4.156  17.001  0.7437  0.9141 -0.3643
  635TMC3    O1 9411   1.112   3.981  17.124 -0.0309  0.1225 -0.5091
  635TMC3    O2 9412   1.704   4.046  16.994 -0.4586  0.3240 -0.2237
  636MPD2     C 9413   2.573   4.285  15.563  0.3290  0.2237  0.7757
  636MPD2    C1 9414   2.546   4.231  15.688  0.5744  0.3841  0.4642
  636MPD2    C2 9415   2.555   4.094  15.704  0.4983 -0.7371  0.3664
  636MPD2    C3 9416   2.574   4.009  15.591  0.1838 -0.5289  0.4950
  636MPD2    C4 9417   2.588   4.063  15.468  0.0942 -0.0107 -0.1360
  636MPD2    C5 9418   2.598   4.196  15.461 -0.6808 -0.8633 -0.2346
  636MPD2     H 9419   2.517   4.055  15.797  0.3396  2.8621  1.7771
  636MPD2    H1 9420   2.607   4.006  15.378  1.0952 -1.1882  0.8252
  636MPD2    H2 9421   2.581   4.390  15.538  0.2104 -0.0582 -0.4446
  636MPD2    H3 9422   2.614   4.236  15.361  2.8119 -2.8157 -0.4505
  636MPD2     N 9423   2.558   3.871  15.608 -0.5573  0.3582  0.1758
  636MPD2    H5 9424   2.520   3.841  15.697 -0.2889  0.1762  0.2300
  636MPD2    N1 9425   2.508   4.313  15.798 -0.4329 -0.1381 -0.2485
  636MPD2    H7 9426   2.494   4.272  15.889  0.2508  1.9051  0.7790
  637TMC3    C1 9427   2.571   3.648  15.526  0.4069 -0.6137 -0.1911
  637TMC3    C2 9428   2.468   3.604  15.606 -0.0692 -0.1588  0.7440
  637TMC3    C3 9429   2.451   3.473  15.611 -0.3825  0.1655 -0.3060
  637TMC3    C4 9430   2.656   3.560  15.463 -0.5064 -0.1488 -0.2476
  637TMC3    C5 9431   2.644   3.426  15.495 -0.5972  0.5716 -0.3354
  637TMC3    C6 9432   2.530   3.378  15.554  0.4236  0.0291  0.2607
  637TMC3     C 9433   2.604   3.782  15.509 -0.0177  0.0144  0.2309
  637TMC3     O 9434   2.686   3.811  15.419 -0.3730 -0.2604 -0.6267
  637TMC3     H 9435   2.393   3.667  15.653  1.5671  2.7027 -0.4663
  637TMC3    H1 9436   2.737   3.602  15.405  0.4885 -1.3055  0.2853
  637TMC3    H2 9437   2.531   3.280  15.600  3.0292 -0.0505  0.0445
  637TMC3    C7 9438   2.767   3.357  15.535  0.3460  0.6063 -0.3327
  637TMC3    C8 9439   2.382   3.440  15.730  0.5106 -0.6217 -0.9836
  637TMC3    O1 9440   2.777   3.237  15.558 -0.0749  0.3868 -0.3195
  637TMC3    O2 9441   2.410   3.504  15.835  0.5783 -0.2424 -0.2351
  638MPD2     C 9442   2.322   3.007  14.918 -0.7020  0.0038 -0.1154
  638MPD2    C1 9443   2.325   2.903  14.838  0.4403 -0.0125 -0.3171
  638MPD2    C2 9444   2.292   2.778  14.892  0.6141 -0.3803 -0.4734
  638MPD2    C3 9445   2.250   2.764  15.027  0.1594  0.0681  0.5193
  638MPD2    C4 9446   2.243   2.879  15.101 -0.2923 -1.1276 -0.4506
  638MPD2    C5 9447   2.278   2.999  15.050 -0.0285  0.3701 -0.2880
  638MPD2     H 9448   2.299   2.686  14.834  0.7752  0.6189 -2.0254
  638MPD2    H1 9449   2.208   2.882  15.204  0.5458  1.9166 -0.2724
  638MPD2    H2 9450   2.350   3.105  14.882  2.0950 -0.2130  1.4360
  638MPD2    H3 9451   2.281   3.089  15.110 -0.0496  0.7469 -0.8599
  638MPD2     N 9452   2.221   2.640  15.081  0.3673  0.9126 -0.3097
  638MPD2    H5 9453   2.217   2.566  15.012  0.6976  0.1351  0.5074
  638MPD2    N1 9454   2.363   2.908  14.703 -0.5144 -0.2251  0.8990
  638MPD2    H7 9455   2.389   3.003  14.680 -0.2958 -0.3385  0.6727
  639TMC3    C1 9456   2.217   2.471  15.229 -0.2848 -0.2426 -0.5921
  639TMC3    C2 9457   2.123   2.417  15.155 -0.6631  0.1868 -0.6368
  639TMC3    C3 9458   2.147   2.296  15.101 -0.2595  0.2776 -0.4443
  639TMC3    C4 9459   2.342   2.407  15.251 -0.1169  0.2594  0.1850
  639TMC3    C5 9460   2.361   2.281  15.199 -0.3846 -0.2361  0.0821
  639TMC3    C6 9461   2.260   2.223  15.124 -0.4613  0.5093 -0.5570
  639TMC3     C 9462   2.233   2.609  15.215 -0.1458 -0.1268 -0.0216
  639TMC3     O 9463   2.271   2.681  15.308 -0.2776  0.7223 -0.5671
  639TMC3     H 9464   2.032   2.471  15.129 -0.4156  0.9934  0.1395
  639TMC3    H1 9465   2.414   2.458  15.315 -2.0625  0.6101  2.1022
  639TMC3    H2 9466   2.280   2.131  15.069 -0.4117 -0.0328  0.3695
  639TMC3    C7 9467   2.492   2.233  15.170  0.2446  0.5658  0.3777
  639TMC3    C8 9468   2.056   2.229  15.009  0.8955 -0.0956  0.2369
  639TMC3    O1 9469   2.502   2.137  15.096 -0.3434 -0.2766  0.1111
  639TMC3    O2 9470   2.118   2.197  14.905  0.1648  0.4535 -0.2828
  640MPD2     C 9471   2.517   1.120   9.985 -0.1867  0.8546  0.5958
  640MPD2    C1 9472   2.436   1.112   9.877  0.4162 -0.9905  0.0267
  640MPD2    C2 9473   2.339   1.204   9.857  0.2201 -0.6009 -0.0789
  640MPD2    C3 9474   2.326   1.313   9.939  0.2435  0.7739 -0.3322
  640MPD2    C4 9475   2.410   1.317  10.050  0.3464  0.5266 -0.5844
  640MPD2    C5 9476   2.495   1.214  10.073 -0.0351 -0.5172 -0.8131
  640MPD2     H 9477   2.265   1.187   9.778 -0.4186 -0.3765  0.4712
  640MPD2    H1 9478   2.421   1.392  10.128  0.5150 -1.6174  1.4492
  640MPD2    H2 9479   2.589   1.042  10.007 -0.6737  0.3437  0.3663
  640MPD2    H3 9480   2.563   1.215  10.158 -0.3235 -1.7073 -0.5758
  640MPD2     N 9481   2.236   1.413   9.902  0.1490 -0.1311  0.1890
  640MPD2    H5 9482   2.183   1.407   9.816  0.2838 -1.2115  0.1795
  640MPD2    N1 9483   2.465   1.005   9.793 -0.1443  0.1825 -0.2661
  640MPD2    H7 9484   2.539   0.942   9.823 -0.9620 -1.2503 -1.2376
  641TMC3    C1 9485   2.440   0.849   9.619  0.8297  0.2625  0.6502
  641TMC3    C2 9486   2.490   0.751   9.700  0.6587  0.0656  0.2018
  641TMC3    C3 9487   2.525   0.638   9.636  0.7869 -0.0974  0.3232
  641TMC3    C4 9488   2.430   0.834   9.480 -0.0979  0.1017  0.7520
  641TMC3    C5 9489   2.475   0.720   9.421 -0.7067  0.5233  1.1212
  641TMC3    C6 9490   2.531   0.620   9.500  0.6679 -0.0624  0.3442
  641TMC3     C 9491   2.404   0.980   9.672  0.4697  0.0544  0.6130
  641TMC3     O 9492   2.320   1.049   9.615  0.8686  0.4422 -0.2374
  641TMC3     H 9493   2.502   0.762   9.807  1.8074  3.3724 -0.2881
  641TMC3    H1 9494   2.392   0.919   9.424  0.7153  1.0932  1.7031
  641TMC3    H2 9495   2.552   0.527   9.449  1.4428  0.3047 -0.0026
  641TMC3    C7 9496   2.458   0.697   9.274 -0.1048  0.1056 -0.3536
  641TMC3    C8 9497   2.555   0.520   9.716  0.1732  0.0899  0.7755
  641TMC3    O1 9498   2.414   0.798   9.218  0.1565 -0.2174  0.4346
  641TMC3    O2 9499   2.612   0.424   9.660 -0.2961  0.5764  0.0656
  642TMC3    C1 9500   4.069   2.433  11.972  0.1274 -0.6998  0.0554
  642TMC3    C2 9501   4.199   2.424  11.996  0.1595  0.1474  0.6070
  642TMC3    C3 9502   4.258   2.300  11.986 -0.0949  0.1679 -0.0438
  642TMC3    C4 9503   3.992   2.325  11.935 -0.7075  0.0237  0.1415
  642TMC3    C5 9504   4.050   2.198  11.917 -0.2969  0.2534  0.1653
  642TMC3    C6 9505   4.187   2.187  11.950  0.5719 -0.2233  0.0690
  642TMC3     C 9506   4.014   2.573  11.974  0.3755 -0.4369 -0.7730
  642TMC3     O 9507   4.079   2.661  11.922 -0.8952 -0.2464 -0.0915
  642TMC3     H 9508   4.263   2.512  11.995 -0.8067  0.9056  3.3737
  642TMC3    H1 9509   3.897   2.344  11.886 -1.9292  2.3116  3.3789
  642TMC3    H2 9510   4.235   2.091  11.938 -0.1396 -0.6168  0.3707
  642TMC3    C7 9511   3.979   2.091  11.857 -0.0474  0.0550 -0.0367
  642TMC3    C8 9512   4.384   2.271  12.052 -1.0487  0.1733 -0.8077
  642TMC3    O1 9513   4.038   2.026  11.772 -0.8166 -0.0139 -0.4744
  642TMC3    O2 9514   4.434   2.161  12.039 -0.6091 -0.3002  0.2723
  643TMC3    C1 9515   2.968   2.689   0.568 -0.4705 -0.3812 -0.2857
  643TMC3    C2 9516   2.832   2.711   0.582 -0.0794 -0.3036  0.0710
  643TMC3    C3 9517   2.745   2.611   0.544 -0.2513  0.3029 -0.6380
  643TMC3    C4 9518   3.020   2.580   0.517 -0.0522 -0.1185 -0.1126
  643TMC3    C5 9519   2.933   2.485   0.479 -0.5442  1.0891 -0.4334
  643TMC3    C6 9520   2.800   2.496   0.506 -0.4863 -0.4063 -0.5878
  643TMC3     C 9521   3.026   2.823   0.522  0.0823 -0.3838 -0.2856
  643TMC3     O 9522   2.962   2.880   0.438  0.2484  0.0779  0.9103
  643TMC3     H 9523   2.797   2.808   0.614  0.1187 -0.6982  1.4898
  643TMC3    H1 9524   3.124   2.573   0.485 -0.1002  1.4890 -0.5875
  643TMC3    H2 9525   2.736   2.412   0.482 -1.5258  0.2803 -0.1674
  643TMC3    C7 9526   2.972   2.427   0.353  1.1683  0.6598 -0.3015
  643TMC3    C8 9527   2.638   2.635   0.453 -0.6606 -0.5804  0.0638
  643TMC3    O1 9528   3.087   2.423   0.318  0.5663 -0.5583 -0.2038
  643TMC3    O2 9529   2.589   2.537   0.400 -0.0046 -0.0692 -0.1524
  644MPD2     C 9530   2.859   0.945   9.620 -0.2876  0.1212 -0.4847
  644MPD2    C1 9531   2.812   0.906   9.497  0.3902 -0.3019 -0.0723
  644MPD2    C2 9532   2.749   0.995   9.415 -0.4809 -0.3526 -0.3528
  644MPD2    C3 9533   2.726   1.125   9.466 -0.4219  0.4223  0.6644
  644MPD2    C4 9534   2.763   1.155   9.592  0.4249  0.4949  0.2834
  644MPD2    C5 9535   2.839   1.071   9.664 -0.1843 -0.5030  0.2511
  644MPD2     H 9536   2.709   0.968   9.318  0.5934 -0.4958 -0.7643
  644MPD2    H1 9537   2.735   1.252   9.633 -1.5041  0.0919 -0.0879
  644MPD2    H2 9538   2.912   0.878   9.687 -2.9762  0.8040  2.3309
  644MPD2    H3 9539   2.851   1.096   9.769 -1.6647 -1.0434  0.5530
  644MPD2     N 9540   2.648   1.209   9.384 -0.0973  0.3007 -0.0576
  644MPD2    H5 9541   2.604   1.168   9.302  0.8161  1.4558 -1.1234
  644MPD2    N1 9542   2.832   0.768   9.458  0.4163  0.2415  0.3311
  644MPD2    H7 9543   2.889   0.713   9.522 -0.5389  0.7313  1.6121
  645TMC3    C1 9544   2.545   1.397   9.295  0.8082 -0.5326  0.8871
  645TMC3    C2 9545   2.431   1.321   9.279  0.2755 -0.4466  0.1155
  645TMC3    C3 9546   2.331   1.383   9.213  0.5758 -0.1880  0.4004
  645TMC3    C4 9547   2.553   1.531   9.264 -0.1262 -0.0105  0.6034
  645TMC3    C5 9548   2.443   1.593   9.204  0.8273  0.8591  0.0842
  645TMC3    C6 9549   2.338   1.517   9.166  0.5905 -0.3773 -1.0330
  645TMC3     C 9550   2.640   1.348   9.394 -0.1019  0.3133 -1.3962
  645TMC3     O 9551   2.719   1.420   9.453 -0.6272 -0.1146  0.6295
  645TMC3     H 9552   2.421   1.219   9.317 -2.0344 -0.3021 -0.0893
  645TMC3    H1 9553   2.641   1.585   9.296  1.2189 -1.6126 -0.3999
  645TMC3    H2 9554   2.267   1.550   9.090  0.6382  1.6281 -0.2145
  645TMC3    C7 9555   2.455   1.732   9.172 -0.4693  0.1332  0.1940
  645TMC3    C8 9556   2.217   1.302   9.169 -0.1474  0.9730 -0.0418
  645TMC3    O1 9557   2.558   1.792   9.201 -0.0739  0.4413  0.0792
  645TMC3    O2 9558   2.111   1.365   9.155 -0.3754 -0.0644 -0.5953
  646MPD2     C 9559   2.347   1.615  14.273 -0.3401 -0.6944  0.2126
  646MPD2    C1 9560   2.293   1.633  14.401 -0.2458  0.7189 -0.0155
  646MPD2    C2 9561   2.188   1.714  14.415 -0.1795 -0.4125  0.0863
  646MPD2    C3 9562   2.128   1.764  14.298  0.0006 -0.6834 -0.3383
  646MPD2    C4 9563   2.167   1.743  14.172 -0.1943  0.0860  0.1199
  646MPD2    C5 9564   2.282   1.666  14.165  0.4286  0.2374 -0.0252
  646MPD2     H 9565   2.151   1.739  14.514  0.7496  2.9952 -0.4088
  646MPD2    H1 9566   2.112   1.782  14.087  0.6974  1.6491  0.2547
  646MPD2    H2 9567   2.435   1.558  14.245  1.5092  2.1245  0.2784
  646MPD2    H3 9568   2.325   1.660  14.065  4.0928  3.0180  1.3962
  646MPD2     N 9569   2.014   1.843  14.325  0.7606 -0.3702 -0.9552
  646MPD2    H5 9570   2.006   1.875  14.421 -2.4350 -2.6044 -0.4680
  646MPD2    N1 9571   2.361   1.572  14.510 -0.1239  0.1759  0.0822
  646MPD2    H7 9572   2.439   1.514  14.481 -2.0743 -1.4512 -1.9358
  647TMC3    C1 9573   2.401   1.467  14.725  0.2927  0.6252 -0.2500
  647TMC3    C2 9574   2.358   1.470  14.857 -0.0808 -0.2921  0.1142
  647TMC3    C3 9575   2.425   1.389  14.936  0.9261 -0.0076 -0.2309
  647TMC3    C4 9576   2.503   1.388  14.675 -0.0036 -1.0294 -0.4630
  647TMC3    C5 9577   2.581   1.330  14.771  0.7146 -0.4757  0.4946
  647TMC3    C6 9578   2.545   1.328  14.900 -0.1733 -0.0384 -0.1444
  647TMC3     C 9579   2.319   1.562  14.642 -0.6326  0.1911  0.0486
  647TMC3     O 9580   2.220   1.611  14.694 -0.3085 -0.3500 -0.1569
  647TMC3     H 9581   2.265   1.515  14.889 -0.9963 -2.9157  1.1175
  647TMC3    H1 9582   2.523   1.382  14.569  1.0766  1.2063 -0.3833
  647TMC3    H2 9583   2.605   1.272  14.971  0.0490  3.0761  2.1108
  647TMC3    C7 9584   2.693   1.241  14.740 -0.4046  0.2870 -0.5299
  647TMC3    C8 9585   2.364   1.339  15.057  0.1107 -0.0539 -0.7153
  647TMC3    O1 9586   2.761   1.206  14.832  0.2424 -0.1074  0.2826
  647TMC3    O2 9587   2.297   1.422  15.115  0.5770  0.4227  0.2399
  648TMC3    C1 9588   1.818   3.790  15.767  0.1517 -1.1021 -0.1617
  648TMC3    C2 9589   1.886   3.694  15.712  0.1050 -0.5754  0.4820
  648TMC3    C3 9590   1.922   3.705  15.579  0.0478  0.3476 -0.7440
  648TMC3    C4 9591   1.799   3.909  15.707 -0.4290 -0.9861  0.3516
  648TMC3    C5 9592   1.839   3.927  15.573 -0.2275  0.0736 -0.2411
  648TMC3    C6 9593   1.896   3.822  15.505 -0.6293 -0.1938  0.2549
  648TMC3     C 9594   1.778   3.794  15.906  0.0323 -0.6629  0.0789
  648TMC3     O 9595   1.810   3.895  15.971  0.1403  0.0274 -0.3944
  648TMC3     H 9596   1.918   3.604  15.765 -1.6119 -1.9945 -0.8789
  648TMC3    H1 9597   1.721   3.965  15.757  0.6699  1.2889 -0.4744
  648TMC3    H2 9598   1.930   3.830  15.402 -0.3929 -2.1047  0.1731
  648TMC3    C7 9599   1.743   4.010  15.500 -0.6968  0.5403 -0.6809
  648TMC3    C8 9600   1.988   3.595  15.503 -0.1869  0.3108  0.6413
  648TMC3    O1 9601   1.726   3.987  15.380  0.2718  0.0760  0.4008
  648TMC3    O2 9602   2.053   3.625  15.404  0.4850 -0.6310 -0.7517
  649TMC3    C1 9603   1.217   4.390  12.182 -0.7842 -0.0620 -0.2234
  649TMC3    C2 9604   1.337   4.329  12.210 -0.2006  0.8151  0.4550
  649TMC3    C3 9605   1.360   4.307  12.340  0.3922 -0.1060 -0.0676
  649TMC3    C4 9606   1.138   4.440  12.280 -0.3249  0.0230 -0.7337
  649TMC3    C5 9607   1.170   4.419  12.413 -0.6552  0.1757  0.1860
  649TMC3    C6 9608   1.277   4.346  12.447  0.2419 -0.3046  0.0760
  649TMC3     C 9609   1.198   4.452  12.046  0.6788 -0.5137 -0.9289
  649TMC3     O 9610   1.117   4.542  12.031  0.3081 -0.6805  0.5092
  649TMC3     H 9611   1.414   4.306  12.138 -1.3356  0.5111 -0.6733
  649TMC3    H1 9612   1.046   4.491  12.252 -0.6331 -0.1653 -0.0558
  649TMC3    H2 9613   1.321   4.342  12.546  2.4014  0.2572 -0.8623
  649TMC3    C7 9614   1.080   4.451  12.520 -0.2388 -0.5551  0.2147
  649TMC3    C8 9615   1.482   4.233  12.380  0.8367  0.9483 -0.2116
  649TMC3    O1 9616   1.117   4.488  12.627  0.2252  0.0444 -0.2751
  649TMC3    O2 9617   1.473   4.171  12.485 -0.9099 -0.2917 -0.2063
  650TMC3    C1 9618   3.398   1.583  12.711 -0.2104 -0.9161 -0.0740
  650TMC3    C2 9619   3.358   1.717  12.717 -0.0907  0.2280 -0.6687
  650TMC3    C3 9620   3.374   1.797  12.608  0.2057  0.6156  0.5362
  650TMC3    C4 9621   3.456   1.529  12.602 -0.2980 -0.5621  1.1478
  650TMC3    C5 9622   3.487   1.614  12.500  0.7750  0.2437  0.2795
  650TMC3    C6 9623   3.458   1.748  12.504  0.0895 -0.3310  0.3780
  650TMC3     C 9624   3.375   1.505  12.825  0.0053 -0.3413 -0.4186
  650TMC3     O 9625   3.351   1.565  12.928  0.4681 -0.0623  0.0024
  650TMC3     H 9626   3.309   1.755  12.806  0.2691 -1.8525  0.4275
  650TMC3    H1 9627   3.497   1.429  12.610 -0.6625 -0.8386 -0.4096
  650TMC3    H2 9628   3.483   1.814  12.422 -1.6425 -0.4618 -0.2575
  650TMC3    C7 9629   3.466   1.539  12.377 -0.0273 -0.0487 -0.2055
  650TMC3    C8 9630   3.328   1.933  12.605  0.2598 -0.0191 -0.3133
  650TMC3    O1 9631   3.465   1.419  12.379 -0.6237  0.2173  0.3045
  650TMC3    O2 9632   3.401   2.006  12.533 -0.0519 -0.1574 -0.8614
  651MPD2     C 9633   2.327   2.282  10.769  0.5782 -0.2844 -0.0354
  651MPD2    C1 9634   2.242   2.390  10.766 -0.0275  0.0019 -0.1278
  651MPD2    C2 9635   2.282   2.521  10.737 -0.0070  0.0737  0.3625
  651MPD2    C3 9636   2.418   2.536  10.736 -0.1576  0.2678 -0.3979
  651MPD2    C4 9637   2.505   2.428  10.727 -0.1815  0.4262 -0.0616
  651MPD2    C5 9638   2.455   2.303  10.737  0.2742  0.2321 -0.6130
  651MPD2     H 9639   2.216   2.606  10.721  2.8975  2.4418  1.0806
  651MPD2    H1 9640   2.613   2.432  10.716 -0.1781  0.0725 -0.1622
  651MPD2    H2 9641   2.298   2.179  10.785 -1.8511  0.4016 -0.0496
  651MPD2    H3 9642   2.518   2.216  10.748  0.4759  0.3330 -0.9826
  651MPD2     N 9643   2.467   2.662  10.701 -0.0206  0.1446  0.0304
  651MPD2    H5 9644   2.405   2.740  10.685 -0.9391 -0.6083 -0.0439
  651MPD2    N1 9645   2.099   2.377  10.769 -0.6360 -0.3029  0.0040
  651MPD2    H7 9646   2.040   2.459  10.762  1.2878  1.0957  0.3798
  652TMC3    C1 9647   2.752   3.035  10.672  0.3963  0.4127 -0.3541
  652TMC3    C2 9648   2.728   2.905  10.715  0.2428 -0.6345 -0.5982
  652TMC3    C3 9649   2.632   2.833  10.648 -1.0479 -0.4803  0.0971
  652TMC3    C4 9650   2.673   3.097  10.580  0.2551  0.0235  0.9528
  652TMC3    C5 9651   2.583   3.021  10.512 -0.7056  0.3677  0.1371
  652TMC3    C6 9652   2.564   2.888  10.545  0.4613 -0.9056  0.1684
  652TMC3     C 9653   2.862   3.101  10.727 -0.4451 -1.2724 -0.3306
  652TMC3     O 9654   2.912   3.044  10.827  0.7312  0.4539  0.3200
  652TMC3     H 9655   2.783   2.858  10.796  0.0502 -1.2425 -0.8226
  652TMC3    H1 9656   2.688   3.201  10.554  0.5881 -0.3803 -0.4670
  652TMC3    H2 9657   2.496   2.823  10.490 -0.9671  2.4625 -2.0414
  652TMC3    C7 9658   2.524   3.058  10.387 -0.2241  0.7488 -0.7550
  652TMC3    C8 9659   2.604   2.702  10.709  0.0645 -0.6800  0.4536
  652TMC3    O1 9660   2.496   2.969  10.308 -0.3886  0.0881  0.6622
  652TMC3    O2 9661   2.697   2.637  10.758 -0.2367  0.0489  0.5891
  653MPD2     C 9662   0.777   3.823  17.224 -0.5972  0.5856  0.8920
  653MPD2    C1 9663   0.686   3.923  17.217  0.2053 -0.3375 -0.2301
  653MPD2    C2 9664   0.560   3.896  17.159 -0.2845 -0.1723 -0.6822
  653MPD2    C3 9665   0.523   3.761  17.158 -0.3535  0.5201 -0.1166
  653MPD2    C4 9666   0.612   3.661  17.185 -1.1220 -0.8528  0.6559
  653MPD2    C5 9667   0.739   3.694  17.226 -0.2624 -0.5497  0.1402
  653MPD2     H 9668   0.480   3.968  17.149  1.6276  1.7540 -1.9489
  653MPD2    H1 9669   0.588   3.556  17.172 -0.2237 -0.8064 -1.4744
  653MPD2    H2 9670   0.882   3.844  17.242 -0.2901  0.7419 -1.1053
  653MPD2    H3 9671   0.812   3.617  17.250  1.1034  0.5269 -0.5638
  653MPD2     N 9672   0.389   3.736  17.129 -0.6604 -0.0043 -0.0252
  653MPD2    H5 9673   0.340   3.813  17.086  0.7433  1.0053  0.1764
  653MPD2    N1 9674   0.717   4.054  17.251 -0.1886 -0.0187  1.1877
  653MPD2    H7 9675   0.655   4.124  17.212  1.0373 -1.5907 -3.6191
  654TMC3    C1 9676   0.216   3.592  17.070 -0.6414 -0.0168 -0.1244
  654TMC3    C2 9677   0.171   3.679  16.973 -0.8607  0.3662 -0.1838
  654TMC3    C3 9678   0.110   3.634  16.859 -0.6058  0.2157  0.2963
  654TMC3    C4 9679   0.198   3.458  17.052  1.0315  0.5009  0.5366
  654TMC3    C5 9680   0.143   3.417  16.935  0.5585 -0.4045 -0.5201
  654TMC3    C6 9681   0.099   3.503  16.835  0.4547  0.2442 -0.1962
  654TMC3     C 9682   0.318   3.628  17.164  0.3223  0.0335  0.1902
  654TMC3     O 9683   0.347   3.536  17.242  0.0920  0.5199 -0.8910
  654TMC3     H 9684   0.175   3.786  16.989 -0.0251  0.3723 -0.4605
  654TMC3    H1 9685   0.219   3.391  17.134  3.6160  1.1646  0.4513
  654TMC3    H2 9686   0.072   3.464  16.738  2.6272 -0.8573 -0.3531
  654TMC3    C7 9687   0.159   3.282  16.887  0.2938  0.4837  0.7123
  654TMC3    C8 9688   0.020   3.728  16.800  0.0777  0.5514  0.5798
  654TMC3    O1 9689   0.083   3.245  16.801  0.2756  0.0851  0.0996
  654TMC3    O2 9690   0.025   3.842  16.843 -0.0286 -0.0432 -0.1855
  655MPD2     C 9691   2.276   4.148  15.385 -0.3528  0.2271  0.3721
  655MPD2    C1 9692   2.180   4.246  15.388 -0.1637 -0.2463 -0.5676
  655MPD2    C2 9693   2.116   4.288  15.266  0.4574  1.2725 -0.3219
  655MPD2    C3 9694   2.148   4.227  15.142  0.2012 -0.1211  0.5628
  655MPD2    C4 9695   2.249   4.134  15.148 -0.0094  0.4181  0.5208
  655MPD2    C5 9696   2.310   4.097  15.265 -1.2066 -0.2669 -0.6745
  655MPD2     H 9697   2.038   4.361  15.278  0.4829  1.3325 -0.5290
  655MPD2    H1 9698   2.289   4.086  15.059  1.3635 -0.5004  1.6402
  655MPD2    H2 9699   2.337   4.125  15.471 -0.5350 -0.3135  0.3536
  655MPD2    H3 9700   2.390   4.025  15.265 -1.4515 -0.5330  0.5709
  655MPD2     N 9701   2.082   4.249  15.022 -0.2426  0.1792  0.1514
  655MPD2    H5 9702   2.112   4.185  14.949 -0.8178  0.1611 -0.0693
  655MPD2    N1 9703   2.138   4.307  15.507 -0.2415  0.1585  0.4566
  655MPD2    H7 9704   2.073   4.384  15.496  0.3539  0.7184  0.8066
  656TMC3    C1 9705   2.097   4.351  15.724 -0.2375 -0.2604  0.5547
  656TMC3    C2 9706   1.999   4.289  15.798  0.2573  0.0953  0.0412
  656TMC3    C3 9707   1.891   4.361  15.848 -0.3818  0.2706 -0.7574
  656TMC3    C4 9708   2.072   4.478  15.675 -0.3569 -0.1680  0.6025
  656TMC3    C5 9709   1.941   4.523  15.685  0.3552  0.8450  0.4050
  656TMC3    C6 9710   1.865   4.477  15.782 -0.0151 -0.0633 -0.3831
  656TMC3     C 9711   2.162   4.261  15.633  0.1812  0.2178  0.2610
  656TMC3     O 9712   2.211   4.157  15.674 -0.8490  0.5551 -0.3316
  656TMC3     H 9713   2.008   4.185  15.825  1.6324  0.0465 -0.6399
  656TMC3    H1 9714   2.146   4.532  15.616  1.7689 -0.3649  3.0458
  656TMC3    H2 9715   1.776   4.535  15.804  1.5432  1.8041  1.0320
  656TMC3    C7 9716   1.877   4.555  15.561 -0.5504  0.5334  0.5930
  656TMC3    C8 9717   1.777   4.285  15.888  0.3700 -0.5772  0.3054
  656TMC3    O1 9718   1.947   4.530  15.464  0.3998 -0.0901  0.2655
  656TMC3    O2 9719   1.762   4.176  15.838  0.1404  0.0736  0.4029
  657TMC3    C1 9720   1.336   3.619  14.580 -0.0736 -0.5673 -0.0427
  657TMC3    C2 9721   1.298   3.736  14.531 -0.3285 -0.7504  0.3378
  657TMC3    C3 9722   1.365   3.850  14.557 -0.0582  0.1277  0.6998
  657TMC3    C4 9723   1.456   3.599  14.651 -0.1246 -0.0777  0.3999
  657TMC3    C5 9724   1.523   3.720  14.663  0.0171  0.1473 -0.4445
  657TMC3    C6 9725   1.484   3.842  14.620  0.0692  0.6811  0.1298
  657TMC3     C 9726   1.259   3.501  14.538 -0.6114 -0.1035 -0.4935
  657TMC3     O 9727   1.190   3.517  14.437  0.1046  0.6933 -0.3112
  657TMC3     H 9728   1.204   3.742  14.476 -0.5751 -2.0378  0.6106
  657TMC3    H1 9729   1.489   3.510  14.703  0.1789  1.4146  2.7489
  657TMC3    H2 9730   1.533   3.934  14.647  1.6654  0.1468 -0.9551
  657TMC3    C7 9731   1.643   3.711  14.743  0.4203  0.2473 -0.3086
  657TMC3    C8 9732   1.366   3.953  14.457  0.1738 -0.3512 -0.0947
  657TMC3    O1 9733   1.701   3.602  14.725 -0.5626  0.4730  0.5836
  657TMC3    O2 9734   1.387   4.072  14.491  0.1540 -0.5555 -0.1538
  658MPD2     C 9735   2.286   3.994  14.610 -0.3745  0.6608  0.2695
  658MPD2    C1 9736   2.165   3.999  14.541 -0.7180 -0.5896 -0.2390
  658MPD2    C2 9737   2.151   3.955  14.410 -0.1036 -0.1078 -0.2846
  658MPD2    C3 9738   2.263   3.903  14.342  0.0472 -0.2206 -0.4951
  658MPD2    C4 9739   2.380   3.882  14.416 -0.1683 -0.3161 -0.6669
  658MPD2    C5 9740   2.390   3.940  14.543 -0.1871  0.4660  0.8024
  658MPD2     H 9741   2.051   3.956  14.366 -0.1485  2.2451 -0.1672
  658MPD2    H1 9742   2.466   3.833  14.372 -0.0753 -0.4470 -0.3423
  658MPD2    H2 9743   2.300   4.041  14.707  0.3031 -0.5467  0.7707
  658MPD2    H3 9744   2.488   3.942  14.588  0.6078 -0.7292 -0.8782
  658MPD2     N 9745   2.242   3.868  14.206 -0.4562 -0.0343 -0.0804
  658MPD2    H5 9746   2.144   3.870  14.180 -1.0732  0.6871  2.2841
  658MPD2    N1 9747   2.063   4.053  14.621 -0.1242  0.5262 -0.5970
  658MPD2    H7 9748   2.093   4.070  14.717  1.6301 -2.7036 -0.5801
  659TMC3    C1 9749   1.883   4.173  14.694 -0.5222 -0.4073  0.2592
  659TMC3    C2 9750   1.971   4.237  14.780 -0.1425 -0.1585 -0.4401
  659TMC3    C3 9751   1.904   4.309  14.878 -0.5287 -0.6125  0.2896
  659TMC3    C4 9752   1.745   4.165  14.707  0.0461 -0.8611  0.1966
  659TMC3    C5 9753   1.686   4.242  14.802  0.1212  0.1770 -0.0565
  659TMC3    C6 9754   1.766   4.313  14.892  0.3128 -0.1415 -0.5728
  659TMC3     C 9755   1.937   4.093  14.582 -0.5220 -0.6290 -0.1367
  659TMC3     O 9756   1.872   4.071  14.481 -0.1860 -0.2052 -0.3324
  659TMC3     H 9757   2.076   4.250  14.761  0.3228 -1.9809  0.8585
  659TMC3    H1 9758   1.687   4.110  14.633 -1.2379  0.3500  0.3028
  659TMC3    H2 9759   1.722   4.362  14.978 -0.9914  0.6107 -1.6658
  659TMC3    C7 9760   1.552   4.196  14.847  0.1094  0.5280 -0.2636
  659TMC3    C8 9761   1.977   4.335  14.997 -0.0773  0.3986 -0.2069
  659TMC3    O1 9762   1.534   4.075  14.828 -0.3192 -0.0159 -0.2476
  659TMC3    O2 9763   1.928   4.417  15.077  0.1343 -0.4838 -0.5081
  660MPD2     C 9764   0.433   2.415  12.670  0.5690  0.4186  0.5177
  660MPD2    C1 9765   0.382   2.307  12.604  0.6802 -0.6447  0.1540
  660MPD2    C2 9766   0.301   2.218  12.674 -0.4613 -0.1972  0.7865
  660MPD2    C3 9767   0.289   2.229  12.810 -0.1532 -0.8141 -0.3513
  660MPD2    C4 9768   0.359   2.325  12.877 -1.0538  0.4001 -0.1723
  660MPD2    C5 9769   0.429   2.426  12.810 -0.2099  0.3898  0.3812
  660MPD2     H 9770   0.254   2.140  12.615 -0.7564  0.7969 -0.3040
  660MPD2    H1 9771   0.353   2.330  12.985  4.1903  0.4814  0.1283
  660MPD2    H2 9772   0.508   2.478  12.623 -0.9361  0.0794 -2.3743
  660MPD2    H3 9773   0.472   2.513  12.858 -1.3995  0.0071  2.1344
  660MPD2     N 9774   0.215   2.131  12.881  0.8926  0.1016  0.2511
  660MPD2    H5 9775   0.234   2.121  12.981  1.6610 -0.3437  0.0606
  660MPD2    N1 9776   0.392   2.306  12.462  0.4507  0.4221 -0.1135
  660MPD2    H7 9777   0.422   2.393  12.418  0.9262  0.9280  1.2227
  661TMC3    C1 9778   0.347   2.239  12.239  0.3774 -0.6479 -0.3123
  661TMC3    C2 9779   0.371   2.132  12.154  0.0740  0.0559 -0.2736
  661TMC3    C3 9780   0.350   2.162  12.016 -0.5667  0.6849  0.0008
  661TMC3    C4 9781   0.306   2.369  12.205  0.6954  0.1344  0.5538
  661TMC3    C5 9782   0.270   2.374  12.079 -0.5746 -0.2446 -0.3011
  661TMC3    C6 9783   0.302   2.286  11.981 -0.3756  0.1854 -0.2584
  661TMC3     C 9784   0.351   2.202  12.380 -0.4775 -0.1557 -0.5633
  661TMC3     O 9785   0.310   2.088  12.409 -0.3026 -0.6160  0.5527
  661TMC3     H 9786   0.408   2.040  12.197  0.7430  0.7765  0.7075
  661TMC3    H1 9787   0.276   2.448  12.274  1.2532 -1.0819  2.1724
  661TMC3    H2 9788   0.266   2.297  11.879  0.9690  1.4999 -0.5899
  661TMC3    C7 9789   0.170   2.472  12.054  0.1993 -0.7168 -0.0139
  661TMC3    C8 9790   0.349   2.054  11.923  0.4230 -0.7494  0.3810
  661TMC3    O1 9791   0.177   2.577  12.117 -0.2214  0.5504 -0.1343
  661TMC3    O2 9792   0.345   1.942  11.971  0.5183  0.3636 -0.2689
  662MPD2     C 9793   0.172   2.467   0.838  0.3237 -0.3800  0.5353
  662MPD2    C1 9794   0.186   2.511   0.703  0.2082  0.1658  0.1173
  662MPD2    C2 9795   0.146   2.636   0.668  0.3764  0.0677 -0.4914
  662MPD2    C3 9796   0.091   2.713   0.764  0.1152  0.1152  0.4043
  662MPD2    C4 9797   0.073   2.670   0.895 -0.0806 -0.6212 -0.1647
  662MPD2    C5 9798   0.102   2.542   0.931  0.1249 -0.1122 -0.1319
  662MPD2     H 9799   0.162   2.681   0.571  2.8642 -0.6730 -0.4202
  662MPD2    H1 9800   0.036   2.738   0.970 -1.1830  1.0461 -2.2073
  662MPD2    H2 9801   0.210   2.372   0.876  1.8135 -0.1728 -0.4505
  662MPD2    H3 9802   0.101   2.507   1.034 -0.9540  1.7964  0.5020
  662MPD2     N 9803   0.036   2.830   0.710 -0.1887  0.4161 -0.4217
  662MPD2    H5 9804   0.055   2.840   0.611 -1.6256  1.0700 -0.6330
  662MPD2    N1 9805   0.238   2.431   0.599 -0.4051  1.0750  0.6643
  662MPD2    H7 9806   0.238   2.479   0.510 -0.2795 -1.7859 -0.8612
  663TMC3    C1 9807   0.330   2.242   0.476  0.1661  0.2303  0.3362
  663TMC3    C2 9808   0.323   2.336   0.372  0.6209  0.1650 -0.3588
  663TMC3    C3 9809   0.303   2.291   0.245 -0.1920  0.5223  0.5503
  663TMC3    C4 9810   0.313   2.105   0.458  0.8939 -0.0836  0.2827
  663TMC3    C5 9811   0.276   2.069   0.332  0.6077 -0.2322  0.5275
  663TMC3    C6 9812   0.275   2.155   0.226  0.9308 -0.2204 -0.5336
  663TMC3     C 9813   0.281   2.303   0.599 -0.0399  0.4912 -0.0525
  663TMC3     O 9814   0.265   2.221   0.688  0.4151  0.0179  0.3661
  663TMC3     H 9815   0.377   2.429   0.384 -0.5772  0.7465  0.4321
  663TMC3    H1 9816   0.298   2.037   0.541  0.9317  2.1278  2.1001
  663TMC3    H2 9817   0.210   2.139   0.140  0.2792 -0.0394 -0.0802
  663TMC3    C7 9818   0.180   1.958   0.330 -0.2193  0.3295 -0.1926
  663TMC3    C8 9819   0.215   2.381   0.170  0.4228  0.4654  0.3108
  663TMC3    O1 9820   0.123   1.941   0.437 -0.6349 -0.0766 -0.4769
  663TMC3    O2 9821   0.252   2.419   0.061 -0.0253 -0.1221 -0.0809
  664MPD2     C 9822   3.704   1.204  17.658  0.4418 -0.8757 -0.7370
  664MPD2    C1 9823   3.749   1.329   0.001 -0.4687 -0.1229 -0.1027
  664MPD2    C2 9824   3.677   1.400   0.100  0.0756 -0.5071 -0.1253
  664MPD2    C3 9825   3.582   1.341   0.178  0.4813 -0.0788 -0.1851
  664MPD2    C4 9826   3.539   1.217   0.138  0.4480 -0.0454  0.1719
  664MPD2    C5 9827   3.601   1.148   0.038 -0.2699  0.0752  0.3178
  664MPD2     H 9828   3.719   1.496   0.129 -3.5992  1.2563 -0.5311
  664MPD2    H1 9829   3.462   1.158   0.187 -1.2815  1.9296 -0.1780
  664MPD2    H2 9830   3.747   1.136  17.586  1.5978  0.7945 -1.6330
  664MPD2    H3 9831   3.573   1.048   0.006  2.2208 -0.9649  1.3247
  664MPD2     N 9832   3.538   1.396   0.300 -0.1078  0.3986  0.0275
  664MPD2    H5 9833   3.599   1.472   0.327  1.5556  0.0002 -2.6248
  664MPD2    N1 9834   3.869   1.384  17.647  0.6147  0.0550  0.2523
  664MPD2    H7 9835   3.889   1.482  17.667 -1.0291  0.1059  1.5898
  665TMC3    C1 9836   3.427   1.409   0.503 -0.1100  0.1642  0.7746
  665TMC3    C2 9837   3.385   1.336   0.617  0.0762  0.0529  0.5101
  665TMC3    C3 9838   3.421   1.380   0.741  0.5001 -0.6213  0.4586
  665TMC3    C4 9839   3.497   1.526   0.526  0.8574 -0.0023 -0.3389
  665TMC3    C5 9840   3.522   1.572   0.653  0.3949 -0.3486  0.1532
  665TMC3    C6 9841   3.489   1.497   0.764  0.9866  0.8132  0.0506
  665TMC3     C 9842   3.430   1.345   0.374  0.3549 -0.0873 -0.0362
  665TMC3     O 9843   3.379   1.229   0.369  0.1560  0.3135 -0.8616
  665TMC3     H 9844   3.342   1.237   0.607 -1.3915  0.5305  2.1266
  665TMC3    H1 9845   3.526   1.587   0.442 -0.6819  2.8849  1.2428
  665TMC3    H2 9846   3.492   1.536   0.865  0.2070 -3.8940  1.9135
  665TMC3    C7 9847   3.577   1.704   0.671  1.2953 -0.5399  0.5708
  665TMC3    C8 9848   3.355   1.317   0.850  0.2892  0.2132 -0.0274
  665TMC3    O1 9849   3.583   1.774   0.569  0.2893 -0.7886  0.1091
  665TMC3    O2 9850   3.417   1.327   0.957 -0.4794  0.0661  0.0036
  666TMC3    C1 9851   2.315   4.467   9.310  0.0810 -0.2785 -0.5702
  666TMC3    C2 9852   2.383   4.407   9.413  0.2957  0.3115  0.0438
  666TMC3    C3 9853   2.446   4.488   9.507 -0.3356 -0.0670 -0.0818
  666TMC3    C4 9854   2.296   4.603   9.302  0.1271  0.0551  0.3240
  666TMC3    C5 9855   2.357   4.681   9.399 -0.3132 -0.3068 -0.6327
  666TMC3    C6 9856   2.445   4.624   9.489  0.1503 -0.1430  0.0474
  666TMC3     C 9857   2.269   4.395   9.194  0.1647  0.3619 -0.1914
  666TMC3     O 9858   2.238   4.461   9.094 -0.3666 -0.1144  0.5933
  666TMC3     H 9859   2.384   4.299   9.422 -1.3968  0.4196  1.5955
  666TMC3    H1 9860   2.225   4.645   9.232 -0.7560 -1.1230  0.5081
  666TMC3    H2 9861   2.522   4.675   9.546 -0.0772  1.1337 -0.8104
  666TMC3    C7 9862   2.319   0.091   9.434 -0.1247 -0.0363  0.5460
  666TMC3    C8 9863   2.440   4.439   9.642  0.0220  0.5173 -0.3108
  666TMC3    O1 9864   2.332   0.121   9.552 -0.3403  0.2810  0.0893
  666TMC3    O2 9865   2.439   4.317   9.655 -0.0056  0.0243  0.5869
  667MPD2     C 9866   0.049   0.695  14.427 -1.0906  0.4069 -0.3314
  667MPD2    C1 9867   4.659   0.721  14.504  0.2871  1.0093  0.4966
  667MPD2    C2 9868   4.556   0.628  14.511 -0.5544  0.8675 -0.1608
  667MPD2    C3 9869   4.561   0.515  14.431 -0.3381  0.0291 -0.4630
  667MPD2    C4 9870   4.675   0.487  14.357 -0.6512 -0.2899 -0.2079
  667MPD2    C5 9871   0.055   0.576  14.356  0.2257  0.6335  0.7468
  667MPD2     H 9872   4.468   0.636  14.574  0.9867  1.2140  1.9223
  667MPD2    H1 9873   4.685   0.397  14.297  1.5989 -0.5999  0.6082
  667MPD2    H2 9874   0.143   0.748  14.429 -0.6891 -0.1264 -3.6312
  667MPD2    H3 9875   0.146   0.559  14.300 -0.9381 -1.7656 -0.3820
  667MPD2     N 9876   4.449   0.430  14.414  0.4873 -0.9810  0.0304
  667MPD2    H5 9877   4.467   0.341  14.368  0.3964 -1.6858  1.3362
  667MPD2    N1 9878   4.650   0.832  14.586 -0.7243  0.1078  0.0243
  667MPD2    H7 9879   4.580   0.825  14.659 -0.3799  0.5512  0.3973
  668TMC3    C1 9880   0.041   0.998  14.716 -0.0275  0.4548 -0.6366
  668TMC3    C2 9881   0.087   1.124  14.726  0.9183 -0.0861  0.5044
  668TMC3    C3 9882   0.102   1.160  14.857 -0.1532  0.1317 -0.5724
  668TMC3    C4 9883   0.035   0.908  14.818  0.1975 -0.0399 -0.1516
  668TMC3    C5 9884   0.063   0.946  14.945 -0.4324 -0.1076 -0.2746
  668TMC3    C6 9885   0.083   1.083  14.963 -0.2675 -0.4797  0.0445
  668TMC3     C 9886   0.002   0.944  14.584  0.0920 -0.0927 -0.1398
  668TMC3     O 9887   0.077   0.980  14.493  1.3115  0.0813 -0.0798
  668TMC3     H 9888   0.102   1.188  14.641 -1.6124 -0.8842 -0.5650
  668TMC3    H1 9889   0.024   0.802  14.796  2.2468 -0.6231  1.6135
  668TMC3    H2 9890   0.094   1.125  15.063  0.5090  0.0690 -0.2833
  668TMC3    C7 9891   0.019   0.877  15.064 -0.3854 -0.6518 -0.5054
  668TMC3    C8 9892   0.123   1.304  14.877  0.2530  0.2037  0.0208
  668TMC3    O1 9893   0.073   0.904  15.171 -0.0534  0.1930  0.2299
  668TMC3    O2 9894   0.168   1.341  14.987 -0.1649  0.0151 -0.2273
  669TMC3    C1 9895   1.944   0.536  14.493  0.3871 -0.2510  0.6290
  669TMC3    C2 9896   1.821   0.541  14.430 -0.2303 -0.1911 -0.4284
  669TMC3    C3 9897   1.805   0.638  14.335  0.0193  0.3648 -0.2347
  669TMC3    C4 9898   2.043   0.621  14.463 -0.9159 -0.6775 -0.5130
  669TMC3    C5 9899   2.012   0.719  14.368 -1.1582  1.0739 -0.3878
  669TMC3    C6 9900   1.894   0.737  14.306 -0.3030 -0.2346 -0.0810
  669TMC3     C 9901   1.946   0.451  14.619 -0.1686 -0.2582  0.7372
  669TMC3     O 9902   1.838   0.418  14.663 -0.1973  0.3195 -0.5944
  669TMC3     H 9903   1.749   0.464  14.457 -1.9106  1.1333 -1.1656
  669TMC3    H1 9904   2.145   0.608  14.499 -1.3269 -0.5114  0.7104
  669TMC3    H2 9905   1.865   0.815  14.236 -1.1670 -0.6347 -0.1627
  669TMC3    C7 9906   2.133   0.799  14.334 -0.2171 -0.3696 -0.3876
  669TMC3    C8 9907   1.703   0.611  14.233  1.0635  0.5106  0.6277
  669TMC3    O1 9908   2.226   0.802  14.411 -0.0497  0.4104 -0.0999
  669TMC3    O2 9909   1.686   0.494  14.202 -0.2395  0.3501 -0.5669
  670MPD2     C 9910   0.200   3.668  13.323  0.7540  0.2676 -0.3146
  670MPD2    C1 9911   0.314   3.599  13.353 -0.2491  0.2260 -0.1205
  670MPD2    C2 9912   0.307   3.512  13.466  0.5203 -0.2396 -0.2827
  670MPD2    C3 9913   0.195   3.501  13.543 -0.2751  0.1729 -0.3448
  670MPD2    C4 9914   0.082   3.574  13.508  0.7217 -0.3297 -0.6293
  670MPD2    C5 9915   0.088   3.653  13.397 -0.2629  0.3801  0.3312
  670MPD2     H 9916   0.391   3.447  13.486  0.0019 -0.0563  2.4212
  670MPD2    H1 9917   4.712   3.574  13.564  1.1013  0.0661  0.0105
  670MPD2    H2 9918   0.197   3.735  13.238 -0.5378  1.7936  0.9349
  670MPD2    H3 9919   4.722   3.709  13.372  0.5986  1.5396 -0.1479
  670MPD2     N 9920   0.204   3.426  13.666 -0.1223 -0.1484  0.2535
  670MPD2    H5 9921   0.297   3.402  13.700 -0.4758 -1.8023  0.0799
  670MPD2    N1 9922   0.428   3.588  13.267 -0.0996 -0.1524 -0.2037
  670MPD2    H7 9923   0.489   3.511  13.294  0.0480 -0.2032 -0.6854
  671TMC3    C1 9924   0.140   3.344  13.870  0.5156  1.0149 -0.3017
  671TMC3    C2 9925   0.270   3.360  13.913  0.7573  0.2380  0.4329
  671TMC3    C3 9926   0.317   3.282  14.014  0.3020  0.3020  0.2931
  671TMC3    C4 9927   0.049   3.266  13.941  0.1666  0.4698  0.3849
  671TMC3    C5 9928   0.094   3.202  14.056  0.3576  0.4142 -0.0754
  671TMC3    C6 9929   0.230   3.208  14.090  0.0832 -0.7627  0.2111
  671TMC3     C 9930   0.095   3.395  13.741  0.0220  0.5307  0.7252
  671TMC3     O 9931   4.702   3.392  13.705 -0.3543 -0.2013 -0.2279
  671TMC3     H 9932   0.347   3.410  13.855  1.2707 -1.5822 -0.4517
  671TMC3    H1 9933   4.668   3.263  13.911  0.8380  1.2544 -2.0373
  671TMC3    H2 9934   0.269   3.144  14.168 -0.6814 -0.5463  0.7752
  671TMC3    C7 9935   0.007   3.119  14.123 -1.2960  0.1565  0.3131
  671TMC3    C8 9936   0.460   3.261  14.024  0.6198 -0.0976  0.0283
  671TMC3    O1 9937   4.625   3.085  14.065 -0.2429 -0.3593 -1.0856
  671TMC3    O2 9938   0.536   3.356  14.005  0.0592  0.2592 -0.2068
  672MPD2     C 9939   0.636   3.402   0.879  0.9528 -0.5175 -0.1075
  672MPD2    C1 9940   0.766   3.399   0.823 -0.5382 -0.2132  0.0286
  672MPD2    C2 9941   0.852   3.499   0.858 -0.5436  0.2548  0.2117
  672MPD2    C3 9942   0.827   3.596   0.957  0.0427 -0.1575 -0.1169
  672MPD2    C4 9943   0.698   3.589   1.020  0.1473 -0.1598 -0.2869
  672MPD2    C5 9944   0.616   3.486   0.986  0.1769 -0.2039  0.0390
  672MPD2     H 9945   0.954   3.500   0.821 -0.8363  0.4504 -0.6136
  672MPD2    H1 9946   0.675   3.667   1.091 -0.7837 -0.6684 -0.0167
  672MPD2    H2 9947   0.563   3.329   0.846 -1.5740  2.1801 -0.5066
  672MPD2    H3 9948   0.525   3.493   1.045 -1.4929 -0.2282 -2.5358
  672MPD2     N 9949   0.903   3.708   0.990 -0.4669 -0.6595  0.0989
  672MPD2    H5 9950   0.854   3.784   1.036  1.4053 -0.1780  1.2667
  672MPD2    N1 9951   0.800   3.308   0.721  0.3333 -0.5837 -0.5759
  672MPD2    H7 9952   0.899   3.308   0.702  0.1746  0.1047 -1.4063
  673TMC3    C1 9953   0.798   3.216   0.521  0.2323  0.1522 -0.6836
  673TMC3    C2 9954   0.887   3.113   0.550 -0.4264  0.5180  0.4947
  673TMC3    C3 9955   0.954   3.057   0.449 -0.1951 -0.1963  0.0269
  673TMC3    C4 9956   0.763   3.241   0.389  0.6552 -0.3401 -0.1180
  673TMC3    C5 9957   0.829   3.175   0.286 -0.2580  0.3020 -0.0333
  673TMC3    C6 9958   0.931   3.083   0.314 -0.3154  0.1950  0.3970
  673TMC3     C 9959   0.716   3.259   0.625  0.5017 -0.3378  0.2895
  673TMC3     O 9960   0.598   3.286   0.606 -0.4495  0.5977  0.2240
  673TMC3     H 9961   0.900   3.077   0.652  0.4584  1.8891  0.8685
  673TMC3    H1 9962   0.678   3.304   0.369  0.0665 -0.6281  1.4124
  673TMC3    H2 9963   1.003   3.052   0.239 -0.6159  1.2256 -0.3314
  673TMC3    C7 9964   0.846   3.246   0.162  1.1096 -0.4098  0.2037
  673TMC3    C8 9965   1.063   2.964   0.481 -0.2194  0.7219 -0.5993
  673TMC3    O1 9966   0.885   3.179   0.067  0.7632 -0.3281  0.6495
  673TMC3    O2 9967   1.085   2.879   0.398  0.0186 -0.5039 -0.5107
  674MPD2     C 9968   0.322   3.810  17.474 -0.4361  0.0316  0.1523
  674MPD2    C1 9969   0.362   3.732  17.582  0.2726 -1.2202  0.1522
  674MPD2    C2 9970   0.355   3.786   0.014  0.2850 -0.4051  0.1125
  674MPD2    C3 9971   0.289   3.906   0.031 -0.0921 -0.3832 -0.7724
  674MPD2    C4 9972   0.263   3.991  17.613 -0.0761  0.9808  0.2188
  674MPD2    C5 9973   0.288   3.939  17.486 -0.4430 -0.2731 -0.4103
  674MPD2     H 9974   0.386   3.726   0.099 -0.4021 -0.9113  0.0038
  674MPD2    H1 9975   0.218   4.090  17.620 -3.2897 -0.4608  0.2126
  674MPD2    H2 9976   0.332   3.771  17.373  3.0306  0.9063  0.1385
  674MPD2    H3 9977   0.266   3.982  17.389 -0.7762 -1.0841 -0.6950
  674MPD2     N 9978   0.253   3.946   0.169  0.7209 -0.2013 -0.0149
  674MPD2    H5 9979   0.260   3.874   0.240  1.3167 -2.5984 -2.5079
  674MPD2    N1 9980   0.401   3.599  17.552 -0.2147  0.2548 -0.4775
  674MPD2    H7 9981   0.402   3.572  17.454 -0.3380  1.9635 -0.9421
  675TMC3    C1 9982   0.460   3.375  17.588 -0.4953  0.4818  0.5332
  675TMC3    C2 9983   0.459   3.276  17.682  0.2259  0.3657 -0.2624
  675TMC3    C3 9984   0.535   3.164  17.647  0.0375  0.2509 -0.0580
  675TMC3    C4 9985   0.522   3.376  17.465  0.3560  0.2191 -0.0946
  675TMC3    C5 9986   0.605   3.273  17.447 -0.4326  0.2630  0.7670
  675TMC3    C6 9987   0.618   3.173  17.540 -0.7324 -0.0199 -0.4892
  675TMC3     C 9988   0.414   3.501  17.644  0.3233 -0.4356  1.0930
  675TMC3     O 9989   0.409   3.512   0.074  0.0279  0.1637 -0.3888
  675TMC3     H 9990   0.399   3.293   0.078  1.2553  0.5444  0.3942
  675TMC3    H1 9991   0.528   3.451  17.387 -1.2924  0.3234 -0.1149
  675TMC3    H2 9992   0.659   3.076  17.516  1.6391  0.8289  0.1706
  675TMC3    C7 9993   0.699   3.279  17.337 -0.0410  0.1020  0.8444
  675TMC3    C8 9994   0.562   3.049   0.043 -0.2298  0.8902  0.5364
  675TMC3    O1 9995   0.669   3.348  17.243 -0.2524 -0.6788  0.2370
  675TMC3    O2 9996   0.608   2.944  17.689 -1.0270  0.1087 -0.1713
  676MPD2     C 9997   3.865   0.938  11.166 -0.0506  0.2865 -0.3739
  676MPD2    C1 9998   3.743   0.915  11.106  0.8217  0.3982 -0.7246
  676MPD2    C2 9999   3.654   0.812  11.145 -0.7439  0.5425  0.4927
  676MPD2    C310000   3.691   0.739  11.253  0.1501 -0.2736 -0.4239
  676MPD2    C410001   3.817   0.756  11.318  0.3540 -0.1254 -0.1259
  676MPD2    C510002   3.901   0.861  11.267 -0.8945  0.0134 -0.2257
  676MPD2     H10003   3.556   0.816  11.101 -0.0526 -0.0234 -1.1113
  676MPD2    H110004   3.843   0.701  11.407 -0.5882 -1.7565 -0.8777
  676MPD2    H210005   3.939   1.007  11.127 -0.3690  1.8995  1.9076
  676MPD2    H310006   3.994   0.887  11.317  0.7927  0.3739 -3.5987
  676MPD2     N10007   3.608   0.645  11.312 -0.2239  0.3546 -0.6245
  676MPD2    H510008   3.653   0.595  11.388 -1.2907 -0.8096 -0.7494
  676MPD2    N110009   3.690   1.005  11.010  1.0844 -0.1725  0.3518
  676MPD2    H710010   3.591   1.000  10.989  0.9401  0.5237  0.8554
  677TMC3    C110011   3.667   1.169  10.854  0.8531  0.7971 -0.2834
  677TMC3    C210012   3.551   1.092  10.829 -0.4391 -0.0934  0.7694
  677TMC3    C310013   3.430   1.153  10.820  0.2861 -0.1153 -0.0642
  677TMC3    C410014   3.656   1.308  10.859  0.0155 -0.0710  1.1406
  677TMC3    C510015   3.531   1.365  10.839  0.5195  0.2593  0.4901
  677TMC3    C610016   3.422   1.291  10.813  0.2139 -0.4583  0.3655
  677TMC3     C10017   3.758   1.111  10.946 -0.3682  0.1041 -0.1980
  677TMC3     O10018   3.878   1.126  10.935  0.2035  0.4129  0.1280
  677TMC3     H10019   3.540   0.985  10.834  2.6805 -0.4987 -0.7642
  677TMC3    H110020   3.739   1.356  10.909  0.8044 -1.1515  0.8506
  677TMC3    H210021   3.323   1.329  10.788  0.0696 -0.1160  1.4355
  677TMC3    C710022   3.497   1.487  10.915 -0.5033 -0.4872 -0.0193
  677TMC3    C810023   3.316   1.068  10.801 -0.2092 -0.0953  0.1085
  677TMC3    O110024   3.376   1.507  10.924  0.1101 -0.4889 -0.0361
  677TMC3    O210025   3.328   0.974  10.720 -0.4201  0.1930  0.9257
  678MPD2     C10026   3.486   2.391   1.727  0.1797  0.4239  0.4490
  678MPD2    C110027   3.566   2.401   1.618  0.3260  0.1333  0.1712
  678MPD2    C210028   3.513   2.440   1.491 -0.2643 -0.1926 -0.3239
  678MPD2    C310029   3.383   2.479   1.473  0.7662 -0.3749  0.0635
  678MPD2    C410030   3.301   2.477   1.588 -0.3228  0.1707 -0.5836
  678MPD2    C510031   3.359   2.443   1.714  0.1893  0.0904  0.4997
  678MPD2     H10032   3.585   2.442   1.410  1.8299 -0.3208  1.5661
  678MPD2    H110033   3.202   2.521   1.587 -0.6080 -0.4650 -0.2913
  678MPD2    H210034   3.513   2.354   1.825  0.4489 -2.1142 -0.5866
  678MPD2    H310035   3.296   2.440   1.802 -1.5179 -1.6997 -0.7718
  678MPD2     N10036   3.346   2.512   1.344 -0.4620  0.0768  0.0778
  678MPD2    H510037   3.405   2.504   1.262  1.4329  1.7696  1.2672
  678MPD2    N110038   3.701   2.367   1.620  0.0196  0.4108 -0.0749
  678MPD2    H710039   3.757   2.369   1.535  2.2122 -0.6218  1.3431
  679TMC3    C110040   4.074   2.128   1.712 -0.0503 -0.3136  0.0570
  679TMC3    C210041   3.947   2.158   1.744 -0.2958  0.7358  0.0130
  679TMC3    C310042   3.898   2.279   1.695  0.3652 -0.0931  0.5352
  679TMC3    C410043   4.147   2.214   1.632  0.0530 -0.6904 -0.0283
  679TMC3    C510044   4.087   2.321   1.579 -0.4015  0.3018  0.5567
  679TMC3    C610045   3.972   2.369   1.624 -0.0288 -0.1061  0.2455
  679TMC3     C10046   4.125   1.995   1.716  0.5974 -0.8847 -0.4218
  679TMC3     O10047   4.222   1.971   1.644 -0.8522  0.1359 -0.1547
  679TMC3     H10048   3.876   2.090   1.789  0.7831 -0.5988 -0.3231
  679TMC3    H110049   4.248   2.186   1.603 -0.0480  0.7109 -1.7120
  679TMC3    H210050   3.927   2.450   1.567 -1.1230 -0.5325  0.5132
  679TMC3    C710051   4.137   2.371   1.457 -0.9409 -0.5368  0.0054
  679TMC3    C810052   3.770   2.319   1.730 -0.1123  0.3888  0.5877
  679TMC3    O110053   4.151   2.491   1.441 -0.2719  0.3403 -0.2311
  679TMC3    O210054   3.732   2.281   1.842  0.4150 -0.3621  0.1193
  680MPD2     C10055   1.223   4.625  13.598 -1.1694  0.0682  0.4733
  680MPD2    C110056   1.090   4.665  13.582 -0.7760 -0.1740 -0.9635
  680MPD2    C210057   1.048   0.063  13.633  0.4151 -0.6140 -0.1228
  680MPD2    C310058   1.134   0.146  13.706 -0.5113 -0.5358 -0.4039
  680MPD2    C410059   1.266   0.108  13.727  0.6599 -0.1760 -0.1045
  680MPD2    C510060   1.308   4.712  13.667  0.2244  0.7604  0.0953
  680MPD2     H10061   0.943   0.087  13.629  0.2187 -1.3308  0.6902
  680MPD2    H110062   1.340   0.165  13.782  1.7208 -1.8994  0.2732
  680MPD2    H210063   1.258   4.534  13.549  0.8589  0.8635  0.4548
  680MPD2    H310064   1.413   4.687  13.663  0.1805  0.4785  0.7306
  680MPD2     N10065   1.076   0.269  13.756  0.5127  0.1723  0.3940
  680MPD2    H510066   1.139   0.304  13.827 -0.1130  0.7080  0.6814
  680MPD2    N110067   0.985   4.598  13.513  0.3951 -0.1340  0.3038
  680MPD2    H710068   0.898   4.649  13.508 -0.2214 -1.0607  1.4858
  681TMC3    C110069   0.860   4.465  13.378  0.4357 -0.0162  0.2770
  681TMC3    C210070   0.756   4.477  13.462  0.1217 -0.4717 -0.2576
  681TMC3    C310071   0.634   4.446  13.405 -0.4012 -0.5738 -0.0544
  681TMC3    C410072   0.854   4.437  13.246  0.5772 -0.2742  0.2378
  681TMC3    C510073   0.730   4.399  13.196 -0.2818 -0.2515  0.2271
  681TMC3    C610074   0.621   4.393  13.280  0.1367  0.4566  0.2399
  681TMC3     C10075   0.987   4.488  13.437  0.1073 -0.1361  0.3654
  681TMC3     O10076   1.089   4.424  13.404 -0.8359  0.1545  0.0783
  681TMC3     H10077   0.762   4.522  13.560  1.4150 -1.0448 -0.0657
  681TMC3    H110078   0.942   4.404  13.192 -0.5794 -2.1832 -0.4747
  681TMC3    H210079   0.523   4.384  13.234  1.2355 -1.4819 -1.7195
  681TMC3    C710080   0.701   4.345  13.063  0.4359 -0.6631 -0.3361
  681TMC3    C810081   0.510   4.451  13.491  0.3746  0.2644 -0.4631
  681TMC3    O110082   0.619   4.254  13.069  0.5641  0.2143 -0.4575
  681TMC3    O210083   0.420   4.376  13.464  0.4785 -0.1042 -0.0250
  682MPD2     C10084   2.139   1.172  10.186  0.0943 -0.3324 -0.8639
  682MPD2    C110085   2.120   1.036  10.207 -0.4924 -0.2624 -0.4497
  682MPD2    C210086   2.152   0.990  10.334  0.5991  0.0698  0.5233
  682MPD2    C310087   2.205   1.070  10.433 -0.3125  0.3331  0.4921
  682MPD2    C410088   2.208   1.205  10.411  0.6571 -0.1554  0.5481
  682MPD2    C510089   2.192   1.250  10.283  1.1373  0.5875 -0.1754
  682MPD2     H10090   2.145   0.882  10.344  0.1147  0.0813  0.3424
  682MPD2    H110091   2.261   1.264  10.484  1.9741  1.5824 -1.7911
  682MPD2    H210092   2.111   1.221  10.093  0.6864 -0.2936 -1.0187
  682MPD2    H310093   2.219   1.354  10.271  4.0076 -0.1713 -0.3861
  682MPD2     N10094   2.238   1.017  10.558 -0.3877  0.0638  0.3440
  682MPD2    H510095   2.248   1.087  10.630  1.0358  1.2351 -0.9873
  682MPD2    N110096   2.065   0.947  10.113 -0.6152  0.3892 -0.9241
  682MPD2    H710097   2.067   0.847  10.133 -0.5527  0.7906  0.9981
  683TMC3    C110098   2.329   0.867  10.946  0.5753  0.6709 -0.2952
  683TMC3    C210099   2.345   0.732  10.963 -0.2933 -0.1190 -0.0993
  683TMC3    C310100   2.320   0.657  10.854 -0.5110  0.3203  0.5291
  683TMC3    C410101   2.304   0.928  10.819  0.1609  0.3103  0.0545
  683TMC3    C510102   2.277   0.841  10.720 -0.1956 -0.0988 -0.1244
  683TMC3    C610103   2.290   0.705  10.734  0.1354 -0.2204  0.7414
  683TMC3     C10104   2.315   0.954  11.063  0.3378  0.0857  0.5083
  683TMC3     O10105   2.217   1.030  11.060  0.3998 -0.3087 -0.2325
  683TMC3     H10106   2.355   0.688  11.062  2.5059  0.8819  0.0750
  683TMC3    H110107   2.277   1.033  10.819  1.7998  0.7350 -1.4681
  683TMC3    H210108   2.260   0.632  10.660  1.5205  0.8321 -0.8439
  683TMC3    C710109   2.259   0.881  10.585 -0.1885  0.5039 -0.4297
  683TMC3    C810110   2.296   0.518  10.877 -0.1164  0.2461  0.6885
  683TMC3    O110111   2.278   0.796  10.501 -0.6331  0.2348  0.1691
  683TMC3    O210112   2.208   0.465  10.809  0.4562  0.3557 -0.2058
  684MPD2     C10113   0.504   1.168  16.660  0.1297 -0.2747 -0.0972
  684MPD2    C110114   0.484   1.227  16.537  0.1242  0.0686 -1.1981
  684MPD2    C210115   0.449   1.357  16.533  0.2307  0.2773 -0.2579
  684MPD2    C310116   0.420   1.426  16.653 -0.1962 -0.6572  0.8335
  684MPD2    C410117   0.406   1.353  16.770  0.0537 -0.0200 -0.3235
  684MPD2    C510118   0.454   1.226  16.771 -0.0917 -0.1677 -0.1705
  684MPD2     H10119   0.461   1.414  16.441 -1.2953  2.2977  0.7798
  684MPD2    H110120   0.374   1.402  16.861  1.2799 -1.3908  0.8343
  684MPD2    H210121   0.517   1.062  16.674  0.6349 -0.3810 -1.4375
  684MPD2    H310122   0.438   1.168  16.861 -1.4046  0.8857  0.2672
  684MPD2     N10123   0.410   1.567  16.663 -0.0992 -0.3238  0.5462
  684MPD2    H510124   0.393   1.609  16.753  2.1575 -0.1119  0.8528
  684MPD2    N110125   0.519   1.162  16.410  0.3843 -0.6809 -0.6983
  684MPD2    H710126   0.505   1.203  16.318  0.3067  0.1735 -0.3073
  685TMC3    C110127   0.629   1.010  16.272 -0.3176 -0.2624  0.6290
  685TMC3    C210128   0.563   1.049  16.160  0.1615 -0.8670 -0.1694
  685TMC3    C310129   0.634   1.095  16.052 -1.3368 -0.1701 -0.0965
  685TMC3    C410130   0.763   1.004  16.270  0.0392 -0.3257  0.1550
  685TMC3    C510131   0.826   1.039  16.154 -0.3990  1.4207 -0.5052
  685TMC3    C610132   0.765   1.084  16.039 -0.2004  0.5282 -0.3504
  685TMC3     C10133   0.577   1.039  16.403  0.0116 -0.0905 -0.2796
  685TMC3     O10134   0.594   0.963  16.496 -0.3887  0.5320  0.2306
  685TMC3     H10135   0.456   1.035  16.156  0.0089  0.1996  0.1044
  685TMC3    H110136   0.815   0.980  16.361 -1.3451  1.8467  1.5125
  685TMC3    H210137   0.825   1.121  15.957 -0.1053 -0.7511 -0.8596
  685TMC3    C710138   0.973   1.037  16.170  0.2732  0.0579 -0.3587
  685TMC3    C810139   0.565   1.131  15.928 -0.4907  0.8801 -0.0263
  685TMC3    O110140   1.014   0.955  16.251  0.2452 -0.4521  0.0799
  685TMC3    O210141   0.637   1.125  15.827  0.3591  0.0249 -0.1544
  686MPD2     C10142   1.976   0.968  15.396  0.1882 -0.4455 -0.6361
  686MPD2    C110143   1.994   0.883  15.504  0.3144  1.6048  0.4565
  686MPD2    C210144   2.048   0.760  15.487 -0.4065 -0.6864  0.5793
  686MPD2    C310145   2.077   0.718  15.357 -0.5812  0.8513  0.4752
  686MPD2    C410146   2.063   0.811  15.247 -0.1265 -0.1591  0.1903
  686MPD2    C510147   2.007   0.933  15.270 -0.5395 -0.6839  0.2545
  686MPD2     H10148   2.079   0.706  15.576  1.7034 -0.5950 -0.1064
  686MPD2    H110149   2.088   0.783  15.146 -0.1392  1.1828 -0.1761
  686MPD2    H210150   1.941   1.070  15.408 -1.4590 -1.2780  1.5295
  686MPD2    H310151   1.995   1.015  15.201  0.3869  0.2059  1.1540
  686MPD2     N10152   2.128   0.586  15.322 -0.6455  0.0011 -0.1123
  686MPD2    H510153   2.166   0.582  15.228 -0.1270 -0.5053  0.1135
  686MPD2    N110154   1.939   0.931  15.625 -0.5620  0.2174  0.8641
  686MPD2    H710155   1.887   1.018  15.618  0.8111  0.8758 -1.1563
  687TMC3    C110156   2.103   0.463  15.538  0.1106  0.3503  0.5468
  687TMC3    C210157   1.969   0.469  15.565  0.9835 -0.3599  0.5878
  687TMC3    C310158   1.922   0.446  15.692 -0.3045  0.2987 -0.6920
  687TMC3    C410159   2.194   0.433  15.637  0.0678  0.5991  0.1895
  687TMC3    C510160   2.141   0.426  15.769 -0.5691 -0.3848  0.2425
  687TMC3    C610161   2.006   0.435  15.799  0.0128  1.3810  0.8277
  687TMC3     C10162   2.163   0.481  15.410 -0.0669 -0.0698 -0.4736
  687TMC3     O10163   2.219   0.379  15.368 -0.0668  0.9263 -0.1970
  687TMC3     H10164   1.903   0.483  15.479  1.2862 -0.0476  0.4071
  687TMC3    H110165   2.300   0.434  15.614  0.1157  0.7890  0.4117
  687TMC3    H210166   1.961   0.430  15.897 -0.6390 -1.3865  0.3622
  687TMC3    C710167   2.232   0.444  15.884 -0.2933  0.2838  0.4644
  687TMC3    C810168   1.786   0.483  15.728  0.4312 -0.2446  0.6124
  687TMC3    O110169   2.179   0.489  15.984 -0.2476  0.7461 -0.4676
  687TMC3    O210170   1.734   0.443  15.834  0.3369  0.3696 -0.1656
  688MPD2     C10171   1.044   4.646  16.917 -0.1095  1.0366  0.1826
  688MPD2    C110172   1.041   4.510  16.956  0.2671  0.6688 -0.1626
  688MPD2    C210173   1.146   4.426  16.915 -0.9289 -0.1162  0.7176
  688MPD2    C310174   1.247   4.469  16.831  0.4966  0.2625  0.0684
  688MPD2    C410175   1.237   4.600  16.797  0.4506 -0.7901  0.0628
  688MPD2    C510176   1.138   4.685  16.836 -0.3519 -1.2081  0.4686
  688MPD2     H10177   1.149   4.324  16.950  0.1551  0.6677  2.9006
  688MPD2    H110178   1.306   4.645  16.728  0.6448  0.8279  1.3003
  688MPD2    H210179   0.971   4.715  16.957  0.1980  1.4621  0.0198
  688MPD2    H310180   1.150   0.065  16.801  0.2229 -1.5287 -0.2909
  688MPD2     N10181   1.345   4.383  16.761 -0.1742  0.2035  0.8700
  688MPD2    H510182   1.403   4.424  16.689 -0.1368  1.0606  1.3895
  688MPD2    N110183   0.961   4.452  17.064 -0.8719  0.6336 -0.3827
  688MPD2    H710184   0.965   4.351  17.077 -1.1280  0.7113  0.2715
  689TMC3    C110185   0.842   4.444  17.265  0.3059 -0.2860 -0.3866
  689TMC3    C210186   0.863   4.508  17.384  0.4092  0.0750  0.0721
  689TMC3    C310187   0.858   4.427  17.495 -0.0460  0.0136 -0.0937
  689TMC3    C410188   0.818   4.305  17.243 -0.3091 -0.1593  0.6461
  689TMC3    C510189   0.824   4.228  17.357 -0.1018  0.1255  0.3080
  689TMC3    C610190   0.847   4.289  17.479 -0.1847  0.2625 -0.2511
  689TMC3     C10191   0.892   4.525  17.157  0.3145 -0.1331 -0.3050
  689TMC3     O10192   0.875   4.642  17.163  0.8490 -0.6127  0.0692
  689TMC3     H10193   0.902   4.609  17.392 -0.7432  0.5417 -0.3030
  689TMC3    H110194   0.787   4.258  17.151  2.0581  1.4614 -0.9791
  689TMC3    H210195   0.849   4.221  17.563  1.4462  1.5595  0.7523
  689TMC3    C710196   0.817   4.081  17.345 -0.7605 -0.3587 -0.5630
  689TMC3    C810197   0.825   4.492  17.620 -0.3634  0.9963  0.0412
  689TMC3    O110198   0.858   4.005  17.437  0.0747  0.1639 -0.4779
  689TMC3    O210199   0.829   4.420   0.029 -0.0622  0.2056  0.0672
  690MPD2     C10200   3.789   1.534  15.785 -0.8476 -0.2763 -0.2281
  690MPD2    C110201   3.730   1.563  15.663  0.7692 -0.8076 -0.4503
  690MPD2    C210202   3.796   1.637  15.565  0.3806 -0.0223 -0.0135
  690MPD2    C310203   3.917   1.695  15.602 -0.3141  0.4520 -0.3308
  690MPD2    C410204   3.974   1.656  15.721  0.0461 -0.0353  0.4222
  690MPD2    C510205   3.915   1.577  15.811 -0.1068  0.6309 -0.2338
  690MPD2     H10206   3.746   1.667  15.474  0.5242  0.2501 -0.0006
  690MPD2    H110207   4.077   1.687  15.737  1.3382 -3.2245 -1.5579
  690MPD2    H210208   3.742   1.480  15.866  0.8629 -1.9460 -0.3482
  690MPD2    H310209   3.957   1.570  15.911  1.4074 -0.7448 -0.9746
  690MPD2     N10210   3.974   1.798  15.520 -0.6272  0.1821 -0.2125
  690MPD2    H510211   3.922   1.823  15.436 -1.7803 -0.7411  0.2296
  690MPD2    N110212   3.593   1.542  15.630  0.6580  0.5945  0.4025
  690MPD2    H710213   3.541   1.577  15.550 -0.3329  1.5017  1.4245
  691TMC3    C110214   3.358   1.499  15.677 -0.5705  0.1855  0.4256
  691TMC3    C210215   3.254   1.516  15.768 -0.5860  0.5308  0.5612
  691TMC3    C310216   3.151   1.425  15.762 -0.1036  0.5804 -0.1400
  691TMC3    C410217   3.341   1.421  15.568  0.2220  1.0727  0.3312
  691TMC3    C510218   3.237   1.332  15.574  0.1181  0.8234  0.1338
  691TMC3    C610219   3.146   1.323  15.673 -0.3470  0.3927  0.3281
  691TMC3     C10220   3.494   1.521  15.722 -0.4774  0.2260 -0.4736
  691TMC3     O10221   3.501   1.544  15.845  0.2169 -0.0747  0.0971
  691TMC3     H10222   3.264   1.589  15.848  2.3995 -1.0544  1.6147
  691TMC3    H110223   3.416   1.425  15.489 -0.4083 -0.8191 -0.3798
  691TMC3    H210224   3.076   1.240  15.669  0.0554  0.0291  0.7734
  691TMC3    C710225   3.285   1.211  15.514  0.1850 -0.5666  0.2550
  691TMC3    C810226   3.036   1.436  15.851 -0.1483  0.0338  0.6527
  691TMC3    O110227   3.408   1.195  15.523  0.0871  0.3169  0.1070
  691TMC3    O210228   2.974   1.330  15.867  0.2013  0.5604 -0.3051
  692TMC3    C110229   0.033   2.824  16.262  0.1574 -0.2890 -0.6427
  692TMC3    C210230   0.124   2.857  16.359 -0.0838 -0.0115  0.1887
  692TMC3    C310231   0.248   2.806  16.365  0.0530  0.0551  0.3203
  692TMC3    C410232   0.072   2.759  16.152 -0.1687  0.7751  0.4358
  692TMC3    C510233   0.209   2.724  16.144  0.4968  0.3066 -0.0773
  692TMC3    C610234   0.300   2.765  16.241  0.7896 -0.3973 -0.1506
  692TMC3     C10235   4.641   2.915  16.231  0.0584 -0.3977  0.3780
  692TMC3     O10236   4.556   2.880  16.150 -0.7158 -0.0238  0.8831
  692TMC3     H10237   0.080   2.893  16.452  1.0321  0.2152  0.6291
  692TMC3    H110238   0.012   2.740  16.063 -1.6313 -0.9830  1.8037
  692TMC3    H210239   0.407   2.745  16.235  0.3702 -3.1549  1.1627
  692TMC3    C710240   0.224   2.597  16.073  0.1335 -0.2234  0.0952
  692TMC3    C810241   0.269   2.691  16.457 -0.3456 -0.8592 -0.9315
  692TMC3    O110242   0.128   2.556  16.006  0.3475  0.2413 -0.0323
  692TMC3    O210243   0.357   2.620  16.413  0.1252  0.7336 -0.3986
  693MPD2     C10244   4.285   4.408  10.223 -0.0871 -0.0803 -0.1608
  693MPD2    C110245   4.291   4.379  10.360  0.2229  0.1679 -0.0046
  693MPD2    C210246   4.387   4.290  10.402 -0.5332 -1.2994  0.2753
  693MPD2    C310247   4.478   4.236  10.311  0.1128  0.0362  0.2315
  693MPD2    C410248   4.477   4.279  10.176  0.2834 -0.1118 -0.2022
  693MPD2    C510249   4.383   4.362  10.140  0.1269  0.4873  0.4026
  693MPD2     H10250   4.398   4.273  10.508  0.6752 -1.1838  0.1725
  693MPD2    H110251   4.546   4.237  10.104 -0.6129 -1.7672 -0.1011
  693MPD2    H210252   4.214   4.481  10.185 -1.1334 -1.1933 -0.3446
  693MPD2    H310253   4.382   4.398  10.037  1.9861  1.3940  0.6999
  693MPD2     N10254   4.584   4.147  10.343 -0.1689  0.5614  0.2137
  693MPD2    H510255   4.668   4.154  10.286 -0.2718 -1.3783 -0.1510
  693MPD2    N110256   4.199   4.421  10.455  0.5509 -0.0769 -0.1500
  693MPD2    H710257   4.218   4.411  10.554  0.5702 -0.5831 -0.2018
  694TMC3    C110258   3.985   4.497  10.551 -1.0266 -0.0754  0.4334
  694TMC3    C210259   3.850   4.501  10.530 -0.2179 -1.2105  0.2669
  694TMC3    C310260   3.777   4.519  10.642  0.2900 -0.0394 -0.3532
  694TMC3    C410261   4.037   4.488  10.673  0.1032  0.4920 -0.1701
  694TMC3    C510262   3.956   4.491  10.782 -0.6070 -1.1689 -0.0824
  694TMC3    C610263   3.824   4.503  10.770  0.1685  0.2690 -0.3958
  694TMC3     C10264   4.076   4.479  10.432  0.0763  0.1314 -0.2392
  694TMC3     O10265   4.009   4.488  10.330 -0.5642 -0.4309  0.6020
  694TMC3     H10266   3.818   4.502  10.426 -0.7829 -0.6794  0.4440
  694TMC3    H110267   4.144   4.498  10.691  0.1544 -0.2857 -0.0157
  694TMC3    H210268   3.750   4.513  10.850  1.7306  0.8581  0.9808
  694TMC3    C710269   4.019   4.519  10.913 -0.3899 -0.1703  0.1842
  694TMC3    C810270   3.638   4.486  10.618 -0.5115 -0.1787  0.2161
  694TMC3    O110271   4.121   4.590  10.909  0.5971  0.1217 -0.5588
  694TMC3    O210272   3.579   4.416  10.703  0.1542 -0.3249  0.6646
  695MPD2     C10273   0.229   2.153  13.918  0.1766  0.4347  0.3170
  695MPD2    C110274   0.231   2.254  14.010  0.6325 -0.4737 -0.0105
  695MPD2    C210275   0.109   2.313  14.042 -0.6372  0.0528 -0.1898
  695MPD2    C310276   4.718   2.277  13.974 -0.0220  0.3632  0.4603
  695MPD2    C410277   4.713   2.166  13.893  0.7761 -0.0844  0.3264
  695MPD2    C510278   0.108   2.102  13.869 -0.3511  0.3329 -0.6939
  695MPD2     H10279   0.111   2.393  14.115  0.9377 -1.2994  1.2597
  695MPD2    H110280   4.625   2.120  13.850 -0.1250  0.9805  1.0199
  695MPD2    H210281   0.318   2.097  13.894 -0.8274 -0.9660 -0.1565
  695MPD2    H310282   0.105   2.014  13.806  0.9846 -0.3782  0.2444
  695MPD2     N10283   4.601   2.355  14.006  0.2343  0.3827  0.7537
  695MPD2    H510284   4.617   2.432  14.070 -0.7459  1.3453 -0.1748
  695MPD2    N110285   0.350   2.296  14.077 -0.9722  0.0032  0.6289
  695MPD2    H710286   0.340   2.370  14.145 -1.9708  0.5843 -0.1599
  696TMC3    C110287   4.399   2.463  13.987  0.3159 -0.3064  0.2282
  696TMC3    C210288   4.413   2.515  14.111 -0.1589 -0.1339  1.1103
  696TMC3    C310289   4.321   2.605  14.151  0.7487 -0.8933 -0.4954
  696TMC3    C410290   4.306   2.509  13.903 -0.1985 -0.1459  0.2170
  696TMC3    C510291   4.214   2.605  13.942  0.3268 -0.9025 -0.4137
  696TMC3    C610292   4.221   2.651  14.070 -0.3263  0.1423 -0.1209
  696TMC3     C10293   4.485   2.348  13.940  0.3313 -0.3210 -0.1811
  696TMC3     O10294   4.457   2.283  13.840 -0.0533  0.3520 -0.4592
  696TMC3     H10295   4.501   2.506  14.173  0.3661 -2.2068  0.0911
  696TMC3    H110296   4.320   2.482  13.799  1.4002  0.1197  0.3703
  696TMC3    H210297   4.153   2.717  14.122 -1.8812 -1.3967 -0.2001
  696TMC3    C710298   4.194   2.703  13.838 -0.2696 -0.1048  0.5131
  696TMC3    C810299   4.389   2.725  14.204 -0.1272 -0.0038 -0.1090
  696TMC3    O110300   4.176   2.665  13.726 -0.4192  0.1716  0.1613
  696TMC3    O210301   4.374   2.818  14.129  0.0043 -0.1249 -0.1415
  697MPD2     C10302   4.411   4.219  15.632 -0.2254  0.4933  0.4186
  697MPD2    C110303   4.460   4.141  15.529  0.4521 -0.2296 -0.1021
  697MPD2    C210304   4.571   4.190  15.469  0.0524 -0.0185 -0.2813
  697MPD2    C310305   4.633   4.315  15.491  0.0462 -0.1933  0.1663
  697MPD2    C410306   4.559   4.394  15.579 -0.0899  0.0710 -0.1337
  697MPD2    C510307   4.460   4.341  15.650  0.0832 -0.1481  0.5849
  697MPD2     H10308   4.609   4.130  15.387  0.9440  0.9959 -0.6032
  697MPD2    H110309   4.584   4.497  15.603 -1.1119  0.2299  0.2402
  697MPD2    H210310   4.330   4.186  15.696 -1.4920  0.9895 -0.9125
  697MPD2    H310311   4.410   4.408  15.719  0.0091  1.0851 -0.6661
  697MPD2     N10312   0.024   4.350  15.424  0.3970 -0.4553  0.2248
  697MPD2    H510313   0.062   4.285  15.356  0.7524 -1.2226  1.1663
  697MPD2    N110314   4.413   4.009  15.495 -0.5012  0.6650  0.0565
  697MPD2    H710315   4.464   3.959  15.423 -1.1299  0.6279 -0.3639
  698TMC3    C110316   0.191   4.510  15.358  0.0726 -0.5601 -0.1369
  698TMC3    C210317   0.273   4.605  15.411  0.2261  0.1831 -0.5792
  698TMC3    C310318   0.338   4.686  15.322 -0.1800 -0.9806 -0.3056
  698TMC3    C410319   0.178   4.485  15.227  0.0726 -0.5440 -0.1434
  698TMC3    C510320   0.249   4.558  15.140  0.1492 -0.1892 -0.2611
  698TMC3    C610321   0.328   4.670  15.183 -0.7198 -0.4235 -0.6761
  698TMC3     C10322   0.100   4.462  15.456 -0.1938  0.5458 -0.0444
  698TMC3     O10323   0.084   4.547  15.542  0.4107  0.6423  0.2370
  698TMC3     H10324   0.278   4.617  15.519 -1.1990 -0.1616 -0.4782
  698TMC3    H110325   0.096   4.421  15.194  0.3077 -0.5275 -0.7707
  698TMC3    H210326   0.348   0.027  15.112  0.0879  1.6248  1.8653
  698TMC3    C710327   0.212   4.555  14.996 -0.2816 -0.4075  0.0251
  698TMC3    C810328   0.409   0.075  15.387  1.1552 -0.3178  0.3357
  698TMC3    O110329   0.105   4.515  14.955  0.0771  0.6682 -0.2130
  698TMC3    O210330   0.399   0.073  15.509  0.5175 -0.0107  0.3735
  699TMC3    C110331   0.046   1.962  12.909  0.4771 -0.9752  0.0287
  699TMC3    C210332   0.126   1.878  12.981  0.1426 -0.0636  0.3805
  699TMC3    C310333   0.095   1.744  13.004 -0.6046  0.6210 -0.8351
  699TMC3    C410334   4.655   1.895  12.867 -0.2647  0.9960 -0.0108
  699TMC3    C510335   4.619   1.768  12.888  0.1371 -0.0673 -0.8365
  699TMC3    C610336   4.699   1.691  12.966  0.3213  0.3963 -0.0304
  699TMC3     C10337   0.104   2.069  12.833 -0.3907  0.0733 -0.4371
  699TMC3     O10338   0.047   2.089  12.731 -0.2745  0.2531 -0.4020
  699TMC3     H10339   0.222   1.919  13.011 -0.7170  1.9455  0.4070
  699TMC3    H110340   4.584   1.959  12.815  0.3441  0.2759 -1.7027
  699TMC3    H210341   4.676   1.594  13.007  2.5470  0.4486  1.3642
  699TMC3    C710342   4.479   1.733  12.900 -0.8096  0.4154  0.0544
  699TMC3    C810343   0.143   1.680  13.129 -0.4048  0.3793  0.8398
  699TMC3    O110344   4.394   1.820  12.917 -0.8982 -0.8624 -0.3335
  699TMC3    O210345   0.057   1.681  13.214  0.1549 -0.1821  0.1635
  700TMC3    C110346   3.525   0.448  16.868  0.2242 -0.5632 -0.1309
  700TMC3    C210347   3.517   0.319  16.848 -0.4897  0.6266 -0.1767
  700TMC3    C310348   3.577   0.234  16.939 -0.1832  0.2416 -0.8924
  700TMC3    C410349   3.581   0.499  16.983 -1.7090 -0.4652 -0.3501
  700TMC3    C510350   3.657   0.417  17.058 -0.0679  0.2230  0.4114
  700TMC3    C610351   3.653   0.281  17.040  0.1357  0.4754 -0.2676
  700TMC3     C10352   3.522   0.523  16.738  0.8364 -0.5710 -0.6261
  700TMC3     O10353   3.430   0.516  16.663  0.0739 -0.2575 -0.1189
  700TMC3     H10354   3.480   0.290  16.750  0.4186 -0.3590 -0.2273
  700TMC3    H110355   3.575   0.606  16.992 -0.0061 -0.4575  0.6023
  700TMC3    H210356   3.696   0.216  17.115  1.0815  1.8885  0.3968
  700TMC3    C710357   3.716   0.478  17.176  0.4984 -0.7215  0.2884
  700TMC3    C810358   3.607   0.106  16.878  0.3064  0.2452  0.0617
  700TMC3    O110359   3.812   0.426  17.229 -0.2219 -0.5007  0.0945
  700TMC3    O210360   3.714   0.060  16.918 -0.4045 -0.1364  0.5827
  701TMC3    C110361   3.687   3.451  15.400 -0.1645 -0.2412 -0.1023
  701TMC3    C210362   3.767   3.396  15.303 -0.1267 -0.0632  0.2750
  701TMC3    C310363   3.896   3.440  15.300 -0.4807  0.1167  0.3985
  701TMC3    C410364   3.722   3.563  15.468  0.0408  0.0680  0.0207
  701TMC3    C510365   3.850   3.602  15.455 -0.0493 -0.7265 -0.0645
  701TMC3    C610366   3.940   3.541  15.379  0.3119 -0.1723 -0.2093
  701TMC3     C10367   3.545   3.429  15.384 -0.0983  0.3253 -0.1388
  701TMC3     O10368   3.480   3.530  15.354  0.4699 -0.3870  0.5749
  701TMC3     H10369   3.734   3.305  15.256 -1.8636 -0.4012  2.1294
  701TMC3    H110370   3.643   3.614  15.524 -1.5764 -2.9474  0.4743
  701TMC3    H210371   4.045   3.569  15.383 -0.0864  1.1833  0.6984
  701TMC3    C710372   3.884   3.733  15.499  0.3337 -0.3718  0.3549
  701TMC3    C810373   3.980   3.410  15.189  0.1450 -0.5488  0.1883
  701TMC3    O110374   3.989   3.781  15.457  0.4205  0.5419 -0.1916
  701TMC3    O210375   4.097   3.448  15.190  0.4991 -0.1766  0.1075
  702MPD2     C10376   3.866   0.493  11.066  0.3427  0.2009 -0.3710
  702MPD2    C110377   3.741   0.479  11.006  0.1586  0.1429 -0.0070
  702MPD2    C210378   3.696   0.562  10.906  0.1048 -0.3719  0.5000
  702MPD2    C310379   3.787   0.646  10.842  0.2286  0.5442 -0.4612
  702MPD2    C410380   3.911   0.653  10.898  0.3222 -0.2059  1.2246
  702MPD2    C510381   3.954   0.583  11.004  0.3763  0.1048 -0.5828
  702MPD2     H10382   3.597   0.538  10.870  0.0748  0.2420  0.1621
  702MPD2    H110383   3.984   0.721  10.855 -0.9142  1.1300  1.2525
  702MPD2    H210384   3.898   0.426  11.144  1.5897  1.1304 -0.0773
  702MPD2    H310385   4.060   0.581  11.025  0.4564 -1.5480 -1.1261
  702MPD2     N10386   3.761   0.722  10.729  0.1869  0.2739  0.5973
  702MPD2    H510387   3.834   0.785  10.699  0.2004  1.0274  2.2331
  702MPD2    N110388   3.641   0.386  11.049 -0.4842 -0.3023  0.2553
  702MPD2    H710389   3.546   0.398  11.015  0.0728  1.2455 -0.8036
  703TMC3    C110390   3.640   0.829  10.558  0.1293 -0.2832  0.2449
  703TMC3    C210391   3.520   0.849  10.509 -0.4845  0.1167  0.1968
  703TMC3    C310392   3.505   0.909  10.385  0.1474 -0.2427  0.3247
  703TMC3    C410393   3.753   0.868  10.489 -0.2893 -0.0372  0.3375
  703TMC3    C510394   3.742   0.934  10.371  0.4445  0.1631  0.0654
  703TMC3    C610395   3.620   0.961  10.321  0.7762 -0.1095  0.3834
  703TMC3     C10396   3.649   0.716  10.655  0.1029  0.1490 -0.2910
  703TMC3     O10397   3.556   0.634  10.659  0.3741  0.5829  0.4881
  703TMC3     H10398   3.430   0.802  10.548  2.1950 -3.7340  1.6507
  703TMC3    H110399   3.852   0.842  10.526 -0.5249  0.5003  1.3522
  703TMC3    H210400   3.604   1.025  10.235 -2.3347 -1.0983  0.2286
  703TMC3    C710401   3.853   0.994  10.298  0.1674 -0.3435 -1.1303
  703TMC3    C810402   3.382   0.931  10.320 -0.9134 -0.5249  0.0361
  703TMC3    O110403   3.942   1.044  10.367  0.1067 -0.2183  0.4267
  703TMC3    O210404   3.393   0.920  10.198 -0.1919 -0.3398  0.2487
  704TMC3    C110405   1.293   3.874  12.356  0.0905  0.0529  0.4585
  704TMC3    C210406   1.374   3.883  12.249  0.2508  0.3929  0.1221
  704TMC3    C310407   1.490   3.822  12.262 -0.8408 -0.2425 -0.1563
  704TMC3    C410408   1.335   3.822  12.476 -0.7047 -0.3562 -0.8751
  704TMC3    C510409   1.462   3.779  12.486 -0.2678  1.0414 -0.7059
  704TMC3    C610410   1.547   3.781  12.383  1.0836  0.3962 -0.4008
  704TMC3     C10411   1.164   3.822  12.326  0.5624 -0.0791 -0.4038
  704TMC3     O10412   1.087   3.809  12.421  0.3254 -0.7421  0.0600
  704TMC3     H10413   1.344   3.917  12.151  1.5269  0.1855 -0.3423
  704TMC3    H110414   1.266   3.814  12.559  0.3378 -2.2671 -0.1899
  704TMC3    H210415   1.645   3.736  12.389  0.4600 -1.1211 -1.8063
  704TMC3    C710416   1.462   3.649  12.539 -0.0289 -1.1827  0.2719
  704TMC3    C810417   1.546   3.774  12.133 -0.0246  0.0863  0.2215
  704TMC3    O110418   1.350   3.609  12.564  0.1599  0.2347 -0.2451
  704TMC3    O210419   1.466   3.742  12.046  0.3322  0.0572  0.0542
  705MPD2     C10420   0.512   2.234  16.919  0.4405 -0.3751 -0.0972
  705MPD2    C110421   0.524   2.368  16.925  0.7166  0.3887 -0.7925
  705MPD2    C210422   0.431   2.441  16.990  0.1981  0.3890  0.1643
  705MPD2    C310423   0.339   2.382  17.069  0.4537 -0.1602 -0.3798
  705MPD2    C410424   0.331   2.242  17.068 -0.1618  0.1001  0.2913
  705MPD2    C510425   0.410   2.169  16.982  0.0806 -0.5482  0.0738
  705MPD2     H10426   0.443   2.549  16.983 -0.8925  0.7638  3.7802
  705MPD2    H110427   0.247   2.190  17.113 -0.5861 -0.5172 -1.2042
  705MPD2    H210428   0.582   2.172  16.863 -1.2344 -0.8889 -1.6490
  705MPD2    H310429   0.415   2.061  16.981 -0.2891 -0.5700  1.0794
  705MPD2     N10430   0.238   2.446  17.146  0.4835 -0.1870  1.1974
  705MPD2    H510431   0.158   2.390  17.173  0.2277 -0.1009  0.6000
  705MPD2    N110432   0.613   2.433  16.836 -0.3875 -0.1467 -0.4756
  705MPD2    H710433   0.597   2.529  16.808  1.6502  1.0491  2.5150
  706TMC3    C110434   0.820   2.379  16.430  0.5011 -0.8875  0.0389
  706TMC3    C210435   0.727   2.462  16.376  0.1247  0.0306  0.8009
  706TMC3    C310436   0.665   2.548  16.459  0.2735  0.5285  0.2637
  706TMC3    C410437   0.850   2.381  16.566  0.1478 -0.0787 -0.0551
  706TMC3    C510438   0.773   2.455  16.659 -0.1241 -0.3654 -0.3949
  706TMC3    C610439   0.684   2.544  16.599  0.5064  0.1554  0.2359
  706TMC3     C10440   0.920   2.334  16.341 -0.3986  0.3506 -0.2424
  706TMC3     O10441   1.002   2.248  16.381 -0.1401 -0.1175 -0.1409
  706TMC3     H10442   0.696   2.451  16.273  0.9710 -2.1480  0.7924
  706TMC3    H110443   0.925   2.310  16.599  2.4662  1.2344 -2.5416
  706TMC3    H210444   0.615   2.601  16.661 -0.4381 -0.2565 -0.4460
  706TMC3    C710445   0.728   2.380  16.776 -0.6644 -0.3825  0.2653
  706TMC3    C810446   0.653   2.673  16.397  0.0281  0.1218  0.4871
  706TMC3    O110447   0.782   2.273  16.797  0.0979 -0.5466  0.2655
  706TMC3    O210448   0.650   2.677  16.276 -0.1855  0.1682 -0.0752
  707TMC3    C110449   2.633   0.346   1.072  0.1297 -0.6437 -0.1449
  707TMC3    C210450   2.722   0.285   1.152 -0.3149  0.0892 -0.4263
  707TMC3    C310451   2.748   0.150   1.129 -0.0186 -0.1850 -0.6762
  707TMC3    C410452   2.550   0.275   0.986 -0.2200  0.6153 -0.4010
  707TMC3    C510453   2.567   0.141   0.975 -0.2330 -0.3197 -0.1122
  707TMC3    C610454   2.670   0.079   1.048 -0.4556 -0.2296 -0.1562
  707TMC3     C10455   2.626   0.490   1.088  0.2659 -0.9022 -0.3323
  707TMC3     O10456   2.716   0.542   1.153 -0.0044 -0.2290 -0.1801
  707TMC3     H10457   2.767   0.340   1.235  0.0124 -0.9042  0.0558
  707TMC3    H110458   2.459   0.318   0.945 -0.8333 -0.2420  0.0860
  707TMC3    H210459   2.676   4.695   1.030 -1.2097 -0.3414  0.2677
  707TMC3    C710460   2.481   0.071   0.888 -0.5055  0.8950  0.5502
  707TMC3    C810461   2.867   0.086   1.187 -0.0312  0.2792 -0.2500
  707TMC3    O110462   2.474   4.674   0.899 -0.2917  0.3040  0.2261
  707TMC3    O210463   2.898   4.698   1.148 -0.0047  0.0797 -0.8026
  708MPD2     C10464   3.290   0.750  13.685  0.1132  0.0867 -0.1577
  708MPD2    C110465   3.335   0.623  13.716  0.5414 -0.1840 -0.5878
  708MPD2    C210466   3.465   0.598  13.705 -0.3330 -0.2464 -0.1166
  708MPD2    C310467   3.559   0.696  13.671  0.4568 -0.7500  0.2241
  708MPD2    C410468   3.513   0.825  13.658  0.6809  0.6460 -0.0121
  708MPD2    C510469   3.379   0.848  13.668 -0.6111  0.7936  0.4527
  708MPD2     H10470   3.498   0.497  13.727  1.0644  0.0232 -0.9625
  708MPD2    H110471   3.581   0.903  13.626 -1.7694  3.3318  1.4001
  708MPD2    H210472   3.185   0.774  13.691  0.4149  1.4661 -0.4214
  708MPD2    H310473   3.348   0.947  13.638 -1.1312  0.3655 -0.4183
  708MPD2     N10474   3.701   0.677  13.663 -0.2291 -0.8940 -0.7784
  708MPD2    H510475   3.764   0.755  13.649 -4.4445  2.5855 -0.2688
  708MPD2    N110476   3.251   0.514  13.747  0.5744 -0.1413 -0.2955
  708MPD2    H710477   3.297   0.424  13.751  1.3899  0.1975 -1.7169
  709TMC3    C110478   3.062   0.388  13.789  0.6685 -0.2324 -0.0857
  709TMC3    C210479   2.990   0.329  13.686  0.4944 -1.0655 -0.8065
  709TMC3    C310480   3.004   0.196  13.655 -0.1381  0.1685  0.1560
  709TMC3    C410481   3.150   0.306  13.853 -0.0210 -0.0334 -0.0491
  709TMC3    C510482   3.165   0.173  13.813  0.4888 -0.2849  0.2647
  709TMC3    C610483   3.091   0.119  13.720  0.1688 -0.1001  0.3624
  709TMC3     C10484   3.110   0.516  13.759 -0.5230 -0.0333  0.1938
  709TMC3     O10485   3.026   0.601  13.731 -0.0423  0.1765  0.1581
  709TMC3     H10486   2.916   0.382  13.628  2.0703  0.8963 -1.0146
  709TMC3    H110487   3.220   0.349  13.924 -1.0242  1.5226  0.0054
  709TMC3    H210488   3.117   0.021  13.680 -3.2403 -0.4368 -0.9994
  709TMC3    C710489   3.305   0.171  13.793  0.5689 -0.9046 -0.6969
  709TMC3    C810490   2.947   0.140  13.538 -0.1033 -0.1821  0.4073
  709TMC3    O110491   3.356   0.256  13.722  0.5600  0.3901  0.2158
  709TMC3    O210492   2.881   0.042  13.556  0.8935 -0.2882  0.8066
  710TMC3    C110493   4.262   2.845   0.750 -0.2293  0.0985 -0.5873
  710TMC3    C210494   4.333   2.797   0.644  0.3348  0.7584 -0.4798
  710TMC3    C310495   4.423   2.707   0.672  0.1360 -0.5258 -0.1938
  710TMC3    C410496   4.290   2.821   0.884 -0.6499 -0.4504  0.1293
  710TMC3    C510497   4.378   2.724   0.904  0.3500 -0.0438  0.1401
  710TMC3    C610498   4.447   2.670   0.798 -0.3315  0.7991 -0.6019
  710TMC3     C10499   4.207   2.980   0.711  0.1053 -0.1677 -0.1391
  710TMC3     O10500   4.163   3.001   0.599 -0.1539  0.8083  0.0515
  710TMC3     H10501   4.300   2.827   0.545 -1.0815  0.9814  0.0630
  710TMC3    H110502   4.220   2.862   0.957  0.6182  1.5851  0.2191
  710TMC3    H210503   4.531   2.602   0.812  0.0253  1.5727  0.9968
  710TMC3    C710504   4.350   2.636   1.020 -0.2399 -0.4465 -0.0762
  710TMC3    C810505   4.494   2.639   0.560  0.8245 -0.4225  0.2392
  710TMC3    O110506   4.271   2.685   1.102 -0.4869 -0.0519 -0.0234
  710TMC3    O210507   4.549   2.531   0.599 -0.6171 -0.5995 -0.2311
  711TMC3    C110508   4.147   3.051  15.168 -0.1235 -0.0842  0.0882
  711TMC3    C210509   4.210   3.143  15.245 -0.1958  0.3576 -0.9898
  711TMC3    C310510   4.335   3.127  15.285  0.1680 -0.6428  0.2800
  711TMC3    C410511   4.213   2.942  15.113  0.6103 -0.9169 -0.0131
  711TMC3    C510512   4.347   2.928  15.151 -0.0338  0.1411  0.0934
  711TMC3    C610513   4.410   3.022  15.234  0.1123  0.2686 -0.8319
  711TMC3     C10514   4.001   3.049  15.159  0.2537  1.0518 -0.9180
  711TMC3     O10515   3.935   3.095  15.248 -0.0177 -0.3551  0.4831
  711TMC3     H10516   4.150   3.221  15.290  1.7363  0.3533  1.6251
  711TMC3    H110517   4.164   2.859  15.063  2.0462 -1.2967 -0.8070
  711TMC3    H210518   4.500   2.997  15.289  0.3052  1.1264 -0.7501
  711TMC3    C710519   4.415   2.803  15.150  0.1648  0.9882  0.4847
  711TMC3    C810520   4.358   3.159  15.420 -0.1835 -0.9065 -0.0402
  711TMC3    O110521   4.532   2.806  15.173  0.2370 -0.1322  0.8241
  711TMC3    O210522   4.267   3.184  15.493  0.6324  0.5072  0.2254
  712MPD2     C10523   1.620   4.379  13.537 -0.1246  0.1725  0.6345
  712MPD2    C110524   1.502   4.395  13.456  0.5643  0.1937 -0.1050
  712MPD2    C210525   1.507   4.497  13.365  0.3636 -0.5440  0.9881
  712MPD2    C310526   1.622   4.571  13.345  0.5041 -0.5779  0.1937
  712MPD2    C410527   1.736   4.557  13.426  0.1726 -0.2088  0.1375
  712MPD2    C510528   1.731   4.463  13.527 -0.5830  0.1877 -0.5667
  712MPD2     H10529   1.415   4.527  13.316  1.0094  0.9407  0.7014
  712MPD2    H110530   1.824   4.618  13.409 -1.1680  1.1216 -2.1361
  712MPD2    H210531   1.622   4.301  13.612 -1.1329  0.7461  1.2521
  712MPD2    H310532   1.813   4.452  13.598 -0.4336 -1.9288 -1.0774
  712MPD2     N10533   1.629   4.674  13.250 -0.0300 -0.2171 -0.3695
  712MPD2    H510534   1.710   0.013  13.249 -0.2648  0.1050  1.4157
  712MPD2    N110535   1.388   4.313  13.465 -0.0422 -0.4007 -0.2180
  712MPD2    H710536   1.311   4.340  13.404 -0.4720 -3.2954 -0.9630
  713TMC3    C110537   1.548   0.095  13.077 -0.4431 -0.2733 -0.1540
  713TMC3    C210538   1.633   0.197  13.124  0.4906  0.4343  0.3776
  713TMC3    C310539   1.669   0.301  13.041  0.5034 -0.0398 -0.1444
  713TMC3    C410540   1.494   0.108  12.953  0.1400 -0.4587  0.0116
  713TMC3    C510541   1.530   0.214  12.877 -0.5226 -0.6266 -0.0119
  713TMC3    C610542   1.620   0.307  12.912 -0.2666 -0.3486 -0.5500
  713TMC3     C10543   1.543   4.688  13.139  0.2373  0.4532 -0.1485
  713TMC3     O10544   1.442   4.624  13.108 -0.4251 -0.0914 -0.3582
  713TMC3     H10545   1.661   0.201  13.229 -0.8122  0.1697  0.7313
  713TMC3    H110546   1.427   0.041  12.901  0.0461  0.3464 -0.9219
  713TMC3    H210547   1.653   0.384  12.843  0.4949  0.3805  0.6211
  713TMC3    C710548   1.463   0.241  12.746 -0.2420 -0.1598  0.2510
  713TMC3    C810549   1.731   0.426  13.084 -0.0565  0.4102 -0.7846
  713TMC3    O110550   1.526   0.312  12.667  0.1840  0.5113 -0.3839
  713TMC3    O210551   1.713   0.521  13.009 -0.0051 -0.8713 -0.2709
  714MPD2     C10552   3.337   4.063   1.988  0.4013  0.4849  0.6126
  714MPD2    C110553   3.367   3.972   1.891  0.3822  0.1780 -0.2806
  714MPD2    C210554   3.266   3.916   1.823  0.5108 -0.6896  0.3411
  714MPD2    C310555   3.130   3.938   1.849 -0.3948  0.0871  0.5251
  714MPD2    C410556   3.103   4.023   1.951 -0.2744 -0.0719  0.4183
  714MPD2    C510557   3.207   4.081   2.020 -0.3703  0.9291 -0.7083
  714MPD2     H10558   3.282   3.855   1.735  2.2050  1.3717 -0.7922
  714MPD2    H110559   3.007   4.059   1.985 -1.0684 -1.6269 -0.1820
  714MPD2    H210560   3.413   4.121   2.038 -1.7830  0.9036  3.4544
  714MPD2    H310561   3.183   4.158   2.092 -4.6547 -0.9596 -0.1356
  714MPD2     N10562   3.030   3.886   1.757 -0.5035  0.5440  0.2011
  714MPD2    H510563   3.067   3.840   1.675  0.4322 -2.2866  2.2141
  714MPD2    N110564   3.502   3.954   1.857  0.4970  0.1084 -0.5216
  714MPD2    H710565   3.571   4.007   1.908 -0.4155  0.0129  0.8052
  715TMC3    C110566   3.699   3.871   1.740  0.2258  0.2408  0.3987
  715TMC3    C210567   3.744   3.801   1.633 -0.4239  0.4196 -0.1080
  715TMC3    C310568   3.864   3.831   1.578  0.2740 -0.2785 -0.1079
  715TMC3    C410569   3.778   3.964   1.799 -0.3865 -0.8498  1.0352
  715TMC3    C510570   3.900   3.992   1.739 -0.5171 -0.3102 -0.3319
  715TMC3    C610571   3.946   3.928   1.630  0.7197 -0.1777 -0.2134
  715TMC3     C10572   3.553   3.861   1.766  0.2355 -0.0022 -0.4804
  715TMC3     O10573   3.490   3.776   1.704  0.0773 -0.1450 -0.2597
  715TMC3     H10574   3.679   3.730   1.584  0.4770  0.3435 -1.1996
  715TMC3    H110575   3.739   4.028   1.878  1.8034  0.2999  1.1934
  715TMC3    H210576   4.036   3.960   1.579  0.4140  0.2369 -0.4916
  715TMC3    C710577   3.999   4.070   1.810 -0.4773  1.6235 -0.4235
  715TMC3    C810578   3.896   3.755   1.462  0.2264  0.1920 -0.1269
  715TMC3    O110579   4.104   4.082   1.752  0.0880 -0.2772 -0.1032
  715TMC3    O210580   3.833   3.651   1.446 -0.7616 -0.6602 -0.3241
  716MPD2     C10581   2.478   0.474  10.070 -0.1280 -1.1243  0.3186
  716MPD2    C110582   2.531   0.442   9.949 -0.1305  0.1949 -0.1706
  716MPD2    C210583   2.620   0.338   9.947 -0.2915 -0.0474  0.9022
  716MPD2    C310584   2.639   0.250  10.050  0.1243  0.4043 -0.3059
  716MPD2    C410585   2.567   0.264  10.164  0.6837  0.3110 -0.1888
  716MPD2    C510586   2.491   0.380  10.174 -0.0406  0.7717 -0.1422
  716MPD2     H10587   2.678   0.329   9.856 -2.3934  0.5201 -0.4985
  716MPD2    H110588   2.569   0.208  10.257 -0.4960 -0.0696 -0.3973
  716MPD2    H210589   2.405   0.551  10.092  0.5332 -0.3009 -0.3788
  716MPD2    H310590   2.440   0.396  10.268  0.1645  0.9263 -0.0577
  716MPD2     N10591   2.727   0.147  10.025  0.1753  0.5255  0.0636
  716MPD2    H510592   2.769   0.135   9.933 -1.3822  0.1603 -0.6092
  716MPD2    N110593   2.499   0.530   9.839  0.2574 -0.2824  0.1695
  716MPD2    H710594   2.438   0.608   9.860 -0.5239 -1.2258  1.4843
  717TMC3    C110595   2.787   4.649  10.029 -0.2411  0.6312 -0.3763
  717TMC3    C210596   2.765   4.637   9.897  0.3420 -0.3993  0.3545
  717TMC3    C310597   2.804   4.519   9.839 -0.4345 -0.2142  0.9766
  717TMC3    C410598   2.851   4.549  10.098  0.8339 -0.2971  0.3574
  717TMC3    C510599   2.887   4.431  10.041  0.0570 -0.2260 -0.1520
  717TMC3    C610600   2.857   4.415   9.909  0.1157  0.5346  0.5622
  717TMC3     C10601   2.730   0.033  10.102 -0.1564 -0.7551  0.4145
  717TMC3     O10602   2.709   0.010  10.220 -0.0660  0.2802  0.4354
  717TMC3     H10603   2.700   4.709   9.847  0.1086  0.4680  1.8908
  717TMC3    H110604   2.868   4.564  10.203  1.4132 -1.7809  0.4772
  717TMC3    H210605   2.849   4.314   9.870  1.2964  0.5097  0.3855
  717TMC3    C710606   2.959   4.334  10.118  0.5191 -0.2309  0.5068
  717TMC3    C810607   2.792   4.517   9.696  0.0286 -0.0820 -0.4398
  717TMC3    O110608   2.993   4.370  10.227  0.1034 -0.1165 -0.4426
  717TMC3    O210609   2.734   4.612   9.645  0.2862  0.1877  0.0987
  718MPD2     C10610   3.459   4.475  13.207 -0.0369 -0.0948  0.2926
  718MPD2    C110611   3.442   4.468  13.069 -0.1759  0.1659 -0.2100
  718MPD2    C210612   3.334   4.397  13.014 -0.1659  0.3722 -0.1800
  718MPD2    C310613   3.236   4.343  13.093 -0.1829  0.2918 -0.2426
  718MPD2    C410614   3.257   4.341  13.231 -0.1241 -0.2665 -0.2330
  718MPD2    C510615   3.367   4.404  13.286  0.4602  0.1480  0.2318
  718MPD2     H10616   3.321   4.403  12.907  0.7375  1.5823 -0.2253
  718MPD2    H110617   3.185   4.299  13.301 -0.9734  0.3866 -0.7043
  718MPD2    H210618   3.537   4.537  13.250 -0.7286  1.2713 -0.4192
  718MPD2    H310619   3.374   4.391  13.394 -0.9711 -1.6766  0.1204
  718MPD2     N10620   3.124   4.289  13.023  0.3518 -0.0038  0.5906
  718MPD2    H510621   3.135   4.291  12.922  2.3423  1.3339  0.8394
  718MPD2    N110622   3.527   4.551  12.993  0.5981 -0.6057 -0.0279
  718MPD2    H710623   3.606   4.597  13.039 -0.4570  1.6889 -0.4989
  719TMC3    C110624   3.602   4.695  12.817  0.3709  0.2986  0.7758
  719TMC3    C210625   3.509   0.060  12.762  0.5599 -0.0871  0.4389
  719TMC3    C310626   3.538   0.103  12.639  0.0169  0.6523  0.4500
  719TMC3    C410627   3.715   4.654  12.754 -0.0985  0.6499 -0.5379
  719TMC3    C510628   3.746   4.717  12.635 -0.1755  0.4317 -0.5924
  719TMC3    C610629   3.657   0.084  12.580 -0.5683 -0.3342 -0.3701
  719TMC3     C10630   3.522   4.579  12.860 -0.4038 -0.0034 -0.7665
  719TMC3     O10631   3.433   4.552  12.775 -0.4662 -0.3782 -0.5494
  719TMC3     H10632   3.416   0.080  12.814  0.1759 -0.1504 -0.2239
  719TMC3    H110633   3.775   4.583  12.810 -0.5000  0.2890 -0.5648
  719TMC3    H210634   3.667   0.112  12.476  3.2045  0.7322  0.2851
  719TMC3    C710635   3.846   4.654  12.545  0.1328  0.3280  0.6643
  719TMC3    C810636   3.426   0.102  12.541  0.5800 -0.5334 -0.0015
  719TMC3    O110637   3.846   4.704  12.433 -0.0652 -0.0805  0.1190
  719TMC3    O210638   3.439   0.151  12.430  0.0419 -0.0457 -0.0013
  720MPD2     C10639   1.045   1.339  14.126  0.1263 -0.2715  0.1380
  720MPD2    C110640   1.103   1.450  14.067  0.0645  0.1701 -0.7022
  720MPD2    C210641   1.246   1.458  14.068 -0.4117 -0.9755  0.6181
  720MPD2    C310642   1.321   1.358  14.124 -0.3187  0.2786 -0.9098
  720MPD2    C410643   1.259   1.249  14.182 -0.4377  0.1021  0.0697
  720MPD2    C510644   1.125   1.243  14.182 -0.1362  0.5886 -0.6031
  720MPD2     H10645   1.288   1.534  14.003 -0.1705  0.3089  2.3012
  720MPD2    H110646   1.305   1.157  14.218 -2.4580 -0.8541  0.2416
  720MPD2    H210647   0.937   1.331  14.123  0.0323  0.3144  2.0820
  720MPD2    H310648   1.072   1.157  14.219 -0.3784  0.0018 -2.2951
  720MPD2     N10649   1.463   1.377  14.130 -0.2381  0.2493 -0.3706
  720MPD2    H510650   1.509   1.463  14.103 -0.7403  0.4221 -0.6673
  720MPD2    N110651   1.017   1.543  14.014  0.4428 -0.5322  0.2060
  720MPD2    H710652   0.920   1.514  14.004  0.5166 -0.5767 -0.3405
  721TMC3    C110653   1.670   1.356  14.225  0.0105 -0.4278  0.1547
  721TMC3    C210654   1.724   1.349  14.350 -0.1929  0.0502  0.6565
  721TMC3    C310655   1.860   1.370  14.367  0.1555 -0.3798  0.2269
  721TMC3    C410656   1.738   1.388  14.115 -0.0746 -0.3085  1.1298
  721TMC3    C510657   1.871   1.407  14.136  0.1996 -0.7368 -0.4168
  721TMC3    C610658   1.932   1.402  14.255  0.2259  0.4000  0.4452
  721TMC3     C10659   1.541   1.296  14.213  0.0058  0.0879  0.1118
  721TMC3     O10660   1.520   1.184  14.265 -0.4045  0.1765  0.2238
  721TMC3     H10661   1.658   1.312  14.428 -0.4683  3.2648  1.9322
  721TMC3    H110662   1.688   1.387  14.018  0.3040  0.7979  0.9244
  721TMC3    H210663   2.037   1.429  14.268  0.3867 -0.3145  0.6293
  721TMC3    C710664   1.951   1.460  14.029  0.3915  0.0642 -0.3056
  721TMC3    C810665   1.925   1.372  14.492  0.1488  0.2988  0.1357
  721TMC3    O110666   2.061   1.410  14.008 -0.4130 -0.4404 -0.2398
  721TMC3    O210667   2.046   1.375  14.495  0.1576 -0.0703  0.2006
  722MPD2     C10668   0.359   4.482  12.911 -0.1350  0.5965 -0.4044
  722MPD2    C110669   0.303   4.511  12.788  0.3581  0.3150  0.5610
  722MPD2    C210670   0.173   4.463  12.759  0.0354 -0.1582 -0.2097
  722MPD2    C310671   0.100   4.387  12.849  0.6018 -0.5980  0.2158
  722MPD2    C410672   0.165   4.338  12.962  0.2358  0.1708  1.0308
  722MPD2    C510673   0.290   4.390  12.984 -0.0473 -0.5852 -0.0751
  722MPD2     H10674   0.123   4.492  12.667  2.3522  1.3610 -0.9933
  722MPD2    H110675   0.115   4.270  13.029  0.7410 -1.6522 -0.4328
  722MPD2    H210676   0.456   4.512  12.948  0.2691 -0.8017 -0.3414
  722MPD2    H310677   0.335   4.368  13.080 -2.4094  1.1868  1.4473
  722MPD2     N10678   4.691   4.365  12.820 -0.0312 -0.2005  0.4339
  722MPD2    H510679   4.660   4.392  12.727  2.6798  0.4826 -0.2460
  722MPD2    N110680   0.360   4.584  12.688  0.3053  0.3708  0.4640
  722MPD2    H710681   0.309   4.596  12.601  0.9297 -1.8221 -0.1841
  723TMC3    C110682   4.460   4.341  12.857 -0.0245 -0.4853  0.1064
  723TMC3    C210683   4.370   4.263  12.926  0.7191 -0.2136  0.6431
  723TMC3    C310684   4.239   4.300  12.925 -0.0110 -0.6652 -0.3728
  723TMC3    C410685   4.435   4.462  12.800 -0.1537  0.8309  0.3112
  723TMC3    C510686   4.305   4.497  12.814  0.5692 -0.0565 -1.2804
  723TMC3    C610687   4.201   4.422  12.873 -0.1520  0.8280 -0.5828
  723TMC3     C10688   4.593   4.312  12.901 -0.3346 -0.9978  0.1908
  723TMC3     O10689   4.606   4.266  13.017  0.2038  0.2992 -0.0355
  723TMC3     H10690   4.404   4.169  12.967 -0.7269 -1.6710 -1.4801
  723TMC3    H110691   4.510   4.516  12.743  0.0212 -1.7852 -1.9648
  723TMC3    H210692   4.097   4.440  12.847 -0.2991  3.1915  1.6044
  723TMC3    C710693   4.270   4.619  12.751  1.0152 -0.0402 -0.2748
  723TMC3    C810694   4.137   4.198  12.907 -0.6159 -0.2632 -0.3481
  723TMC3    O110695   4.358   4.663  12.676 -0.6235  0.4341  0.7813
  723TMC3    O210696   4.027   4.239  12.944 -0.1604 -0.9273 -0.4348
  724TMC3    C110697   0.093   2.703   9.567  0.1907 -0.0747  0.7411
  724TMC3    C210698   0.148   2.574   9.570 -0.5578 -0.0858 -0.4682
  724TMC3    C310699   0.275   2.563   9.521 -0.5482 -0.5950  0.0117
  724TMC3    C410700   0.141   2.804   9.491 -0.3934 -0.3382 -0.6042
  724TMC3    C510701   0.264   2.784   9.433 -0.1866 -0.5614 -0.2450
  724TMC3    C610702   0.332   2.662   9.451  0.1004 -0.0219 -0.6352
  724TMC3     C10703   4.670   2.710   9.594 -0.1053  0.7356  0.1636
  724TMC3     O10704   4.628   2.595   9.619  0.1054 -0.1377 -0.0609
  724TMC3     H10705   0.117   2.506   9.648  2.4887  1.0435  1.7121
  724TMC3    H110706   0.107   2.903   9.520  2.4803  0.2213  0.9226
  724TMC3    H210707   0.432   2.644   9.412  1.0920  1.0253  1.3605
  724TMC3    C710708   0.357   2.896   9.391  0.0910  0.4658  0.1211
  724TMC3    C810709   0.355   2.479   9.617 -0.8506  0.7058 -1.0662
  724TMC3    O110710   0.475   2.873   9.378  0.8360 -0.7416  0.3042
  724TMC3    O210711   0.324   2.363   9.647  0.4768 -0.4200  0.0953
  725TMC3    C110712   2.118   1.762  12.699  0.7280  0.2615 -0.5041
  725TMC3    C210713   1.985   1.788  12.700  0.2054 -0.3937 -0.6058
  725TMC3    C310714   1.902   1.678  12.692  0.4055  0.3473 -0.4002
  725TMC3    C410715   2.165   1.636  12.664  0.3435 -0.0433 -0.4680
  725TMC3    C510716   2.071   1.533  12.648  0.1992 -0.7824 -0.7197
  725TMC3    C610717   1.935   1.550  12.662  0.2020  0.1060 -0.4286
  725TMC3     C10718   2.208   1.874  12.673 -0.2968  0.5645 -0.0916
  725TMC3     O10719   2.164   1.982  12.700 -0.4433 -0.2268 -0.2023
  725TMC3     H10720   1.949   1.889  12.713 -0.9483 -0.8646 -0.1227
  725TMC3    H110721   2.267   1.624  12.630 -0.3107 -0.0724 -2.4248
  725TMC3    H210722   1.855   1.477  12.659 -0.4449  0.7454  1.5435
  725TMC3    C710723   2.118   1.418  12.571 -0.2511  0.3322 -0.7225
  725TMC3    C810724   1.766   1.713  12.671  0.1121  0.2639  0.0380
  725TMC3    O110725   2.221   1.428  12.506 -0.1899 -0.6756  0.5662
  725TMC3    O210726   1.720   1.809  12.725  0.4898  0.2055  0.0211
  726MPD2     C10727   0.291   2.724  10.318  0.5551 -0.6567 -0.0910
  726MPD2    C110728   0.192   2.804  10.264 -0.4549  0.4197  0.2204
  726MPD2    C210729   0.060   2.770  10.282 -0.3055 -0.1194  0.4241
  726MPD2    C310730   0.025   2.652  10.340 -0.1289  0.1270  0.1906
  726MPD2    C410731   0.122   2.571  10.390 -0.2850 -0.1321  0.3428
  726MPD2    C510732   0.256   2.602  10.373  0.9542  0.2504  0.9766
  726MPD2     H10733   4.710   2.836  10.236 -0.2216 -1.0131 -1.0135
  726MPD2    H110734   0.089   2.475  10.429  1.3523 -0.9767 -0.3474
  726MPD2    H210735   0.398   2.740  10.306  0.2698 -0.1127 -1.8937
  726MPD2    H310736   0.341   2.546  10.411 -1.2477 -2.5367  1.7815
  726MPD2     N10737   4.613   2.607  10.345  0.2318 -0.2913 -0.2497
  726MPD2    H510738   4.595   2.517  10.389  0.0692 -0.5109 -0.7705
  726MPD2    N110739   0.213   2.932  10.213  0.1378  0.1802 -0.2190
  726MPD2    H710740   0.123   2.975  10.192 -0.3644 -1.0307 -0.5603
  727TMC3    C110741   0.331   3.129  10.141 -0.1429  0.2550 -0.5793
  727TMC3    C210742   0.443   3.202  10.125 -0.7052  0.0228  0.0661
  727TMC3    C310743   0.443   3.333  10.084  0.2539  0.0980 -0.7235
  727TMC3    C410744   0.215   3.182  10.103  0.0657  0.4040  0.7983
  727TMC3    C510745   0.208   3.314  10.056  0.3494  0.1632  0.2995
  727TMC3    C610746   0.322   3.384  10.042 -0.3707 -0.5958  0.0114
  727TMC3     C10747   0.334   2.989  10.176 -0.9956  0.0832  0.2948
  727TMC3     O10748   0.448   2.940  10.175 -0.2335  0.1613 -0.0696
  727TMC3     H10749   0.539   3.159  10.154  0.2911  2.2624  0.1195
  727TMC3    H110750   0.132   3.120  10.074  1.2495 -1.3374  1.1486
  727TMC3    H210751   0.317   3.488  10.012  0.9368 -0.6140 -0.2620
  727TMC3    C710752   0.082   3.368  10.000  0.6345 -0.1572 -0.0305
  727TMC3    C810753   0.572   3.397  10.053  0.0426 -0.2897  0.6654
  727TMC3    O110754   0.104   3.480   9.961  0.1352  0.0642  0.4016
  727TMC3    O210755   0.661   3.317  10.073  0.5428 -0.3995  0.0683
  728TMC3    C110756   4.104   1.985  15.447 -0.1937 -0.3770 -0.1414
  728TMC3    C210757   4.162   2.104  15.484 -0.0931 -0.8933 -0.0485
  728TMC3    C310758   4.160   2.205  15.388 -0.1031 -0.0136  0.2568
  728TMC3    C410759   4.068   1.960  15.313 -0.0395 -1.1964  0.3041
  728TMC3    C510760   4.068   2.069  15.228  0.5021  0.8095  0.1101
  728TMC3    C610761   4.111   2.194  15.263  0.2713 -0.4548 -0.1017
  728TMC3     C10762   4.079   1.889  15.553 -0.4128 -0.4404 -0.1707
  728TMC3     O10763   4.152   1.897  15.648 -0.5031 -0.3597 -0.0381
  728TMC3     H10764   4.185   2.128  15.587 -0.0800  2.9161 -0.9583
  728TMC3    H110765   4.027   1.864  15.284 -1.7930 -0.7581  1.3436
  728TMC3    H210766   4.109   2.273  15.189  0.0598  0.5782  1.0176
  728TMC3    C710767   4.050   2.030  15.093  0.8745 -0.0362  0.1213
  728TMC3    C810768   4.201   2.339  15.440  0.4173  0.1284 -0.8346
  728TMC3    O110769   4.082   1.915  15.070  0.1607 -0.9569 -0.4927
  728TMC3    O210770   4.294   2.332  15.524 -0.5537 -0.2816  0.2738
  729MPD2     C10771   1.622   2.638  16.688 -0.5614  0.3013  0.2136
  729MPD2    C110772   1.531   2.715  16.618 -0.3815 -0.4224  0.1479
  729MPD2    C210773   1.413   2.751  16.679  0.0745  0.3406  0.0376
  729MPD2    C310774   1.382   2.718  16.815 -0.6615 -0.3727  0.1900
  729MPD2    C410775   1.472   2.640  16.881  0.6625 -0.1666 -0.4223
  729MPD2    C510776   1.587   2.600  16.815 -0.1962  1.0886 -0.3139
  729MPD2     H10777   1.348   2.824  16.633 -0.1948 -0.0851 -0.2595
  729MPD2    H110778   1.459   2.606  16.983 -2.2282 -0.6883 -0.9648
  729MPD2    H210779   1.718   2.606  16.649 -0.7018 -1.2609  1.1474
  729MPD2    H310780   1.660   2.536  16.863  0.9150  0.7312 -2.4686
  729MPD2     N10781   1.253   2.761  16.862 -0.1748  0.4420  0.5956
  729MPD2    H510782   1.202   2.825  16.802 -3.3190 -1.4317  1.3041
  729MPD2    N110783   1.574   2.760  16.489 -0.2399  0.3493 -0.8867
  729MPD2    H710784   1.672   2.737  16.474 -0.8459 -0.6748 -3.3695
  730TMC3    C110785   1.082   2.798  17.031 -0.1652  0.3769  0.0681
  730TMC3    C210786   1.042   2.791  17.164  0.8535 -0.0570  0.2100
  730TMC3    C310787   0.941   2.870  17.199 -0.0280 -0.3441  0.3183
  730TMC3    C410788   1.025   2.888  16.944 -0.2044  0.3578 -0.3941
  730TMC3    C510789   0.933   2.976  16.993 -0.0085  0.1370  0.3937
  730TMC3    C610790   0.885   2.967  17.120 -0.1979 -0.4639 -0.2091
  730TMC3     C10791   1.201   2.732  16.988 -0.3028 -0.2526 -0.0721
  730TMC3     O10792   1.241   2.645  17.066 -0.2193  0.0062  0.0853
  730TMC3     H10793   1.082   2.712  17.226  2.1203 -0.8393 -1.6154
  730TMC3    H110794   1.052   2.902  16.840  0.3223  1.6756 -0.0806
  730TMC3    H210795   0.800   3.024  17.156  0.1120 -0.9121  1.2592
  730TMC3    C710796   0.894   3.089  16.905 -0.7071  0.5365 -0.2037
  730TMC3    C810797   0.926   2.880  17.341 -0.2058  0.0608 -0.1579
  730TMC3    O110798   0.969   3.105  16.814  0.1597 -0.0816 -0.0218
  730TMC3    O210799   0.821   2.917  17.388 -0.3785  0.5058 -0.4889
  731MPD2     C10800   1.620   0.708  12.280 -0.6828  0.6091 -1.1724
  731MPD2    C110801   1.500   0.729  12.223  0.0671  0.0274 -0.8282
  731MPD2    C210802   1.401   0.802  12.294 -0.0760 -0.8287  0.0472
  731MPD2    C310803   1.429   0.845  12.417  0.0944  0.8830  0.4025
  731MPD2    C410804   1.552   0.826  12.469 -0.4127 -0.5338 -0.1529
  731MPD2    C510805   1.650   0.753  12.405  0.2695 -0.5029 -0.4320
  731MPD2     H10806   1.302   0.813  12.251 -0.2581  0.5178  0.8127
  731MPD2    H110807   1.573   0.866  12.568 -1.1500 -1.0521  0.2106
  731MPD2    H210808   1.691   0.648  12.224 -2.3121 -0.6229 -1.9076
  731MPD2    H310809   1.748   0.733  12.446 -0.4667 -1.2660  0.9598
  731MPD2     N10810   1.324   0.916  12.488 -0.1660  0.4092 -0.3679
  731MPD2    H510811   1.234   0.918  12.440 -1.0540  1.9584  1.3435
  731MPD2    N110812   1.486   0.692  12.088 -0.3464  0.1996  0.2931
  731MPD2    H710813   1.566   0.642  12.050 -0.8297  0.0865 -0.5736
  732TMC3    C110814   1.374   0.632  11.892 -0.0549  0.1038  0.1290
  732TMC3    C210815   1.255   0.618  11.823 -0.1543 -0.4891 -0.4349
  732TMC3    C310816   1.251   0.542  11.715 -0.2115 -0.4345  0.1896
  732TMC3    C410817   1.487   0.583  11.843  0.5945  0.3790 -0.1942
  732TMC3    C510818   1.483   0.506  11.729 -0.2058  0.1980 -0.3414
  732TMC3    C610819   1.367   0.484  11.665  0.0838  0.6316  0.7422
  732TMC3     C10820   1.364   0.691  12.022 -0.4833  0.1214 -0.3076
  732TMC3     O10821   1.258   0.749  12.050  0.3235 -0.0044  1.3756
  732TMC3     H10822   1.166   0.670  11.858  0.5002 -0.2349  0.8451
  732TMC3    H110823   1.584   0.608  11.886  0.1632 -0.2407  1.1631
  732TMC3    H210824   1.371   0.427  11.573 -1.0809  0.7217  0.6421
  732TMC3    C710825   1.610   0.457  11.675 -0.1252 -0.4617  0.2609
  732TMC3    C810826   1.126   0.470  11.696 -0.1077  1.3134 -0.2660
  732TMC3    O110827   1.614   0.350  11.616 -0.0505 -0.3405 -0.0961
  732TMC3    O210828   1.111   0.393  11.604  0.5762  0.2114 -0.1779
  733TMC3    C110829   2.700   4.170  12.878  0.7267 -0.1364 -0.3121
  733TMC3    C210830   2.779   4.193  12.987  0.3711  0.0146  0.3608
  733TMC3    C310831   2.902   4.250  12.970 -0.0227  0.2425 -0.2578
  733TMC3    C410832   2.739   4.219  12.759  0.3601  0.2081  0.0796
  733TMC3    C510833   2.848   4.299  12.744 -0.0498 -0.1623 -0.3791
  733TMC3    C610834   2.930   4.322  12.855 -0.1327 -0.1936  0.4218
  733TMC3     C10835   2.556   4.157  12.899  0.0401  0.4577  0.3533
  733TMC3     O10836   2.484   4.213  12.818  0.7691  0.0389  0.9151
  733TMC3     H10837   2.735   4.152  13.077  0.4222 -2.4956 -0.7566
  733TMC3    H110838   2.673   4.203  12.675  1.7564 -0.7986 -0.8358
  733TMC3    H210839   3.003   4.402  12.854  0.2801 -0.5752  0.2084
  733TMC3    C710840   2.862   4.382  12.635  0.9499 -0.3074 -0.2870
  733TMC3    C810841   3.004   4.257  13.075  0.6360 -0.0534  0.2903
  733TMC3    O110842   2.764   4.394  12.557 -0.2136  0.7434 -0.9926
  733TMC3    O210843   2.966   4.221  13.186  0.0590  0.6821  0.5624
  734MPD2     C10844   4.201   1.530  12.473 -0.0485  0.5878  0.0456
  734MPD2    C110845   4.107   1.490  12.380 -0.1032  0.7404  0.0172
  734MPD2    C210846   4.149   1.489  12.245 -0.2870 -0.4456  0.7081
  734MPD2    C310847   4.273   1.545  12.212 -0.0557 -0.6532 -0.1429
  734MPD2    C410848   4.350   1.600  12.305 -0.6276 -0.2766  0.0586
  734MPD2    C510849   4.315   1.592  12.438  0.2305 -0.2720 -0.2448
  734MPD2     H10850   4.089   1.432  12.176  1.0914  1.8881 -2.4246
  734MPD2    H110851   4.442   1.651  12.279  0.0124 -2.3597 -1.8173
  734MPD2    H210852   4.187   1.530  12.581  1.2009 -0.7445  0.2170
  734MPD2    H310853   4.381   1.638  12.509  0.9387 -0.5818 -0.6987
  734MPD2     N10854   4.303   1.541  12.074 -0.5630  0.2419 -0.1993
  734MPD2    H510855   4.228   1.514  12.011 -2.5027  1.5264  1.5714
  734MPD2    N110856   3.991   1.414  12.424  0.0173  0.9223  0.0995
  734MPD2    H710857   3.995   1.376  12.518 -1.4689 -0.2236 -0.2908
  735TMC3    C110858   3.818   1.262  12.362  0.5704  0.1797  0.3675
  735TMC3    C210859   3.725   1.236  12.270  0.0864 -0.0945 -0.0181
  735TMC3    C310860   3.693   1.101  12.252  1.1115 -0.6452  0.2366
  735TMC3    C410861   3.883   1.162  12.431 -0.5924  0.3126 -0.4492
  735TMC3    C510862   3.847   1.026  12.412  0.1008  0.7372 -0.0230
  735TMC3    C610863   3.745   0.996  12.323 -0.3982  0.1685 -0.2968
  735TMC3     C10864   3.894   1.373  12.332 -0.4602 -0.6877 -0.2589
  735TMC3     O10865   3.870   1.425  12.221  0.0284 -0.0464 -0.2621
  735TMC3     H10866   3.658   1.313  12.233 -1.9195 -2.0350 -0.4390
  735TMC3    H110867   3.972   1.181  12.491  0.9569  2.1806 -3.3951
  735TMC3    H210868   3.722   0.891  12.306 -0.1318  0.1840 -0.7520
  735TMC3    C710869   3.967   0.950  12.408 -0.8924  0.1537 -0.2978
  735TMC3    C810870   3.681   1.072  12.110 -0.4119  0.0063  0.0855
  735TMC3    O110871   4.045   0.998  12.324 -0.9154  0.2336 -0.1394
  735TMC3    O210872   3.653   0.963  12.069 -0.1928 -0.4171 -0.7653
  736MPD2     C10873   4.095   0.667  12.587 -0.3076  0.2134  0.4804
  736MPD2    C110874   4.092   0.765  12.497  0.1070  0.1888  0.2114
  736MPD2    C210875   4.191   0.767  12.401 -0.4650  0.3606 -0.8188
  736MPD2    C310876   4.299   0.688  12.405 -0.0095 -0.6275  0.0025
  736MPD2    C410877   4.301   0.588  12.498 -0.1487 -0.2006 -0.4213
  736MPD2    C510878   4.197   0.574  12.589  0.7898 -0.3035  0.1292
  736MPD2     H10879   4.182   0.830  12.314 -1.5736  1.0666 -0.1950
  736MPD2    H110880   4.377   0.511  12.510 -0.5970 -0.5914 -0.0954
  736MPD2    H210881   4.009   0.654  12.652 -1.8083 -2.3400 -2.0345
  736MPD2    H310882   4.197   0.485  12.652  2.7090 -1.3355 -1.3329
  736MPD2     N10883   4.402   0.712  12.308  0.1182  0.1704 -0.1050
  736MPD2    H510884   4.380   0.774  12.231 -1.8045  0.7585  0.9120
  736MPD2    N110885   3.979   0.850  12.501  0.0801  0.5941 -0.4432
  736MPD2    H710886   3.903   0.830  12.566 -1.0074  0.4291 -1.7616
  737TMC3    C110887   4.606   0.678  12.206 -0.3454 -0.6385  0.1258
  737TMC3    C210888   4.606   0.813  12.169 -0.5236 -0.3098  0.0847
  737TMC3    C310889   4.680   0.846  12.053  0.4537  0.3327  0.3954
  737TMC3    C410890   4.670   0.581  12.144 -0.2452 -0.7446 -0.2295
  737TMC3    C510891   0.028   0.616  12.033  0.0725  0.8181 -0.4041
  737TMC3    C610892   0.031   0.746  11.987 -0.1305  0.5792 -0.4902
  737TMC3     C10893   4.513   0.630  12.298  0.0525 -0.1986 -0.4425
  737TMC3     O10894   4.536   0.523  12.353 -0.2430 -0.3130 -0.0614
  737TMC3     H10895   4.551   0.895  12.214  1.5944  0.0129  2.0734
  737TMC3    H110896   4.656   0.475  12.163  0.7206 -0.9469 -0.6558
  737TMC3    H210897   0.086   0.776  11.898  2.3527 -0.9574  0.5231
  737TMC3    C710898   0.083   0.514  11.940  0.3386  0.0192  0.3832
  737TMC3    C810899   4.715   0.982  12.035  0.4430 -0.6954 -0.8117
  737TMC3    O110900   0.040   0.399  11.943 -0.4306  0.6564  0.0692
  737TMC3    O210901   4.706   1.048  12.137 -0.3864  0.1236 -0.0870
  738MPD2     C10902   0.633   0.239  15.478  0.0627 -0.1466 -0.0845
  738MPD2    C110903   0.605   0.215  15.344 -0.5934  0.9443  0.7250
  738MPD2    C210904   0.672   0.288  15.250 -0.5910  0.5576 -0.7511
  738MPD2    C310905   0.771   0.378  15.278  0.6002  0.6286 -0.5813
  738MPD2    C410906   0.811   0.390  15.409  0.9065  0.0808 -0.4523
  738MPD2    C510907   0.738   0.323  15.507  0.0102  0.8227  0.9524
  738MPD2     H10908   0.650   0.275  15.144  1.0674 -1.8118 -0.8229
  738MPD2    H110909   0.904   0.440  15.434  0.1962 -0.1515  2.6395
  738MPD2    H210910   0.587   0.186  15.562  0.1743 -2.8842 -1.7539
  738MPD2    H310911   0.773   0.338  15.609 -2.7127 -0.1096  2.0090
  738MPD2     N10912   0.842   0.449  15.182  0.4184  0.7103 -0.3324
  738MPD2    H510913   0.913   0.510  15.221  0.7226 -1.1448  2.0034
  738MPD2    N110914   0.499   0.135  15.302  0.2065 -0.0128  0.3078
  738MPD2    H710915   0.507   0.112  15.203  2.6718  0.9305  0.2841
  739TMC3    C110916   0.926   0.536  14.982  0.3678  0.8110  1.1023
  739TMC3    C210917   0.937   0.540  14.848 -0.2506  0.1972 -0.2972
  739TMC3    C310918   1.042   0.602  14.787 -0.6196 -0.5311 -0.5966
  739TMC3    C410919   1.015   0.598  15.061  0.0923  0.1522  0.3417
  739TMC3    C510920   1.117   0.658  14.989  0.5682  0.1762 -0.8496
  739TMC3    C610921   1.139   0.659  14.855 -0.0205  0.5802 -0.8414
  739TMC3     C10922   0.833   0.442  15.043 -0.0277  0.4444  0.7974
  739TMC3     O10923   0.749   0.389  14.970 -0.1988  0.4250 -0.1371
  739TMC3     H10924   0.859   0.489  14.792 -0.5804 -1.6435  1.8585
  739TMC3    H110925   1.023   0.583  15.168 -0.8099  0.6325  0.4729
  739TMC3    H210926   1.228   0.700  14.808  0.4539  0.7495  0.2073
  739TMC3    C710927   1.214   0.719  15.073  0.1526 -0.0022 -0.6109
  739TMC3    C810928   1.057   0.601  14.647  0.1215 -0.1561 -0.3975
  739TMC3    O110929   1.237   0.657  15.178  0.2217 -0.1302 -0.4539
  739TMC3    O210930   0.950   0.623  14.586 -0.0054 -0.5553 -0.3802
  740TMC3    C110931   1.292   1.756  14.347  0.4521 -0.0452  0.2695
  740TMC3    C210932   1.373   1.721  14.454 -0.3338 -0.0120 -0.4925
  740TMC3    C310933   1.503   1.705  14.422 -0.7024  0.2692  0.0226
  740TMC3    C410934   1.335   1.760  14.215  0.4141  0.2789  0.2671
  740TMC3    C510935   1.460   1.722  14.181 -0.3739  0.3018  0.5658
  740TMC3    C610936   1.539   1.695  14.293 -0.0042  0.5003  0.0026
  740TMC3     C10937   1.207   1.868  14.376  0.3694  0.3950  0.9754
  740TMC3     O10938   1.217   1.970  14.312  0.4477  0.5030 -0.0298
  740TMC3     H10939   1.325   1.718  14.551 -0.8812 -0.3004 -0.7686
  740TMC3    H110940   1.263   1.800  14.145 -0.5149 -1.2156  0.3634
  740TMC3    H210941   1.641   1.663  14.275 -0.6100 -1.6761  0.5125
  740TMC3    C710942   1.513   1.699  14.051  0.3665  0.1224 -0.4019
  740TMC3    C810943   1.605   1.671  14.524  0.4380 -0.5359  0.1676
  740TMC3    O110944   1.617   1.626  14.045  0.0709  0.2849  0.7666
  740TMC3    O210945   1.717   1.642  14.491 -0.5776  0.3906  0.0875
  741TMC3    C110946   0.830   1.365  14.418 -0.9402  0.7102 -0.0392
  741TMC3    C210947   0.727   1.293  14.355  0.0661 -0.1430  0.8505
  741TMC3    C310948   0.692   1.174  14.404 -0.1647  0.7078 -1.0228
  741TMC3    C410949   0.902   1.312  14.525  0.2115  0.3924 -0.4446
  741TMC3    C510950   0.844   1.203  14.584  0.1542 -0.8000  0.1765
  741TMC3    C610951   0.748   1.125  14.520 -0.8290  1.0271  0.5428
  741TMC3     C10952   0.862   1.501  14.381 -0.3205  0.3734  0.0658
  741TMC3     O10953   0.980   1.534  14.401 -0.4513 -0.0989  0.9475
  741TMC3     H10954   0.675   1.328  14.267  1.4020 -1.3703 -0.4445
  741TMC3    H110955   0.984   1.364  14.573 -2.5209  1.3143  3.2180
  741TMC3    H210956   0.694   1.041  14.561  0.2729  0.8274  1.5937
  741TMC3    C710957   0.852   1.194  14.729  0.6832 -0.1125 -0.5598
  741TMC3    C810958   0.595   1.100  14.330 -0.2802  0.7349 -0.4173
  741TMC3    O110959   0.888   1.290  14.796 -0.1647 -0.4437  0.1245
  741TMC3    O210960   0.512   1.163  14.268  0.3927  0.0017  0.4196
  742TMC3    C110961   0.034   3.752  15.234 -0.5116  0.0209 -0.0838
  742TMC3    C210962   4.690   3.810  15.133  0.1592  0.0391 -0.6340
  742TMC3    C310963   0.021   3.803  15.006  0.6302 -0.0068  0.0359
  742TMC3    C410964   0.152   3.682  15.215  0.5135  0.2930  0.5277
  742TMC3    C510965   0.199   3.669  15.085  0.3447 -0.1669 -0.4038
  742TMC3    C610966   0.134   3.732  14.976  0.3591 -0.9658  0.1551
  742TMC3     C10967   4.693   3.774  15.364 -0.4814  0.0719 -0.1689
  742TMC3     O10968   4.627   3.878  15.378  0.2594 -0.2947  0.1816
  742TMC3     H10969   4.620   3.888  15.161  1.1013  0.7962 -0.3819
  742TMC3    H110970   0.209   3.655  15.303  0.3289 -0.8342  0.3048
  742TMC3    H210971   0.181   3.729  14.878 -0.7471  0.5898 -0.4159
  742TMC3    C710972   0.333   3.639  15.071  0.8329 -0.3794 -0.1778
  742TMC3    C810973   4.683   3.872  14.891 -0.3672  0.5748 -0.7898
  742TMC3    O110974   0.389   3.670  14.963 -0.0993 -0.0004 -0.4311
  742TMC3    O210975   0.030   3.877  14.791  0.6120 -0.3772  0.4355
  743MPD2     C10976   3.876   0.628   1.739 -0.4001  0.2990  0.4780
  743MPD2    C110977   3.860   0.708   1.630 -0.0616  0.4029 -0.1499
  743MPD2    C210978   3.970   0.780   1.585 -0.2093  0.4515  0.4042
  743MPD2    C310979   4.088   0.786   1.651 -0.4988  0.3862 -0.4283
  743MPD2    C410980   4.100   0.706   1.762  0.9340  0.2926 -0.7200
  743MPD2    C510981   3.992   0.630   1.808  0.8033 -0.2598 -0.4234
  743MPD2     H10982   3.963   0.835   1.492 -0.5244 -2.7394 -1.4593
  743MPD2    H110983   4.191   0.701   1.819  0.1951 -0.3281  0.4074
  743MPD2    H210984   3.800   0.557   1.768  0.1789 -0.5298 -0.0473
  743MPD2    H310985   4.007   0.566   1.895 -0.3886 -0.7248 -0.5643
  743MPD2     N10986   4.179   0.887   1.616 -0.1915 -0.0057 -0.3389
  743MPD2    H510987   4.160   0.951   1.539 -1.9414 -2.3233 -1.8346
  743MPD2    N110988   3.734   0.710   1.567  0.1109  0.0040 -0.0138
  743MPD2    H710989   3.661   0.651   1.606  0.9042 -0.3352  0.9538
  744TMC3    C110990   3.555   0.775   1.432  0.9534 -0.2601  0.7294
  744TMC3    C210991   3.494   0.653   1.448  0.4803 -0.3666  0.2676
  744TMC3    C310992   3.365   0.636   1.402 -0.4755 -0.8529  0.6805
  744TMC3    C410993   3.493   0.880   1.385 -0.1399  0.0309 -0.0226
  744TMC3    C510994   3.362   0.862   1.346  0.6403  0.7203  0.1582
  744TMC3    C610995   3.294   0.743   1.352 -0.3565  0.0006  0.1341
  744TMC3     C10996   3.696   0.793   1.466  0.6105 -0.7228 -0.5478
  744TMC3     O10997   3.754   0.897   1.445 -0.3441  0.0793 -0.2536
  744TMC3     H10998   3.536   0.570   1.504 -0.0683 -0.5346  0.4353
  744TMC3    H110999   3.550   0.972   1.385 -1.0751  0.6048  0.8866
  744TMC3    H211000   3.200   0.724   1.301 -0.3186  0.2052 -0.0141
  744TMC3    C711001   3.324   0.971   1.257 -0.6178  0.2820 -0.3686
  744TMC3    C811002   3.288   0.519   1.439 -0.2884  0.2854 -0.0455
  744TMC3    O111003   3.424   1.031   1.211  0.0639 -0.2334 -0.4152
  744TMC3    O211004   3.176   0.530   1.486  0.5395  0.4270  0.2998
  745TMC3    C111005   1.246   4.136  13.529  0.5515  0.2157  0.1327
  745TMC3    C211006   1.156   4.136  13.633 -0.1349  0.3293  0.0624
  745TMC3    C311007   1.025   4.145  13.599  0.9758  0.1818  0.3038
  745TMC3    C411008   1.212   4.135  13.396  0.3899 -1.2323  0.5651
  745TMC3    C511009   1.079   4.118  13.371  0.5621 -0.6157 -0.3165
  745TMC3    C611010   0.980   4.129  13.469  0.0628  0.3106 -0.3127
  745TMC3     C11011   1.368   4.214  13.557 -0.5356  0.3605 -0.3261
  745TMC3     O11012   1.415   4.204  13.667  0.2517 -0.0143  0.3681
  745TMC3     H11013   1.184   4.130  13.737  2.1378 -2.4266 -0.6848
  745TMC3    H111014   1.288   4.125  13.320 -0.2692  1.4703 -0.4651
  745TMC3    H211015   0.874   4.120  13.446  0.3721  0.5539 -1.7946
  745TMC3    C711016   1.041   4.122  13.234  0.0844 -0.1943  0.4223
  745TMC3    C811017   0.960   4.253  13.671  0.1057  0.0769 -0.2808
  745TMC3    O111018   0.925   4.157  13.210 -0.3966 -0.0659  0.0432
  745TMC3    O211019   0.840   4.267  13.670 -0.5180  0.0731 -0.0525
  746TMC3    C111020   3.430   0.488  11.335  0.1105  0.1642  0.1812
  746TMC3    C211021   3.530   0.391  11.321 -0.0276 -0.5714  0.1864
  746TMC3    C311022   3.527   0.296  11.225  0.1475  0.5414  0.3781
  746TMC3    C411023   3.310   0.459  11.280  0.2583 -0.0789  0.2497
  746TMC3    C511024   3.305   0.364  11.183 -0.3803  0.1888 -0.4073
  746TMC3    C611025   3.414   0.288  11.148 -0.5258 -0.6478 -0.3408
  746TMC3     C11026   3.481   0.612  11.274 -0.5275  0.2090  0.7426
  746TMC3     O11027   3.412   0.649  11.179 -0.1801 -0.0677 -0.1822
  746TMC3     H11028   3.626   0.398  11.371 -0.3878 -1.2714  0.9821
  746TMC3    H111029   3.224   0.519  11.306 -0.0527  0.3177 -1.6392
  746TMC3    H211030   3.416   0.229  11.057  0.0375 -0.6508 -0.3268
  746TMC3    C711031   3.212   0.378  11.081  0.3980  1.0803  1.0389
  746TMC3    C811032   3.654   0.301  11.155 -0.5103 -0.6623  0.2542
  746TMC3    O111033   3.173   0.276  11.024  0.5519 -0.2004  0.2919
  746TMC3    O211034   3.752   0.264  11.218 -0.6520 -0.1253 -0.4354
  747TMC3    C111035   0.785   0.670  11.156 -0.1517 -0.9405 -0.7764
  747TMC3    C211036   0.684   0.622  11.234  0.1679  0.1248 -0.5354
  747TMC3    C311037   0.696   0.607  11.371  0.2131 -0.1598  0.1672
  747TMC3    C411038   0.894   0.729  11.216 -0.7785 -0.1261  0.2928
  747TMC3    C511039   0.897   0.718  11.355 -0.4138  0.6038 -0.2951
  747TMC3    C611040   0.808   0.655  11.436  0.5234 -0.5176 -0.1448
  747TMC3     C11041   0.767   0.709  11.019 -0.1503  0.3056 -0.3226
  747TMC3     O11042   0.817   0.815  10.990  0.6047 -0.2942  0.3097
  747TMC3     H11043   0.598   0.571  11.190  0.8518 -1.4022 -0.0857
  747TMC3    H111044   0.970   0.778  11.157 -0.5723  0.0691  0.7264
  747TMC3    H211045   0.828   0.641  11.542  1.3551 -1.7872 -0.4684
  747TMC3    C711046   1.021   0.768  11.410  0.8648 -0.4936 -0.3981
  747TMC3    C811047   0.625   0.491  11.437  0.5062  0.0231  0.4842
  747TMC3    O111048   1.006   0.831  11.512 -0.1527 -0.1088  0.0323
  747TMC3    O211049   0.600   0.390  11.370  0.2034 -0.3804 -0.7544
  748MPD2     C11050   1.888   2.513   0.915  0.3300 -0.4573  0.1920
  748MPD2    C111051   1.940   2.390   0.957 -0.5088  0.2844  0.0148
  748MPD2    C211052   2.052   2.390   1.040 -0.4897 -0.5417  0.3828
  748MPD2    C311053   2.110   2.509   1.082 -1.1810 -0.1519  0.0352
  748MPD2    C411054   2.064   2.627   1.033  0.2067  0.4361  0.7356
  748MPD2    C511055   1.951   2.628   0.955 -0.2987  0.6037  0.2721
  748MPD2     H11056   2.079   2.295   1.084  0.9198 -0.9908 -1.4509
  748MPD2    H111057   2.110   2.725   1.045  0.7102  0.3720 -0.7544
  748MPD2    H211058   1.790   2.519   0.869 -0.2271  3.7594  1.8949
  748MPD2    H311059   1.901   2.719   0.923 -0.0489  1.2882  1.8400
  748MPD2     N11060   2.224   2.494   1.161 -0.2966  0.0354  0.2135
  748MPD2    H511061   2.254   2.404   1.198  0.0753  0.5823  1.2511
  748MPD2    N111062   1.877   2.267   0.920  0.2822  0.2048  0.0439
  748MPD2    H711063   1.799   2.275   0.856 -0.8329 -1.1799  1.2234
  749TMC3    C111064   2.427   2.550   1.273  0.4184  0.7769 -0.3231
  749TMC3    C211065   2.465   2.418   1.247 -0.3012  0.8733  0.2362
  749TMC3    C311066   2.605   2.402   1.240 -0.7228 -0.5279  0.4382
  749TMC3    C411067   2.519   2.653   1.297 -0.3092 -0.5094 -0.9842
  749TMC3    C511068   2.651   2.630   1.267 -0.4933 -0.0690 -0.0110
  749TMC3    C611069   2.696   2.503   1.237 -0.2358  0.0028 -0.3611
  749TMC3     C11070   2.305   2.596   1.206 -0.3195 -0.8635  0.5704
  749TMC3     O11071   2.286   2.714   1.197  0.2739 -0.1446  0.2270
  749TMC3     H11072   2.402   2.330   1.239  1.3345 -0.4321  1.8184
  749TMC3    H111073   2.488   2.756   1.311  0.1023 -0.4835 -0.2174
  749TMC3    H211074   2.800   2.485   1.215 -0.9729 -2.5231 -1.8154
  749TMC3    C711075   2.730   2.744   1.228 -0.8857  0.1318  0.9400
  749TMC3    C811076   2.658   2.268   1.205  0.5251 -0.7210  0.1128
  749TMC3    O111077   2.689   2.849   1.274  0.2368 -0.0788 -0.1545
  749TMC3    O211078   2.575   2.194   1.151  0.2334 -0.0632  0.3670
  750MPD2     C11079   3.724   2.532  11.229  0.2155 -0.2039  0.4674
  750MPD2    C111080   3.590   2.509  11.224  0.4436  0.0962 -0.3757
  750MPD2    C211081   3.548   2.382  11.196  0.9467 -0.3477 -0.0303
  750MPD2    C311082   3.640   2.285  11.155 -0.0426 -0.7299 -0.2562
  750MPD2    C411083   3.773   2.316  11.148  0.2964 -0.7940  0.2854
  750MPD2    C511084   3.813   2.434  11.196  0.4483  0.7175  0.0995
  750MPD2     H11085   3.441   2.368  11.187  0.9481 -0.2938 -0.1404
  750MPD2    H111086   3.840   2.240  11.109  0.9770 -0.5864  1.0617
  750MPD2    H211087   3.762   2.632  11.246 -1.3743  0.7675 -1.6464
  750MPD2    H311088   3.917   2.467  11.192  0.2321  1.0695 -2.1555
  750MPD2     N11089   3.599   2.156  11.109 -0.4776  0.2095  0.5225
  750MPD2    H511090   3.670   2.103  11.058 -1.5335 -0.4741 -0.2482
  750MPD2    N111091   3.498   2.620  11.246 -0.0645  0.1529 -0.2455
  750MPD2    H711092   3.541   2.707  11.277  1.6523 -0.2031 -1.6423
  751TMC3    C111093   3.430   2.002  11.048 -0.2773 -0.0999 -0.1348
  751TMC3    C211094   3.303   1.946  11.071  0.1166 -0.3947  0.6507
  751TMC3    C311095   3.257   1.854  10.985 -0.7496 -0.4996 -0.1776
  751TMC3    C411096   3.501   1.966  10.937  0.6368  0.2646  0.1482
  751TMC3    C511097   3.446   1.868  10.858 -0.0771 -0.1216 -0.7980
  751TMC3    C611098   3.328   1.807  10.878 -0.0110 -0.2935  0.0231
  751TMC3     C11099   3.469   2.113  11.128 -0.3694  0.0515  0.3461
  751TMC3     O11100   3.399   2.151  11.215 -0.1609 -0.6870 -0.4257
  751TMC3     H11101   3.229   1.995  11.133 -0.1788 -0.9299  0.7173
  751TMC3    H111102   3.584   2.025  10.901  2.4465 -2.2873  0.1495
  751TMC3    H211103   3.294   1.724  10.817 -0.6882 -0.6580  0.8960
  751TMC3    C711104   3.512   1.850  10.731 -0.1223 -0.6991  0.7979
  751TMC3    C811105   3.126   1.789  11.001 -0.0853  0.0156  0.0251
  751TMC3    O111106   3.631   1.862  10.723 -0.5065  0.1579 -0.2934
  751TMC3    O211107   3.074   1.753  10.896 -0.2924 -0.3287 -0.4984
  752TMC3    C111108   1.980   3.348  17.118 -0.0136  0.4308 -0.2714
  752TMC3    C211109   2.021   3.218  17.121  0.3060  0.7513  0.0150
  752TMC3    C311110   2.103   3.171  17.221 -0.1006 -0.0361  0.1428
  752TMC3    C411111   2.042   3.439  17.196  0.4205  0.2683  0.7939
  752TMC3    C511112   2.135   3.394  17.290 -0.2087 -0.1294 -0.2892
  752TMC3    C611113   2.157   3.264  17.308  0.6063  0.6478 -0.1302
  752TMC3     C11114   1.889   3.399  17.018 -0.3306  0.1864  0.3349
  752TMC3     O11115   1.823   3.500  17.047 -0.1421  0.2800  0.1286
  752TMC3     H11116   1.974   3.148  17.053 -0.1605  2.6522 -1.5957
  752TMC3    H111117   2.006   3.541  17.204 -0.7803 -0.0880 -0.0923
  752TMC3    H211118   2.213   3.233  17.395  2.0889  2.1749 -0.5415
  752TMC3    C711119   2.193   3.492  17.377 -0.4410 -0.3687  0.2906
  752TMC3    C811120   2.121   3.029  17.228 -0.2301 -0.8219 -0.3271
  752TMC3    O111121   2.192   3.605  17.338  0.7161  0.0236 -0.8644
  752TMC3    O211122   2.036   2.956  17.180  0.2216  0.1917  0.4489
  753TMC3    C111123   4.331   4.335  13.394 -0.3729 -0.6089 -0.1100
  753TMC3    C211124   4.247   4.327  13.504 -0.5689 -0.2788 -0.1877
  753TMC3    C311125   4.159   4.217  13.511 -0.7496  0.2298  0.3206
  753TMC3    C411126   4.344   4.223  13.309  0.5412 -0.6967 -0.0575
  753TMC3    C511127   4.252   4.120  13.320 -0.3569  0.7366  0.1128
  753TMC3    C611128   4.166   4.110  13.431  0.5310 -0.1392 -0.1521
  753TMC3     C11129   4.441   4.440  13.409  0.3777 -0.7125 -0.2110
  753TMC3     O11130   4.440   4.489  13.521  0.4611 -0.2288  0.3755
  753TMC3     H11131   4.214   4.414  13.560 -1.2501 -0.3315 -0.5030
  753TMC3    H111132   4.423   4.221  13.236  0.8569  1.4192  0.2181
  753TMC3    H211133   4.114   4.019  13.460 -1.0157  1.2722  1.4317
  753TMC3    C711134   4.249   4.019  13.214  0.5631  0.1657  0.1834
  753TMC3    C811135   4.130   4.193  13.647  0.2354  0.2213  0.5541
  753TMC3    O111136   4.350   4.015  13.143 -0.1988  0.0754  0.0048
  753TMC3    O211137   4.036   4.123  13.675 -0.7364  0.0422 -0.2717
  754MPD2     C11138   3.239   2.935  12.807 -0.0990  0.1604  0.0615
  754MPD2    C111139   3.219   2.799  12.807  0.6548 -0.2006 -0.1410
  754MPD2    C211140   3.093   2.755  12.804  0.2039  0.2437  0.6110
  754MPD2    C311141   2.981   2.843  12.792 -0.3592 -0.3852  0.4179
  754MPD2    C411142   3.010   2.978  12.800 -0.6479 -0.0250 -0.0840
  754MPD2    C511143   3.136   3.024  12.800 -0.0785 -0.5065 -0.1548
  754MPD2     H11144   3.078   2.652  12.774  1.4402  0.5603 -1.1155
  754MPD2    H111145   2.930   3.051  12.793  1.1694  1.8949 -1.0323
  754MPD2    H211146   3.339   2.976  12.798 -0.2167  0.5555  0.5957
  754MPD2    H311147   3.154   3.131  12.797 -2.0775 -0.2052 -1.2168
  754MPD2     N11148   2.846   2.792  12.789  0.4082 -0.6166 -0.1643
  754MPD2    H511149   2.772   2.860  12.778  1.0523  0.0213 -0.5548
  754MPD2    N111150   3.335   2.723  12.796 -0.0220  0.1327  0.1727
  754MPD2    H711151   3.425   2.759  12.764 -0.1011 -0.5163 -0.8065
  755MPD2     C11152   1.885   2.955  12.975 -1.0823 -0.1623 -0.1048
  755MPD2    C111153   1.976   2.941  13.084  0.6035 -0.4537 -0.6489
  755MPD2    C211154   2.092   2.872  13.052 -0.8600 -0.0358  0.4578
  755MPD2    C311155   2.120   2.826  12.920 -0.1928  0.1639 -0.1310
  755MPD2    C411156   2.032   2.847  12.819 -0.7805 -0.3728 -1.1324
  755MPD2    C511157   1.912   2.906  12.851  0.0918  0.4965  0.5794
  755MPD2     H11158   2.169   2.856  13.127 -2.7409 -0.2890  2.3449
  755MPD2    H111159   2.053   2.811  12.718  0.1211  0.3754 -1.2058
  755MPD2    H211160   1.782   2.987  12.987 -0.8902  0.2054  0.5657
  755MPD2    H311161   1.841   2.917  12.770 -0.0804 -0.1445  0.6464
  755MPD2     N11162   2.243   2.763  12.888 -0.1712 -0.2328 -0.0249
  755MPD2    H511163   2.250   2.734  12.791 -3.1767  0.6325 -0.4996
  755MPD2    N111164   1.951   2.987  13.210  0.2331  0.0115  0.5317
  755MPD2    H711165   2.012   2.952  13.283  0.8458  0.5380  0.2693
  756MPD2     C11166   2.734   3.322   9.862  0.3224  0.3763  0.2285
  756MPD2    C111167   2.813   3.213   9.873 -0.4599 -0.1418  0.6870
  756MPD2    C211168   2.824   3.132   9.768 -0.1071 -0.2845 -0.2775
  756MPD2    C311169   2.754   3.162   9.651 -0.2823  0.6861  0.4536
  756MPD2    C411170   2.684   3.283   9.637  0.1731 -0.2838 -0.1800
  756MPD2    C511171   2.670   3.357   9.750 -0.2601  0.0310  0.1262
  756MPD2     H11172   2.889   3.045   9.771 -1.9592 -1.7153 -0.8824
  756MPD2    H111173   2.636   3.319   9.547  1.1717 -0.9084 -0.9696
  756MPD2    H211174   2.724   3.396   9.941  2.4108  1.1990 -0.2595
  756MPD2    H311175   2.605   3.443   9.737  0.5725  0.7994  1.0493
  756MPD2     N11176   2.771   3.077   9.543  0.1369  0.1946 -0.3489
  756MPD2    H511177   2.851   3.015   9.540  1.7535  2.2795 -0.6964
  756MPD2    N111178   2.873   3.173   9.995  0.3039  0.1935 -0.7199
  756MPD2    H711179   2.923   3.085   9.985  0.1202  0.3270 -2.7850
  757MPD2     C11180   2.173   2.565   8.962  0.0729  0.1712 -0.5572
  757MPD2    C111181   2.211   2.531   9.090 -0.3282  0.3014 -0.1732
  757MPD2    C211182   2.316   2.600   9.143  0.6171  0.0347 -0.0626
  757MPD2    C311183   2.397   2.683   9.064  0.3225 -0.7655 -0.0787
  757MPD2    C411184   2.362   2.716   8.935  0.0156  0.1120 -0.0446
  757MPD2    C511185   2.248   2.659   8.889  0.2909 -0.4151 -0.4097
  757MPD2     H11186   2.345   2.603   9.247 -0.1829  1.4481  0.1217
  757MPD2    H111187   2.419   2.782   8.870  0.8693  0.6866  1.2691
  757MPD2    H211188   2.084   2.528   8.911  0.4359  0.2292 -1.2367
  757MPD2    H311189   2.202   2.683   8.794  2.1532  3.8897 -0.2361
  757MPD2     N11190   2.519   2.729   9.123 -0.0638  0.0060  0.3268
  757MPD2    H511191   2.533   2.697   9.218  3.6455  0.1973 -0.1525
  757MPD2    N111192   2.143   2.427   9.160  0.4509 -0.4511  0.6378
  757MPD2    H711193   2.073   2.380   9.103 -0.0425  1.0705 -0.0243
  758MPD2     C11194   3.262   2.124  15.574 -0.0265  0.2270 -0.6641
  758MPD2    C111195   3.342   2.060  15.665  0.6110  0.3083 -0.9614
  758MPD2    C211196   3.301   2.067  15.792 -0.4117  0.0755  0.0221
  758MPD2    C311197   3.183   2.139  15.817  0.1792 -0.2024  0.0319
  758MPD2    C411198   3.110   2.208  15.725 -0.3134  0.6513  0.5036
  758MPD2    C511199   3.152   2.197  15.598 -0.2763 -0.4450  0.4592
  758MPD2     H11200   3.342   2.018  15.879  2.4187  0.9883 -0.7919
  758MPD2    H111201   3.022   2.266  15.752  0.0427  1.4084  0.0348
  758MPD2    H211202   3.307   2.135  15.476  0.9445  0.0732 -0.2400
  758MPD2    H311203   3.090   2.236  15.518  1.5564  1.5904  0.0117
  758MPD2     N11204   3.132   2.162  15.948  0.2219  0.1992  0.4399
  758MPD2    H511205   3.057   2.230  15.949  0.5050  0.5103  0.9488
  758MPD2    N111206   3.457   1.990  15.632 -0.9623  0.6964  0.0515
  758MPD2    H711207   3.495   2.004  15.539  1.6976  0.8205  1.1600
  759MPD2     C11208   1.776   0.200   9.792  0.0407  0.7545 -0.1889
  759MPD2    C111209   1.761   0.148   9.669 -0.1142 -0.0599  0.2019
  759MPD2    C211210   1.771   0.232   9.566 -0.9751  0.3276 -0.1072
  759MPD2    C311211   1.776   0.366   9.587 -0.1233 -0.2810  1.1640
  759MPD2    C411212   1.778   0.420   9.714 -0.3252  0.7225  0.3103
  759MPD2    C511213   1.772   0.335   9.819 -0.3098 -0.5223  0.1662
  759MPD2     H11214   1.779   0.185   9.468  0.9924  0.3938  0.0209
  759MPD2    H111215   1.789   0.526   9.731 -0.3242  0.6940  0.4872
  759MPD2    H211216   1.778   0.141   9.883  1.1895  1.3584  0.1735
  759MPD2    H311217   1.763   0.370   9.921  1.0584  0.9555 -0.2021
  759MPD2     N11218   1.782   0.452   9.475  0.2525  0.0328 -0.2862
  759MPD2    H511219   1.787   0.391   9.394 -0.2976 -2.6656  1.7053
  759MPD2    N111220   1.759   0.004   9.660 -1.0201  0.0708 -0.5055
  759MPD2    H711221   1.759   4.696   9.563  1.1182 -1.9495  0.1473
  760MPD2     C11222   1.159   2.360  11.815  0.0821 -0.1972  0.3469
  760MPD2    C111223   1.269   2.313  11.745  0.2990  0.2872 -0.2758
  760MPD2    C211224   1.274   2.173  11.734 -0.2749  0.4223 -0.3087
  760MPD2    C311225   1.171   2.096  11.777  0.6797 -0.4202 -0.1094
  760MPD2    C411226   1.066   2.150  11.838 -0.3283 -0.4973 -0.8559
  760MPD2    C511227   1.061   2.279  11.862  0.1169  0.1538 -0.3979
  760MPD2     H11228   1.365   2.127  11.701 -0.4991  0.7256 -1.3486
  760MPD2    H111229   0.988   2.086  11.878 -1.1085  1.8285  1.3310
  760MPD2    H211230   1.138   2.463  11.840 -1.3667 -0.7445  1.3751
  760MPD2    H311231   0.984   2.329  11.920  1.8263  1.0682  1.1102
  760MPD2     N11232   1.172   1.955  11.784  0.8122 -0.0549  0.6886
  760MPD2    H511233   1.101   1.909  11.840  0.5805 -0.9933 -0.3863
  760MPD2    N111234   1.378   2.389  11.696  0.4274  0.3278  0.4432
  760MPD2    H711235   1.454   2.342  11.648 -0.6501  0.1890 -1.1472
  761MPD2     C11236   2.692   1.647  11.212 -0.5460 -0.5388  0.0212
  761MPD2    C111237   2.766   1.588  11.106 -0.3215  0.0821 -0.3987
  761MPD2    C211238   2.895   1.638  11.080  0.5541 -0.2097  0.9761
  761MPD2    C311239   2.955   1.728  11.162 -0.1409 -1.4153  0.1868
  761MPD2    C411240   2.892   1.776  11.278  0.4870 -0.3370  0.6469
  761MPD2    C511241   2.760   1.735  11.297 -0.2401 -0.0432  0.8655
  761MPD2     H11242   2.955   1.586  11.006 -0.1602  2.5620 -1.5605
  761MPD2    H111243   2.932   1.857  11.338  0.8102 -1.2173  1.6292
  761MPD2    H211244   2.588   1.626  11.238 -0.8266  1.0504  0.1533
  761MPD2    H311245   2.696   1.787  11.368 -2.2619  0.0699 -1.0208
  761MPD2     N11246   3.080   1.785  11.129 -0.4864 -0.0681 -0.1600
  761MPD2    H511247   3.123   1.843  11.201 -0.5261 -0.4095  0.1376
  761MPD2    N111248   2.700   1.492  11.022  0.3095  0.5931  0.5329
  761MPD2    H711249   2.611   1.454  11.053  0.0341  1.3970  0.7346
  762MPD2     C11250   2.867   0.956  10.320 -0.5845 -0.0002  0.1561
  762MPD2    C111251   2.913   0.976  10.450 -0.2580 -0.6575  0.1996
  762MPD2    C211252   3.048   0.983  10.480  0.2622  0.8441 -0.0497
  762MPD2    C311253   3.137   0.966  10.375 -0.7440 -0.5794 -0.5375
  762MPD2    C411254   3.087   0.937  10.252  0.1798  0.0888 -0.0465
  762MPD2    C511255   2.955   0.929  10.226  0.2754 -0.5018  0.8917
  762MPD2     H11256   3.091   0.995  10.578  1.0461  0.1838 -0.3125
  762MPD2    H111257   3.146   0.932  10.161  1.1849 -0.3546  0.6284
  762MPD2    H211258   2.762   0.965  10.292 -0.1363 -0.8369 -1.7708
  762MPD2    H311259   2.932   0.908  10.122  1.0807  2.7814  0.0274
  762MPD2     N11260   3.278   0.956  10.408 -0.3496  0.4042 -0.1042
  762MPD2    H511261   3.311   0.952  10.504  0.5106 -0.1310 -0.4200
  762MPD2    N111262   2.808   1.021  10.537  0.2112 -0.6389 -0.0150
  762MPD2    H711263   2.712   1.022  10.507  0.0600 -2.2959  0.4116
  763MPD2     C11264   4.450   2.029  16.303  0.7808  1.5146 -0.5679
  763MPD2    C111265   4.499   2.144  16.240  0.8177 -0.3816 -0.2870
  763MPD2    C211266   4.478   2.264  16.308 -0.4081 -0.2569  0.4140
  763MPD2    C311267   4.428   2.276  16.435  0.4288  0.5843 -0.2895
  763MPD2    C411268   4.379   2.159  16.496 -1.1553 -0.9810 -0.3503
  763MPD2    C511269   4.399   2.044  16.431  0.1343 -0.3760 -0.0686
  763MPD2     H11270   4.507   2.355  16.257  0.2816 -0.0167  1.2335
  763MPD2    H111271   4.340   2.156  16.597  0.0713  0.3103  0.1694
  763MPD2    H211272   4.455   1.930  16.259  0.2559  1.0915  0.3357
  763MPD2    H311273   4.351   1.957  16.473  0.4446  0.0419  1.1681
  763MPD2     N11274   4.423   2.394  16.511  0.1296 -0.1347  0.0249
  763MPD2    H511275   4.388   2.377  16.604 -0.3811  1.5142  0.1423
  763MPD2    N111276   4.571   2.148  16.116  0.5746  0.4056 -0.6573
  763MPD2    H711277   4.597   2.237  16.075 -2.0512  0.2546 -2.6677
  764MPD2     C11278   2.244   4.026   0.067 -0.3342  0.1965 -0.5024
  764MPD2    C111279   2.147   3.929   0.056 -0.0998 -0.0517  0.3222
  764MPD2    C211280   2.119   3.858   0.172  0.3855 -0.4645  0.0751
  764MPD2    C311281   2.182   3.873   0.295 -0.6336  0.0817  0.7525
  764MPD2    C411282   2.287   3.963   0.294 -0.0885  0.6729 -1.0477
  764MPD2    C511283   2.315   4.040   0.186 -0.2803  0.0100 -0.5347
  764MPD2     H11284   2.035   3.790   0.164 -0.5057  0.7995 -1.3202
  764MPD2    H111285   2.350   3.978   0.381  1.9547  1.0006 -2.5693
  764MPD2    H211286   2.272   4.083  17.673  2.6333 -0.8605 -0.2448
  764MPD2    H311287   2.392   4.117   0.187  0.5345 -0.8063  0.1918
  764MPD2     N11288   2.141   3.798   0.407 -0.2115  0.2867  0.3825
  764MPD2    H511289   2.069   3.728   0.394 -1.8532  1.9684  0.4642
  764MPD2    N111290   2.074   3.893  17.638  0.0732  0.5542  0.8404
  764MPD2    H711291   2.022   3.806  17.636 -2.3869  2.0848 -1.9814
  765MPD2     C11292   2.670   1.684  16.110  0.0201 -0.0970 -0.3648
  765MPD2    C111293   2.734   1.771  16.023 -0.4787  0.3588 -0.5020
  765MPD2    C211294   2.847   1.727  15.960 -0.2946  0.4800  0.2598
  765MPD2    C311295   2.898   1.599  15.975  0.2704  0.2487  0.3956
  765MPD2    C411296   2.830   1.514  16.057 -0.5851  0.8584 -0.1782
  765MPD2    C511297   2.718   1.557  16.123 -0.3108  0.3993  0.0159
  765MPD2     H11298   2.883   1.789  15.878 -1.0834  1.3806  0.5918
  765MPD2    H111299   2.863   1.413  16.081 -3.2943  0.5267  2.2725
  765MPD2    H211300   2.579   1.711  16.163 -0.1523 -2.6343  0.6234
  765MPD2    H311301   2.674   1.486  16.191 -0.9925 -0.9545 -1.8530
  765MPD2     N11302   3.006   1.564  15.889  0.3645 -0.2401 -0.1604
  765MPD2    H511303   3.053   1.639  15.839  0.8127 -1.2897 -1.3365
  765MPD2    N111304   2.669   1.901  16.005  0.4158  0.2547 -0.2153
  765MPD2    H711305   2.576   1.918  16.043  0.5497 -0.2253  0.3369
  766MPD2     C11306   2.064   2.014  15.602  0.0252 -0.1302 -0.5331
  766MPD2    C111307   2.193   2.036  15.555 -0.5485  0.3497 -0.4679
  766MPD2    C211308   2.224   2.005  15.423  0.2839 -0.7335  0.2546
  766MPD2    C311309   2.131   1.956  15.337  0.1887 -0.2476  1.0519
  766MPD2    C411310   2.006   1.927  15.378 -0.5137 -0.0679  0.3977
  766MPD2    C511311   1.972   1.962  15.510  0.0587  0.1128  0.3306
  766MPD2     H11312   2.324   2.007  15.381  0.8547  0.2683  1.6555
  766MPD2    H111313   1.936   1.882  15.309  0.2195  1.3122 -1.2222
  766MPD2    H211314   2.023   2.040  15.699 -0.0791  0.9743 -0.8819
  766MPD2    H311315   1.867   1.950  15.536  0.2523  0.9176  1.4991
  766MPD2     N11316   2.173   1.928  15.207  0.2039 -0.5965  0.1734
  766MPD2    H511317   2.272   1.945  15.195  0.3443  0.2113  2.4076
  766MPD2    N111318   2.291   2.090  15.635 -0.0596  0.6729  0.4483
  766MPD2    H711319   2.375   2.102  15.580  0.3383  1.9991  1.3307
  767MPD2     C11320   1.705   2.154  15.054  1.3589  0.0602  0.9507
  767MPD2    C111321   1.827   2.153  14.987  0.1488 -0.8588 -0.6157
  767MPD2    C211322   1.834   2.104  14.854 -0.6393  0.3196 -0.9340
  767MPD2    C311323   1.716   2.065  14.790 -0.6450 -0.2975 -0.6348
  767MPD2    C411324   1.595   2.065  14.858  0.3893 -0.1644 -0.1053
  767MPD2    C511325   1.595   2.108  14.987  0.0945  0.0439  0.2343
  767MPD2     H11326   1.933   2.097  14.811 -0.1498  2.6881 -0.2204
  767MPD2    H111327   1.501   2.031  14.816 -0.3822  1.4084  0.3554
  767MPD2    H211328   1.699   2.189  15.156 -1.6193 -1.3863  1.2509
  767MPD2    H311329   1.498   2.114  15.036 -0.9138  1.1479 -1.8783
  767MPD2     N11330   1.724   2.039  14.653 -0.1959 -0.1332  0.4992
  767MPD2    H511331   1.813   2.047  14.606 -0.2620 -2.0729  0.0294
  767MPD2    N111332   1.929   2.213  15.056 -0.1171  0.3780 -0.3482
  767MPD2    H711333   1.914   2.239  15.153 -0.9748  1.3303 -0.7408
  768MPD2     C11334   2.563   4.550  10.981  0.0369 -0.0718  0.4852
  768MPD2    C111335   2.650   4.658  10.978 -0.0005  0.2641 -0.5893
  768MPD2    C211336   2.733   4.677  11.087 -0.2005 -0.5185 -0.4473
  768MPD2    C311337   2.746   4.580  11.186  0.0824 -0.2953 -0.6964
  768MPD2    C411338   2.672   4.467  11.180  0.4580  0.5205  0.3741
  768MPD2    C511339   2.580   4.453  11.077 -0.0551 -0.3951 -0.3561
  768MPD2     H11340   2.795   0.043  11.088 -0.7026 -0.2189  2.3932
  768MPD2    H111341   2.693   4.383  11.246 -0.3152 -1.1456 -1.5096
  768MPD2    H211342   2.493   4.518  10.905  0.4366 -1.2365  0.6033
  768MPD2    H311343   2.530   4.357  11.076 -0.7573 -0.0521  1.4236
  768MPD2     N11344   2.832   4.595  11.300 -0.4279 -0.2798 -0.7816
  768MPD2    H511345   2.826   4.525  11.373 -1.7530  2.6859  1.9390
  768MPD2    N111346   2.628   0.046  10.892  0.2777  0.5759  0.0992
  768MPD2    H711347   2.661   0.136  10.925 -2.0847  0.9320  1.4367
  769MPD2     C11348   3.995   3.284  14.682  0.3094  0.7483 -0.1047
  769MPD2    C111349   3.866   3.278  14.727  0.3070  0.7090  0.3385
  769MPD2    C211350   3.847   3.298  14.864  0.0406 -0.6680 -0.6314
  769MPD2    C311351   3.947   3.337  14.952 -0.3143 -0.8318  0.1967
  769MPD2    C411352   4.071   3.350  14.901 -0.4405 -0.8463 -0.6521
  769MPD2    C511353   4.088   3.315  14.774  0.6674  0.0962  0.2632
  769MPD2     H11354   3.753   3.277  14.913 -0.4729 -0.0588 -1.3612
  769MPD2    H111355   4.155   3.388  14.958  0.2668 -0.9792 -1.6035
  769MPD2    H211356   4.021   3.246  14.584  0.1402 -0.0837  0.1759
  769MPD2    H311357   4.189   3.319  14.734  0.7103  1.2679  0.4872
  769MPD2     N11358   3.905   3.380  15.079  0.1113 -0.8858 -0.5111
  769MPD2    H511359   3.806   3.400  15.093  0.6182  1.8149 -0.7698
  769MPD2    N111360   3.758   3.242  14.643  0.1432 -0.7970  0.2250
  769MPD2    H711361   3.785   3.216  14.549  1.8377 -0.7804  0.7105
  770MPD2     C11362   2.962   3.012  14.901  0.0922  0.4793  0.2168
  770MPD2    C111363   3.092   3.018  14.932 -0.2596  0.5028  0.0038
  770MPD2    C211364   3.193   3.090  14.859  0.4748 -0.5143  0.6486
  770MPD2    C311365   3.143   3.167  14.754  0.4128 -0.0060 -0.0954
  770MPD2    C411366   3.008   3.151  14.725 -0.9251 -0.0513 -0.2452
  770MPD2    C511367   2.920   3.077  14.794  0.0113  0.4537  0.1355
  770MPD2     H11368   3.297   3.091  14.889 -0.0297  2.0059  2.3288
  770MPD2    H111369   2.968   3.202  14.638  0.3934 -1.9615 -1.9866
  770MPD2    H211370   2.898   2.944  14.956 -0.2098  1.5701  1.2083
  770MPD2    H311371   2.817   3.068  14.763  0.1230 -1.5510  0.3414
  770MPD2     N11372   3.232   3.241  14.678 -0.3106  0.3867 -0.4774
  770MPD2    H511373   3.332   3.242  14.693 -0.3999 -1.4779  0.2402
  770MPD2    N111374   3.133   2.947  15.046  0.0086  0.1558  0.0456
  770MPD2    H711375   3.064   2.880  15.076 -0.9739  0.0975 -2.3475
  771MPD2     C11376   4.323   0.604  13.519 -0.2384  0.6120 -0.6738
  771MPD2    C111377   4.269   0.723  13.482  0.0822  0.2069 -0.0517
  771MPD2    C211378   4.141   0.719  13.424  0.1817 -0.0578 -0.7535
  771MPD2    C311379   4.083   0.602  13.387  0.3840 -0.1030 -0.5308
  771MPD2    C411380   4.144   0.482  13.416  0.1597 -0.3035  0.3257
  771MPD2    C511381   4.263   0.488  13.486 -0.0306  0.1922 -0.8671
  771MPD2     H11382   4.083   0.809  13.411 -1.0385 -0.5608  1.2018
  771MPD2    H111383   4.107   0.387  13.379  1.8049 -1.0420  0.5926
  771MPD2    H211384   4.413   0.593  13.579 -0.1507 -0.7269 -1.0359
  771MPD2    H311385   4.318   0.396  13.506  0.0249  0.3152 -0.4453
  771MPD2     N11386   3.957   0.609  13.320 -0.3162  0.9866 -0.7227
  771MPD2    H511387   3.927   0.705  13.309 -1.9630  0.4480 -0.8832
  771MPD2    N111388   4.332   0.849  13.506 -0.4089  0.6860 -0.3287
  771MPD2    H711389   4.290   0.938  13.483  0.0974  0.5149 -1.9392
  772MPD2     C11390   4.222   1.555  13.620 -0.4289  0.3307  0.8985
  772MPD2    C111391   4.181   1.428  13.636  0.6888  0.0776  0.1584
  772MPD2    C211392   4.054   1.397  13.686  0.0867 -0.7882 -0.3394
  772MPD2    C311393   3.968   1.498  13.711 -0.9642 -0.0322  0.2519
  772MPD2    C411394   4.003   1.617  13.665  0.0331  0.6285 -0.1546
  772MPD2    C511395   4.126   1.650  13.628 -0.3416 -0.4741  0.1520
  772MPD2     H11396   4.020   1.295  13.700 -0.4257 -0.8899 -2.2284
  772MPD2    H111397   3.934   1.701  13.657 -1.6216 -0.5641  1.5842
  772MPD2    H211398   4.320   1.591  13.588 -0.1457  1.2454  2.7616
  772MPD2    H311399   4.143   1.753  13.600 -0.8709 -0.5904 -0.5911
  772MPD2     N11400   3.836   1.490  13.762 -0.2928 -0.6800  0.6066
  772MPD2    H511401   3.784   1.576  13.777 -2.3701 -1.3851 -2.6570
  772MPD2    N111402   4.279   1.324  13.621 -0.2808  0.1477 -0.4094
  772MPD2    H711403   4.250   1.232  13.653  1.5648 -0.7211 -1.2935
  773MPD2     C11404   3.426   3.321   0.226  0.7672  0.0236  0.9169
  773MPD2    C111405   3.329   3.221   0.209  0.6579  0.0969  0.2643
  773MPD2    C211406   3.356   3.099   0.268  0.6169 -0.4106  0.2450
  773MPD2    C311407   3.477   3.076   0.324  0.6240 -0.7137  0.3605
  773MPD2    C411408   3.573   3.174   0.346 -0.2906 -0.4274  0.4132
  773MPD2    C511409   3.537   3.305   0.313 -0.0205  0.5346  0.4459
  773MPD2     H11410   3.280   3.022   0.264 -1.8670  1.9654  1.7295
  773MPD2    H111411   3.660   3.152   0.407  1.7147  1.3215 -1.8446
  773MPD2    H211412   3.412   3.418   0.179  0.4868 -0.9852 -1.0767
  773MPD2    H311413   3.613   3.382   0.309  2.0071 -1.3859  1.9737
  773MPD2     N11414   3.508   2.940   0.357  0.2217  0.2846  0.3910
  773MPD2    H511415   3.435   2.870   0.344 -1.3737  2.0508 -0.1797
  773MPD2    N111416   3.208   3.241   0.137 -0.4810  0.8715  0.4617
  773MPD2    H711417   3.147   3.161   0.123  0.9708  0.2635 -2.3938
  774MPD2     C11418   2.995   1.729  13.164 -0.5994 -0.2020 -0.4897
  774MPD2    C111419   2.916   1.828  13.221  0.6501  0.8403 -0.5556
  774MPD2    C211420   2.935   1.965  13.193  0.4780  0.3366  0.5521
  774MPD2    C311421   3.045   1.998  13.109  0.3203  0.2738 -0.1854
  774MPD2    C411422   3.116   1.900  13.045 -0.5832  0.0103  0.0526
  774MPD2    C511423   3.096   1.771  13.080  0.3239 -0.4819  0.5955
  774MPD2     H11424   2.873   2.045  13.232 -1.4323 -0.5809 -0.5868
  774MPD2    H111425   3.182   1.913  12.960 -1.3979 -1.5251 -0.7974
  774MPD2    H211426   2.992   1.622  13.186  0.9869 -0.5369 -1.8729
  774MPD2    H311427   3.161   1.700  13.030  1.3401 -0.3692  1.7537
  774MPD2     N11428   3.070   2.140  13.082 -0.2488  1.1606  1.0339
  774MPD2    H511429   3.008   2.205  13.128 -0.4029  0.3421  1.9843
  774MPD2    N111430   2.818   1.784  13.310  0.2702  0.0176  0.2467
  774MPD2    H711431   2.799   1.686  13.330 -0.3875 -0.3333 -2.1068
  775MPD2     C11432   3.783   3.168  15.754 -0.5845  0.1175  0.5772
  775MPD2    C111433   3.764   3.302  15.752 -0.2650  0.0049  0.0576
  775MPD2    C211434   3.875   3.374  15.719 -0.4710  0.1632 -0.2779
  775MPD2    C311435   3.988   3.312  15.668  0.0607 -0.2434  0.0160
  775MPD2    C411436   4.000   3.182  15.659  0.1586 -0.2542  0.4311
  775MPD2    C511437   3.892   3.110  15.704  0.0704  0.2543 -0.1418
  775MPD2     H11438   3.879   3.482  15.725 -0.9225  0.1592  0.0621
  775MPD2    H111439   4.081   3.126  15.615  0.3898  1.2029 -1.0056
  775MPD2    H211440   3.696   3.108  15.780 -1.0113  0.5138  0.0554
  775MPD2    H311441   3.894   3.003  15.687 -0.0050  0.0860  0.9183
  775MPD2     N11442   4.101   3.392  15.623  0.0513 -1.0519  0.3803
  775MPD2    H511443   4.163   3.350  15.554  0.1343 -1.1090  0.4883
  775MPD2    N111444   3.643   3.363  15.801  0.5762 -0.0678  0.5706
  775MPD2    H711445   3.583   3.298  15.851 -1.4711  0.3544 -1.3279
  776MPD2     C11446   3.584   3.132  11.655 -0.3574  0.1009 -1.1472
  776MPD2    C111447   3.477   3.157  11.568 -0.0083 -0.2361 -0.0315
  776MPD2    C211448   3.440   3.286  11.537  0.5221  0.6082 -0.5543
  776MPD2    C311449   3.519   3.388  11.596 -0.1380 -0.4109 -0.4087
  776MPD2    C411450   3.623   3.358  11.679 -0.6934 -0.5188 -0.1405
  776MPD2    C511451   3.657   3.227  11.711  0.6169 -0.3633  0.3107
  776MPD2     H11452   3.360   3.298  11.465  1.0178  0.0718 -1.2010
  776MPD2    H111453   3.666   3.438  11.737  1.3528 -1.5566 -0.2424
  776MPD2    H211454   3.610   3.027  11.666 -0.6655  0.1314 -0.1729
  776MPD2    H311455   3.741   3.208  11.777  1.2896  1.5993  0.0108
  776MPD2     N11456   3.504   3.524  11.557 -0.0495  0.1519 -0.4125
  776MPD2    H511457   3.566   3.595  11.594 -0.2585  0.3846 -0.5092
  776MPD2    N111458   3.405   3.039  11.522 -0.5552 -0.0185  0.1745
  776MPD2    H711459   3.441   2.948  11.551  1.0207  0.0897 -1.4398
  777MPD2     C11460   3.674   2.129   0.922  1.1130  0.2413 -0.1123
  777MPD2    C111461   3.669   2.027   1.014 -0.1608  0.2688  0.2796
  777MPD2    C211462   3.658   1.889   0.972 -0.4253  0.2246  0.4463
  777MPD2    C311463   3.631   1.870   0.837  0.3120  0.0144  0.5589
  777MPD2    C411464   3.629   1.976   0.751 -0.4142  0.5010  0.5727
  777MPD2    C511465   3.644   2.107   0.797  0.5458 -0.7932  0.1162
  777MPD2     H11466   3.674   1.815   1.049 -1.3380 -0.7991 -0.3430
  777MPD2    H111467   3.616   1.973   0.643  2.5413 -0.0168  0.2470
  777MPD2    H211468   3.694   2.232   0.947 -0.4215 -0.1989  2.9609
  777MPD2    H311469   3.638   2.190   0.727  1.1917 -1.6384 -0.9475
  777MPD2     N11470   3.608   1.735   0.798  0.8174  0.1076  0.8648
  777MPD2    H511471   3.593   1.664   0.870 -1.7167 -2.2205 -1.9452
  777MPD2    N111472   3.659   2.067   1.151 -0.1959 -0.0023 -0.0721
  777MPD2    H711473   3.641   2.163   1.179 -0.8727 -0.4315  0.9552
  778MPD2     C11474   0.142   1.598  14.874  0.7767  0.3909  0.0465
  778MPD2    C111475   0.096   1.514  14.770 -0.0740 -0.4575  0.0270
  778MPD2    C211476   0.048   1.579  14.658  0.2223 -0.1857  0.4496
  778MPD2    C311477   0.044   1.712  14.636 -0.2661 -0.1489  0.1268
  778MPD2    C411478   0.100   1.792  14.738 -0.2765  0.4437  0.1191
  778MPD2    C511479   0.142   1.735  14.855 -0.5615  0.2246 -0.4745
  778MPD2     H11480   0.019   1.511  14.579 -2.3998  1.1930  0.2385
  778MPD2    H111481   0.104   1.899  14.724 -1.5497  0.7172  1.8868
  778MPD2    H211482   0.166   1.560  14.973  0.4930  1.4834  0.5361
  778MPD2    H311483   0.170   1.802  14.936 -1.0237  1.7545 -1.5741
  778MPD2     N11484   4.713   1.759  14.513  0.1741  0.3379 -0.2163
  778MPD2    H511485   4.688   1.693  14.441 -0.5136 -1.1540  1.3839
  778MPD2    N111486   0.056   1.378  14.783  0.2952  0.1371  0.0795
  778MPD2    H711487   0.016   1.330  14.703 -1.2700  2.0278 -0.2591
  779MPD2     C11488   4.371   0.197  13.901 -0.9240  0.1223  0.0760
  779MPD2    C111489   4.436   0.222  14.020 -0.5601 -0.1807  0.4005
  779MPD2    C211490   4.484   0.348  14.050 -0.2079 -0.2473  0.4880
  779MPD2    C311491   4.466   0.451  13.961  0.2079 -0.3133 -0.3052
  779MPD2    C411492   4.402   0.425  13.839  0.3855 -0.3304 -0.4021
  779MPD2    C511493   4.350   0.298  13.809 -0.4381  0.2192  0.3274
  779MPD2     H11494   4.541   0.363  14.141 -0.1594  0.4287  0.3474
  779MPD2    H111495   4.395   0.499  13.759  1.2818  0.6808  0.4495
  779MPD2    H211496   4.330   0.099  13.879 -1.5532  0.2138  0.8351
  779MPD2    H311497   4.289   0.287  13.720  1.0000 -0.3496 -0.5831
  779MPD2     N11498   4.515   0.581  13.989 -0.0745 -0.0276 -0.4384
  779MPD2    H511499   4.576   0.594  14.069  1.6037  1.1264 -1.9203
  779MPD2    N111500   4.465   0.105  14.104 -0.1773  0.1574 -0.6123
  779MPD2    H711501   4.442   0.012  14.069  0.3968 -0.1409 -0.1939
  780MPD2     C11502   2.659   0.423   0.113 -0.5972  0.4241  0.3596
  780MPD2    C111503   2.746   0.417   0.219  0.0408 -0.3352  0.3079
  780MPD2    C211504   2.877   0.454   0.195  0.3481  0.4624 -0.0425
  780MPD2    C311505   2.915   0.511   0.075  0.0980  0.4021  0.8193
  780MPD2    C411506   2.821   0.528  17.673 -0.0341 -0.5661  0.4893
  780MPD2    C511507   2.688   0.493   0.000 -0.0992  0.1774 -0.4306
  780MPD2     H11508   2.961   0.449   0.264 -1.4154 -1.5882  1.9192
  780MPD2    H111509   2.840   0.560  17.571  0.0685  1.4283  1.1272
  780MPD2    H211510   2.563   0.376   0.129  1.0877 -2.3215  2.2654
  780MPD2    H311511   2.617   0.508  17.613 -0.6351  2.9364  0.5579
  780MPD2     N11512   3.059   0.528   0.051 -0.5438 -0.1143  0.0587
  780MPD2    H511513   3.127   0.512   0.124 -0.8765 -1.1893  0.1267
  780MPD2    N111514   2.700   0.357   0.331  0.6613 -0.0887  0.6975
  780MPD2    H711515   2.602   0.330   0.333  0.6151 -0.0562 -0.5673
  781MPD2     C11516   0.923   1.474  12.029  0.1428 -0.0443 -0.6595
  781MPD2    C111517   0.969   1.416  12.148  0.0717  0.6001 -0.3240
  781MPD2    C211518   1.077   1.327  12.145 -0.7377  0.4256 -0.4248
  781MPD2    C311519   1.129   1.278  12.027  0.2147  0.1868  0.4368
  781MPD2    C411520   1.081   1.339  11.911  0.2093 -0.0153  0.2971
  781MPD2    C511521   0.984   1.437  11.918 -0.1170 -0.5898  0.7721
  781MPD2     H11522   1.110   1.287  12.240 -0.7996  0.2182 -0.4922
  781MPD2    H111523   1.110   1.290  11.818 -0.3953 -0.0035  0.1060
  781MPD2    H211524   0.844   1.548  12.024  1.0849  0.9461 -0.9748
  781MPD2    H311525   0.940   1.477  11.827  0.6871 -2.1065 -0.2882
  781MPD2     N11526   1.246   1.195  12.023 -0.2785 -0.0628 -0.2932
  781MPD2    H511527   1.281   1.171  11.930  2.1544  2.4521 -0.0547
  781MPD2    N111528   0.905   1.445  12.270 -0.3528 -0.3662  0.5000
  781MPD2    H711529   0.845   1.527  12.268 -1.1781 -1.0388 -1.8328
  782MPD2     C11530   3.848   2.278   9.831 -0.1463 -0.1689  0.5571
  782MPD2    C111531   3.961   2.209   9.881 -0.5439 -0.3646  0.5002
  782MPD2    C211532   4.028   2.284   9.977  0.0207 -1.0197  0.2241
  782MPD2    C311533   3.991   2.404  10.028 -0.4331  0.0808  0.6996
  782MPD2    C411534   3.874   2.464   9.985  0.0275 -0.6745  0.0388
  782MPD2    C511535   3.811   2.402   9.874  0.4303 -0.7568  0.1999
  782MPD2     H11536   4.111   2.240  10.030  0.4195  0.1392  0.5757
  782MPD2    H111537   3.846   2.569   9.991  0.5452 -0.5652  0.5542
  782MPD2    H211538   3.789   2.231   9.753  1.3199 -0.8229 -0.1609
  782MPD2    H311539   3.729   2.455   9.826  0.4211 -0.3077  0.7114
  782MPD2     N11540   4.073   2.463  10.129 -0.3748 -0.6282 -0.4900
  782MPD2    H511541   4.164   2.418  10.135 -0.3974 -0.5375  0.5882
  782MPD2    N111542   3.992   2.073   9.846  0.3014 -0.2204 -0.0908
  782MPD2    H711543   3.924   2.020   9.792  1.4018  0.8332 -2.5191
  783MPD2     C11544   3.363   1.748  10.422  0.2569  0.4603 -0.3592
  783MPD2    C111545   3.468   1.778  10.501 -0.6383 -0.7815 -0.7212
  783MPD2    C211546   3.601   1.756  10.450 -0.1476 -0.5138 -1.1041
  783MPD2    C311547   3.622   1.732  10.311 -0.3756 -0.0950  0.9602
  783MPD2    C411548   3.512   1.687  10.239  0.4561  0.3455 -0.6113
  783MPD2    C511549   3.387   1.697  10.299  0.0051  0.4496  0.5410
  783MPD2     H11550   3.681   1.773  10.521 -0.1684  1.9524 -1.6965
  783MPD2    H111551   3.513   1.659  10.134 -0.0885 -1.1559 -0.2140
  783MPD2    H211552   3.258   1.765  10.442  0.9286 -1.3562  4.4572
  783MPD2    H311553   3.297   1.664  10.249 -0.4563  1.2057  0.8811
  783MPD2     N11554   3.756   1.735  10.248  0.2397  0.4207 -0.7322
  783MPD2    H511555   3.830   1.766  10.309 -1.2666 -2.4149  2.5153
  783MPD2    N111556   3.426   1.815  10.629 -0.8974  0.3467  0.6077
  783MPD2    H711557   3.328   1.834  10.645 -0.7416  1.8068 -0.1445
  784MPD2     C11558   1.544   2.887   0.622  0.1832  0.3980  0.4459
  784MPD2    C111559   1.489   2.976   0.713 -0.0552 -0.5078  0.2020
  784MPD2    C211560   1.361   3.022   0.693 -0.1132 -0.4592  0.1198
  784MPD2    C311561   1.284   2.978   0.587  0.7734 -0.3327 -0.6545
  784MPD2    C411562   1.338   2.883   0.501 -0.6085 -0.7633 -0.1531
  784MPD2    C511563   1.464   2.837   0.526  0.1836  0.0893 -0.7154
  784MPD2     H11564   1.306   3.089   0.758 -1.3763 -3.0033  1.6370
  784MPD2    H111565   1.288   2.827   0.422 -1.3912 -1.5533  0.9024
  784MPD2    H211566   1.646   2.852   0.635 -0.3855 -1.1381  0.7088
  784MPD2    H311567   1.492   2.759   0.456 -1.9839 -1.6803  0.4027
  784MPD2     N11568   1.149   3.021   0.576 -0.4452 -0.5239  0.2725
  784MPD2    H511569   1.123   3.094   0.641  1.1235 -0.0771  0.3842
  784MPD2    N111570   1.565   3.030   0.821 -0.1734  0.1758 -0.1551
  784MPD2    H711571   1.530   3.108   0.875 -0.9192  0.2025 -0.6789
  785MPD2     C11572   1.507   0.495  10.429  0.2351  0.3797  0.3421
  785MPD2    C111573   1.495   0.606  10.511  0.2445  0.3177 -0.8138
  785MPD2    C211574   1.374   0.635  10.564  0.7452  0.0628  0.0913
  785MPD2    C311575   1.255   0.559  10.538  0.3773  0.4343 -0.1116
  785MPD2    C411576   1.272   0.445  10.462 -0.7560 -0.0283 -0.2948
  785MPD2    C511577   1.399   0.410  10.411 -0.6282  0.7573 -0.0268
  785MPD2     H11578   1.367   0.722  10.628  0.6277  2.0654 -2.6386
  785MPD2    H111579   1.188   0.382  10.436 -2.6206  2.8637 -1.2551
  785MPD2    H211580   1.588   0.466  10.363 -0.2093 -0.1188  0.0178
  785MPD2    H311581   1.415   0.327  10.343  0.4849 -0.4960  1.7894
  785MPD2     N11582   1.133   0.607  10.568  0.7112  0.5368 -0.2866
  785MPD2    H511583   1.131   0.701  10.605  1.6911 -0.2765  1.8245
  785MPD2    N111584   1.595   0.700  10.531 -0.0381 -0.4429 -0.0471
  785MPD2    H711585   1.579   0.787  10.582  2.4554  0.3841 -0.6750
  786MPD2     C11586   4.256   3.932  14.605 -0.2612  0.0237 -0.3874
  786MPD2    C111587   4.387   3.909  14.569  0.9932 -0.0998  0.4717
  786MPD2    C211588   4.487   3.897  14.663  0.2486  0.3677 -0.3330
  786MPD2    C311589   4.455   3.904  14.795 -0.3227 -0.7390  0.1415
  786MPD2    C411590   4.316   3.914  14.834  0.1019 -0.5611  0.3596
  786MPD2    C511591   4.219   3.928  14.736 -0.3454 -0.1512 -0.1868
  786MPD2     H11592   4.590   3.877  14.635 -0.8470 -1.1882 -3.1716
  786MPD2    H111593   4.295   3.933  14.939  0.2598 -0.3084  0.3468
  786MPD2    H211594   4.181   3.959  14.532  1.0772 -0.0074 -1.7746
  786MPD2    H311595   4.120   3.959  14.768 -0.8848 -0.5758 -1.4140
  786MPD2     N11596   4.544   3.898  14.903 -0.0431  0.6443 -0.5614
  786MPD2    H511597   4.496   3.896  14.992 -0.0516 -2.0180 -0.6454
  786MPD2    N111598   4.426   3.905  14.436 -0.5085  0.3162 -0.3066
  786MPD2    H711599   4.525   3.896  14.413 -0.4372 -0.4146  0.2998
  787MPD2     C11600   0.273   4.174  13.870  0.4453  0.2398  0.4461
  787MPD2    C111601   0.222   4.129  13.987  1.5731 -0.2966 -0.5268
  787MPD2    C211602   0.313   4.103  14.088 -0.0263 -0.3484  0.8119
  787MPD2    C311603   0.447   4.141  14.076 -0.9166  0.3838  0.2169
  787MPD2    C411604   0.484   4.210  13.966  0.1702  0.9178 -0.0778
  787MPD2    C511605   0.399   4.221  13.861  0.2281  0.1813 -0.2882
  787MPD2     H11606   0.285   4.079  14.190 -1.7465 -3.1854 -0.3305
  787MPD2    H111607   0.578   4.263  13.958 -0.1326  1.9698  3.5127
  787MPD2    H211608   0.218   4.171  13.777 -0.7360  1.4046  1.0996
  787MPD2    H311609   0.435   4.277  13.776  1.7295 -0.3639  0.0007
  787MPD2     N11610   0.525   4.140  14.193 -0.1069 -0.2719 -0.5438
  787MPD2    H511611   0.492   4.110  14.284 -1.2866 -2.2092 -1.5999
  787MPD2    N111612   0.084   4.103  13.996  0.2710 -0.1000 -0.1917
  787MPD2    H711613   0.033   4.134  13.914  0.4128  0.7292  0.0320
  788MPD2     C11614   2.275   2.827   0.511 -0.3904 -0.3072 -0.3845
  788MPD2    C111615   2.258   2.694   0.474  0.2669  0.1561 -0.2148
  788MPD2    C211616   2.242   2.665   0.340 -0.3430 -0.0974  0.2964
  788MPD2    C311617   2.231   2.764   0.242 -0.8018 -0.2914  0.3667
  788MPD2    C411618   2.244   2.894   0.280  0.0577  0.0154  0.1278
  788MPD2    C511619   2.268   2.926   0.417 -0.1300 -0.4300  0.0792
  788MPD2     H11620   2.221   2.561   0.321 -1.3345  0.5374 -2.0744
  788MPD2    H111621   2.228   2.970   0.205  2.2636  3.0144  2.6579
  788MPD2    H211622   2.291   2.860   0.613  0.5969 -3.0858  0.3733
  788MPD2    H311623   2.282   3.026   0.457  0.1096 -0.3070 -0.3048
  788MPD2     N11624   2.195   2.736   0.110 -0.7764  0.0903  0.5675
  788MPD2    H511625   2.164   2.809   0.048  1.2023 -0.7855 -1.4709
  788MPD2    N111626   2.263   2.586   0.570  0.5911 -0.4033  0.4482
  788MPD2    H711627   2.254   2.491   0.536 -0.1589 -0.2840  0.3193
  789MPD2     C11628   2.161   2.121  16.156 -0.4843  0.3680 -0.2483
  789MPD2    C111629   2.175   2.130  16.296 -0.1872 -0.8250  0.7798
  789MPD2    C211630   2.070   2.179  16.374  0.6362 -0.9541 -0.0734
  789MPD2    C311631   1.950   2.208  16.320  0.4855  0.6442  0.9971
  789MPD2    C411632   1.931   2.190  16.190  0.2602  0.5460 -0.3546
  789MPD2    C511633   2.036   2.155  16.109  0.0189 -0.1620  0.0794
  789MPD2     H11634   2.085   2.188  16.481  0.9662 -3.2876  0.0776
  789MPD2    H111635   1.833   2.194  16.143  0.4867  1.0298 -0.7893
  789MPD2    H211636   2.238   2.079  16.093 -0.9357  0.6009 -0.9594
  789MPD2    H311637   2.011   2.156  16.003  1.3329 -0.5247 -0.2315
  789MPD2     N11638   1.842   2.251  16.392  0.4504 -0.4371 -0.1082
  789MPD2    H511639   1.752   2.262  16.347  0.6837 -0.0315 -0.4733
  789MPD2    N111640   2.296   2.092  16.362 -0.1562 -0.2386  0.0622
  789MPD2    H711641   2.295   2.098  16.463 -1.2213  2.0600 -0.0786
  790MPD2     C11642   3.524   3.807  13.118  0.5333 -0.1862  0.1006
  790MPD2    C111643   3.424   3.726  13.155 -0.2030 -0.6482 -0.7307
  790MPD2    C211644   3.343   3.666  13.056  0.2303  0.5110 -0.6617
  790MPD2    C311645   3.382   3.685  12.923 -0.0743 -0.3931  0.2349
  790MPD2    C411646   3.491   3.764  12.888  0.1283  0.0824 -0.2546
  790MPD2    C511647   3.550   3.835  12.986 -0.0699  0.5734  0.2248
  790MPD2     H11648   3.261   3.598  13.075  0.7604  0.2844  0.8664
  790MPD2    H111649   3.514   3.786  12.785 -1.1041  2.7237  0.0331
  790MPD2    H211650   3.589   3.852  13.193  0.0691 -1.6933  1.3955
  790MPD2    H311651   3.626   3.904  12.950 -1.1466  0.9163 -1.4402
  790MPD2     N11652   3.305   3.609  12.822 -0.0441  0.3120 -0.6054
  790MPD2    H511653   3.243   3.533  12.847  1.7695 -0.9905 -0.0494
  790MPD2    N111654   3.403   3.696  13.290 -0.0787 -0.2685  0.4815
  790MPD2    H711655   3.478   3.718  13.355  1.3921  0.2224 -1.3671
  791MPD2     C11656   2.655   3.560  12.597  0.0803 -0.2295  0.2434
  791MPD2    C111657   2.727   3.440  12.585  0.2027  0.4499  0.3205
  791MPD2    C211658   2.654   3.339  12.530  0.4033  0.1466 -0.5930
  791MPD2    C311659   2.533   3.357  12.473  0.1598 -0.3116 -0.0464
  791MPD2    C411660   2.473   3.481  12.483  0.3450  0.4028 -0.0374
  791MPD2    C511661   2.537   3.584  12.540 -1.0277 -0.6372 -0.0580
  791MPD2     H11662   2.704   3.244  12.520 -0.2015 -0.0480 -1.7997
  791MPD2    H111663   2.377   3.504  12.438 -0.2565 -0.6918  0.7019
  791MPD2    H211664   2.699   3.652  12.632 -0.3812 -0.8856  2.5521
  791MPD2    H311665   2.482   3.676  12.553 -0.8952 -0.7994  1.7311
  791MPD2     N11666   2.474   3.253  12.401 -0.6917  0.2386  0.0798
  791MPD2    H511667   2.522   3.164  12.404  0.5141  0.8530 -1.0832
  791MPD2    N111668   2.872   3.426  12.613 -0.0105  0.4122 -0.0049
  791MPD2    H711669   2.928   3.507  12.637 -2.2317  2.0648 -0.3502
  792MPD2     C11670   3.917   2.892  11.017  0.7514 -0.2594  0.3768
  792MPD2    C111671   3.780   2.889  11.036  0.3158 -0.5891 -0.6929
  792MPD2    C211672   3.705   2.779  10.998 -0.0321 -0.3858  0.1221
  792MPD2    C311673   3.773   2.667  10.950 -0.6730 -0.5797  0.6408
  792MPD2    C411674   3.911   2.667  10.944  0.1895 -0.2348 -0.0275
  792MPD2    C511675   3.974   2.775  10.984  0.1344 -0.6896 -0.2731
  792MPD2     H11676   3.598   2.775  11.013 -0.7626  0.2603 -4.9028
  792MPD2    H111677   3.963   2.577  10.915  0.5571  0.2802 -0.9502
  792MPD2    H211678   3.971   2.982  11.044  0.1730 -0.4888  2.2342
  792MPD2    H311679   4.082   2.775  10.999  0.0076  2.1909  0.6145
  792MPD2     N11680   3.705   2.556  10.896 -0.4696 -0.1183  0.2621
  792MPD2    H511681   3.764   2.474  10.882  0.5977  0.3382  2.1558
  792MPD2    N111682   3.726   3.006  11.096 -0.4677 -0.1402 -0.3332
  792MPD2    H711683   3.797   3.076  11.116 -1.4593  1.1834 -1.4292
  793MPD2     C11684   2.861   2.596  10.489  0.2681 -0.3218  0.1316
  793MPD2    C111685   2.971   2.674  10.522  0.3852 -0.2429 -0.5154
  793MPD2    C211686   3.058   2.621  10.620 -0.5446  0.1573  0.4081
  793MPD2    C311687   3.055   2.487  10.647  0.3283 -0.6053  0.5340
  793MPD2    C411688   2.951   2.411  10.608  0.3316  0.3435 -0.1425
  793MPD2    C511689   2.846   2.469  10.537 -0.7455  0.5863  0.9117
  793MPD2     H11690   3.136   2.684  10.662  0.1723  0.6344 -1.6259
  793MPD2    H111691   2.952   2.304  10.625 -0.6465 -0.0059 -2.2712
  793MPD2    H211692   2.770   2.644  10.453  1.2706  1.0079 -0.6378
  793MPD2    H311693   2.763   2.406  10.510 -0.3377  0.9097 -1.1108
  793MPD2     N11694   3.168   2.427  10.702 -0.2738 -0.7943  0.2835
  793MPD2    H511695   3.256   2.478  10.692 -1.3201  1.1662  1.0059
  793MPD2    N111696   2.978   2.806  10.487 -0.1308 -0.6547  0.5125
  793MPD2    H711697   3.049   2.861  10.533  1.3020 -1.5393 -0.6420
  794MPD2     C11698   2.848   3.717  17.188 -0.1886 -0.4043  0.0885
  794MPD2    C111699   2.826   3.587  17.182 -0.2867 -0.1983 -0.0018
  794MPD2    C211700   2.775   3.541  17.063  0.0850  0.0879  0.0966
  794MPD2    C311701   2.734   3.635  16.967 -0.0571  0.5911 -0.1974
  794MPD2    C411702   2.746   3.768  16.980 -0.0638 -0.3633  0.3853
  794MPD2    C511703   2.819   3.805  17.091  0.6691 -0.8222  0.4557
  794MPD2     H11704   2.753   3.435  17.059 -3.1675  0.7280  0.4620
  794MPD2    H111705   2.723   3.838  16.901  0.7093 -0.2842  0.2374
  794MPD2    H211706   2.910   3.763  17.264 -1.6966 -0.4925  1.3693
  794MPD2    H311707   2.847   3.908  17.110  0.2555 -0.4075 -1.1572
  794MPD2     N11708   2.685   3.597  16.844 -0.0502 -0.3299 -0.0487
  794MPD2    H511709   2.652   3.675  16.789 -0.0233  0.4338  0.9997
  794MPD2    N111710   2.871   3.493  17.281 -0.0814 -0.5037 -0.4576
  794MPD2    H711711   2.850   3.396  17.259 -0.8053 -0.7880  1.5177
  795MPD2     C11712   1.079   0.229  12.420  0.6246 -0.4358  0.2163
  795MPD2    C111713   1.045   0.139  12.522 -0.8839  0.2580 -0.0974
  795MPD2    C211714   1.134   0.138  12.631 -0.3330  0.4289 -0.7179
  795MPD2    C311715   1.248   0.211  12.632 -0.4758  0.4953 -0.5383
  795MPD2    C411716   1.278   0.297  12.524  0.2612 -0.2429 -0.1876
  795MPD2    C511717   1.190   0.307  12.422 -0.3063 -0.1497  0.1835
  795MPD2     H11718   1.113   0.066  12.709 -0.7273 -0.6572 -1.8323
  795MPD2    H111719   1.365   0.362  12.529 -0.8148  1.0504  1.8343
  795MPD2    H211720   1.026   0.239  12.325 -0.6699  2.6792  1.2458
  795MPD2    H311721   1.194   0.377  12.339 -1.3731  0.2748  0.4887
  795MPD2     N11722   1.334   0.196  12.739 -0.1563  0.3401 -0.0004
  795MPD2    H511723   1.292   0.143  12.815 -0.0918 -0.9668 -0.8818
  795MPD2    N111724   0.931   0.064  12.529  0.0544 -0.2752  0.1726
  795MPD2    H711725   0.915   0.013  12.614 -0.5266  0.5249  0.5439
  796MPD2     C11726   0.324   2.115  16.099  0.3846 -0.6140 -0.8151
  796MPD2    C111727   0.358   2.168  16.220  0.4600  0.6970 -0.0400
  796MPD2    C211728   0.364   2.313  16.238 -0.5735  0.1516 -0.1542
  796MPD2    C311729   0.315   2.386  16.129 -0.2269  0.0711 -0.1470
  796MPD2    C411730   0.294   2.329  16.006 -0.7330 -0.6082  0.3665
  796MPD2    C511731   0.303   2.193  15.987 -0.1688 -0.0263 -0.4898
  796MPD2     H11732   0.395   2.360  16.331 -0.6081 -1.6306  0.7603
  796MPD2    H111733   0.247   2.387  15.927  0.9295  1.5485  0.9507
  796MPD2    H211734   0.326   2.007  16.093  4.0151 -0.4954 -1.3761
  796MPD2    H311735   0.276   2.162  15.887 -0.1940 -1.9001  0.0948
  796MPD2     N11736   0.314   2.520  16.145 -0.4275  0.5245 -0.4096
  796MPD2    H511737   0.355   2.560  16.229  2.3469  1.0038 -2.0006
  796MPD2    N111738   0.404   2.077  16.315 -0.0024  0.6726  0.0475
  796MPD2    H711739   0.402   1.978  16.292 -1.6641  1.3241 -2.6153
  797MPD2     C11740   0.619   1.753   0.012  0.2112  0.5889  0.7226
  797MPD2    C111741   0.740   1.688   0.027 -0.3622  0.5217  0.1520
  797MPD2    C211742   0.861   1.719  17.667  0.2271  0.3794  0.4853
  797MPD2    C311743   0.862   1.824  17.582  0.0754 -0.2890  0.1301
  797MPD2    C411744   0.746   1.895  17.551  0.5713 -0.2442 -0.3309
  797MPD2    C511745   0.623   1.862  17.618  0.0898 -0.5605 -0.1494
  797MPD2     H11746   0.950   1.664   0.002 -0.7503 -0.3280  2.1626
  797MPD2    H111747   0.751   1.985  17.491  0.0251 -0.2109 -0.3287
  797MPD2    H211748   0.530   1.724   0.066 -1.2879  0.0233 -2.0270
  797MPD2    H311749   0.534   1.924  17.609  0.5183  0.0184 -0.3527
  797MPD2     N11750   0.980   1.862  17.523  0.9245  0.0711  0.2415
  797MPD2    H511751   0.966   1.928  17.447  0.2076  0.3001  0.5747
  797MPD2    N111752   0.749   1.575   0.111 -0.4240  0.5063 -0.5102
  797MPD2    H711753   0.845   1.543   0.127 -0.2744  2.3869  2.2512
  798MPD2     C11754   1.420   1.322  17.639  0.6940  0.2250  0.8951
  798MPD2    C111755   1.336   1.429  17.645 -0.4859  0.1390 -0.5937
  798MPD2    C211756   1.214   1.416   0.018 -0.6354  0.4656 -0.5757
  798MPD2    C311757   1.172   1.297   0.075 -0.1493 -0.3704  0.6341
  798MPD2    C411758   1.257   1.191   0.064 -0.1773  0.2684 -0.1288
  798MPD2    C511759   1.379   1.210   0.002 -0.1482  0.0580 -0.2074
  798MPD2     H11760   1.147   1.501   0.012 -0.4359  0.6747  0.2504
  798MPD2    H111761   1.237   1.092   0.102  1.1216  1.1593  2.9191
  798MPD2    H211762   1.517   1.333  17.592 -0.0967 -1.0041 -1.0080
  798MPD2    H311763   1.452   1.129   0.001  0.0636  0.2391  0.5670
  798MPD2     N11764   1.047   1.297   0.137 -0.1810 -0.0848 -0.2938
  798MPD2    H511765   0.992   1.383   0.140  2.0343  1.3201 -0.3499
  798MPD2    N111766   1.352   1.549  17.565 -0.2536  0.6159 -0.4994
  798MPD2    H711767   1.285   1.622  17.585 -0.4535  0.4481 -0.5560
  799MPD2     C11768   0.114   3.358  14.727  0.0336  0.2108 -0.6029
  799MPD2    C111769   0.034   3.265  14.670 -0.2762  0.1526 -0.5985
  799MPD2    C211770   4.710   3.296  14.543 -0.1909  0.1353  0.1532
  799MPD2    C311771   0.001   3.428  14.492 -0.0164  0.3396  0.2538
  799MPD2    C411772   0.076   3.520  14.559 -0.3640  0.3217 -0.0488
  799MPD2    C511773   0.140   3.480  14.672 -0.8946  0.0891  0.0264
  799MPD2     H11774   4.670   3.217  14.480  0.5478 -2.1402  2.5520
  799MPD2    H111775   0.094   3.619  14.520 -1.4877  1.0170  1.2168
  799MPD2    H211776   0.165   3.328  14.818 -0.5167 -2.3117 -1.1189
  799MPD2    H311777   0.208   3.546  14.725  0.0041  0.2994 -1.3974
  799MPD2     N11778   4.661   3.474  14.376 -0.2589 -0.0511  0.4540
  799MPD2    H511779   4.674   3.571  14.348 -2.6916 -0.1173 -0.8760
  799MPD2    N111780   0.004   3.133  14.713  0.2528  0.0608  0.0472
  799MPD2    H711781   4.668   3.077  14.652  1.2332 -1.2673  0.3108
  800MPD2     C11782   1.015   4.605  14.046  0.0681 -0.7491  0.2292
  800MPD2    C111783   1.137   4.583  13.996 -0.4912  0.7754 -0.5666
  800MPD2    C211784   1.153   4.487  13.896  0.0099 -0.5073  0.3402
  800MPD2    C311785   1.036   4.422  13.847 -0.2857  0.4654  0.4107
  800MPD2    C411786   0.915   4.464  13.891  0.2479  0.6177 -0.3299
  800MPD2    C511787   0.905   4.551  13.997  0.3384  0.2043 -0.3706
  800MPD2     H11788   1.249   4.460  13.852  0.8838  0.8237  1.4528
  800MPD2    H111789   0.830   4.401  13.863  1.3212 -0.9628 -0.0386
  800MPD2    H211790   0.999   4.658  14.139 -0.2090  1.1986 -0.9151
  800MPD2    H311791   0.810   4.563  14.047  0.2734  0.0262 -0.4490
  800MPD2     N11792   1.056   4.330  13.739  0.0105 -0.2627  0.2162
  800MPD2    H511793   1.150   4.296  13.724 -0.3884  0.0066 -2.7841
  800MPD2    N111794   1.250   4.634  14.062  0.0295 -0.1130 -0.5239
  800MPD2    H711795   1.228   4.683  14.148  1.1107  0.5232 -0.6024
  801MPD2     C11796   1.194   0.229  14.648  0.7232 -0.5393  0.0226
  801MPD2    C111797   1.161   0.170  14.521 -0.9613 -0.2361  0.3463
  801MPD2    C211798   1.032   0.156  14.474  0.0460 -0.0808  0.4558
  801MPD2    C311799   0.924   0.194  14.554 -0.4278 -0.3373  0.1373
  801MPD2    C411800   0.954   0.251  14.681  0.3238  0.2099 -0.0828
  801MPD2    C511801   1.084   0.268  14.721 -0.4582 -0.0585  0.5964
  801MPD2     H11802   1.007   0.117  14.376  0.4776  2.7703 -0.7830
  801MPD2    H111803   0.873   0.268  14.752 -0.6734 -1.2993 -0.8390
  801MPD2    H211804   1.292   0.252  14.690 -0.0991  1.5636  0.7708
  801MPD2    H311805   1.097   0.304  14.823 -0.7687  0.7084  0.3664
  801MPD2     N11806   0.785   0.194  14.519  0.3654 -0.1150  0.0031
  801MPD2    H511807   0.716   0.233  14.582  0.6476 -0.0830  0.2907
  801MPD2    N111808   1.268   0.120  14.439  0.6169 -0.9859 -0.2109
  801MPD2    H711809   1.247   0.051  14.367 -0.6269 -0.9334  0.1013
  802MPD2     C11810   4.555   4.209   0.098 -0.0660  0.3628  0.5916
  802MPD2    C111811   4.517   4.334   0.047  0.2401  0.4443 -0.2643
  802MPD2    C211812   4.543   4.367  17.612 -0.0059 -0.4536 -0.6474
  802MPD2    C311813   4.625   4.289  17.536  0.1365  0.9111  0.4642
  802MPD2    C411814   4.678   4.173  17.589  0.2975  0.4582 -0.2922
  802MPD2    C511815   4.633   4.127   0.019  0.0834  0.3595 -0.1203
  802MPD2     H11816   4.524   4.465  17.570  0.9074  0.4195  1.0141
  802MPD2    H111817   0.007   4.101  17.527  2.3281  1.0327  0.7389
  802MPD2    H211818   4.564   4.192   0.204 -0.2375 -0.3777  0.4864
  802MPD2    H311819   4.662   4.030   0.059 -2.3207  0.1741  1.1699
  802MPD2     N11820   4.673   4.345  17.414 -0.1148 -0.2356  0.5497
  802MPD2    H511821   4.651   4.443  17.398  1.7410  0.4611  2.3112
  802MPD2    N111822   4.451   4.428   0.134  0.0985  0.0516 -0.3370
  802MPD2    H711823   4.437   4.406   0.232 -0.2588  1.6957 -0.0100
  803MPD2     C11824   1.346   2.914  11.509  0.0914 -0.6734  0.2065
  803MPD2    C111825   1.402   3.007  11.596  0.2270 -0.2517 -0.3004
  803MPD2    C211826   1.373   3.000  11.731  0.0705 -0.3359 -1.0274
  803MPD2    C311827   1.290   2.901  11.781 -0.3309  0.1485  0.5915
  803MPD2    C411828   1.230   2.813  11.690 -0.6717  0.2534  0.2903
  803MPD2    C511829   1.259   2.826  11.554 -0.4047 -1.0130 -0.7492
  803MPD2     H11830   1.427   3.060  11.803 -0.6862 -0.5135 -0.3239
  803MPD2    H111831   1.163   2.731  11.715  2.0627 -1.9155  0.4091
  803MPD2    H211832   1.371   2.917  11.403 -0.7499 -0.6378  0.0130
  803MPD2    H311833   1.202   2.769  11.481 -2.1569 -0.1130 -0.1084
  803MPD2     N11834   1.269   2.883  11.917 -0.8182 -0.5188 -0.1926
  803MPD2    H511835   1.200   2.814  11.945 -0.9351  0.6767  2.4851
  803MPD2    N111836   1.502   3.100  11.564 -0.7097  0.8564  0.1855
  803MPD2    H711837   1.551   3.145  11.641  0.5075 -2.0114  1.1026
  804MPD2     C11838   0.843   0.081  16.466 -0.0871  0.4941 -0.2421
  804MPD2    C111839   0.827   0.063  16.598  0.0616 -0.0824  0.3434
  804MPD2    C211840   0.904   0.140  16.688  0.1495  0.3290  0.0773
  804MPD2    C311841   1.001   0.225  16.641 -0.4755  0.6277 -0.4090
  804MPD2    C411842   1.026   0.229  16.505 -0.3716 -0.1678 -0.5625
  804MPD2    C511843   0.938   0.163  16.421 -0.4826  0.3846 -0.6052
  804MPD2     H11844   0.882   0.135  16.795 -1.0120 -0.2717 -0.1793
  804MPD2    H111845   1.113   0.278  16.464 -0.0386 -1.4866 -1.4289
  804MPD2    H211846   0.779   0.027  16.398  1.5204 -1.0991 -0.5021
  804MPD2    H311847   0.957   0.168  16.314 -0.5224 -0.2509 -0.6389
  804MPD2     N11848   1.078   0.295  16.737  0.0804 -0.2453  0.1525
  804MPD2    H511849   1.036   0.306  16.829  1.7950  0.7791  0.8079
  804MPD2    N111850   0.753   4.680  16.655  0.2659  0.0940  0.6922
  804MPD2    H711851   0.763   4.668  16.755 -0.5320  0.0853  0.7738
  805MPD2     C11852   4.463   3.143  15.707 -0.5725 -0.3154  0.3724
  805MPD2    C111853   4.539   3.166  15.591 -0.5957 -0.8603  0.6551
  805MPD2    C211854   4.676   3.165  15.609  0.2204 -0.4164 -0.2792
  805MPD2    C311855   0.018   3.150  15.734  0.5662  0.7634 -0.7495
  805MPD2    C411856   4.664   3.135  15.846  0.3668  0.1267 -0.0209
  805MPD2    C511857   4.532   3.134  15.828 -0.1418  0.2569 -0.3874
  805MPD2     H11858   0.002   3.182  15.514  0.5313 -1.0868 -0.2411
  805MPD2    H111859   4.707   3.116  15.943 -1.4804 -0.0212  0.7662
  805MPD2    H211860   4.354   3.147  15.714 -0.4500 -0.8036  2.4968
  805MPD2    H311861   4.466   3.098  15.906  2.2316 -2.2231  0.4772
  805MPD2     N11862   0.160   3.154  15.737 -0.1855  0.7112 -0.2767
  805MPD2    H511863   0.211   3.174  15.652  1.8246  0.1978  0.8089
  805MPD2    N111864   4.489   3.159  15.460 -0.8982 -0.3665 -0.3411
  805MPD2    H711865   4.562   3.137  15.393  0.1780  0.9007  0.4188
  806MPD2     C11866   0.626   2.827   0.493 -0.7246  0.1661  0.1493
  806MPD2    C111867   0.525   2.922   0.512  0.3295 -0.0433 -0.2468
  806MPD2    C211868   0.488   3.001   0.405  0.2783  0.6625 -1.0229
  806MPD2    C311869   0.555   2.979   0.281  0.1279  0.0990  0.2103
  806MPD2    C411870   0.646   2.877   0.267 -0.4260 -0.1011  1.0348
  806MPD2    C511871   0.684   2.803   0.376  0.0362 -0.2150 -0.7644
  806MPD2     H11872   0.420   3.084   0.420  1.1136  0.9288  1.3188
  806MPD2    H111873   0.696   2.860   0.172 -1.3889 -2.3881  0.9402
  806MPD2    H211874   0.676   2.778   0.575  0.5996  0.3201 -0.5704
  806MPD2    H311875   0.776   2.746   0.378  1.7383  2.5050 -1.1048
  806MPD2     N11876   0.532   3.071   0.173 -0.0723 -0.4185 -0.4224
  806MPD2    H511877   0.480   3.154   0.199 -0.0218 -0.7797  0.8152
  806MPD2    N111878   0.490   2.943   0.650  0.1297  0.0673 -0.2733
  806MPD2    H711879   0.525   2.887   0.726 -0.4282 -1.0052 -0.8127
  807MPD2     C11880   4.708   2.820   1.269  0.0949 -0.3812 -0.2480
  807MPD2    C111881   0.105   2.760   1.237  0.5452  0.0627 -0.0665
  807MPD2    C211882   0.119   2.619   1.261 -0.1443  0.4022 -0.0532
  807MPD2    C311883   0.023   2.539   1.304  0.2824  0.8194  0.4031
  807MPD2    C411884   4.631   2.603   1.346  0.0821 -0.1511 -0.3543
  807MPD2    C511885   4.613   2.737   1.317  0.3930  0.5657 -0.3246
  807MPD2     H11886   0.213   2.577   1.225 -0.3158  0.6103 -0.7505
  807MPD2    H111887   4.546   2.549   1.386  0.0091  1.4339  1.6529
  807MPD2    H211888   4.687   2.926   1.277 -0.8215 -0.3630 -3.0129
  807MPD2    H311889   4.523   2.792   1.345  1.5069  1.7221  0.9858
  807MPD2     N11890   0.039   2.399   1.310  0.7110  0.4301 -0.3464
  807MPD2    H511891   0.126   2.363   1.271  0.0078 -2.0240  0.3455
  807MPD2    N111892   0.220   2.831   1.187 -0.2663 -0.1376 -0.5289
  807MPD2    H711893   0.302   2.773   1.168  0.4110  1.1786 -1.6577
  808MPD2     C11894   1.032   3.453   9.583 -0.7901  0.5101 -0.5480
  808MPD2    C111895   1.136   3.363   9.553 -0.2444 -0.4345 -0.0103
  808MPD2    C211896   1.227   3.394   9.452 -0.1185 -0.1081  0.5055
  808MPD2    C311897   1.213   3.516   9.387 -0.7336  0.0756  0.1689
  808MPD2    C411898   1.114   3.602   9.424  0.3960  0.0754 -0.4869
  808MPD2    C511899   1.023   3.570   9.519  0.6600  0.2954 -1.0037
  808MPD2     H11900   1.310   3.330   9.425  0.5818  0.4929  1.2127
  808MPD2    H111901   1.086   3.690   9.367 -2.4509 -0.4083  0.1599
  808MPD2    H211902   0.957   3.424   9.655 -0.8649 -0.2502 -0.9397
  808MPD2    H311903   0.944   3.642   9.538 -0.6309 -0.9948 -1.5398
  808MPD2     N11904   1.288   3.556   9.277 -0.0111  0.8218  0.4392
  808MPD2    H511905   1.243   3.635   9.233 -1.5104  0.3859  1.1818
  808MPD2    N111906   1.159   3.244   9.620  0.3953  0.5051  0.1733
  808MPD2    H711907   1.238   3.192   9.583 -0.0893  0.8142 -1.3030
  809MPD2     C11908   1.720   3.460   8.297 -0.2344 -0.3101 -0.1299
  809MPD2    C111909   1.757   3.380   8.404  0.2486  0.6251  0.4565
  809MPD2    C211910   1.755   3.432   8.529 -0.2853  0.0919 -0.7156
  809MPD2    C311911   1.700   3.555   8.564  0.4742 -0.2355  0.3673
  809MPD2    C411912   1.671   3.637   8.456 -0.4008  0.1198 -0.9732
  809MPD2    C511913   1.681   3.594   8.320  0.6223 -0.2830  0.3868
  809MPD2     H11914   1.787   3.368   8.610  1.8283 -0.0998 -1.7131
  809MPD2    H111915   1.629   3.736   8.472  0.5974  0.2627  0.6844
  809MPD2    H211916   1.716   3.423   8.195  1.3422 -0.4765 -0.1228
  809MPD2    H311917   1.678   3.668   8.241 -2.5449 -1.2612 -0.3915
  809MPD2     N11918   1.667   3.592   8.697 -0.2485 -0.9145  0.1811
  809MPD2    H511919   1.629   3.685   8.709 -1.1796 -1.0524 -1.6953
  809MPD2    N111920   1.782   3.247   8.393  0.3246 -0.1152 -0.2125
  809MPD2    H711921   1.812   3.211   8.483  0.1299  0.0493 -0.0825
  810MPD2     C11922   1.030   2.795  10.330  0.2266  0.2028 -0.2805
  810MPD2    C111923   0.964   2.835  10.212  0.0657  0.3783 -0.1790
  810MPD2    C211924   1.028   2.924  10.132  0.5403  0.1603  0.0888
  810MPD2    C311925   1.151   2.978  10.172  0.2732 -0.2889 -0.0849
  810MPD2    C411926   1.210   2.940  10.294  0.1063  1.1524  0.1167
  810MPD2    C511927   1.152   2.838  10.371 -0.0923  0.2133 -0.2224
  810MPD2     H11928   0.991   2.948  10.033  0.9511  0.7706  0.0820
  810MPD2    H111929   1.298   2.985  10.337 -1.0003  1.7972  1.6994
  810MPD2    H211930   0.988   2.726  10.402  1.2579  0.7544  0.8532
  810MPD2    H311931   1.188   2.808  10.468  4.7050  2.5983 -1.2860
  810MPD2     N11932   1.197   3.083  10.098  0.3194  0.1093 -0.1463
  810MPD2    H511933   1.125   3.112  10.033  0.8592  2.7385  0.4407
  810MPD2    N111934   0.847   2.770  10.179  0.2738 -0.2233  0.4672
  810MPD2    H711935   0.822   2.707  10.255 -1.1356  1.2077  1.1825
  811MPD2     C11936   0.116   2.932   9.819 -0.2388 -0.3981  0.0931
  811MPD2    C111937   0.250   2.971   9.815  0.2057  0.9501  0.0926
  811MPD2    C211938   0.289   3.100   9.791 -0.4549  0.3830 -0.2001
  811MPD2    C311939   0.197   3.187   9.738  0.3442  0.1815 -0.2430
  811MPD2    C411940   0.061   3.148   9.722  0.2401 -0.1512  0.4729
  811MPD2    C511941   0.026   3.022   9.767 -0.5206  0.3881 -0.2477
  811MPD2     H11942   0.393   3.128   9.783  0.0770 -0.6024  3.3489
  811MPD2    H111943   4.706   3.211   9.683  0.8357  0.5664  0.4516
  811MPD2    H211944   0.079   2.831   9.831 -2.9517  0.6248  0.3098
  811MPD2    H311945   4.645   2.994   9.758 -0.0844 -1.5301  0.6497
  811MPD2     N11946   0.242   3.319   9.698 -0.5847 -0.1134  0.0464
  811MPD2    H511947   0.335   3.356   9.719  0.7426 -2.4988 -1.5948
  811MPD2    N111948   0.351   2.877   9.849 -0.0542  0.1133  0.5302
  811MPD2    H711949   0.446   2.907   9.867  0.1239  0.9219 -1.7301
  812MPD2     C11950   4.479   3.191  12.014 -0.4489 -0.1023 -0.5989
  812MPD2    C111951   4.368   3.233  12.087 -0.3715  0.0130 -0.4993
  812MPD2    C211952   4.289   3.138  12.154 -0.7761  0.2694 -0.5764
  812MPD2    C311953   4.332   3.005  12.154 -0.1633 -0.2255 -0.4132
  812MPD2    C411954   4.444   2.962  12.084 -0.5715  0.0588  0.3569
  812MPD2    C511955   4.514   3.059  12.011 -0.4067 -0.0065 -0.3980
  812MPD2     H11956   4.213   3.179  12.220  0.2597  0.0043  0.7654
  812MPD2    H111957   4.486   2.863  12.096  0.3802  0.5041  0.6653
  812MPD2    H211958   4.541   3.261  11.959 -0.0900 -0.3611 -0.5293
  812MPD2    H311959   4.600   3.031  11.952 -0.4470 -2.0778  0.4975
  812MPD2     N11960   4.265   2.914  12.242 -0.0848 -0.0582 -0.0369
  812MPD2    H511961   4.213   2.955  12.319 -0.8505 -1.5480  0.2388
  812MPD2    N111962   4.336   3.374  12.081  0.1694 -0.1615 -0.3500
  812MPD2    H711963   4.403   3.429  12.028  1.7772 -1.9901 -0.1707
  813MPD2     C11964   2.523   0.362  12.728  0.5944 -0.1994 -0.1011
  813MPD2    C111965   2.580   0.487  12.727  0.7989 -0.4389  0.3396
  813MPD2    C211966   2.518   0.597  12.787 -0.0223 -0.3371  0.3584
  813MPD2    C311967   2.394   0.583  12.846  0.6181 -1.1538 -0.6606
  813MPD2    C411968   2.324   0.464  12.828  0.4749 -0.6130 -0.1171
  813MPD2    C511969   2.395   0.354  12.781  0.7726  0.5834 -0.5378
  813MPD2     H11970   2.575   0.688  12.802 -1.4260  0.3862  1.3238
  813MPD2    H111971   2.228   0.438  12.872  0.6467  0.1005  0.6893
  813MPD2    H211972   2.574   0.277  12.684  0.9115  0.1898 -0.4866
  813MPD2    H311973   2.342   0.260  12.773  2.3636 -0.4245  0.8222
  813MPD2     N11974   2.355   0.685  12.935  0.4960  0.0231 -0.5669
  813MPD2    H511975   2.408   0.771  12.931  4.0995 -2.1275  0.9874
  813MPD2    N111976   2.705   0.500  12.668  0.1568 -0.3383 -0.2174
  813MPD2    H711977   2.756   0.415  12.644 -1.4554 -1.4062  0.1025
  814MPD2     C11978   3.549   1.802  11.834  0.5080 -0.1223  0.6697
  814MPD2    C111979   3.669   1.787  11.760 -0.1270 -0.3652 -0.3040
  814MPD2    C211980   3.765   1.884  11.775  0.5190 -0.1539  0.1946
  814MPD2    C311981   3.750   1.998  11.852 -1.0473  0.5847  0.1620
  814MPD2    C411982   3.630   2.012  11.918 -0.2606  0.7062 -0.1267
  814MPD2    C511983   3.539   1.912  11.916  0.1159 -0.7541  0.3582
  814MPD2     H11984   3.863   1.872  11.730  0.0286  0.9982 -1.1856
  814MPD2    H111985   3.617   2.086  11.996 -0.9301  1.1558 -0.6706
  814MPD2    H211986   3.474   1.726  11.847 -2.2242  2.6136  0.8029
  814MPD2    H311987   3.457   1.920  11.987  1.5830  3.0401  1.6167
  814MPD2     N11988   3.849   2.096  11.884  0.2577 -0.1403 -0.7683
  814MPD2    H511989   3.827   2.168  11.952 -1.7004  0.6021 -2.1588
  814MPD2    N111990   3.699   1.678  11.675  0.4811 -0.3115 -0.7433
  814MPD2    H711991   3.783   1.674  11.619  0.0733  1.4744 -1.4687
  815MPD2     C11992   4.358   4.704  11.400 -0.2038 -0.6997 -0.2447
  815MPD2    C111993   4.373   4.574  11.449  0.1000 -0.6321  0.6683
  815MPD2    C211994   4.332   4.538  11.574  0.5568 -0.2151 -0.1459
  815MPD2    C311995   4.268   4.633  11.649  0.3132 -0.3895  0.4727
  815MPD2    C411996   4.260   0.041  11.608 -0.1463 -0.2073 -0.2261
  815MPD2    C511997   4.309   0.079  11.483 -0.1505 -0.3314 -0.2702
  815MPD2     H11998   4.347   4.439  11.615 -0.2355  0.3981  1.6255
  815MPD2    H111999   4.210   0.119  11.664 -0.2417 -0.0285 -0.5575
  815MPD2    H212000   4.391   0.007  11.301 -1.5401  0.5716 -0.3588
  815MPD2    H312001   4.295   0.180  11.445 -0.5134 -0.5356 -0.6640
  815MPD2     N12002   4.218   4.586  11.777  0.1382 -0.1636 -0.0275
  815MPD2    H512003   4.251   4.494  11.807  1.4459 -0.4796 -2.4838
  815MPD2    N112004   4.423   4.484  11.362  0.5880  0.4731 -0.1205
  815MPD2    H712005   4.437   4.522  11.268 -0.3089 -0.3161 -0.5729
  816MPD2     C12006   3.415   4.581  16.690 -0.0922  0.0011  0.6944
  816MPD2    C112007   3.520   4.659  16.727  0.0677  0.4826 -0.1411
  816MPD2    C212008   3.651   4.621  16.689  0.0605 -0.0156  0.2844
  816MPD2    C312009   3.677   4.497  16.626  0.2933 -0.2697  0.0269
  816MPD2    C412010   3.569   4.422  16.589  0.8180 -0.4122  0.4684
  816MPD2    C512011   3.440   4.469  16.615  0.0223  0.2732  1.2602
  816MPD2     H12012   3.740   4.676  16.717 -1.7054  2.3820  1.2430
  816MPD2    H112013   3.568   4.327  16.535 -0.6929 -0.4187  0.5215
  816MPD2    H212014   3.312   4.606  16.710 -0.4794 -0.3521 -0.8775
  816MPD2    H312015   3.354   4.409  16.590 -0.3952  0.8629  1.2747
  816MPD2     N12016   3.814   4.459  16.606 -0.0637  0.0970 -0.7031
  816MPD2    H512017   3.878   4.533  16.631  0.6780 -0.2303 -1.6383
  816MPD2    N112018   3.508   0.053  16.806  0.3620  0.1236  0.1570
  816MPD2    H712019   3.416   0.096  16.803 -0.1444 -0.9012  0.9333
  817MPD2     C12020   3.133   4.716   9.942  0.0512 -0.1638 -0.2507
  817MPD2    C112021   3.124   4.661   9.818  0.1356 -0.7141 -0.4339
  817MPD2    C212022   3.074   0.014   9.720 -0.4242  0.6057 -0.4466
  817MPD2    C312023   3.021   0.143   9.730  1.2092  0.7502  0.5269
  817MPD2    C412024   3.011   0.187   9.859  0.0112 -0.5351  0.6304
  817MPD2    C512025   3.073   0.115   9.965  0.2365  0.2080 -0.6355
  817MPD2     H12026   3.067   4.685   9.624  0.9657 -0.3353 -0.0372
  817MPD2    H112027   2.957   0.275   9.893  0.8027 -0.3407  1.3846
  817MPD2    H212028   3.192   4.678  10.025 -0.2958 -0.5325 -0.1747
  817MPD2    H312029   3.062   0.144  10.068 -1.8168  3.3706 -1.7593
  817MPD2     N12030   2.968   0.194   9.610 -0.1531  0.0072  0.0383
  817MPD2    H512031   2.979   0.135   9.529  0.5656  0.2866 -0.0644
  817MPD2    N112032   3.182   4.537   9.788 -0.0970 -0.4645 -0.7785
  817MPD2    H712033   3.193   4.508   9.692  0.4962 -0.2496 -0.7753
  818MPD2     C12034   2.135   0.572   9.353 -0.6844 -0.0489 -1.3592
  818MPD2    C112035   2.170   0.506   9.469 -0.5314  0.0771 -0.3902
  818MPD2    C212036   2.219   0.377   9.472 -0.1851  0.1362 -0.2004
  818MPD2    C312037   2.237   0.311   9.352 -0.3049  0.1541 -0.4313
  818MPD2    C412038   2.212   0.375   9.239 -0.2599 -0.6251 -0.7705
  818MPD2    C512039   2.166   0.503   9.240  0.5578  0.7128 -0.0927
  818MPD2     H12040   2.222   0.326   9.568  0.0835  1.8934  0.7197
  818MPD2    H112041   2.224   0.335   9.139 -2.5558 -1.7470 -0.5938
  818MPD2    H212042   2.108   0.677   9.348  0.1111  0.1756 -0.9635
  818MPD2    H312043   2.153   0.560   9.148  0.9737  1.6785  0.4530
  818MPD2     N12044   2.271   0.178   9.335  0.0284 -0.7319 -0.0923
  818MPD2    H512045   2.262   0.144   9.239  1.7907 -2.5930  0.4013
  818MPD2    N112046   2.157   0.563   9.595  0.4741  0.2245 -0.2460
  818MPD2    H712047   2.191   0.521   9.681  0.0897 -1.9287 -1.1532
  819MPD2     C12048   0.253   2.676  15.735  0.7150 -0.1137 -0.3568
  819MPD2    C112049   0.351   2.599  15.684  0.6961  0.3461  0.4878
  819MPD2    C212050   0.483   2.633  15.716 -0.0046 -0.5294 -0.0485
  819MPD2    C312051   0.511   2.749  15.787  0.0957 -0.1397 -0.3821
  819MPD2    C412052   0.406   2.831  15.833 -1.0069 -0.3342 -0.4922
  819MPD2    C512053   0.288   2.791  15.801  0.1785 -0.2171 -0.3318
  819MPD2     H12054   0.562   2.565  15.690  0.6227  1.1328 -2.5007
  819MPD2    H112055   0.425   2.930  15.873 -4.2638  1.1308 -2.5484
  819MPD2    H212056   0.147   2.663  15.715  0.4753  1.2099  0.0639
  819MPD2    H312057   0.206   2.852  15.837  0.0709 -0.7606  0.3657
  819MPD2     N12058   0.646   2.765  15.825  0.8441 -0.2005  0.1529
  819MPD2    H512059   0.710   2.698  15.784 -1.0451 -2.8939  1.6413
  819MPD2    N112060   0.312   2.494  15.592  0.0403 -0.1638  0.5149
  819MPD2    H712061   0.214   2.478  15.572  0.2889 -2.0526  0.8187
  820MPD2     C12062   4.292   2.478  15.038 -0.3387 -0.0860 -0.0806
  820MPD2    C112063   4.380   2.566  15.086 -0.3414  0.2915  0.2500
  820MPD2    C212064   4.501   2.523  15.131  0.2368  0.4805 -0.2242
  820MPD2    C312065   4.546   2.396  15.117  0.0692 -0.2285 -0.4561
  820MPD2    C412066   4.453   2.311  15.070  0.3988 -0.0884 -0.3730
  820MPD2    C512067   4.326   2.347  15.044 -0.2130 -0.3237  0.4935
  820MPD2     H12068   4.557   2.600  15.183  0.0895 -0.3351  1.1591
  820MPD2    H112069   4.469   2.204  15.063 -0.9807 -0.3722  0.7719
  820MPD2    H212070   4.190   2.506  15.013  0.0542  0.5685 -0.9324
  820MPD2    H312071   4.258   2.275  14.998 -0.8968  0.6873 -0.0705
  820MPD2     N12072   4.670   2.334  15.155  0.4064 -0.4300  0.1496
  820MPD2    H512073   4.680   2.235  15.135  1.6391 -0.4835  1.0095
  820MPD2    N112074   4.343   2.702  15.096 -0.5893 -0.1171  0.0430
  820MPD2    H712075   4.250   2.716  15.059  0.6344  2.2080 -2.1478
  821MPD2     C12076   1.049   4.126  12.937  0.1357 -0.3209 -0.7821
  821MPD2    C112077   1.154   4.096  13.018  0.2678  0.3805 -0.5443
  821MPD2    C212078   1.281   4.093  12.967 -0.0921 -0.6564 -0.6182
  821MPD2    C312079   1.302   4.109  12.830 -0.7276  0.1054  0.6850
  821MPD2    C412080   1.191   4.117  12.743 -0.4604  0.1988 -0.1576
  821MPD2    C512081   1.066   4.124  12.801 -0.0422  0.3676 -0.3525
  821MPD2     H12082   1.372   4.092  13.026 -1.1324  0.9070  1.0539
  821MPD2    H112083   1.199   4.119  12.635 -1.0267 -2.8157 -0.2563
  821MPD2    H212084   0.949   4.141  12.976  0.0426 -1.9525 -0.3987
  821MPD2    H312085   0.983   4.127  12.732 -0.2940 -2.9480 -0.1808
  821MPD2     N12086   1.432   4.110  12.773 -0.2033 -0.1490 -0.4205
  821MPD2    H512087   1.442   4.138  12.676 -1.2311  0.5537 -0.3227
  821MPD2    N112088   1.148   4.088  13.159  0.5062 -0.1683  0.1862
  821MPD2    H712089   1.235   4.061  13.204  0.4015  0.4860  0.7855
  822MPD2     C12090   1.500   4.165  15.415 -0.9523  0.2489  0.0294
  822MPD2    C112091   1.561   4.179  15.536  0.4560  0.2634 -0.9948
  822MPD2    C212092   1.516   4.272  15.622  0.0907  0.4938 -0.1900
  822MPD2    C312093   1.400   4.345  15.605 -0.0333 -0.0213  0.2632
  822MPD2    C412094   1.332   4.322  15.491  0.7193 -0.3914 -0.1967
  822MPD2    C512095   1.378   4.237  15.393 -0.2730 -0.2406  0.1437
  822MPD2     H12096   1.569   4.266  15.717  0.1277 -0.2911 -0.2617
  822MPD2    H112097   1.248   4.387  15.472  0.4135 -0.3346  1.4251
  822MPD2    H212098   1.526   4.096  15.335  0.4192 -1.2753  1.7992
  822MPD2    H312099   1.331   4.227  15.296 -1.6112  1.6671  0.5951
  822MPD2     N12100   1.345   4.437  15.697  0.3147 -0.0937 -0.4681
  822MPD2    H512101   1.246   4.457  15.689 -0.2571 -2.4381  0.6621
  822MPD2    N112102   1.672   4.101  15.579  0.6337  0.0522 -0.4843
  822MPD2    H712103   1.712   4.122  15.669 -2.9638 -1.7710  1.5311
  823MPD2     C12104   1.055   4.494  16.470  0.3750  0.0865  0.2099
  823MPD2    C112105   1.077   4.419  16.359 -0.0159  0.4041 -0.0376
  823MPD2    C212106   1.055   4.282  16.360  0.7701  0.7250  0.1971
  823MPD2    C312107   1.040   4.215  16.480 -0.0208 -0.2498  0.0940
  823MPD2    C412108   1.018   4.289  16.590  0.0667 -0.0045 -0.2077
  823MPD2    C512109   1.025   4.429  16.583  0.2916  0.4738  0.6284
  823MPD2     H12110   1.058   4.231  16.265  0.3736  1.3415 -0.1499
  823MPD2    H112111   0.989   4.233  16.678  3.1175 -0.3118  0.5836
  823MPD2    H212112   1.063   4.602  16.471  1.6027  0.0214 -1.8214
  823MPD2    H312113   0.998   4.480  16.675  1.1892  0.0315  1.1366
  823MPD2     N12114   1.053   4.078  16.496  0.1561 -0.4061  0.4854
  823MPD2    H512115   1.041   4.031  16.585 -0.0635 -0.6365  0.3359
  823MPD2    N112116   1.102   4.497  16.246  0.4760  0.6856  0.2023
  823MPD2    H712117   1.131   4.592  16.264  1.1176 -0.0357  2.9708
  824MPD2     C12118   1.940   3.237  15.530 -0.2415 -0.9111 -0.1350
  824MPD2    C112119   2.018   3.349  15.506  0.3403  0.9415  1.1802
  824MPD2    C212120   2.134   3.336  15.437  0.0083  0.3555 -0.8187
  824MPD2    C312121   2.196   3.215  15.415 -0.6196  0.7096  0.2366
  824MPD2    C412122   2.113   3.105  15.439  0.2353  0.2666  0.0382
  824MPD2    C512123   1.992   3.116  15.500 -0.4971  0.2108 -0.4087
  824MPD2     H12124   2.192   3.426  15.422  0.7602 -0.0158 -0.1762
  824MPD2    H112125   2.148   3.008  15.406  0.9581  0.7618 -0.6424
  824MPD2    H212126   1.838   3.237  15.568  0.9384  0.2423  3.0392
  824MPD2    H312127   1.932   3.029  15.525  1.0964 -1.3464 -1.9565
  824MPD2     N12128   2.327   3.204  15.365  0.5294  0.1357  0.5916
  824MPD2    H512129   2.358   3.284  15.311  1.1005 -1.0463 -0.8431
  824MPD2    N112130   1.956   3.473  15.556  0.3893 -0.2382 -0.1212
  824MPD2    H712131   1.876   3.462  15.617  0.1431 -0.9284 -0.5694
  825MPD2     C12132   3.068   3.435  14.975  0.2115 -0.3107  0.2087
  825MPD2    C112133   2.974   3.434  15.067  0.8956  0.3180 -0.6925
  825MPD2    C212134   2.975   3.541  15.162 -0.2006 -0.3559  0.1187
  825MPD2    C312135   3.069   3.647  15.140 -0.3040  0.0218  0.5748
  825MPD2    C412136   3.154   3.645  15.029  0.2050  0.0668  0.4664
  825MPD2    C512137   3.147   3.536  14.946 -0.0109  0.5279 -0.0108
  825MPD2     H12138   2.904   3.545  15.244 -1.2894  0.9532 -0.8912
  825MPD2    H112139   3.221   3.728  15.011 -1.8787  1.5919 -0.3291
  825MPD2    H212140   3.086   3.347  14.915  0.1589  0.0009 -0.2685
  825MPD2    H312141   3.222   3.524  14.869  0.3093  0.0219  0.3777
  825MPD2     N12142   3.074   3.759  15.230 -0.7319  0.2647  0.9165
  825MPD2    H512143   3.124   3.846  15.214  0.0297 -0.2069  0.7195
  825MPD2    N112144   2.887   3.324  15.077 -0.5768  0.4638 -1.0122
  825MPD2    H712145   2.902   3.241  15.021  0.9761  0.4663 -0.5835
  826MPD2     C12146   2.203   3.179  13.481  0.2602  0.1108  0.0280
  826MPD2    C112147   2.155   3.229  13.362  0.3016  0.0008 -0.9682
  826MPD2    C212148   2.044   3.321  13.359 -0.2536 -0.3045 -0.8671
  826MPD2    C312149   1.996   3.371  13.479 -0.6109  0.7027 -0.0012
  826MPD2    C412150   2.045   3.320  13.596  0.1904  0.4534  0.5541
  826MPD2    C512151   2.142   3.223  13.594  0.1455 -0.7485  0.1666
  826MPD2     H12152   2.003   3.369  13.271  0.2008  2.2127  0.2766
  826MPD2    H112153   1.996   3.347  13.689 -2.1296  1.1752 -0.8785
  826MPD2    H212154   2.277   3.100  13.491 -0.2541 -0.0274  2.7958
  826MPD2    H312155   2.179   3.176  13.684 -1.1963 -1.5898  0.2887
  826MPD2     N12156   1.885   3.451  13.488  0.0399  0.8164  0.4463
  826MPD2    H512157   1.865   3.478  13.583  0.8722  1.0015  0.5598
  826MPD2    N112158   2.219   3.185  13.246  0.4648  0.3432  0.1860
  826MPD2    H712159   2.296   3.121  13.260  0.0230 -0.2906 -0.2654
  827MPD2     C12160   2.813   3.780  10.252 -0.0512 -0.0250 -0.3459
  827MPD2    C112161   2.772   3.907  10.222 -0.4369 -0.1237  0.3959
  827MPD2    C212162   2.708   3.933  10.104  0.2916  0.4198  0.1433
  827MPD2    C312163   2.685   3.828  10.013  0.3182 -0.6618 -0.0794
  827MPD2    C412164   2.736   3.701  10.044  0.1678  0.5071  0.5783
  827MPD2    C512165   2.776   3.676  10.172  0.1720  0.2124 -0.5952
  827MPD2     H12166   2.680   4.035  10.078 -0.9237 -0.9007 -3.7856
  827MPD2    H112167   2.703   3.613   9.989  1.0000  1.9646 -2.2358
  827MPD2    H212168   2.869   3.744  10.338 -0.1332 -0.3971 -0.4475
  827MPD2    H312169   2.783   3.574  10.209  3.4002  1.0664  1.2056
  827MPD2     N12170   2.607   3.857   9.899  0.5027 -0.3195 -0.1044
  827MPD2    H512171   2.561   3.946   9.886  0.9913 -0.4262 -2.4767
  827MPD2    N112172   2.793   4.013  10.305 -0.4575 -0.1347  0.5632
  827MPD2    H712173   2.753   4.100  10.271 -0.9903 -1.5689 -2.3973
  828MPD2     C12174   1.587   4.055  11.927  0.1071 -0.3581 -0.3269
  828MPD2    C112175   1.511   3.983  11.832  0.0388  0.6878  0.7993
  828MPD2    C212176   1.571   3.924  11.732  0.1245 -0.1882  0.2712
  828MPD2    C312177   1.707   3.922  11.709  0.4575  0.6125 -0.2252
  828MPD2    C412178   1.780   3.991  11.804  0.0551 -0.5319 -0.2427
  828MPD2    C512179   1.725   4.060  11.905  0.0545 -0.1561 -0.9037
  828MPD2     H12180   1.510   3.875  11.657  1.5913  0.7369 -1.5312
  828MPD2    H112181   1.888   3.995  11.800  0.1621 -0.8979  2.2015
  828MPD2    H212182   1.553   4.111  12.013 -0.7079 -0.8646 -0.3214
  828MPD2    H312183   1.784   4.125  11.969  0.8927 -1.4174 -0.3850
  828MPD2     N12184   1.776   3.868  11.598  0.0525 -0.0977 -0.5375
  828MPD2    H512185   1.876   3.886  11.599 -0.4902  3.1023 -1.4125
  828MPD2    N112186   1.371   3.980  11.833  0.2522 -0.0555 -0.4140
  828MPD2    H712187   1.331   3.930  11.754 -0.4283  0.3498 -0.3194
  829MPD2     C12188   1.012   3.563  11.219 -0.5244  0.3832 -0.2396
  829MPD2    C112189   0.938   3.517  11.324 -0.5879 -0.6557 -0.1839
  829MPD2    C212190   0.946   3.581  11.444 -0.0603 -0.2485  0.0564
  829MPD2    C312191   1.032   3.682  11.464  0.0199 -0.2871 -0.2550
  829MPD2    C412192   1.114   3.716  11.360  0.0845  0.4581 -0.0104
  829MPD2    C512193   1.100   3.666  11.235  0.4934 -0.5842  0.6633
  829MPD2     H12194   0.888   3.543  11.527  0.5007  1.1889  1.1107
  829MPD2    H112195   1.195   3.786  11.374  0.6751  0.1710 -1.9459
  829MPD2    H212196   1.019   3.509  11.126 -2.1407  0.6548 -0.5016
  829MPD2    H312197   1.157   3.700  11.149  0.1876 -0.8163  0.3706
  829MPD2     N12198   1.051   3.753  11.583 -0.2949 -0.3229  0.2445
  829MPD2    H512199   1.123   3.825  11.587  0.6929 -1.5036  2.9610
  829MPD2    N112200   0.854   3.411  11.296 -0.6790 -0.5149  0.0370
  829MPD2    H712201   0.873   3.367  11.206 -0.3041 -0.8038  0.2588
  830MPD2     C12202   0.898   2.835  15.333 -0.3526  0.2387  0.7106
  830MPD2    C112203   1.012   2.817  15.405 -0.3600  0.0955  0.5077
  830MPD2    C212204   1.129   2.792  15.340  0.6190  0.4655  0.7878
  830MPD2    C312205   1.129   2.772  15.204  0.5936 -0.1204 -0.5680
  830MPD2    C412206   1.006   2.761  15.134 -0.3029  0.1731 -0.3061
  830MPD2    C512207   0.894   2.801  15.202 -0.0230 -0.2010 -0.1218
  830MPD2     H12208   1.217   2.794  15.403 -0.2211 -0.2602  1.9919
  830MPD2    H112209   0.991   2.733  15.030 -0.2309  0.3551 -0.3655
  830MPD2    H212210   0.805   2.856  15.384 -0.7860  0.4861 -0.2024
  830MPD2    H312211   0.799   2.792  15.151 -1.2846 -2.6211  2.7068
  830MPD2     N12212   1.241   2.760  15.121 -0.6362  0.5170 -0.6367
  830MPD2    H512213   1.229   2.747  15.021  1.5807  1.2890 -1.0045
  830MPD2    N112214   0.998   2.826  15.537  0.1300  0.0204  0.1135
  830MPD2    H712215   0.907   2.864  15.563  1.5565  2.2674  1.7986
  831MPD2     C12216   1.544   4.411  16.156  0.3801  0.3655 -0.3997
  831MPD2    C112217   1.594   4.318  16.062 -0.2704  0.4284  0.7741
  831MPD2    C212218   1.518   4.207  16.038 -0.7306 -0.0085  0.2552
  831MPD2    C312219   1.404   4.170  16.112  0.4995  0.4254  0.1612
  831MPD2    C412220   1.367   4.258  16.211  0.4066  0.1457 -0.2402
  831MPD2    C512221   1.433   4.375  16.226  0.0687 -0.2508  0.0051
  831MPD2     H12222   1.566   4.135  15.972  0.1292  2.9601 -2.3862
  831MPD2    H112223   1.277   4.244  16.270  0.1147 -1.2370 -1.0314
  831MPD2    H212224   1.593   4.507  16.165  1.5825 -0.4088  1.1316
  831MPD2    H312225   1.399   4.447  16.300  0.0318  0.5465 -0.8004
  831MPD2     N12226   1.329   4.053  16.096  0.2681  0.1067  0.3369
  831MPD2    H512227   1.257   4.031  16.164  0.1081 -0.0956  0.1021
  831MPD2    N112228   1.706   4.352  15.984 -0.8756 -0.7392  0.3363
  831MPD2    H712229   1.739   4.442  16.018 -0.2024 -0.7073 -0.4026
  832MPD2     C12230   4.662   0.756  17.332 -0.4097 -0.0938 -0.1331
  832MPD2    C112231   4.656   0.888  17.294 -0.3863  0.7672  0.5175
  832MPD2    C212232   4.576   0.928  17.189 -0.4145 -0.1748  0.2751
  832MPD2    C312233   4.512   0.841  17.114 -0.9632 -0.3211  0.6021
  832MPD2    C412234   4.524   0.709  17.149 -0.2168  0.0449  0.0831
  832MPD2    C512235   4.601   0.661  17.250 -0.3138  0.2278 -0.0903
  832MPD2     H12236   4.578   1.032  17.158 -0.3133 -0.0188  0.8055
  832MPD2    H112237   4.475   0.636  17.086 -1.1513 -1.0979  2.1453
  832MPD2    H212238   0.010   0.721  17.406 -1.0420 -2.4968 -0.6571
  832MPD2    H312239   4.615   0.559  17.283  1.9744 -0.0090 -1.7525
  832MPD2     N12240   4.444   0.875  16.999 -0.4951  0.5804  0.2086
  832MPD2    H512241   4.402   0.800  16.945 -0.2770 -0.8851  2.0796
  832MPD2    N112242   0.022   0.971  17.362  0.4846 -0.1418 -0.0878
  832MPD2    H712243   0.087   0.924  17.425 -1.5039  0.1047  2.1468
  833MPD2     C12244   1.926   1.754  12.319 -0.1789 -0.6752  0.1792
  833MPD2    C112245   1.827   1.758  12.224  0.1178  0.0195 -0.2933
  833MPD2    C212246   1.827   1.660  12.125 -0.8028 -0.4220  0.0700
  833MPD2    C312247   1.943   1.580  12.099 -0.3084 -0.4578  0.1480
  833MPD2    C412248   2.044   1.584  12.190  0.0502 -0.0549  0.0125
  833MPD2    C512249   2.027   1.661  12.298  0.7139 -0.3135 -0.1355
  833MPD2     H12250   1.755   1.667  12.044 -0.4286  1.6741 -0.0633
  833MPD2    H112251   2.128   1.515  12.186  0.9532  0.9520  1.5697
  833MPD2    H212252   1.935   1.820  12.405 -3.4929  1.5041 -1.1321
  833MPD2    H312253   2.117   1.658  12.359  2.0094 -0.6754 -2.0675
  833MPD2     N12254   1.950   1.487  11.992 -0.3552 -0.2860  0.4324
  833MPD2    H512255   2.040   1.450  11.964  0.2189  2.8836 -1.8798
  833MPD2    N112256   1.735   1.865  12.239  0.3179  0.1074  0.2755
  833MPD2    H712257   1.760   1.919  12.321  1.3965 -0.5609  0.3899
  834MPD2     C12258   2.508   0.961  11.370  0.2650 -0.2252  0.0588
  834MPD2    C112259   2.396   0.983  11.294  0.0577 -0.5466 -0.3513
  834MPD2    C212260   2.304   1.069  11.348 -0.7347  0.3112 -0.7731
  834MPD2    C312261   2.317   1.134  11.473 -0.0137  0.1764 -0.0825
  834MPD2    C412262   2.433   1.113  11.542 -0.4730  0.0137 -0.1776
  834MPD2    C512263   2.527   1.027  11.492  0.7416  0.0005  0.4251
  834MPD2     H12264   2.221   1.096  11.284  0.3552  1.7053 -1.5803
  834MPD2    H112265   2.453   1.162  11.637 -1.8128 -0.2657  0.2475
  834MPD2    H212266   2.589   0.898  11.334  0.9313  0.0078  1.1763
  834MPD2    H312267   2.614   0.993  11.547 -1.0117 -1.3403  2.3776
  834MPD2     N12268   2.213   1.221  11.513  0.7477  0.0287  0.0395
  834MPD2    H512269   2.139   1.241  11.447  0.0701 -0.2342  0.7238
  834MPD2    N112270   2.395   0.919  11.168  0.3611 -0.1972 -0.1809
  834MPD2    H712271   2.464   0.849  11.144 -1.1570 -1.9268  0.5007
  835MPD2     C12272   2.547   3.395  10.831 -0.2882  0.1679 -0.4307
  835MPD2    C112273   2.437   3.476  10.825 -0.1409 -0.1939  0.6552
  835MPD2    C212274   2.424   3.565  10.928  0.2233  0.4201  0.2655
  835MPD2    C312275   2.513   3.590  11.026  0.1521 -1.2971 -0.9587
  835MPD2    C412276   2.627   3.509  11.029 -0.0624 -0.2850  0.7413
  835MPD2    C512277   2.641   3.416  10.930  0.3976 -0.6992  0.4409
  835MPD2     H12278   2.340   3.631  10.914  0.9562  1.0888 -0.9407
  835MPD2    H112279   2.694   3.513  11.114  1.1341 -0.7820 -0.1838
  835MPD2    H212280   2.584   3.337  10.748 -2.2327  0.4272 -1.4841
  835MPD2    H312281   2.726   3.350  10.919 -0.2004 -1.6819  1.6514
  835MPD2     N12282   2.498   3.691  11.118  0.5508  0.0621 -0.8682
  835MPD2    H512283   2.572   3.699  11.187 -0.8357 -2.0956  0.9033
  835MPD2    N112284   2.341   3.462  10.728 -0.0707 -0.0525  0.1575
  835MPD2    H712285   2.261   3.525  10.730 -0.8885 -1.1414  2.4381
  836MPD2     C12286   1.843   4.106  11.185 -0.0859  0.2981 -0.2327
  836MPD2    C112287   1.932   4.134  11.291  0.2438 -0.7121  0.6384
  836MPD2    C212288   1.876   4.201  11.399  0.2428  0.1907  0.7119
  836MPD2    C312289   1.747   4.250  11.397 -0.0600  0.0170  1.5925
  836MPD2    C412290   1.673   4.236  11.283  0.5860  0.1641 -0.8396
  836MPD2    C512291   1.717   4.158  11.180 -0.3943  0.7509  0.8662
  836MPD2     H12292   1.937   4.210  11.489 -1.2959 -0.9739  1.8687
  836MPD2    H112293   1.578   4.286  11.270 -0.1298 -1.6549 -2.5130
  836MPD2    H212294   1.870   4.052  11.095  0.4788 -0.3388  0.3188
  836MPD2    H312295   1.654   4.158  11.092 -0.8874  0.9602  1.2203
  836MPD2     N12296   1.695   4.336  11.500 -0.1168  0.1191  0.5463
  836MPD2    H512297   1.610   4.383  11.468 -0.3849 -0.0664  0.9969
  836MPD2    N112298   2.071   4.094  11.278 -0.2284 -0.1127  0.1894
  836MPD2    H712299   2.093   4.029  11.203 -0.7102  1.3451 -1.2316
  837MPD2     C12300   0.349   3.937  10.112 -0.8037  0.3150  0.3134
  837MPD2    C112301   0.347   3.993   9.986  0.1051 -0.3979  0.2629
  837MPD2    C212302   0.322   4.130   9.966  0.1958 -1.0525 -0.6667
  837MPD2    C312303   0.286   4.206  10.075  0.9081  0.1161 -0.1480
  837MPD2    C412304   0.298   4.157  10.205 -1.0381  0.5522 -0.5202
  837MPD2    C512305   0.336   4.021  10.221 -0.3503  0.1183 -0.7772
  837MPD2     H12306   0.320   4.170   9.865  1.6759 -0.0988 -0.3298
  837MPD2    H112307   0.302   4.225  10.289  0.0197 -0.6854  0.4337
  837MPD2    H212308   0.387   3.837  10.128  1.7020  0.8348 -2.2371
  837MPD2    H312309   0.360   3.990  10.322 -2.7459 -0.5338 -0.4195
  837MPD2     N12310   0.228   4.334  10.047  0.5580 -0.3162  0.2181
  837MPD2    H512311   0.247   4.378   9.958  0.3256 -2.9112 -1.1387
  837MPD2    N112312   0.351   3.913   9.869  0.2140 -0.6410 -0.1837
  837MPD2    H712313   0.350   3.968   9.784 -3.4436  0.9340  0.8651
  838MPD2     C12314   3.713   2.456  11.722  0.6644 -0.5013 -0.4422
  838MPD2    C112315   3.699   2.328  11.676 -0.3325 -0.0973 -0.3920
  838MPD2    C212316   3.575   2.264  11.692  0.4636 -0.1529 -0.4202
  838MPD2    C312317   3.461   2.326  11.745  1.0615 -0.0089 -0.7320
  838MPD2    C412318   3.479   2.451  11.807 -0.1816  0.2478  0.3749
  838MPD2    C512319   3.602   2.516  11.781 -0.1277  0.6930 -0.5732
  838MPD2     H12320   3.587   2.159  11.670 -0.0083 -0.3747  0.3647
  838MPD2    H112321   3.398   2.501  11.859 -1.8067 -1.9329 -0.0714
  838MPD2    H212322   3.808   2.509  11.720  1.4098 -1.7748  0.7833
  838MPD2    H312323   3.615   2.614  11.826  1.0731  0.2017  0.1193
  838MPD2     N12324   3.338   2.261  11.757 -1.0317  0.6863 -1.0532
  838MPD2    H512325   3.277   2.292  11.832  0.3067  1.2847 -0.2136
  838MPD2    N112326   3.791   2.252  11.596 -0.4052  0.3222  0.8908
  838MPD2    H712327   3.747   2.172  11.551  0.1742 -0.0421  0.9728
  839MPD2     C12328   3.462   1.638  11.171 -0.3036 -0.5760  0.4312
  839MPD2    C112329   3.585   1.629  11.099 -0.6679 -0.0915  0.2187
  839MPD2    C212330   3.692   1.698  11.157  0.6803  0.5049 -0.1208
  839MPD2    C312331   3.683   1.779  11.269  0.5944  0.4938  0.7048
  839MPD2    C412332   3.560   1.788  11.330 -0.3658  1.0317 -0.6469
  839MPD2    C512333   3.448   1.717  11.282  0.3376 -0.4400 -0.7738
  839MPD2     H12334   3.785   1.702  11.102  0.8492  0.7125  0.1777
  839MPD2    H112335   3.549   1.857  11.413  1.7972  0.7524 -0.1153
  839MPD2    H212336   3.380   1.573  11.141 -1.1054  0.3020  0.7433
  839MPD2    H312337   3.346   1.718  11.320  0.3409 -1.1629 -0.7392
  839MPD2     N12338   3.784   1.865  11.323 -0.2035 -1.0070  0.1543
  839MPD2    H512339   3.751   1.929  11.395  0.7115 -0.9015  0.4823
  839MPD2    N112340   3.604   1.550  10.981 -0.1222 -0.1656  0.1002
  839MPD2    H712341   3.693   1.541  10.934 -0.1426  1.4897 -0.2333
  840MPD2     C12342   3.214   4.567  10.335 -0.3707 -0.8162  0.8278
  840MPD2    C112343   3.234   4.491  10.448  0.1982  0.2524  0.0075
  840MPD2    C212344   3.355   4.480  10.506  0.5217  0.4369  0.0696
  840MPD2    C312345   3.459   4.560  10.457 -0.4269 -0.4724 -0.2952
  840MPD2    C412346   3.434   4.644  10.353 -0.4831  0.0518  0.2975
  840MPD2    C512347   3.314   4.638  10.288 -0.7919  0.3629 -0.4543
  840MPD2     H12348   3.364   4.407  10.585 -1.7287  1.6445  1.4719
  840MPD2    H112349   3.513   4.713  10.325  0.2845 -0.1095  2.0539
  840MPD2    H212350   3.117   4.569  10.286  0.2139 -0.8396 -0.3450
  840MPD2    H312351   3.307   4.705  10.202 -2.2721  2.3566  1.2234
  840MPD2     N12352   3.588   4.563  10.519 -0.3552  0.3687 -0.5717
  840MPD2    H512353   3.652   4.631  10.479  0.9980 -0.9739 -0.6859
  840MPD2    N112354   3.128   4.418  10.490 -0.0435 -0.6920 -0.0047
  840MPD2    H712355   3.062   4.395  10.416 -0.2133  2.1646 -0.7337
  841MPD2     C12356   3.413   0.522  14.120  0.4304 -0.5221  0.3920
  841MPD2    C112357   3.426   0.398  14.182 -0.1977  0.4070 -0.0598
  841MPD2    C212358   3.553   0.348  14.214  0.5122  0.6021  0.3062
  841MPD2    C312359   3.665   0.428  14.205  0.4502 -0.5441  0.4646
  841MPD2    C412360   3.651   0.562  14.149 -0.3691 -0.1077 -0.5322
  841MPD2    C512361   3.525   0.605  14.106 -0.1306  0.0639 -0.1418
  841MPD2     H12362   3.560   0.248  14.255  1.2041  1.2712  1.8460
  841MPD2    H112363   3.734   0.628  14.127  0.2862 -1.6408 -2.7613
  841MPD2    H212364   3.320   0.552  14.073 -0.0644 -0.7235  1.2509
  841MPD2    H312365   3.518   0.702  14.058 -0.7119 -0.2800 -0.7617
  841MPD2     N12366   3.787   0.369  14.251  1.0664 -0.5912 -0.0759
  841MPD2    H512367   3.775   0.277  14.293 -0.1362 -0.7201 -0.6976
  841MPD2    N112368   3.317   0.309  14.193  0.2757 -0.0434 -0.7201
  841MPD2    H712369   3.339   0.216  14.228 -1.4704 -0.4365 -0.6602
  842MPD2     C12370   3.980   0.829  17.088  0.3435  0.0161 -0.4643
  842MPD2    C112371   3.933   0.957  17.046  0.8690  0.1225  0.3267
  842MPD2    C212372   4.013   1.066  17.065  0.2599 -0.2665  0.1124
  842MPD2    C312373   4.115   1.062  17.158  0.4743  0.3083  0.0516
  842MPD2    C412374   4.146   0.940  17.222 -0.2648 -0.5115  0.1050
  842MPD2    C512375   4.082   0.826  17.177  0.3778 -0.1226 -0.0387
  842MPD2     H12376   3.958   1.157  17.043 -2.3889 -2.1822 -1.1318
  842MPD2    H112377   4.217   0.933  17.305 -1.3909 -0.7187  1.0469
  842MPD2    H212378   3.924   0.737  17.077  2.3472 -1.2826  0.3046
  842MPD2    H312379   4.118   0.729  17.207  4.1434  1.1084 -0.5068
  842MPD2     N12380   4.164   1.182  17.205  0.3132  0.5719 -0.0718
  842MPD2    H512381   4.221   1.171  17.288 -2.1083  0.2697  1.5593
  842MPD2    N112382   3.818   0.973  16.970  0.2368  0.0676 -0.5564
  842MPD2    H712383   3.796   1.069  16.942  2.7041  0.9976  0.7323
  843MPD2     C12384   0.600   1.857   0.492  0.2324  0.0409 -0.6252
  843MPD2    C112385   0.660   1.732   0.495  0.3782  0.2648 -0.3462
  843MPD2    C212386   0.793   1.719   0.442  0.3811  0.3335 -0.1618
  843MPD2    C312387   0.850   1.832   0.386 -0.3179  0.2539  0.5339
  843MPD2    C412388   0.782   1.958   0.388 -0.3843 -0.4262 -0.3446
  843MPD2    C512389   0.658   1.967   0.437  0.0169  0.5866  1.0384
  843MPD2     H12390   0.848   1.626   0.441 -2.7247 -1.5425  2.0632
  843MPD2    H112391   0.820   2.046   0.337  1.1534  0.1044  1.6830
  843MPD2    H212392   0.501   1.880   0.530  1.1276 -0.8401  2.2440
  843MPD2    H312393   0.610   2.064   0.438  0.4551  0.7943  2.9985
  843MPD2     N12394   0.979   1.834   0.323 -0.4543 -0.9744 -0.7949
  843MPD2    H512395   1.021   1.926   0.314  1.4306 -1.6519  1.0035
  843MPD2    N112396   0.577   1.624   0.543  0.3257 -0.9974  0.0965
  843MPD2    H712397   0.480   1.651   0.557  0.3497 -1.0600  0.3873
  844MPD2     C12398   4.561   0.604  16.234  0.5818 -0.7583 -0.2905
  844MPD2    C112399   4.677   0.537  16.268  0.6588  0.4711  0.6447
  844MPD2    C212400   0.009   0.547  16.393  0.5545 -0.3121  0.4126
  844MPD2    C312401   4.675   0.638  16.482  0.7338  0.0860 -0.0572
  844MPD2    C412402   4.564   0.702  16.443 -0.2056 -0.1773  0.0591
  844MPD2    C512403   4.508   0.700  16.319 -0.5715 -0.2885 -0.1547
  844MPD2     H12404   0.104   0.502  16.419  0.2197 -1.0714  0.3170
  844MPD2    H112405   4.510   0.770  16.508 -1.4057  0.7187 -1.8506
  844MPD2    H212406   4.522   0.605  16.133  0.4831 -0.6599 -0.2511
  844MPD2    H312407   4.441   0.773  16.276 -0.5487  0.2990  0.7832
  844MPD2     N12408   0.014   0.666  16.603 -0.5695 -0.0872 -0.1809
  844MPD2    H512409   0.095   0.608  16.623  0.3412  1.2875  0.1498
  844MPD2    N112410   0.024   0.463  16.172  0.2913 -0.4033 -0.0696
  844MPD2    H712411   0.102   0.405  16.199  1.2956  0.5743 -0.8460
  845MPD2     C12412   0.236   1.484  17.202 -0.1401  0.4750  0.3079
  845MPD2    C112413   0.108   1.460  17.154 -0.4861 -0.0106 -0.2385
  845MPD2    C212414   0.096   1.341  17.081  0.8052  0.5598  0.1390
  845MPD2    C312415   0.196   1.250  17.067  0.1800 -0.1197  0.6613
  845MPD2    C412416   0.317   1.278  17.109  0.7837 -0.2694  0.1790
  845MPD2    C512417   0.339   1.399  17.172 -0.3698  0.3808 -0.2216
  845MPD2     H12418   0.004   1.313  17.031  2.3690 -0.4638 -2.1699
  845MPD2    H112419   0.396   1.205  17.089  0.5673 -1.0717  2.1927
  845MPD2    H212420   0.264   1.582  17.237  0.1398 -0.6079  3.1239
  845MPD2    H312421   0.445   1.416  17.190 -0.3037  0.2028 -0.4433
  845MPD2     N12422   0.156   1.123  17.014 -0.2025 -0.4046  0.2737
  845MPD2    H512423   0.061   1.112  16.980 -0.5464  1.3075  0.6635
  845MPD2    N112424   4.721   1.542  17.179  0.2732  0.2814 -0.2004
  845MPD2    H712425   4.637   1.533  17.123 -2.0237  2.4075  2.8941
  846MPD2     C12426   1.464   1.686  13.544  0.7677  0.1128 -0.2240
  846MPD2    C112427   1.361   1.766  13.593 -0.2271 -0.3692  0.2064
  846MPD2    C212428   1.354   1.776  13.730 -0.2392 -0.0349 -0.0051
  846MPD2    C312429   1.442   1.712  13.813  0.1230  0.1045  0.0876
  846MPD2    C412430   1.529   1.625  13.765 -0.2684 -0.2381 -0.8358
  846MPD2    C512431   1.543   1.614  13.627  1.0056  0.1625 -0.7505
  846MPD2     H12432   1.283   1.843  13.776 -0.8165 -0.0555 -0.8593
  846MPD2    H112433   1.593   1.566  13.830 -0.6103 -1.8678 -1.9729
  846MPD2    H212434   1.471   1.674  13.437  2.1112 -0.1203 -0.1100
  846MPD2    H312435   1.612   1.541  13.586 -0.1540  0.1752 -2.7035
  846MPD2     N12436   1.426   1.736  13.950  0.1740  0.2599  1.1370
  846MPD2    H512437   1.332   1.755  13.985  0.4476  0.6406  1.6533
  846MPD2    N112438   1.285   1.855  13.515 -0.1066  0.7205 -0.6531
  846MPD2    H712439   1.225   1.923  13.561  1.0932  0.5774  1.1382
  847MPD2     C12440   1.436   2.622  14.182 -0.3146  0.6926  0.0968
  847MPD2    C112441   1.494   2.722  14.259 -0.6493 -0.1254  1.0618
  847MPD2    C212442   1.606   2.686  14.333 -0.1963 -0.4488  0.6122
  847MPD2    C312443   1.657   2.558  14.328  0.1163 -0.8094 -1.1009
  847MPD2    C412444   1.590   2.461  14.262 -0.0768 -0.3192  0.4251
  847MPD2    C512445   1.482   2.492  14.186 -0.4503 -0.2380 -0.1557
  847MPD2     H12446   1.662   2.759  14.391  2.7191 -0.3781 -2.3016
  847MPD2    H112447   1.608   2.354  14.266  0.3982 -0.3202 -1.5057
  847MPD2    H212448   1.338   2.643  14.140  0.6137 -0.0168 -2.4358
  847MPD2    H312449   1.432   2.422  14.121  1.0892  2.4204 -4.2452
  847MPD2     N12450   1.769   2.547  14.404  0.0320 -0.3558 -0.2919
  847MPD2    H512451   1.817   2.631  14.434 -2.5707  1.1970 -0.4925
  847MPD2    N112452   1.478   2.863  14.253 -0.6798 -0.4087  0.3427
  847MPD2    H712453   1.556   2.911  14.295  1.6916 -1.6371 -2.7025
  848MPD2     C12454   4.474   1.364  16.315  0.4052  0.3122  0.6353
  848MPD2    C112455   4.370   1.357  16.402  0.1059  0.4064 -0.0207
  848MPD2    C212456   4.279   1.462  16.399 -0.3562 -0.2293  0.0833
  848MPD2    C312457   4.302   1.570  16.316  0.2488  0.2019  0.0226
  848MPD2    C412458   4.406   1.577  16.230 -0.1574 -0.0175  0.7124
  848MPD2    C512459   4.491   1.467  16.222  0.2814 -0.0635  0.4501
  848MPD2     H12460   4.184   1.451  16.451 -0.8268 -1.2351 -0.9761
  848MPD2    H112461   4.426   1.658  16.161 -0.1775  0.8648  1.7557
  848MPD2    H212462   4.539   1.277  16.321 -0.5517 -0.5383 -1.2535
  848MPD2    H312463   4.577   1.473  16.157 -1.2195 -0.4400 -1.5648
  848MPD2     N12464   4.197   1.666  16.319  0.8528  0.0263 -0.1758
  848MPD2    H512465   4.128   1.647  16.392 -0.1700  0.7984 -0.9461
  848MPD2    N112466   4.344   1.242  16.476  0.0512  0.0638 -0.6984
  848MPD2    H712467   4.261   1.246  16.534  1.1822 -1.9552  1.0525
  849MPD2     C12468   3.527   0.045  14.055  0.0435  0.2447  0.0749
  849MPD2    C112469   3.503   0.117  13.940  0.6239  0.2094  0.4712
  849MPD2    C212470   3.597   0.195  13.885 -0.1018 -0.2188 -0.4890
  849MPD2    C312471   3.720   0.202  13.930 -0.3409 -0.1433 -1.0925
  849MPD2    C412472   3.758   0.132  14.045 -0.4725 -0.4188 -0.1365
  849MPD2    C512473   3.659   0.057  14.106  0.6203 -0.6457 -0.3120
  849MPD2     H12474   3.580   0.245  13.790  1.3473  2.7290  0.8093
  849MPD2    H112475   3.855   0.123  14.092  0.6277  1.0257 -2.1707
  849MPD2    H212476   3.447   4.715  14.105  0.6216 -0.3024  0.4292
  849MPD2    H312477   3.685   0.002  14.196  2.3099 -0.8671 -0.9338
  849MPD2     N12478   3.820   0.276  13.859 -0.7981  0.4594  1.0356
  849MPD2    H512479   3.792   0.330  13.777 -0.4739 -1.7449 -0.5211
  849MPD2    N112480   3.369   0.102  13.894  0.0807 -0.2345  0.2070
  849MPD2    H712481   3.307   0.037  13.941 -2.9745  1.5795 -1.2949
  850MPD2     C12482   1.107   4.224  15.085 -0.0327 -0.0731  0.0262
  850MPD2    C112483   1.199   4.124  15.075  1.0986 -0.8840  1.0732
  850MPD2    C212484   1.320   4.153  15.014  1.2495 -0.1683 -0.2871
  850MPD2    C312485   1.354   4.278  14.972 -0.3060  0.1719  0.5172
  850MPD2    C412486   1.270   4.384  15.001  0.2710 -0.2703  0.1357
  850MPD2    C512487   1.145   4.356  15.055  0.5982  0.5429  0.2879
  850MPD2     H12488   1.396   4.077  14.999 -1.1090 -2.6901  0.6727
  850MPD2    H112489   1.297   4.479  14.956 -0.2007  1.0362  2.5893
  850MPD2    H212490   1.007   4.207  15.123 -0.0501 -1.8229 -0.8002
  850MPD2    H312491   1.073   4.436  15.069  0.8234  0.6483  0.8471
  850MPD2     N12492   1.480   4.295  14.911  0.4787  0.1756  0.0076
  850MPD2    H512493   1.511   4.391  14.902 -0.8481  0.6875  0.9100
  850MPD2    N112494   1.155   3.995  15.095  0.3389 -0.4000 -0.1254
  850MPD2    H712495   1.057   3.972  15.106  0.3898 -0.4173  0.2744
  851MPD2     C12496   1.746   3.465  15.123  0.5060 -0.4820 -0.4711
  851MPD2    C112497   1.645   3.423  15.041 -0.6152  0.0559 -0.7543
  851MPD2    C212498   1.649   3.296  14.993  0.1183  0.0280  0.3165
  851MPD2    C312499   1.738   3.205  15.037  0.5941  0.2026  0.7805
  851MPD2    C412500   1.829   3.243  15.127  0.2613  0.4099 -0.3228
  851MPD2    C512501   1.839   3.372  15.167  0.0880  0.3276  0.2563
  851MPD2     H12502   1.573   3.260  14.925  1.5322 -0.8951 -0.7585
  851MPD2    H112503   1.894   3.175  15.182  0.0934 -0.7428 -1.5622
  851MPD2    H212504   1.747   3.565  15.164 -1.6819  0.0606 -1.7763
  851MPD2    H312505   1.913   3.400  15.241 -1.1090  1.4207  1.0361
  851MPD2     N12506   1.729   3.073  14.977 -0.8044  0.7130 -0.4353
  851MPD2    H512507   1.657   3.072  14.905 -0.1951  0.5013 -1.0382
  851MPD2    N112508   1.538   3.512  15.016 -0.7678  0.1077  0.0697
  851MPD2    H712509   1.528   3.592  15.078  0.2178 -0.5244  1.0639
  852MPD2     C12510   0.747   0.966  10.003 -0.3360  1.0088 -0.8089
  852MPD2    C112511   0.863   0.996  10.076  0.3376 -0.5371  0.0055
  852MPD2    C212512   0.962   1.074  10.023  0.4300 -0.4229 -0.2446
  852MPD2    C312513   0.952   1.119   9.890  0.3953 -0.2640  0.2546
  852MPD2    C412514   0.844   1.074   9.817 -0.3344 -0.2134 -0.2052
  852MPD2    C512515   0.741   1.010   9.875  0.3237  0.1290 -0.4836
  852MPD2     H12516   1.051   1.086  10.083 -0.7669  0.7923  1.2806
  852MPD2    H112517   0.849   1.097   9.711  3.8341  2.8236  0.6191
  852MPD2    H212518   0.663   0.905  10.036  1.4996 -1.2023 -0.1989
  852MPD2    H312519   0.654   0.992   9.813 -0.1922  0.2046  0.2215
  852MPD2     N12520   1.060   1.187   9.837  0.3951  0.0074 -0.3451
  852MPD2    H512521   1.143   1.203   9.893 -0.7222  1.4176  0.8936
  852MPD2    N112522   0.881   0.944  10.211 -0.4477  0.0716  0.3552
  852MPD2    H712523   0.960   0.983  10.261 -1.4817 -0.8615  2.7151
  853MPD2     C12524   3.244   0.871  12.398 -0.4019 -0.0395  0.6216
  853MPD2    C112525   3.214   0.992  12.341  0.3128 -0.3338  0.2535
  853MPD2    C212526   3.262   1.017  12.210  0.1183 -0.6485  0.0057
  853MPD2    C312527   3.331   0.924  12.139 -1.0170  0.2376  0.2395
  853MPD2    C412528   3.369   0.810  12.209  0.1915  0.1624  0.3677
  853MPD2    C512529   3.322   0.783  12.331 -0.3273  0.1117  0.3575
  853MPD2     H12530   3.239   1.115  12.171 -1.4717 -0.9733  0.1201
  853MPD2    H112531   3.432   0.734  12.164 -0.2961  0.4716 -0.8271
  853MPD2    H212532   3.211   0.845  12.497  0.9807  2.0749  1.6409
  853MPD2    H312533   3.347   0.686  12.372  1.0745  0.8869  1.3599
  853MPD2     N12534   3.364   0.936  12.001 -0.0981 -0.1205 -0.4443
  853MPD2    H512535   3.431   0.869  11.966 -2.9653 -3.3758  0.2315
  853MPD2    N112536   3.136   1.077  12.414 -0.3602 -0.3464  0.1746
  853MPD2    H712537   3.122   1.045  12.510 -1.8917 -1.0694 -0.2803
  854MPD2     C12538   4.118   0.864  12.888 -0.4244  0.1770  0.1391
  854MPD2    C112539   4.252   0.894  12.897 -0.0662  0.0512  0.4882
  854MPD2    C212540   4.325   0.825  12.988 -0.7870  0.5465 -0.8964
  854MPD2    C312541   4.274   0.724  13.063 -0.0395 -0.0366 -0.6277
  854MPD2    C412542   4.136   0.691  13.046 -0.3016 -0.8347  0.9725
  854MPD2    C512543   4.061   0.766  12.959 -0.3512  0.8564 -0.3873
  854MPD2     H12544   4.432   0.845  12.996 -0.8884  0.7072  0.0991
  854MPD2    H112545   4.098   0.601  13.092  0.9519 -1.9762 -0.2015
  854MPD2    H212546   4.052   0.923  12.825 -1.7080  0.2789  1.5643
  854MPD2    H312547   3.957   0.749  12.937 -0.4102 -0.3733  0.8687
  854MPD2     N12548   4.352   0.636  13.142 -0.6443  0.0168 -0.2121
  854MPD2    H512549   4.317   0.547  13.176 -1.9713  0.4760 -0.4064
  854MPD2    N112550   4.329   0.984  12.809 -0.0699 -0.2053  0.0781
  854MPD2    H712551   4.430   0.975  12.814 -0.1672 -1.1625  0.4142
  855MPD2     C12552   0.358   0.781  13.837  0.4899 -0.1681 -0.2326
  855MPD2    C112553   0.408   0.679  13.761  0.2710  0.3770 -0.0275
  855MPD2    C212554   0.320   0.613  13.672 -0.2653 -0.0580  0.4745
  855MPD2    C312555   0.185   0.667  13.656 -0.1945 -0.4798 -0.0480
  855MPD2    C412556   0.147   0.779  13.726 -0.3093  0.2498  0.3892
  855MPD2    C512557   0.234   0.831  13.817  0.6554  0.3419  0.5628
  855MPD2     H12558   0.351   0.528  13.612 -1.1024 -0.2120  0.2503
  855MPD2    H112559   0.050   0.826  13.712 -0.2212  0.4298  0.3812
  855MPD2    H212560   0.418   0.834  13.909  0.2639  0.1592 -0.2864
  855MPD2    H312561   0.187   0.913  13.870 -1.0567 -1.4470  1.7879
  855MPD2     N12562   0.100   0.608  13.556  0.4455  0.3662  0.3753
  855MPD2    H512563   0.003   0.640  13.551 -0.0494 -0.7361  2.9929
  855MPD2    N112564   0.540   0.629  13.778 -0.0103  0.5416  0.0630
  855MPD2    H712565   0.563   0.541  13.734  0.6478  1.5147 -1.5263
  856MPD2     C12566   2.186   2.101  13.901 -0.1774  0.3897 -0.0800
  856MPD2    C112567   2.233   2.231  13.916  0.0558  0.4182 -0.5429
  856MPD2    C212568   2.140   2.329  13.930 -0.4622  0.6668 -0.0614
  856MPD2    C312569   2.001   2.314  13.932 -0.0584  0.3587  0.1477
  856MPD2    C412570   1.955   2.185  13.922 -0.1188 -0.6171  0.1690
  856MPD2    C512571   2.047   2.086  13.912 -0.3820 -0.5103 -0.4002
  856MPD2     H12572   2.183   2.427  13.944 -0.9581  0.4196  3.1419
  856MPD2    H112573   1.850   2.169  13.943  0.0498 -2.8769 -0.7600
  856MPD2    H212574   2.261   2.024  13.898 -0.4338  0.1372 -0.0121
  856MPD2    H312575   2.013   1.983  13.906 -0.6785 -0.3801 -0.9633
  856MPD2     N12576   1.914   2.422  13.942 -0.1322  0.3300 -0.0345
  856MPD2    H512577   1.816   2.401  13.930 -0.9917  3.1434  2.0640
  856MPD2    N112578   2.365   2.273  13.902  0.3660  0.8299  0.1995
  856MPD2    H712579   2.382   2.372  13.886 -2.3015  0.9753 -1.8693
  857MPD2     C12580   3.942   3.798  12.666  0.4992 -0.3873  0.1647
  857MPD2    C112581   4.078   3.797  12.644  0.1146  0.9939  0.3857
  857MPD2    C212582   4.155   3.888  12.716  0.0511 -0.4943 -0.2868
  857MPD2    C312583   4.093   3.981  12.797 -0.9896  0.2977 -0.2285
  857MPD2    C412584   3.958   3.989  12.812 -0.3818 -0.4669 -0.4837
  857MPD2    C512585   3.885   3.887  12.751 -0.0661  0.4541  0.2675
  857MPD2     H12586   4.263   3.895  12.713  0.4311 -5.6131  0.4121
  857MPD2    H112587   3.898   4.061  12.865  0.4537 -0.1512  0.0358
  857MPD2    H212588   3.877   3.723  12.622 -0.1044  0.3775 -0.2627
  857MPD2    H312589   3.778   3.883  12.766  0.2004  0.7365  2.2645
  857MPD2     N12590   4.181   4.079  12.848 -0.2910 -0.4325  0.1940
  857MPD2    H512591   4.281   4.070  12.833 -0.6860 -1.4245 -1.7997
  857MPD2    N112592   4.128   3.691  12.567  0.2402  0.0477 -0.5619
  857MPD2    H712593   4.059   3.622  12.537 -2.1948  2.1654  0.1799
  858MPD2     C12594   4.222   3.155  16.501  0.0498 -0.1606 -0.5392
  858MPD2    C112595   4.311   3.126  16.602  0.2614  0.6223 -0.3143
  858MPD2    C212596   4.360   3.225  16.687 -0.6779  0.0795  0.2997
  858MPD2    C312597   4.304   3.346  16.683  0.3179  0.1281  0.2666
  858MPD2    C412598   4.217   3.383  16.581 -0.1295  0.2202  0.0110
  858MPD2    C512599   4.185   3.287  16.490 -0.2326  0.3356 -0.2174
  858MPD2     H12600   4.444   3.206  16.753  1.0195 -0.5642 -2.0430
  858MPD2    H112601   4.182   3.485  16.577 -0.9442  0.0238  2.3925
  858MPD2    H212602   4.180   3.073  16.445  2.3839 -0.7395 -1.4459
  858MPD2    H312603   4.119   3.315  16.408  1.1398  2.3593 -0.6320
  858MPD2     N12604   4.330   3.448  16.776 -0.0932 -0.2870 -0.3840
  858MPD2    H512605   4.275   3.531  16.756  0.5417  0.2291 -0.0185
  858MPD2    N112606   4.339   2.993  16.624  0.2073 -0.0052  0.3607
  858MPD2    H712607   4.311   2.930  16.549 -2.2990 -0.7259  1.9015
  859MPD2     C12608   2.944   0.081  14.870 -0.1451  0.0108 -0.0883
  859MPD2    C112609   3.058   0.126  14.930 -0.4242  0.0664  0.3191
  859MPD2    C212610   3.162   0.038  14.952 -0.1649 -0.0638 -0.0080
  859MPD2    C312611   3.148   4.622  14.918 -0.0276 -0.2304 -0.7256
  859MPD2    C412612   3.021   4.584  14.880  0.5758 -0.1014 -0.3961
  859MPD2    C512613   2.923   4.675  14.853  0.7850 -0.2477  0.5184
  859MPD2     H12614   3.259   0.073  14.986  0.6784 -0.6119 -1.8384
  859MPD2    H112615   3.002   4.479  14.862 -0.0153  0.4382 -2.9724
  859MPD2    H212616   2.863   0.146  14.838  0.9321  1.2730 -0.2732
  859MPD2    H312617   2.836   4.641  14.798 -0.1506  2.1477  0.5271
  859MPD2     N12618   3.248   4.518  14.937  0.6362 -0.1652 -0.0259
  859MPD2    H512619   3.226   4.422  14.916 -1.6933  0.3985 -0.1893
  859MPD2    N112620   3.069   0.268  14.937 -0.5513  0.1325 -0.2613
  859MPD2    H712621   2.988   0.319  14.901  0.1156  3.1058  2.4642
  860MPD2     C12622   0.844   0.384  11.741  0.5664  1.1354 -0.1083
  860MPD2    C112623   0.923   0.426  11.839  0.4216  0.2907 -0.5057
  860MPD2    C212624   0.875   0.426  11.971  0.1097  0.1043  0.2356
  860MPD2    C312625   0.759   0.369  12.008 -0.1772 -0.0374  1.4090
  860MPD2    C412626   0.688   0.314  11.905 -0.2239 -0.1366 -0.3210
  860MPD2    C512627   0.727   0.327  11.777 -1.6795 -1.4337 -0.1858
  860MPD2     H12628   0.946   0.464  12.044  0.4169  1.0460 -0.5556
  860MPD2    H112629   0.592   0.264  11.911  1.0761 -2.4926  0.6309
  860MPD2    H212630   0.879   0.386  11.639 -0.5125  0.5784 -0.4939
  860MPD2    H312631   0.665   0.280  11.701 -1.5809 -2.0554  0.1153
  860MPD2     N12632   0.724   0.356  12.141 -0.1141 -0.1092  0.4057
  860MPD2    H512633   0.785   0.413  12.198 -0.8600  0.5738  0.5206
  860MPD2    N112634   1.050   0.477  11.813 -0.4113  0.3192  0.2101
  860MPD2    H712635   1.088   0.518  11.897  0.1339 -2.1023  1.1415
  861MPD2     C12636   4.402   3.076  10.946 -0.2095  0.1334  0.0011
  861MPD2    C112637   4.305   3.116  11.035 -0.3914 -0.0042  0.4174
  861MPD2    C212638   4.185   3.162  10.987  0.8489 -0.4329 -0.7898
  861MPD2    C312639   4.165   3.184  10.849 -0.4290  0.1491 -0.3604
  861MPD2    C412640   4.270   3.161  10.766  0.0046  0.0325 -0.8298
  861MPD2    C512641   4.387   3.108  10.812  0.1904  0.0319 -0.3426
  861MPD2     H12642   4.108   3.183  11.060  1.6326  0.2638 -0.1669
  861MPD2    H112643   4.253   3.184  10.661 -0.0182  1.2281 -0.5636
  861MPD2    H212644   4.489   3.021  10.980 -0.9632  0.8378  3.0820
  861MPD2    H312645   4.466   3.074  10.746 -0.6923 -0.4199 -1.1705
  861MPD2     N12646   4.046   3.231  10.788 -0.7913 -0.0035 -0.0676
  861MPD2    H512647   4.059   3.262  10.693  0.4121  0.3963  0.2261
  861MPD2    N112648   4.326   3.088  11.176  0.3897 -0.4661  0.6110
  861MPD2    H712649   4.250   3.113  11.238 -0.5894 -1.0296 -0.3717
  862MPD2     C12650   3.701   3.336  10.188  0.4680 -0.1492 -0.0940
  862MPD2    C112651   3.821   3.311  10.241  0.3652 -0.8155  0.0509
  862MPD2    C212652   3.909   3.231  10.176  0.1732  1.0831  0.4299
  862MPD2    C312653   3.870   3.168  10.063  0.2814  0.1492  0.7094
  862MPD2    C412654   3.751   3.199  10.003 -0.1801  0.0595  0.5519
  862MPD2    C512655   3.664   3.273  10.077  0.4033 -0.3049 -0.6968
  862MPD2     H12656   4.011   3.230  10.214  0.4874  0.8429 -0.4366
  862MPD2    H112657   3.716   3.143   9.917 -0.5496  1.9834 -0.5616
  862MPD2    H212658   3.631   3.412  10.220 -1.6093 -1.9932 -0.3244
  862MPD2    H312659   3.570   3.305  10.034 -0.6343 -2.2785  0.0781
  862MPD2     N12660   3.955   3.082   9.987  0.3732 -0.3248 -0.4295
  862MPD2    H512661   3.923   3.064   9.893  1.2146 -0.0154 -0.7744
  862MPD2    N112662   3.856   3.365  10.365  0.7781 -0.3542 -0.1344
  862MPD2    H712663   3.944   3.348  10.412  0.4633  0.7202  0.8300
  863MPD2     C12664   2.927   1.969  16.736 -0.8077  0.0365 -0.2999
  863MPD2    C112665   3.012   2.076  16.720  0.0772 -0.3123  0.9091
  863MPD2    C212666   3.093   2.124  16.822  0.0240  0.1081 -0.4509
  863MPD2    C312667   3.078   2.058  16.949  0.6077  0.1135  0.7420
  863MPD2    C412668   3.001   1.951  16.966 -0.2785 -0.1261  0.2747
  863MPD2    C512669   2.924   1.899  16.865  0.6595 -0.1009  0.8384
  863MPD2     H12670   3.178   2.190  16.807  1.3132 -1.6150 -0.7778
  863MPD2    H112671   3.001   1.907  17.066 -0.3421 -0.5151  0.1026
  863MPD2    H212672   2.861   1.946  16.654 -1.8402 -3.1785  1.4191
  863MPD2    H312673   2.856   1.818  16.889  0.3428  0.1848  0.9185
  863MPD2     N12674   3.147   2.105  17.068 -0.1613 -0.0846 -0.1545
  863MPD2    H512675   3.124   2.055  17.154  0.0688  0.8918  0.4713
  863MPD2    N112676   3.026   2.110  16.581  0.3388 -0.8040 -0.2040
  863MPD2    H712677   2.970   2.070  16.507 -1.4438  1.0880  0.1390
  864MPD2     C12678   3.148   4.115  16.956 -0.3879 -0.0611 -0.9230
  864MPD2    C112679   3.173   3.995  16.894  0.7405 -0.0318 -0.3221
  864MPD2    C212680   3.195   3.998  16.761  0.1740 -0.1374 -0.0436
  864MPD2    C312681   3.194   4.119  16.695 -0.5947  0.3339 -0.3068
  864MPD2    C412682   3.161   4.237  16.758 -0.2682 -0.3540 -0.4290
  864MPD2    C512683   3.146   4.234  16.893 -0.8356 -0.0484  0.2165
  864MPD2     H12684   3.217   3.910  16.703  0.0766 -0.3707  0.2741
  864MPD2    H112685   3.162   4.335  16.712 -1.1382 -1.2570 -2.3314
  864MPD2    H212686   3.123   4.117  17.062 -2.3661  1.7589 -1.4028
  864MPD2    H312687   3.139   4.328  16.947 -0.2291 -1.3423  2.5285
  864MPD2     N12688   3.225   4.134  16.559  0.0879 -0.2414  0.0714
  864MPD2    H512689   3.194   4.220  16.516 -1.5748 -1.5213 -1.2687
  864MPD2    N112690   3.168   3.873  16.966 -0.3807 -0.2850 -0.1700
  864MPD2    H712691   3.176   3.878  17.067  3.2684  0.7859 -0.5197
  865MPD2     C12692   3.350   4.069  15.707 -0.1408 -0.2133 -0.4976
  865MPD2    C112693   3.320   4.027  15.836 -0.0717 -0.2170 -0.9281
  865MPD2    C212694   3.279   4.113  15.928 -0.5484 -0.3232 -0.3574
  865MPD2    C312695   3.257   4.248  15.902  0.1108  0.2051  0.7212
  865MPD2    C412696   3.282   4.289  15.780  0.1165  0.5777  0.2574
  865MPD2    C512697   3.334   4.199  15.684  0.6063 -0.4245  0.2367
  865MPD2     H12698   3.247   4.074  16.024 -1.6696  0.7141 -0.3091
  865MPD2    H112699   3.259   4.391  15.750 -0.1809  0.4565  0.0788
  865MPD2    H212700   3.367   3.992  15.634 -0.3167 -1.8409  1.1828
  865MPD2    H312701   3.346   4.239  15.584 -0.3080 -2.6851 -0.7619
  865MPD2     N12702   3.188   4.333  15.991  0.1349  0.2518  0.1577
  865MPD2    H512703   3.161   4.423  15.952  1.5035 -0.0719 -1.5569
  865MPD2    N112704   3.320   3.888  15.858 -0.1292  0.0251 -0.2097
  865MPD2    H712705   3.335   3.829  15.776  2.3972  0.5672 -0.1456
  866MPD2     C12706   0.361   2.809  11.182  0.1107  0.4314 -0.3957
  866MPD2    C112707   0.411   2.889  11.078 -0.0511 -0.0500  0.5307
  866MPD2    C212708   0.324   2.986  11.034 -0.2186  0.2437  0.6509
  866MPD2    C312709   0.193   3.005  11.093 -0.2371 -0.2237  0.1877
  866MPD2    C412710   0.158   2.931  11.200 -0.9271 -0.2777 -1.0458
  866MPD2    C512711   0.241   2.830  11.244  0.7974  0.3831  0.5481
  866MPD2     H12712   0.356   3.058  10.960  1.6252  1.0211  2.1957
  866MPD2    H112713   0.063   2.937  11.253  0.1006 -0.6721  0.8365
  866MPD2    H212714   0.435   2.744  11.227  0.5624  1.3429  0.1704
  866MPD2    H312715   0.219   2.775  11.335 -0.4611 -0.7187 -0.4433
  866MPD2     N12716   0.091   3.088  11.043  0.0898  0.3216  0.0328
  866MPD2    H512717   0.004   3.075  11.093 -0.6487 -2.2324 -1.9150
  866MPD2    N112718   0.543   2.878  11.041  0.0980 -0.8220 -0.2002
  866MPD2    H712719   0.607   2.821  11.097 -1.0313 -0.3486  1.5570
  867MPD2     C12720   1.906   3.661  16.577  0.8630 -0.0039  0.3889
  867MPD2    C112721   2.020   3.666  16.649 -0.4205  0.2764 -0.6700
  867MPD2    C212722   2.012   3.724  16.775 -0.2081 -0.1597 -0.0209
  867MPD2    C312723   1.899   3.792  16.828  0.1829 -1.2546 -0.1081
  867MPD2    C412724   1.787   3.796  16.748 -0.3253  0.2562 -0.4339
  867MPD2    C512725   1.797   3.725  16.629 -0.0948  0.2155  0.3963
  867MPD2     H12726   2.095   3.714  16.844  0.7163 -1.6981 -1.3646
  867MPD2    H112727   1.704   3.857  16.782 -0.8045 -0.0437 -1.0761
  867MPD2    H212728   1.905   3.617  16.478 -0.7233  0.3709  0.2315
  867MPD2    H312729   1.702   3.722  16.576 -0.0452  2.6439  0.1682
  867MPD2     N12730   1.893   3.843  16.956 -0.1870 -0.3715  0.7308
  867MPD2    H512731   1.807   3.891  16.982  1.3555  3.0118 -0.3088
  867MPD2    N112732   2.134   3.597  16.605  0.0857 -0.0462 -0.2483
  867MPD2    H712733   2.116   3.537  16.525  0.3896 -0.6876  0.1664
  868MPD2     C12734   4.335   1.393  12.932 -0.2666 -0.0487 -0.0176
  868MPD2    C112735   4.332   1.527  12.902 -0.5246  0.5732  0.5420
  868MPD2    C212736   4.213   1.593  12.893  0.2043 -0.3521 -0.4378
  868MPD2    C312737   4.098   1.528  12.919  0.1898  0.0305  0.1437
  868MPD2    C412738   4.097   1.399  12.957  0.3588 -0.3637  0.2183
  868MPD2    C512739   4.218   1.330  12.954  0.5417 -0.0337 -0.4830
  868MPD2     H12740   4.212   1.697  12.861 -3.5684 -0.7140 -1.5701
  868MPD2    H112741   4.004   1.355  12.989 -0.3013  0.3684 -0.6835
  868MPD2    H212742   4.431   1.345  12.947 -0.2029 -1.1883 -4.0586
  868MPD2    H312743   4.221   1.230  12.996  0.3964 -0.5134 -1.6254
  868MPD2     N12744   3.975   1.600  12.905  0.4548  0.5029 -0.7421
  868MPD2    H512745   3.979   1.698  12.879 -0.6443  0.4618 -1.0820
  868MPD2    N112746   4.455   1.599  12.881 -0.2073 -0.6103 -0.6627
  868MPD2    H712747   4.538   1.548  12.853  1.1245  1.6886 -0.8955
  869MPD2     C12748   0.632   1.362   1.914  0.1317 -0.2304 -0.9674
  869MPD2    C112749   0.522   1.283   1.932  0.1354 -0.4283  0.1243
  869MPD2    C212750   0.396   1.330   1.900 -0.5542  0.1139 -0.2636
  869MPD2    C312751   0.381   1.439   1.818 -0.2267  0.0632  0.3653
  869MPD2    C412752   0.488   1.523   1.793 -0.5770 -0.0108  0.0317
  869MPD2    C512753   0.612   1.485   1.853 -0.4017  0.4419 -0.1918
  869MPD2     H12754   0.311   1.265   1.915  1.3582 -2.9692 -2.7849
  869MPD2    H112755   0.486   1.618   1.741 -0.0299  0.0745  0.1589
  869MPD2    H212756   0.732   1.325   1.931 -0.0042 -0.3899 -0.4880
  869MPD2    H312757   0.696   1.551   1.839 -1.9064  2.3126 -0.4064
  869MPD2     N12758   0.266   1.473   1.752 -0.2392  0.7098  0.7676
  869MPD2    H512759   0.267   1.550   1.686  0.3934  0.1392  0.1149
  869MPD2    N112760   0.554   1.164   1.998  0.0906  0.7923  0.3260
  869MPD2    H712761   0.652   1.145   2.019  0.4362 -0.4732 -2.3601
  870MPD2     C12762   0.849   4.510   1.654 -0.1438 -0.1521 -0.0752
  870MPD2    C112763   0.751   4.580   1.598 -0.7002 -0.2974 -0.6506
  870MPD2    C212764   0.685   4.535   1.484 -0.2609 -0.1924  0.7068
  870MPD2    C312765   0.725   4.417   1.426  0.1391 -0.1571  0.3636
  870MPD2    C412766   0.828   4.343   1.485  0.5920 -0.1064  0.1348
  870MPD2    C512767   0.879   4.386   1.605  0.4110 -0.4672 -0.1727
  870MPD2     H12768   0.607   4.595   1.439  1.6612  1.9933  0.3140
  870MPD2    H112769   0.875   4.257   1.439  2.6578  2.5535 -2.7232
  870MPD2    H212770   0.904   4.548   1.739  0.6601  0.3542 -0.8162
  870MPD2    H312771   0.959   4.322   1.640  1.1944  0.1540 -0.8307
  870MPD2     N12772   0.670   4.378   1.300 -0.6832  0.1624 -0.2585
  870MPD2    H512773   0.605   4.435   1.248 -0.9096  0.1286 -0.0128
  870MPD2    N112774   0.725   4.699   1.668 -0.2913  0.6284  0.0518
  870MPD2    H712775   0.762   0.001   1.759  0.9210  0.3937 -0.3698
  871MPD2     C12776   0.999   3.293  16.030 -0.3547 -0.6484  0.3349
  871MPD2    C112777   1.092   3.349  16.117  0.4731 -0.6817  0.4024
  871MPD2    C212778   1.210   3.292  16.142 -0.4471 -0.6114 -0.3473
  871MPD2    C312779   1.247   3.181  16.068  0.1909 -0.5973 -0.3142
  871MPD2    C412780   1.157   3.135  15.968 -0.4027 -0.6431  0.0549
  871MPD2    C512781   1.037   3.191  15.948 -0.2095  0.1035  0.4201
  871MPD2     H12782   1.277   3.330  16.218  0.1359 -0.3450 -1.0014
  871MPD2    H112783   1.182   3.044  15.915  0.0396 -0.1262 -0.6364
  871MPD2    H212784   0.902   3.342  16.030 -0.3208 -0.5689 -2.3462
  871MPD2    H312785   0.964   3.154  15.877  0.4798 -0.8067  0.1838
  871MPD2     N12786   1.369   3.123  16.101 -0.1442  0.3873 -0.2779
  871MPD2    H512787   1.433   3.174  16.161 -0.2717 -2.4091  2.2921
  871MPD2    N112788   1.055   3.462  16.193 -0.1152  0.0704 -0.6890
  871MPD2    H712789   0.969   3.509  16.166  0.7905 -0.3142 -4.2745
  872MPD2     C12790   2.058   1.834  13.686  0.6184 -0.6834 -0.2497
  872MPD2    C112791   2.140   1.746  13.740  0.4774 -0.5071 -0.5533
  872MPD2    C212792   2.087   1.648  13.825  0.1809  0.1623 -0.5518
  872MPD2    C312793   1.944   1.646  13.858 -0.0165  0.6161  0.0750
  872MPD2    C412794   1.868   1.743  13.806 -0.7364 -0.3760  0.6997
  872MPD2    C512795   1.922   1.836  13.719  0.6541 -0.1193 -0.2396
  872MPD2     H12796   2.159   1.584  13.875 -0.3968 -1.6038 -2.0095
  872MPD2    H112797   1.761   1.751  13.815 -0.8156  0.2098 -0.8481
  872MPD2    H212798   2.094   1.919  13.629 -0.2823 -0.5106 -0.5656
  872MPD2    H312799   1.862   1.913  13.673 -0.2606 -0.9212 -0.3808
  872MPD2     N12800   1.882   1.552  13.952 -0.5791 -0.2567  0.3095
  872MPD2    H512801   1.792   1.583  13.987 -1.0480 -0.9544 -0.2824
  872MPD2    N112802   2.279   1.745  13.722  0.0481 -0.4313  0.1339
  872MPD2    H712803   2.322   1.663  13.764  1.2437 -0.2373 -0.7084
  873MPD2     C12804   3.833   2.709   0.749 -0.0753  0.6600 -0.2056
  873MPD2    C112805   3.764   2.642   0.848  0.2310  0.8463  0.5943
  873MPD2    C212806   3.827   2.530   0.899 -0.1666  0.2948 -0.3841
  873MPD2    C312807   3.950   2.477   0.850  0.5376 -0.7160  0.4164
  873MPD2    C412808   4.003   2.545   0.749 -0.1520 -0.3921 -0.2647
  873MPD2    C512809   3.950   2.663   0.707 -0.0149 -0.1399  0.4849
  873MPD2     H12810   3.776   2.460   0.964 -0.0992 -0.1993 -0.8629
  873MPD2    H112811   4.101   2.518   0.712  0.3576 -0.4705  1.1290
  873MPD2    H212812   3.779   2.781   0.689  0.6903  2.5016  1.3118
  873MPD2    H312813   4.002   2.707   0.622  0.9768  2.3795  2.4035
  873MPD2     N12814   4.017   2.369   0.899  0.4083  0.0058  0.0841
  873MPD2    H512815   4.096   2.326   0.851  0.1058 -1.3809  0.8482
  873MPD2    N112816   3.623   2.682   0.876 -0.2247 -0.1303 -0.3528
  873MPD2    H712817   3.602   2.775   0.842  0.9476 -0.3743 -1.7327
  874MPD2     C12818   3.497   1.213  16.247 -0.0560  1.0333 -0.3118
  874MPD2    C112819   3.552   1.254  16.367  0.5091 -0.6819 -0.1448
  874MPD2    C212820   3.608   1.376  16.373 -0.1158 -0.3873  0.3409
  874MPD2    C312821   3.611   1.458  16.267  0.3382 -0.1230 -0.5204
  874MPD2    C412822   3.559   1.414  16.149 -0.8867 -0.4240 -0.5353
  874MPD2    C512823   3.498   1.295  16.138  0.3106  0.5760  0.0367
  874MPD2     H12824   3.666   1.411  16.459 -0.5360  0.5800  0.2373
  874MPD2    H112825   3.564   1.478  16.062 -0.3818  0.4631  0.1400
  874MPD2    H212826   3.461   1.111  16.234  1.2476  0.6748 -1.1390
  874MPD2    H312827   3.453   1.268  16.044  1.1212 -0.6345  0.0043
  874MPD2     N12828   3.669   1.583  16.292  0.0844  0.1052  0.6936
  874MPD2    H512829   3.703   1.594  16.387 -1.4286  0.5260  1.1761
  874MPD2    N112830   3.551   1.161  16.475 -0.1059  0.2591  0.1577
  874MPD2    H712831   3.493   1.080  16.461  1.4368 -0.9527  0.8337
  875MPD2     C12832   0.408   4.625  14.529 -0.3243 -0.2350 -0.9279
  875MPD2    C112833   0.274   4.613  14.565  0.9136 -0.5284 -0.0449
  875MPD2    C212834   0.244   4.603  14.701 -0.1584  0.1734  0.0059
  875MPD2    C312835   0.352   4.587  14.786 -0.0518 -0.3034  0.7408
  875MPD2    C412836   0.481   4.597  14.747  0.3119  0.2928 -0.2030
  875MPD2    C512837   0.510   4.619  14.618 -0.5700  0.4595 -0.2519
  875MPD2     H12838   0.144   4.610  14.744 -1.5840 -0.7884 -3.1546
  875MPD2    H112839   0.562   4.562  14.810 -0.5238 -0.5661  0.3947
  875MPD2    H212840   0.439   4.643  14.427  1.7975  1.1360 -0.0476
  875MPD2    H312841   0.615   4.616  14.590 -0.4243 -0.3414  0.3753
  875MPD2     N12842   0.332   4.580  14.926 -0.2861  0.5979 -0.3526
  875MPD2    H512843   0.412   4.577  14.988  0.0896 -1.2923 -0.9099
  875MPD2    N112844   0.166   4.609  14.476  0.4953 -0.0497  0.2702
  875MPD2    H712845   0.071   4.608  14.511  0.1161  2.2441 -0.6798
  876MPD2     C12846   4.145   1.319  15.906  0.2224 -0.0698  0.2554
  876MPD2    C112847   4.076   1.226  15.831 -0.3828  0.7704  0.2609
  876MPD2    C212848   4.071   1.090  15.872  0.1626  0.2644 -0.4139
  876MPD2    C312849   4.125   1.051  15.991 -0.2691 -0.3752  0.1052
  876MPD2    C412850   4.185   1.147  16.067 -0.5340 -0.1631  0.2413
  876MPD2    C512851   4.190   1.278  16.031 -0.2389  0.2282 -0.7202
  876MPD2     H12852   4.020   1.011  15.818 -0.6956  0.5616 -0.0266
  876MPD2    H112853   4.238   1.125  16.159  1.0143 -1.6888 -1.0043
  876MPD2    H212854   4.150   1.423  15.876 -2.5589  0.7888  2.6625
  876MPD2    H312855   4.252   1.344  16.090 -0.7883  0.3484 -0.2875
  876MPD2     N12856   4.107   0.920  16.042  0.6162 -0.2637  0.2006
  876MPD2    H512857   4.057   0.859  15.979 -0.2413  1.9949 -1.3359
  876MPD2    N112858   4.017   1.267  15.707  0.2463 -0.2686  0.1075
  876MPD2    H712859   4.029   1.364  15.679 -2.4480  0.1234  0.3107
  877MPD2     C12860   4.069   1.570  15.022  0.2458  0.0572  0.7912
  877MPD2    C112861   3.974   1.472  15.007  0.5001 -0.5919  0.1203
  877MPD2    C212862   3.941   1.422  14.882 -0.3655  0.1454  0.6098
  877MPD2    C312863   3.997   1.478  14.769  0.3807 -0.5344  0.8206
  877MPD2    C412864   4.089   1.580  14.787  0.4216  0.0438  0.3937
  877MPD2    C512865   4.126   1.627  14.910 -0.0573  0.0750  0.4677
  877MPD2     H12866   3.869   1.341  14.878 -0.9082  0.7649 -1.7655
  877MPD2    H112867   4.145   1.633  14.711  0.9782 -1.4500 -0.2435
  877MPD2    H212868   4.104   1.619  15.112  1.1782 -0.4205  0.6842
  877MPD2    H312869   4.197   1.708  14.920 -0.0769  0.0399  0.8693
  877MPD2     N12870   3.968   1.437  14.635 -0.4024 -0.1327 -0.2367
  877MPD2    H512871   4.004   1.494  14.558 -0.9759 -0.4973 -0.7784
  877MPD2    N112872   3.894   1.427  15.114  0.6376 -0.8214 -0.2112
  877MPD2    H712873   3.820   1.360  15.097  0.2696 -0.8695  1.5164
  878MPD2     C12874   2.743   0.253  13.071  0.4136  0.7828  0.4551
  878MPD2    C112875   2.867   0.319  13.086 -0.4178 -0.7253  0.4048
  878MPD2    C212876   2.932   0.304  13.210  0.3992 -0.1163 -0.1887
  878MPD2    C312877   2.883   0.220  13.310 -0.2133 -0.9480 -0.0853
  878MPD2    C412878   2.781   0.142  13.290  0.6094  0.3472  0.1349
  878MPD2    C512879   2.706   0.166  13.178 -0.0194  0.3754  0.2201
  878MPD2     H12880   3.024   0.359  13.228 -0.1781  0.4085  1.1606
  878MPD2    H112881   2.732   0.092  13.373 -2.6097  2.1395 -0.7343
  878MPD2    H212882   2.688   0.245  12.978  0.6210 -2.9649  0.6320
  878MPD2    H312883   2.618   0.109  13.150 -0.3275  1.0561 -0.1807
  878MPD2     N12884   2.950   0.233  13.434  0.3960 -0.3089 -0.1836
  878MPD2    H512885   3.023   0.304  13.433 -0.9461  1.0926  1.9776
  878MPD2    N112886   2.913   0.392  12.974 -0.8558 -0.1114  0.0406
  878MPD2    H712887   2.858   0.387  12.890 -0.3958 -0.8423 -0.2216
  879MPD2     C12888   3.702   2.782  17.053 -0.1921 -0.4361 -0.6713
  879MPD2    C112889   3.763   2.665  17.099 -0.7196  0.1859 -0.4163
  879MPD2    C212890   3.728   2.548  17.037  0.5912  0.1923 -0.5102
  879MPD2    C312891   3.626   2.544  16.945 -0.1759  0.0743  0.7291
  879MPD2    C412892   3.562   2.659  16.904  0.4200 -0.8791  0.4769
  879MPD2    C512893   3.593   2.774  16.965  0.4370  0.6731  0.4872
  879MPD2     H12894   3.779   2.452  17.042  0.9222  0.5052  1.8613
  879MPD2    H112895   3.477   2.658  16.837 -0.0021 -2.9570  1.0420
  879MPD2    H212896   3.729   2.880  17.089  1.8073 -1.4814  0.6512
  879MPD2    H312897   3.542   2.859  16.922  0.2388 -0.0691 -0.7556
  879MPD2     N12898   3.582   2.422  16.881  0.0539 -0.5069 -0.1736
  879MPD2    H512899   3.521   2.426  16.800  0.8569  1.5265 -0.6879
  879MPD2    N112900   3.864   2.678  17.196 -0.2422  0.4309 -0.1102
  879MPD2    H712901   3.874   2.773  17.231  1.2148  0.6179 -1.0456
  880MPD2     C12902   0.835   3.661  17.556 -0.1632  0.0534 -0.4724
  880MPD2    C112903   0.780   3.700  17.676  0.0249  0.1070  0.2127
  880MPD2    C212904   0.753   3.603   0.080 -0.0285  0.5162 -0.6480
  880MPD2    C312905   0.803   3.470   0.060  0.5990 -0.4208  0.0828
  880MPD2    C412906   0.863   3.444  17.636 -0.0876 -0.6212  0.2739
  880MPD2    C512907   0.874   3.534  17.536  0.3914  0.4973  0.5058
  880MPD2     H12908   0.700   3.621   0.173  1.5375 -1.7602  0.7020
  880MPD2    H112909   0.890   3.344  17.605  1.5251  0.6366 -2.3065
  880MPD2    H212910   0.854   3.742  17.485  0.4545  0.0525 -0.3120
  880MPD2    H312911   0.922   3.510  17.443  1.9985 -1.4505  1.8440
  880MPD2     N12912   0.804   3.381   0.164  0.1816  0.3089 -0.1528
  880MPD2    H512913   0.760   3.411   0.251  0.2012  0.3711 -0.1643
  880MPD2    N112914   0.737   3.835  17.684 -0.4521  0.0184 -0.2492
  880MPD2    H712915   0.754   3.901  17.609 -0.1972  1.7515  1.3333
  881MPD2     C12916   0.505   4.680  17.225 -0.5227 -0.4799 -0.0223
  881MPD2    C112917   0.511   4.548  17.184  0.5850  0.4365  0.6276
  881MPD2    C212918   0.511   4.451  17.288 -0.4495 -0.1100  0.3171
  881MPD2    C312919   0.464   4.486  17.419 -0.2011  0.8374  0.0268
  881MPD2    C412920   0.445   4.619  17.448  0.1566  0.1217 -0.1703
  881MPD2    C512921   0.477   4.713  17.354  0.0824 -0.4848 -0.7816
  881MPD2     H12922   0.534   4.346  17.269 -1.4941 -0.0457 -1.2874
  881MPD2    H112923   0.409   4.656  17.543  0.0730 -0.6778  0.1094
  881MPD2    H212924   0.512   0.043  17.160 -0.6422  1.6697  2.8134
  881MPD2    H312925   0.459   0.094  17.378 -1.5354 -0.4457 -2.1690
  881MPD2     N12926   0.472   4.394  17.534 -0.0854  0.6746 -0.2686
  881MPD2    H512927   0.462   4.436  17.626 -2.0524 -0.7989  0.1984
  881MPD2    N112928   0.543   4.513  17.052  0.0087  0.4075 -0.5344
  881MPD2    H712929   0.579   4.586  16.991 -0.5124 -0.9089 -2.4214
  882MPD2     C12930   3.480   0.974  14.046 -0.1679 -0.4016  0.5685
  882MPD2    C112931   3.475   1.101  14.096 -0.6968 -0.4343 -0.1675
  882MPD2    C212932   3.356   1.165  14.104  0.0134 -0.3102 -0.7638
  882MPD2    C312933   3.239   1.104  14.060 -0.8864 -0.1499  0.5745
  882MPD2    C412934   3.246   0.971  14.005  0.6751 -0.6838  0.3641
  882MPD2    C512935   3.371   0.915  13.994  0.6441 -1.1852 -0.4041
  882MPD2     H12936   3.345   1.267  14.141 -1.2100 -0.9090  0.5451
  882MPD2    H112937   3.162   0.916  13.966  0.1926  0.7926 -0.6832
  882MPD2    H212938   3.574   0.921  14.043 -0.8120 -1.5524  0.5256
  882MPD2    H312939   3.389   0.817  13.951 -1.5578 -1.9180  0.3469
  882MPD2     N12940   3.112   1.159  14.079 -0.3905 -0.5399 -0.4859
  882MPD2    H512941   3.034   1.095  14.081 -1.4392  0.7123 -0.8541
  882MPD2    N112942   3.594   1.163  14.144  0.2428  0.4610  0.4776
  882MPD2    H712943   3.685   1.122  14.126 -0.9835 -1.0785 -2.1775
  883MPD2     C12944   0.803   1.357  16.346 -0.4356 -0.4606 -0.2400
  883MPD2    C112945   0.869   1.421  16.238 -0.1981  0.8271  0.8409
  883MPD2    C212946   1.003   1.440  16.249 -0.6098  0.1832 -0.9132
  883MPD2    C312947   1.077   1.383  16.345 -0.2454 -0.3129 -0.8393
  883MPD2    C412948   1.014   1.332  16.453 -0.6795  0.3191 -0.0960
  883MPD2    C512949   0.880   1.326  16.453 -0.4999 -0.6250  0.6887
  883MPD2     H12950   1.051   1.498  16.170 -1.1859  1.3800 -0.3885
  883MPD2    H112951   1.067   1.303  16.544 -1.1230  0.2761  0.1487
  883MPD2    H212952   0.696   1.339  16.348 -0.6019  0.4844 -0.6181
  883MPD2    H312953   0.816   1.280  16.527 -0.3738 -2.7453 -0.5139
  883MPD2     N12954   1.217   1.397  16.343  0.0558  0.6946 -0.1336
  883MPD2    H512955   1.258   1.447  16.265 -0.7338  1.2716 -0.1811
  883MPD2    N112956   0.806   1.450  16.115 -1.1360 -0.1363  0.1248
  883MPD2    H712957   0.859   1.492  16.039 -0.6920  0.3815  0.7183
  884MPD2     C12958   3.006   2.271  15.224  0.0421  0.9072  0.1685
  884MPD2    C112959   2.947   2.394  15.259  0.2479 -0.3985 -0.4845
  884MPD2    C212960   2.809   2.408  15.247 -0.7289 -0.2702 -0.6047
  884MPD2    C312961   2.727   2.302  15.211  1.2025  0.3649  0.8589
  884MPD2    C412962   2.788   2.183  15.176  0.2459 -0.4810 -0.5013
  884MPD2    C512963   2.920   2.170  15.180  0.1156  0.9204  0.2718
  884MPD2     H12964   2.767   2.502  15.281 -0.5432  0.3942 -2.1816
  884MPD2    H112965   2.734   2.097  15.139  1.1230 -0.0313 -2.8470
  884MPD2    H212966   3.111   2.245  15.228  0.1860  1.3656 -0.6293
  884MPD2    H312967   2.956   2.076  15.140  2.2281  0.6005  2.9853
  884MPD2     N12968   2.590   2.321  15.212  0.7173 -0.3613 -0.0015
  884MPD2    H512969   2.563   2.412  15.248 -1.2073 -0.2650 -1.7039
  884MPD2    N112970   3.022   2.512  15.282  0.2928 -0.4440  0.0009
  884MPD2    H712971   2.969   2.598  15.276 -0.7622 -1.1316 -0.4256
  885MPD2     C12972   0.684   2.526   0.254 -0.1227  0.5972  0.2391
  885MPD2    C112973   0.809   2.515   0.202  0.6410 -0.6960  0.6429
  885MPD2    C212974   0.826   2.518   0.065  0.3542  0.4490 -0.0747
  885MPD2    C312975   0.722   2.541  17.669  0.1538 -0.7581  0.2120
  885MPD2    C412976   0.596   2.553   0.035 -0.5335 -0.5688  0.3945
  885MPD2    C512977   0.581   2.550   0.168 -0.2733  0.4566  0.9189
  885MPD2     H12978   0.923   2.515   0.016 -0.0275  1.2044 -0.8912
  885MPD2    H112979   0.512   2.554  17.659  0.5607  0.3817 -0.9457
  885MPD2    H212980   0.659   2.527   0.360  2.0975  1.7738  0.7716
  885MPD2    H312981   0.478   2.567   0.200 -0.7568 -0.2494 -0.2675
  885MPD2     N12982   0.750   2.547  17.529  0.0977 -0.2284 -0.3934
  885MPD2    H512983   0.844   2.531  17.496 -0.3209 -1.9870 -0.7618
  885MPD2    N112984   0.917   2.498   0.285  0.1191 -0.6573 -0.6290
  885MPD2    H712985   0.908   2.516   0.384  1.7072  1.4499 -0.8530
  886MPD2     C12986   2.380   0.973  15.423  0.1293  0.0760 -0.2389
  886MPD2    C112987   2.434   0.925  15.309  0.3580  0.3255  0.3687
  886MPD2    C212988   2.435   1.000  15.194  0.1666  0.4748  0.0809
  886MPD2    C312989   2.384   1.127  15.191 -0.3490 -0.5340 -0.0235
  886MPD2    C412990   2.322   1.170  15.303 -0.0834  0.6452 -0.3249
  886MPD2    C512991   2.316   1.101  15.420 -0.4591  0.3297  0.1017
  886MPD2     H12992   2.495   0.970  15.108  0.5850  1.1180  0.1466
  886MPD2    H112993   2.275   1.267  15.300  0.0401  0.7716  1.8275
  886MPD2    H212994   2.387   0.923  15.519  0.2836  0.4442 -0.0572
  886MPD2    H312995   2.260   1.150  15.499 -1.6649 -0.5110 -0.2386
  886MPD2     N12996   2.398   1.206  15.074  0.2569 -0.0386 -0.2922
  886MPD2    H512997   2.439   1.159  14.994  2.3867  0.6935  0.3688
  886MPD2    N112998   2.500   0.798  15.305 -0.2956 -0.4626  0.5205
  886MPD2    H712999   2.529   0.769  15.212 -3.1110 -1.7526  0.0552
  887MPD2     C13000   3.211   0.700  15.392  0.6384  0.3396 -0.2382
  887MPD2    C113001   3.089   0.768  15.378 -0.7173 -0.8773  0.5510
  887MPD2    C213002   3.083   0.904  15.405 -0.0701  0.0555 -1.0455
  887MPD2    C313003   3.189   0.974  15.456  0.0919 -0.5249  0.6495
  887MPD2    C413004   3.311   0.908  15.468 -0.5586  0.0186  0.2322
  887MPD2    C513005   3.318   0.770  15.445 -0.3813  0.1349  0.2167
  887MPD2     H13006   2.984   0.947  15.394  0.4401  0.4227 -4.2059
  887MPD2    H113007   3.399   0.958  15.508 -0.4663 -0.7494  0.9762
  887MPD2    H213008   3.229   0.595  15.374  3.4730  0.6862  0.5636
  887MPD2    H313009   3.409   0.712  15.443 -0.7154 -0.4149  1.1351
  887MPD2     N13010   3.181   1.115  15.482  0.0863 -0.1169 -0.6055
  887MPD2    H513011   3.093   1.164  15.468  0.9272  1.3376 -0.7702
  887MPD2    N113012   2.972   0.697  15.351  0.3286 -0.1831  0.3287
  887MPD2    H713013   2.892   0.760  15.358  0.8069  0.3040  1.5311
  888MPD2     C13014   0.373   0.848  14.733 -0.0135  0.0484 -0.6555
  888MPD2    C113015   0.394   0.883  14.863 -0.2624  0.2576 -0.3716
  888MPD2    C213016   0.405   1.015  14.893  0.5780  0.2310  0.1474
  888MPD2    C313017   0.425   1.116  14.798 -0.1624  0.3188  0.0319
  888MPD2    C413018   0.404   1.081  14.665  0.5257 -0.5885 -0.2179
  888MPD2    C513019   0.382   0.947  14.639  0.2332 -0.4324  0.0718
  888MPD2     H13020   0.439   1.044  14.991 -1.2893 -0.3681  0.9700
  888MPD2    H113021   0.403   1.148  14.580 -0.4656 -1.0899 -0.6090
  888MPD2    H213022   0.365   0.743  14.704  0.7294 -0.3520  0.5673
  888MPD2    H313023   0.359   0.921  14.536  0.2287 -1.3699  0.3129
  888MPD2     N13024   0.449   1.249  14.838  0.2248  0.2421 -0.5909
  888MPD2    H513025   0.441   1.270  14.937  0.5152  1.2239 -0.7704
  888MPD2    N113026   0.403   0.798  14.971 -0.4260 -0.2186 -0.5037
  888MPD2    H713027   0.404   0.835  15.066  1.7583  0.7813 -0.9198
  889MPD2     C13028   4.135   0.133  12.628  0.3686  0.1399  0.4844
  889MPD2    C113029   4.103   0.080  12.751 -0.2589 -1.2817 -0.2141
  889MPD2    C213030   3.997   0.126  12.821 -0.5450 -0.5141  0.0447
  889MPD2    C313031   3.937   0.246  12.781  0.1424  0.0568 -1.1626
  889MPD2    C413032   3.986   0.313  12.664 -0.0638  0.3800  0.5636
  889MPD2    C513033   4.084   0.253  12.588  0.4991 -0.2629 -0.1728
  889MPD2     H13034   3.953   0.071  12.903 -4.4739  0.2173 -1.5406
  889MPD2    H113035   3.949   0.411  12.635 -2.8841 -0.8567 -0.0725
  889MPD2    H213036   4.226   0.100  12.580  0.0326 -0.4152  0.2225
  889MPD2    H313037   4.122   0.312  12.505 -3.0928  0.5465 -1.2370
  889MPD2     N13038   3.850   0.309  12.871  0.2695  0.4076  0.3661
  889MPD2    H513039   3.843   0.256  12.957  0.2587 -1.2680 -0.6588
  889MPD2    N113040   4.149   4.671  12.785  0.4432  0.2641 -0.9088
  889MPD2    H713041   4.114   4.623  12.868  0.4724  2.3255  0.2784
  890MPD2     C13042   3.851   2.059  14.616 -0.6271  0.4269 -0.5545
  890MPD2    C113043   3.849   2.179  14.675 -0.0512 -0.4579  0.3590
  890MPD2    C213044   3.899   2.195  14.800 -0.0746 -0.6350 -0.3994
  890MPD2    C313045   3.975   2.096  14.865  0.3505 -0.1231 -0.2079
  890MPD2    C413046   3.981   1.972  14.798  0.9284  0.9091 -0.2803
  890MPD2    C513047   3.922   1.960  14.680 -0.5436  0.6553 -0.5550
  890MPD2     H13048   3.885   2.290  14.851  0.2326  0.4884 -2.3787
  890MPD2    H113049   4.042   1.893  14.840 -0.4038 -0.9611 -1.8878
  890MPD2    H213050   3.832   2.046  14.510 -2.3099  0.4713 -0.2640
  890MPD2    H313051   3.935   1.868  14.625  0.1893 -0.2293  1.0996
  890MPD2     N13052   4.009   2.126  14.999 -0.2728 -0.4821 -0.3012
  890MPD2    H513053   3.972   2.209  15.044 -1.8828  0.1984 -2.8910
  890MPD2    N113054   3.786   2.286  14.596  0.6130 -0.6550 -0.0895
  890MPD2    H713055   3.741   2.251  14.512  0.5286  0.2108 -0.4002
  891MPD2     C13056   2.004   0.541  16.309 -0.5865 -0.2883  1.0936
  891MPD2    C113057   1.953   0.581  16.433 -0.0506 -0.1542 -0.1056
  891MPD2    C213058   2.010   0.536  16.550 -0.7975  0.3655 -0.0062
  891MPD2    C313059   2.113   0.444  16.544 -0.2788 -0.0994  0.6531
  891MPD2    C413060   2.153   0.393  16.423 -0.0748 -0.6686  0.1609
  891MPD2    C513061   2.098   0.444  16.306 -0.3569  0.0195 -0.6547
  891MPD2     H13062   1.975   0.578  16.644 -0.0710  1.2406 -0.1240
  891MPD2    H113063   2.213   0.303  16.416  0.6185 -0.2650  0.8879
  891MPD2    H213064   1.963   0.583  16.217 -1.8421 -1.6068  1.0586
  891MPD2    H313065   2.131   0.390  16.218  0.7850 -0.9155  0.3443
  891MPD2     N13066   2.152   0.396  16.668 -0.2299 -0.5034  0.7088
  891MPD2    H513067   2.110   0.439  16.750 -2.2373  0.3330 -0.7695
  891MPD2    N113068   1.850   0.670  16.440  0.0669  0.1804  0.2257
  891MPD2    H713069   1.832   0.733  16.363 -1.7899  0.8723  1.2201
  892MPD2     C13070   2.757   1.635  14.853 -0.0074  0.5918 -0.8003
  892MPD2    C113071   2.681   1.682  14.746 -0.0353  0.1855  0.1496
  892MPD2    C213072   2.707   1.628  14.623  0.3131  0.0089  0.4231
  892MPD2    C313073   2.810   1.533  14.601  0.3317 -0.2020  0.0093
  892MPD2    C413074   2.891   1.502  14.702  0.1364 -0.2197 -0.1858
  892MPD2    C513075   2.862   1.546  14.828 -0.7418  0.3599 -0.6210
  892MPD2     H13076   2.663   1.672  14.534  0.0351 -1.7159 -0.2930
  892MPD2    H113077   2.975   1.435  14.685 -0.6921 -1.2347 -0.3356
  892MPD2    H213078   2.753   1.663  14.957  2.2397  0.1410 -0.5809
  892MPD2    H313079   2.925   1.516  14.910  0.9155  1.0298 -1.6646
  892MPD2     N13080   2.829   1.480  14.471 -0.1146 -0.9369  0.0978
  892MPD2    H513081   2.912   1.423  14.459  0.9650  0.7442 -0.4747
  892MPD2    N113082   2.578   1.781  14.763 -0.3774 -0.0354 -0.2724
  892MPD2    H713083   2.522   1.809  14.683 -1.0866 -2.0397 -0.4783
  893MPD2     C13084   4.269   0.385   2.021 -0.5575 -0.1443  0.4525
  893MPD2    C113085   4.263   0.313   1.899 -0.4567 -0.2521 -0.6675
  893MPD2    C213086   4.192   0.192   1.899  0.2628 -0.7690 -0.5107
  893MPD2    C313087   4.109   0.157   1.999  0.1456 -0.1221 -0.8005
  893MPD2    C413088   4.114   0.233   2.115  1.1349 -0.7994  0.7423
  893MPD2    C513089   4.193   0.345   2.126 -0.4468 -0.4707 -0.1140
  893MPD2     H13090   4.184   0.137   1.806  0.3007  2.5550 -2.4862
  893MPD2    H113091   4.053   0.196   2.196  2.6860 -2.0068  1.3727
  893MPD2    H213092   4.319   0.481   2.023  1.0189 -0.9369 -0.9801
  893MPD2    H313093   4.196   0.399   2.220 -1.9210 -0.8843  0.1609
  893MPD2     N13094   4.023   0.047   1.990  0.4187 -0.2475  0.4227
  893MPD2    H513095   3.956   0.038   2.066 -1.4066 -1.1953 -1.3426
  893MPD2    N113096   4.334   0.359   1.781  0.3052 -0.0551  1.0675
  893MPD2    H713097   4.392   0.437   1.811 -0.8920 -0.3136  4.1236
  894MPD2     C13098   2.892   3.032   1.449  0.1856 -0.4210 -0.1758
  894MPD2    C113099   2.779   3.071   1.513  0.1680 -0.7014  0.1222
  894MPD2    C213100   2.735   3.198   1.508  0.3044 -0.1646  0.2851
  894MPD2    C313101   2.815   3.293   1.459 -0.2345  0.1134  0.6346
  894MPD2    C413102   2.939   3.260   1.400 -0.6080 -0.2365 -0.6114
  894MPD2    C513103   2.963   3.127   1.383 -0.0673  0.0972 -0.4984
  894MPD2     H13104   2.638   3.227   1.545  0.2370 -0.5183  0.3785
  894MPD2    H113105   3.000   3.337   1.355 -1.1855 -0.2884 -1.4819
  894MPD2    H213106   2.924   2.930   1.432 -0.9514 -0.9592  0.9025
  894MPD2    H313107   3.052   3.092   1.333  0.4242  0.8390 -0.1390
  894MPD2     N13108   2.773   3.427   1.470  0.1489  0.2276 -0.3131
  894MPD2    H513109   2.677   3.439   1.503  0.4463 -1.1715  1.0311
  894MPD2    N113110   2.698   2.976   1.577 -0.7942 -0.1534  0.3642
  894MPD2    H713111   2.605   3.008   1.602  0.0867  2.8560 -0.1475
  895MPD2     C13112   1.297   1.209  13.801  0.0176 -0.1417 -0.6634
  895MPD2    C113113   1.274   1.288  13.687  0.3057  0.2640 -0.2348
  895MPD2    C213114   1.384   1.319  13.611  0.5150 -0.5766  0.0378
  895MPD2    C313115   1.511   1.264  13.642  0.7967  0.0294 -0.2310
  895MPD2    C413116   1.528   1.199  13.763  0.2815 -0.4952  0.2838
  895MPD2    C513117   1.424   1.166  13.838  1.2036 -0.2508 -0.4047
  895MPD2     H13118   1.361   1.372  13.519  0.5316 -1.1470 -0.2892
  895MPD2    H113119   1.629   1.162  13.779  0.3484 -0.3884  0.1108
  895MPD2    H213120   1.218   1.174  13.867  0.8253 -1.2884 -0.2892
  895MPD2    H313121   1.439   1.107  13.928  1.1423 -0.7622 -0.7277
  895MPD2     N13122   1.618   1.272  13.546  1.1471 -0.2024 -1.1061
  895MPD2    H513123   1.706   1.228  13.570  0.8293 -0.4397 -0.3677
  895MPD2    N113124   1.149   1.332  13.639 -0.1812 -0.3622  0.5066
  895MPD2    H713125   1.150   1.396  13.561 -0.1587 -0.4936  0.3977
  896MPD2     C13126   3.923   0.143   1.633  0.6467  0.1971 -0.2588
  896MPD2    C113127   3.940   0.048   1.536  0.3849 -0.3751 -0.2359
  896MPD2    C213128   3.828   4.698   1.505 -0.1586 -0.5426  0.2696
  896MPD2    C313129   3.704   4.720   1.565  0.3987 -0.5483  0.9589
  896MPD2    C413130   3.698   0.078   1.674  0.1032  0.1705 -0.3274
  896MPD2    C513131   3.810   0.156   1.712 -0.2661  0.4821 -0.1130
  896MPD2     H13132   3.832   4.619   1.431 -1.6590 -0.9709  0.6545
  896MPD2    H113133   3.609   0.092   1.735  0.4095  3.6788 -0.6694
  896MPD2    H213134   4.010   0.203   1.658 -0.2180  1.0302  0.7287
  896MPD2    H313135   3.802   0.231   1.790 -0.0105  0.6611 -0.2552
  896MPD2     N13136   3.593   4.643   1.518 -0.1884  0.9656  0.0637
  896MPD2    H513137   3.610   4.561   1.460  0.8889  1.2398  0.0075
  896MPD2    N113138   4.069   0.024   1.490  0.0781  0.0407 -0.5917
  896MPD2    H713139   4.140   0.086   1.528  0.4238 -0.4985 -0.3448
  897MPD2     C13140   0.597   4.536  10.466 -0.4389 -0.1164  0.9870
  897MPD2    C113141   0.467   4.575  10.452 -0.0282 -0.0017  0.3254
  897MPD2    C213142   0.371   4.479  10.472  0.6810 -0.1279 -0.2054
  897MPD2    C313143   0.407   4.347  10.511  0.5084  0.6539 -0.0643
  897MPD2    C413144   0.536   4.312  10.530 -0.5545 -0.3362  0.3011
  897MPD2    C513145   0.631   4.409  10.505  0.1754  0.1039  0.3628
  897MPD2     H13146   0.271   4.493  10.434  0.1367  0.9257  1.6203
  897MPD2    H113147   0.570   4.214  10.560 -3.2568 -0.7235  2.1356
  897MPD2    H213148   0.679   4.607  10.459 -1.1931  0.3937 -3.2688
  897MPD2    H313149   0.735   4.395  10.532  0.3832  0.3514 -0.3038
  897MPD2     N13150   0.308   4.253  10.524  0.2930 -0.0058 -0.0983
  897MPD2    H513151   0.213   4.287  10.512 -0.6944 -2.8197 -0.2099
  897MPD2    N113152   0.439   4.704  10.415 -0.7205 -0.1719 -0.2463
  897MPD2    H713153   0.523   0.037  10.402 -1.3938  0.5455 -1.5437
  898MPD2     C13154   2.245   2.106   0.320  0.3251 -0.0157 -0.6992
  898MPD2    C113155   2.282   1.992   0.258 -0.3699  0.6396  0.5371
  898MPD2    C213156   2.219   1.964   0.139 -0.6550 -0.3245 -0.1796
  898MPD2    C313157   2.117   2.044   0.085 -0.1714  0.7675 -0.2906
  898MPD2    C413158   2.096   2.167   0.145  1.0219  0.0762 -0.2204
  898MPD2    C513159   2.160   2.201   0.261 -0.0912  0.4783 -0.0270
  898MPD2     H13160   2.242   1.867   0.097 -1.0097 -1.2837  1.8579
  898MPD2    H113161   2.035   2.241   0.095 -0.4526 -0.6515  0.4940
  898MPD2    H213162   2.292   2.137   0.413 -1.2865  0.7023 -0.1323
  898MPD2    H313163   2.140   2.298   0.306 -1.2632 -1.2304  3.1223
  898MPD2     N13164   2.058   2.014  17.650 -0.3195  0.1236  0.0996
  898MPD2    H513165   2.069   1.920  17.613 -0.0499 -1.0174  3.1468
  898MPD2    N113166   2.378   1.902   0.302  0.3894  0.2968  0.8845
  898MPD2    H713167   2.396   1.823   0.241 -1.8776  1.0413 -0.7306
  899MPD2     C13168   2.802   2.360  17.559 -0.5085  0.5236  0.0672
  899MPD2    C113169   2.929   2.337  17.619 -0.6991 -0.3055  0.0579
  899MPD2    C213170   2.945   2.357   0.061  0.0708  0.0810  0.4680
  899MPD2    C313171   2.840   2.405   0.137 -0.4238 -0.0179  0.0824
  899MPD2    C413172   2.720   2.425   0.077 -0.1116  0.8047 -0.2478
  899MPD2    C513173   2.704   2.401  17.638  0.7220 -0.4453 -0.3850
  899MPD2     H13174   3.039   2.334   0.110  0.2812 -0.7380 -0.3187
  899MPD2    H113175   2.633   2.460   0.132 -0.1459  0.2972  0.0176
  899MPD2    H213176   2.784   2.345  17.453 -0.5940  0.9309  0.0261
  899MPD2    H313177   2.606   2.423  17.596  0.7650 -0.5025 -0.5146
  899MPD2     N13178   2.855   2.431   0.275 -0.5656 -0.0913 -0.2392
  899MPD2    H513179   2.768   2.461   0.317 -1.1946 -1.0930 -0.8120
  899MPD2    N113180   3.030   2.294  17.533 -0.0656  0.3175  0.4716
  899MPD2    H713181   3.000   2.309  17.437 -0.1720  1.4063  0.6802
  900MPD2     C13182   3.051   3.312  12.221 -0.1526  0.1852 -0.6480
  900MPD2    C113183   2.989   3.189  12.202 -0.0366 -0.6485  0.5428
  900MPD2    C213184   2.870   3.176  12.132 -0.7494  0.0446  0.4221
  900MPD2    C313185   2.801   3.290  12.100  0.5735 -0.5342  0.1516
  900MPD2    C413186   2.853   3.415  12.140  0.3275 -0.7944 -0.4605
  900MPD2    C513187   2.981   3.428  12.184 -0.2195 -0.2719  0.4566
  900MPD2     H13188   2.832   3.082  12.092  0.2446 -0.4060  0.5446
  900MPD2    H113189   2.797   3.506  12.122 -0.7884 -1.4540 -0.2659
  900MPD2    H213190   3.146   3.311  12.273 -0.3415  3.5313 -0.2762
  900MPD2    H313191   3.027   3.522  12.214  2.4172 -1.3271 -0.3234
  900MPD2     N13192   2.686   3.279  12.019 -0.0988  1.1283 -0.2534
  900MPD2    H513193   2.659   3.188  11.984 -0.0736  1.5617 -1.3801
  900MPD2    N113194   3.056   3.070  12.249 -0.7387  0.0771 -0.0120
  900MPD2    H713195   3.151   3.077  12.286 -2.0037  3.1559  2.6203
  901MPD2     C13196   3.020   2.084  12.739 -0.4076  0.3390 -0.2264
  901MPD2    C113197   3.141   2.084  12.674 -0.6674  0.6399 -0.0418
  901MPD2    C213198   3.182   2.200  12.611 -0.5671  0.1716 -0.3845
  901MPD2    C313199   3.102   2.317  12.609  0.4356 -0.2834  0.3308
  901MPD2    C413200   2.994   2.325  12.690  0.3189 -0.3709  0.3856
  901MPD2    C513201   2.948   2.205  12.744 -0.3114 -0.1086 -0.1278
  901MPD2     H13202   3.282   2.199  12.570  0.1535  0.4767  1.3813
  901MPD2    H113203   2.945   2.422  12.696 -0.1038 -0.4025 -2.4025
  901MPD2    H213204   2.980   1.995  12.785 -1.1330  0.5855 -0.3835
  901MPD2    H313205   2.851   2.201  12.793  0.4789  0.8193  1.5168
  901MPD2     N13206   3.146   2.421  12.522  0.2838  0.5696 -0.4178
  901MPD2    H513207   3.237   2.408  12.479  0.7096  1.3632  0.2320
  901MPD2    N113208   3.205   1.959  12.666  0.4214  0.2251 -0.3770
  901MPD2    H713209   3.148   1.882  12.701 -0.7351  1.5038  0.6136
  902MPD2     C13210   1.967   1.094  12.560  0.0594  0.4132 -0.1761
  902MPD2    C113211   2.050   1.193  12.517 -0.1299  0.3306  0.2698
  902MPD2    C213212   2.115   1.177  12.397  0.0517  0.4937  0.5369
  902MPD2    C313213   2.103   1.056  12.325 -0.1651  0.1172  0.2142
  902MPD2    C413214   2.024   0.957  12.380 -0.2886 -1.0883  0.0450
  902MPD2    C513215   1.948   0.973  12.490 -0.8701 -0.1339 -0.7942
  902MPD2     H13216   2.178   1.257  12.359  0.1111  0.0536 -0.3010
  902MPD2    H113217   2.017   0.863  12.327 -2.1158 -0.6967 -0.3946
  902MPD2    H213218   1.903   1.107  12.647  1.4191 -0.1353  0.9009
  902MPD2    H313219   1.877   0.896  12.518 -1.5472  0.9902  0.5679
  902MPD2     N13220   2.174   1.028  12.207  0.0859 -0.1030 -0.1661
  902MPD2    H513221   2.146   0.947  12.154  0.1518 -1.1324  1.3717
  902MPD2    N113222   2.033   1.312  12.586 -0.6775  0.5591 -0.3791
  902MPD2    H713223   1.953   1.323  12.647 -1.2103  0.0873 -0.9962
  903MPD2     C13224   2.114   0.522  11.649 -0.0412 -0.7957 -0.1897
  903MPD2    C113225   2.064   0.635  11.702  0.0809 -0.0943 -0.7323
  903MPD2    C213226   1.926   0.644  11.707  0.8814 -0.4522  1.0030
  903MPD2    C313227   1.847   0.535  11.677 -0.4229 -0.1955  0.5533
  903MPD2    C413228   1.903   0.418  11.623  0.1310 -0.0882  0.9857
  903MPD2    C513229   2.036   0.412  11.619 -0.4406 -0.4158 -0.5226
  903MPD2     H13230   1.878   0.733  11.746 -1.1741 -0.3761 -1.7317
  903MPD2    H113231   1.842   0.332  11.598  1.8296 -1.6922  2.3683
  903MPD2    H213232   2.221   0.515  11.630  0.2161  0.7749  0.7135
  903MPD2    H313233   2.086   0.324  11.579 -0.9033 -1.3381  0.9668
  903MPD2     N13234   1.705   0.547  11.695  0.0481  0.3051 -0.0249
  903MPD2    H513235   1.678   0.640  11.725  0.7815  0.8058 -0.9254
  903MPD2    N113236   2.154   0.734  11.730  0.2116  0.6862  0.1066
  903MPD2    H713237   2.246   0.719  11.689  0.1598 -0.4775  0.4026
  904MPD2     C13238   1.644   0.577  13.630  0.2040  0.0626 -0.4057
  904MPD2    C113239   1.649   0.445  13.669 -0.1482 -0.0967 -0.1088
  904MPD2    C213240   1.726   0.404  13.771 -0.0488 -0.0703  0.5582
  904MPD2    C313241   1.796   0.487  13.850 -0.3847 -0.0540 -0.6020
  904MPD2    C413242   1.788   0.620  13.815 -0.0643 -0.1702  0.0825
  904MPD2    C513243   1.713   0.666  13.709  0.1822  0.1345 -0.1268
  904MPD2     H13244   1.751   0.299  13.785  2.3258  0.0362 -2.9433
  904MPD2    H113245   1.857   0.697  13.846  0.7894 -0.9995  0.2429
  904MPD2    H213246   1.584   0.621  13.552 -1.3320  2.7260  2.2881
  904MPD2    H313247   1.720   0.771  13.683  2.1055 -0.1325 -0.7003
  904MPD2     N13248   1.885   0.431  13.946 -0.4993 -0.5702 -0.6691
  904MPD2    H513249   1.893   0.329  13.943  0.3367 -0.6288  2.8294
  904MPD2    N113250   1.600   0.344  13.590 -0.0616  0.2670 -0.1367
  904MPD2    H713251   1.637   0.250  13.599 -1.7832 -0.3603  0.2685
  905MPD2     C13252   1.121   0.955  13.110  0.8769  0.0808  0.1441
  905MPD2    C113253   1.231   0.897  13.161 -0.3353  0.3525 -0.0597
  905MPD2    C213254   1.350   0.956  13.132  0.0588  0.0473 -0.1273
  905MPD2    C313255   1.365   1.068  13.057  0.3396  0.0267 -0.2318
  905MPD2    C413256   1.255   1.116  12.995  0.0454  0.0227 -0.1956
  905MPD2    C513257   1.133   1.062  13.030 -0.9600  0.4987  1.0978
  905MPD2     H13258   1.441   0.919  13.178  0.6557  0.2917 -1.1007
  905MPD2    H113259   1.257   1.200  12.928 -1.7333 -0.0689 -0.3820
  905MPD2    H213260   1.019   0.919  13.117  0.6255  0.9765  1.1299
  905MPD2    H313261   1.045   1.107  12.985 -1.1514  0.5374  1.5110
  905MPD2     N13262   1.494   1.132  13.038  0.1642  0.0509  0.4092
  905MPD2    H513263   1.495   1.223  12.993  2.6977 -0.1002  0.1349
  905MPD2    N113264   1.215   0.789  13.245  0.4618  0.1330  0.3460
  905MPD2    H713265   1.120   0.757  13.257  0.7688 -0.7469  0.4770
  906MPD2     C13266   4.042   4.549  11.212 -0.2985 -1.1611 -0.2132
  906MPD2    C113267   3.939   4.488  11.147  0.1118  0.5780  0.0360
  906MPD2    C213268   3.829   4.441  11.215 -0.6639  0.6111 -0.3050
  906MPD2    C313269   3.817   4.451  11.353 -0.2785  0.2495  0.0825
  906MPD2    C413270   3.920   4.514  11.419  0.1074  0.5586  0.2313
  906MPD2    C513271   4.025   4.562  11.347 -0.2573 -0.1349 -0.2706
  906MPD2     H13272   3.753   4.392  11.156  0.2739 -0.7679 -0.3514
  906MPD2    H113273   3.924   4.533  11.526 -0.7817 -1.6192  0.6566
  906MPD2    H213274   4.137   4.580  11.169 -0.7323  2.4901  1.4870
  906MPD2    H313275   4.103   4.603  11.410 -1.0729  1.3550 -0.2176
  906MPD2     N13276   3.701   4.423  11.432 -0.7953 -0.1249  0.3369
  906MPD2    H513277   3.692   4.449  11.529  0.4547 -0.7886  0.6179
  906MPD2    N113278   3.937   4.475  11.010 -0.6836 -0.0549 -0.1046
  906MPD2    H713279   3.858   4.424  10.973 -2.0391  2.2836 -0.4375
  907MPD2     C13280   2.999   3.933  16.067  0.4399  0.5093 -0.3557
  907MPD2    C113281   2.985   3.839  15.963 -0.8516  0.3714  0.0184
  907MPD2    C213282   2.965   3.703  15.999  0.2140 -0.1306  0.1568
  907MPD2    C313283   2.969   3.669  16.136  1.0474 -0.3691  1.2258
  907MPD2    C413284   2.975   3.764  16.232 -0.0908  0.0993 -0.2643
  907MPD2    C513285   2.997   3.892  16.199  0.6414  0.1849  0.1296
  907MPD2     H13286   2.951   3.639  15.914  1.8289 -0.3651  0.0641
  907MPD2    H113287   2.976   3.743  16.338 -0.9358  1.8499  0.0808
  907MPD2    H213288   3.018   4.037  16.042 -0.2104  0.8295  0.5149
  907MPD2    H313289   3.013   3.967  16.277  0.6494  0.0841  0.2246
  907MPD2     N13290   2.963   3.529  16.174 -0.2698  0.1400 -0.1172
  907MPD2    H513291   2.972   3.467  16.094  2.5238  0.6719 -0.1978
  907MPD2    N113292   2.983   3.864  15.825 -0.0149 -0.5165  0.0991
  907MPD2    H713293   2.964   3.789  15.760  0.1462  0.3661 -0.9592
  908MPD2     C13294   4.520   0.208   9.689  0.5318 -0.2158 -0.1139
  908MPD2    C113295   4.637   0.141   9.682 -0.4196  0.7136  0.7954
  908MPD2    C213296   4.721   0.158   9.790  0.0885  0.7169  0.1211
  908MPD2    C313297   4.700   0.236   9.905  0.3858 -0.2403  0.6862
  908MPD2    C413298   4.581   0.302   9.902 -0.3475 -0.1347 -0.7639
  908MPD2    C513299   4.496   0.289   9.799  0.5988  0.5128  0.2656
  908MPD2     H13300   0.091   0.104   9.777 -0.0181  1.0550 -2.0109
  908MPD2    H113301   4.534   0.364   9.978  1.2569  0.1466 -0.0192
  908MPD2    H213302   4.453   0.211   9.604  1.6052 -2.3628 -1.0287
  908MPD2    H313303   4.400   0.339   9.809  0.5521  0.4853 -0.0491
  908MPD2     N13304   0.076   0.233  10.007  0.5194  0.3522 -0.1083
  908MPD2    H513305   0.154   0.168  10.005 -0.7339 -1.1495 -0.0916
  908MPD2    N113306   4.657   0.064   9.565 -0.1244  0.5420 -0.8190
  908MPD2    H713307   4.586   0.084   9.494  0.0253  2.1421 -0.5174
  909MPD2     C13308   0.726   2.010  11.695 -0.3389  0.2671 -0.4987
  909MPD2    C113309   0.726   2.132  11.635  0.0441 -0.5653  0.0028
  909MPD2    C213310   0.732   2.252  11.709  0.5267  0.3022  0.4377
  909MPD2    C313311   0.711   2.243  11.850  0.4305  0.4782  0.3306
  909MPD2    C413312   0.708   2.121  11.912  0.4944 -0.5600  0.5736
  909MPD2    C513313   0.709   2.010  11.832  0.4126  0.3782  0.0231
  909MPD2     H13314   0.727   2.343  11.650 -3.0251 -0.9102 -1.1167
  909MPD2    H113315   0.698   2.094  12.017  0.6714 -0.9444  0.4885
  909MPD2    H213316   0.717   1.916  11.643 -2.4412 -1.3227  2.6959
  909MPD2    H313317   0.685   1.915  11.878  0.3283  0.8683  1.0023
  909MPD2     N13318   0.710   2.359  11.929 -0.3961  0.2185 -0.1374
  909MPD2    H513319   0.699   2.444  11.875 -0.1711 -0.2065 -0.8559
  909MPD2    N113320   0.719   2.154  11.495 -0.0974  1.3017  0.4554
  909MPD2    H713321   0.678   2.245  11.474 -2.1025  0.4417  0.6478
  910MPD2     C13322   2.030   0.153  16.092 -0.0602 -0.1749 -0.5963
  910MPD2    C113323   2.091   0.112  15.976 -0.1088 -0.4368  0.3489
  910MPD2    C213324   2.012   0.094  15.858 -0.4796  0.3695  0.1835
  910MPD2    C313325   1.882   0.136  15.854 -0.6375  0.1203 -0.7551
  910MPD2    C413326   1.819   0.188  15.974 -0.2438 -0.1690 -0.2876
  910MPD2    C513327   1.894   0.195  16.090  0.5648 -0.1506 -0.2852
  910MPD2     H13328   2.066   0.056  15.771  1.1609 -0.3027  1.5058
  910MPD2    H113329   1.717   0.224  15.974 -0.0456  0.4457  1.7151
  910MPD2    H213330   2.082   0.177  16.183 -1.3883 -0.0346  0.1276
  910MPD2    H313331   1.855   0.229  16.185  0.8442 -0.1582 -0.1675
  910MPD2     N13332   1.805   0.148  15.739 -0.0051 -0.4879  0.2675
  910MPD2    H513333   1.710   0.174  15.763 -0.6797 -0.7793 -2.0662
  910MPD2    N113334   2.225   0.062  15.971 -0.0468 -0.2726  0.3794
  910MPD2    H713335   2.258   0.038  15.878 -1.2369 -2.0717  0.4193
  911MPD2     C13336   0.395   0.729  16.024 -0.5206  0.1841  0.6268
  911MPD2    C113337   0.348   0.748  16.151 -0.6265  0.1487  0.3579
  911MPD2    C213338   0.221   0.801  16.166 -0.6655  0.7496  0.4859
  911MPD2    C313339   0.139   0.829  16.055  0.3698 -0.1173 -0.5670
  911MPD2    C413340   0.187   0.806  15.928  0.0290 -0.3226  0.0981
  911MPD2    C513341   0.313   0.760  15.917  0.1131  0.2649 -0.4092
  911MPD2     H13342   0.182   0.806  16.267 -2.9173  1.5396 -0.4055
  911MPD2    H113343   0.124   0.826  15.842  0.4149  0.4760  0.0052
  911MPD2    H213344   0.497   0.697  16.004 -0.6182  0.4869 -0.3760
  911MPD2    H313345   0.356   0.751  15.818  0.1183  1.7312 -0.5331
  911MPD2     N13346   0.008   0.876  16.066 -0.1389 -0.1378 -0.3745
  911MPD2    H513347   4.684   0.869  15.976 -2.1380 -5.5041  1.0806
  911MPD2    N113348   0.438   0.705  16.250 -0.5731 -0.3823  0.1014
  911MPD2    H713349   0.528   0.670  16.218 -1.0914 -1.1462 -0.5214
  912MPD2     C13350   0.007   0.857  15.546  0.5100  0.6294 -0.8134
  912MPD2    C113351   4.639   0.818  15.649 -0.4879 -0.4099  0.0727
  912MPD2    C213352   4.648   0.689  15.693  0.0317 -0.2629  0.2022
  912MPD2    C313353   0.008   0.594  15.634 -0.1738  0.4691  0.2920
  912MPD2    C413354   0.091   0.638  15.543 -1.0557 -0.1487 -0.0522
  912MPD2    C513355   0.095   0.768  15.497 -0.4324  0.1173  0.6172
  912MPD2     H13356   4.586   0.652  15.774  1.0516 -0.5626  0.8562
  912MPD2    H113357   0.167   0.579  15.495 -0.3655 -0.7649  1.8229
  912MPD2    H213358   0.013   0.956  15.504  2.3117  1.0266  0.3985
  912MPD2    H313359   0.162   0.799  15.418  0.2512 -1.6312  0.5099
  912MPD2     N13360   0.013   0.461  15.691 -0.1826 -0.4815 -0.3769
  912MPD2    H513361   4.687   0.442  15.777  0.3280  0.5034  0.1244
  912MPD2    N113362   4.551   0.915  15.705  0.2364 -0.8226 -0.1017
  912MPD2    H713363   4.547   1.010  15.669 -0.3908 -0.6189  0.4968
  913MPD2     C13364   0.384   1.091  10.754 -0.3038 -0.5452 -0.2885
  913MPD2    C113365   0.496   1.154  10.703 -0.5684  0.2376  0.0586
  913MPD2    C213366   0.480   1.238  10.592 -0.3077 -0.1698  0.4545
  913MPD2    C313367   0.364   1.241  10.523 -0.3980 -0.2077 -0.5441
  913MPD2    C413368   0.256   1.174  10.576  0.3513  0.0560  0.1435
  913MPD2    C513369   0.271   1.098  10.685  0.2353 -0.5132 -0.1373
  913MPD2     H13370   0.561   1.304  10.565 -0.3876 -0.5856 -0.7993
  913MPD2    H113371   0.155   1.170  10.538 -0.5746  0.0654  2.5942
  913MPD2    H213372   0.387   1.023  10.839  1.6746  0.0257  0.1006
  913MPD2    H313373   0.179   1.059  10.726 -1.0551  1.2130 -1.3826
  913MPD2     N13374   0.346   1.316  10.408  0.3298 -0.3297  0.1564
  913MPD2    H513375   0.261   1.293  10.357 -0.0920 -0.3226  0.8539
  913MPD2    N113376   0.612   1.147  10.787  0.3289 -0.6409  0.3652
  913MPD2    H713377   0.604   1.116  10.883  1.8478 -1.3674  0.2501
  914MPD2     C13378   3.212   1.508  11.926 -0.0611  0.1106  0.2024
  914MPD2    C113379   3.211   1.642  11.972  0.1957  0.0374 -0.7773
  914MPD2    C213380   3.278   1.674  12.086 -0.0513  0.3688 -0.1187
  914MPD2    C313381   3.341   1.576  12.159  0.0562 -0.5744  0.1681
  914MPD2    C413382   3.330   1.444  12.120 -0.5744 -0.6917 -0.1522
  914MPD2    C513383   3.270   1.409  12.002  0.2646 -0.1671  1.0648
  914MPD2     H13384   3.289   1.777  12.116 -0.8272  0.6669 -0.8439
  914MPD2    H113385   3.392   1.370  12.170 -3.5571 -0.9152  3.2846
  914MPD2    H213386   3.172   1.493  11.827  0.0798  2.7507 -0.2515
  914MPD2    H313387   3.259   1.306  11.971  0.8649  0.5138 -1.4652
  914MPD2     N13388   3.401   1.619  12.283 -0.1943  0.2290 -0.2494
  914MPD2    H513389   3.409   1.720  12.292 -0.3966  0.0844  1.6504
  914MPD2    N113390   3.145   1.746  11.901 -0.2905  0.3584  0.1016
  914MPD2    H713391   3.160   1.844  11.919  2.0331 -0.1402  0.8487
  915MPD2     C13392   1.176   2.349  15.904 -0.1006 -0.5328  0.2826
  915MPD2    C113393   1.047   2.393  15.875  0.8047  0.1636 -0.4981
  915MPD2    C213394   0.957   2.409  15.978  0.1708 -0.3021 -0.0006
  915MPD2    C313395   0.999   2.376  16.104 -0.2879  0.8034  0.1352
  915MPD2    C413396   1.128   2.330  16.128 -0.4172 -0.6926  0.0673
  915MPD2    C513397   1.221   2.321  16.028 -0.2515  0.2349 -0.6429
  915MPD2     H13398   0.851   2.427  15.965  0.0946  0.4899  1.6991
  915MPD2    H113399   1.181   2.319  16.221 -1.8763  1.7308  1.1956
  915MPD2    H213400   1.250   2.334  15.826 -0.6991  4.1630 -1.1945
  915MPD2    H313401   1.322   2.287  16.047 -0.0824  1.6224  0.9252
  915MPD2     N13402   0.905   2.388  16.213 -0.0327  0.1744  0.0851
  915MPD2    H513403   0.819   2.430  16.179  0.0534 -0.5127 -0.9815
  915MPD2    N113404   1.015   2.423  15.737  0.2193 -0.1664 -0.3716
  915MPD2    H713405   1.084   2.402  15.666 -0.1069  1.4268 -1.1436
  916MPD2     C13406   4.336   0.512  15.637 -0.3074 -1.3099  0.1692
  916MPD2    C113407   4.308   0.423  15.741  0.1432 -0.3061 -0.0675
  916MPD2    C213408   4.287   0.285  15.709 -0.2813 -0.2187  0.1186
  916MPD2    C313409   4.290   0.242  15.577  0.3834  0.0201 -1.1006
  916MPD2    C413410   4.312   0.336  15.479  0.0131  0.1752  0.9737
  916MPD2    C513411   4.329   0.464  15.509  0.7042 -0.2981  0.3601
  916MPD2     H13412   4.263   0.214  15.787  1.0960  0.2970  1.0220
  916MPD2    H113413   4.322   0.308  15.375 -0.0169  0.0796  0.9963
  916MPD2    H213414   4.347   0.618  15.654 -1.1348 -1.5091  1.8971
  916MPD2    H313415   4.340   0.539  15.432  2.1403 -0.5283  0.3354
  916MPD2     N13416   4.245   0.111  15.542  0.4955 -0.3299 -0.4512
  916MPD2    H513417   4.221   0.053  15.622  1.5272  1.0564  0.8679
  916MPD2    N113418   4.291   0.487  15.864  0.2323  0.4216  0.0930
  916MPD2    H713419   4.303   0.588  15.865 -1.7064  0.6397  1.7005
  917MPD2     C13420   4.491   2.271  10.790  0.4113  0.7234  0.6089
  917MPD2    C113421   4.544   2.305  10.910  0.1874  0.4225 -0.1145
  917MPD2    C213422   4.651   2.386  10.914 -0.1052 -0.1442 -0.0469
  917MPD2    C313423   4.699   2.450  10.797  0.0599  0.4749  0.5553
  917MPD2    C413424   4.643   2.419  10.677  0.0534  0.0201  0.8730
  917MPD2    C513425   4.545   2.322  10.676  0.7819 -0.2399 -1.1221
  917MPD2     H13426   4.699   2.398  11.010 -0.2697 -1.7909  0.2370
  917MPD2    H113427   4.669   2.455  10.579 -2.1340  0.4982  0.4662
  917MPD2    H213428   4.414   2.195  10.783  1.2768  0.1104 -2.4432
  917MPD2    H313429   4.518   2.289  10.576 -0.5199 -1.4768 -0.3738
  917MPD2     N13430   0.070   2.561  10.807 -0.7030 -0.0376 -0.4642
  917MPD2    H513431   0.080   2.620  10.726  1.1006 -0.5707 -0.6453
  917MPD2    N113432   4.488   2.243  11.026 -0.5218 -0.3172 -1.0918
  917MPD2    H713433   4.420   2.171  11.005 -1.8392  0.0367  1.9761
  918MPD2     C13434   4.657   2.618  11.927  0.5629 -0.1535  1.3763
  918MPD2    C113435   4.688   2.483  11.911  0.3972 -0.0781  0.3838
  918MPD2    C213436   4.625   2.405  11.817  0.0861 -0.0730 -0.1373
  918MPD2    C313437   4.517   2.450  11.744  0.1276 -0.0961 -0.7582
  918MPD2    C413438   4.482   2.579  11.768  0.4211  0.8306 -0.1384
  918MPD2    C513439   4.548   2.662  11.857 -0.2146  0.5982  0.1461
  918MPD2     H13440   4.661   2.303  11.810 -0.0994 -0.2101  0.8118
  918MPD2    H113441   4.406   2.625  11.707 -0.2833  0.2009  0.2687
  918MPD2    H213442   4.710   2.690  11.989  0.6953  2.8982 -2.2762
  918MPD2    H313443   4.530   2.767  11.876 -2.2830 -0.2708  2.8790
  918MPD2     N13444   4.446   2.380  11.645  0.0652 -0.5919 -0.4240
  918MPD2    H513445   4.389   2.437  11.584  0.8630  2.3869  1.6301
  918MPD2    N113446   0.073   2.418  11.968 -0.3580 -0.6205 -0.1048
  918MPD2    H713447   0.080   2.317  11.964  3.1158 -0.3405 -0.8091
  919MPD2     C13448   0.010   1.269  11.936 -0.3021 -0.0418  0.2266
  919MPD2    C113449   0.009   1.151  11.856  0.0321  0.4186 -0.2748
  919MPD2    C213450   0.007   1.167  11.719 -0.3554  0.5513 -0.0561
  919MPD2    C313451   0.003   1.287  11.653  0.6153  0.4216  0.0432
  919MPD2    C413452   0.009   1.397  11.735  0.7282  0.1386  0.2754
  919MPD2    C513453   0.014   1.389  11.873  0.0598  0.6500  0.2932
  919MPD2     H13454   4.723   1.075  11.662 -0.4901  0.5050  0.0362
  919MPD2    H113455   0.014   1.497  11.694  0.8980 -0.7928 -1.9363
  919MPD2    H213456   0.014   1.275  12.044  1.1550 -1.8235  0.2689
  919MPD2    H313457   0.012   1.478  11.934 -0.8615  1.0926 -0.3783
  919MPD2     N13458   4.722   1.301  11.513 -0.7209 -0.3536  0.2000
  919MPD2    H513459   0.027   1.389  11.470 -2.7458 -0.5465 -1.5004
  919MPD2    N113460   4.717   1.021  11.904 -0.3151  0.1063 -0.6590
  919MPD2    H713461   4.701   0.948  11.836 -1.0556 -0.5344  0.1915
  920MPD2     C13462   0.115   1.602  10.537  0.1668 -0.3268 -0.9277
  920MPD2    C113463   0.009   1.513  10.526  0.0854  0.3542  0.3257
  920MPD2    C213464   4.695   1.443  10.639  0.0260 -0.4375  0.1104
  920MPD2    C313465   0.010   1.486  10.764 -0.0313  0.1875  0.8368
  920MPD2    C413466   0.116   1.574  10.776  0.0973  0.5133  0.7111
  920MPD2    C513467   0.169   1.619  10.664 -0.5729  0.0010 -0.2186
  920MPD2     H13468   4.615   1.370  10.631  0.0538 -0.6520  1.9629
  920MPD2    H113469   0.163   1.615  10.865  0.8657  1.5875 -0.1815
  920MPD2    H213470   0.165   1.640  10.448  1.0960 -0.2052 -0.3497
  920MPD2    H313471   0.253   1.685  10.679 -0.2142 -1.1534  2.8200
  920MPD2     N13472   4.681   1.428  10.883 -0.4520 -0.3343  1.2114
  920MPD2    H513473   4.625   1.345  10.868  0.6035 -0.7104 -0.7597
  920MPD2    N113474   4.666   1.484  10.404 -1.1876 -0.6247 -0.6140
  920MPD2    H713475   4.596   1.410  10.408 -2.1400  0.2839 -0.2321
  921MPD2     C13476   1.076   1.101  16.739 -0.5202  0.1528 -0.6495
  921MPD2    C113477   1.117   0.975  16.695 -0.6472  0.0347 -0.8323
  921MPD2    C213478   1.030   0.871  16.682  0.2110  0.8158 -0.8558
  921MPD2    C313479   0.896   0.905  16.682  0.6599  0.0733 -0.1437
  921MPD2    C413480   0.850   1.035  16.696 -0.2912 -0.0862  0.1441
  921MPD2    C513481   0.942   1.133  16.738 -0.3679 -0.5294 -0.3261
  921MPD2     H13482   1.069   0.774  16.653 -0.1741 -0.1594  1.8790
  921MPD2    H113483   0.746   1.064  16.690 -0.2035  0.5443  1.6235
  921MPD2    H213484   1.147   1.178  16.766  1.9007 -3.1781  2.3894
  921MPD2    H313485   0.907   1.233  16.762  3.0624  0.2085  1.5297
  921MPD2     N13486   0.797   0.813  16.657  0.5945 -0.0613  0.3903
  921MPD2    H513487   0.700   0.835  16.637  0.2043 -2.2985 -0.1308
  921MPD2    N113488   1.259   0.967  16.675  0.3810  0.1832  0.0409
  921MPD2    H713489   1.314   1.052  16.676 -1.9330  1.6970 -1.3520
  922MPD2     C13490   1.172   2.810   0.091  0.2589  0.3091  0.4953
  922MPD2    C113491   1.267   2.833  17.688 -0.8159 -0.5393  0.0913
  922MPD2    C213492   1.221   2.861  17.559 -0.1470 -0.1457  0.1502
  922MPD2    C313493   1.090   2.863  17.527  0.2184 -0.3545  0.5865
  922MPD2    C413494   0.994   2.829  17.621  0.2984 -0.6077 -0.3824
  922MPD2    C513495   1.040   2.809   0.056 -0.0167 -0.0098 -0.3146
  922MPD2     H13496   1.292   2.874  17.478  1.3841 -2.8565  1.0570
  922MPD2    H113497   0.888   2.829  17.596  0.2236  1.2353 -0.0652
  922MPD2    H213498   1.194   2.803   0.197 -1.3649 -0.5862  0.7790
  922MPD2    H313499   0.959   2.788   0.125 -1.3992 -0.4417 -2.0948
  922MPD2     N13500   1.051   2.880  17.392  0.1738 -0.5167  0.2718
  922MPD2    H513501   1.128   2.898  17.328 -0.2211 -0.1144 -0.0846
  922MPD2    N113502   1.404   2.833   0.018  0.3099  0.1714 -0.3299
  922MPD2    H713503   1.457   2.873  17.635  0.4889  0.0212 -0.2849
  923MPD2     C13504   2.880   4.328   9.229  0.6462  0.0455 -0.4513
  923MPD2    C113505   2.803   4.438   9.265  0.0877  0.5892 -0.4375
  923MPD2    C213506   2.792   4.467   9.399  0.3682 -0.2936 -0.2426
  923MPD2    C313507   2.852   4.389   9.497  0.2917 -0.3592 -0.6848
  923MPD2    C413508   2.922   4.284   9.455  0.4781  0.2722  0.2242
  923MPD2    C513509   2.950   4.264   9.329  0.0624  0.3853  0.4685
  923MPD2     H13510   2.728   4.551   9.422  0.0092  0.1139 -2.7147
  923MPD2    H113511   2.964   4.214   9.527  0.3101  2.1417  2.1446
  923MPD2    H213512   2.915   4.309   9.128  1.5799 -1.7775  0.2247
  923MPD2    H313513   3.011   4.177   9.307  0.3167  0.4088  1.1038
  923MPD2     N13514   2.847   4.405   9.640 -0.3252 -0.3689 -0.1868
  923MPD2    H513515   2.894   4.336   9.697 -1.9432 -2.1506 -0.9987
  923MPD2    N113516   2.739   4.504   9.152  0.2807 -0.1524 -0.5531
  923MPD2    H713517   2.747   4.477   9.054 -1.5884 -3.2303  0.1677
  924MPD2     C13518   3.103   3.490  15.633 -0.2120  0.3885  0.1000
  924MPD2    C113519   2.982   3.422  15.644  0.2143 -0.2915  0.4663
  924MPD2    C213520   2.960   3.345  15.750  0.0389 -0.0137 -0.0310
  924MPD2    C313521   3.059   3.322  15.844  0.4412 -0.1117  0.8319
  924MPD2    C413522   3.183   3.373  15.823 -0.5626  0.3093  0.0065
  924MPD2    C513523   3.203   3.459  15.721 -0.0455 -0.0926 -0.7240
  924MPD2     H13524   2.864   3.307  15.783 -1.2868  1.3428 -2.3433
  924MPD2    H113525   3.271   3.337  15.875 -2.1918  2.3587  4.1494
  924MPD2    H213526   3.131   3.544  15.543  1.4276 -1.6510 -0.5929
  924MPD2    H313527   3.302   3.493  15.689 -0.0387  0.4282 -0.1388
  924MPD2     N13528   3.045   3.251  15.967  0.5215  0.0851  0.1362
  924MPD2    H513529   3.121   3.248  16.034  1.1975  0.0950 -0.6309
  924MPD2    N113530   2.877   3.440  15.550  0.1164 -0.0753 -0.0340
  924MPD2    H713531   2.876   3.524  15.492 -2.8763 -0.7962 -1.0358
  925MPD2     C13532   2.004   1.315  14.765 -0.3197 -0.5847 -0.1804
  925MPD2    C113533   1.873   1.319  14.723  0.2877 -0.0456 -0.3422
  925MPD2    C213534   1.767   1.298  14.810 -0.1474  0.3429 -0.0048
  925MPD2    C313535   1.796   1.274  14.948 -0.5413  0.4422 -0.3833
  925MPD2    C413536   1.930   1.270  14.987 -0.2039  0.3585  0.1652
  925MPD2    C513537   2.033   1.277  14.891 -0.2048 -0.0602 -0.0224
  925MPD2     H13538   1.668   1.301  14.766  0.9502 -0.2106 -2.5590
  925MPD2    H113539   1.960   1.250  15.089  1.1868  2.9200  0.2692
  925MPD2    H213540   2.091   1.327  14.702 -1.2340  1.5955 -1.0604
  925MPD2    H313541   2.137   1.270  14.921 -0.6650  0.8172  1.7982
  925MPD2     N13542   1.706   1.281  15.054 -0.1095  0.6984  0.6056
  925MPD2    H513543   1.743   1.286  15.149 -2.6563 -0.1122  1.6272
  925MPD2    N113544   1.837   1.350  14.592 -0.2947  0.3179  0.3338
  925MPD2    H713545   1.737   1.340  14.581 -0.1345  0.6782 -1.3591
  926MPD2     C13546   0.645   4.308  12.765  0.0939  0.7481 -0.0025
  926MPD2    C113547   0.760   4.372  12.817  0.5441 -0.3158 -0.6095
  926MPD2    C213548   0.859   4.407  12.727 -0.4324 -0.1248  0.4552
  926MPD2    C313549   0.851   4.374  12.591 -0.4347 -0.1194 -0.5668
  926MPD2    C413550   0.738   4.309  12.546  0.0697 -0.0685 -0.9123
  926MPD2    C513551   0.637   4.277  12.633  0.3646  0.4558  0.1309
  926MPD2     H13552   0.944   4.464  12.765 -0.6003  0.2643  0.2512
  926MPD2    H113553   0.718   4.278  12.444 -0.8258  0.9674 -1.0507
  926MPD2    H213554   0.564   4.270  12.826  0.7101  0.7761  0.8395
  926MPD2    H313555   0.553   4.217  12.602  1.0157  0.0250 -0.7908
  926MPD2     N13556   0.957   4.396  12.494  0.1253  0.1104 -0.2756
  926MPD2    H513557   0.932   4.356  12.404 -0.1115 -1.2987  0.4193
  926MPD2    N113558   0.776   4.390  12.960  0.1837 -0.2168  0.4572
  926MPD2    H713559   0.844   4.457  12.993 -0.3033  1.3021 -1.6420
  927MPD2     C13560   4.581   2.745   0.218  0.6318  0.6825  1.0020
  927MPD2    C113561   4.587   2.671   0.335 -0.1622  0.6379  0.6487
  927MPD2    C213562   4.674   2.564   0.341 -0.3389  0.2646 -0.2678
  927MPD2    C313563   0.033   2.539   0.238 -0.5370 -0.2401 -0.8909
  927MPD2    C413564   0.026   2.614   0.118  0.2543  0.6405  0.0081
  927MPD2    C513565   4.667   2.721   0.116  0.2241 -0.1263  0.8853
  927MPD2     H13566   4.691   2.500   0.427  1.3378  1.4158  0.2546
  927MPD2    H113567   0.087   2.601   0.029 -1.0365 -2.4164 -0.4135
  927MPD2    H213568   4.497   2.812   0.203  1.6724  1.3830 -1.7901
  927MPD2    H313569   4.663   2.768   0.018 -0.3864  0.9436  1.4233
  927MPD2     N13570   0.117   2.420   0.252 -0.3588 -0.2201 -0.7829
  927MPD2    H513571   0.107   2.360   0.333 -2.8661  0.8911 -0.2852
  927MPD2    N113572   4.504   2.706   0.442  0.2335 -0.0199 -0.5071
  927MPD2    H713573   4.470   2.802   0.436 -0.6299 -0.2917 -0.0169
  928MPD2     C13574   3.010   0.997   1.057 -0.0223  0.4278  0.3042
  928MPD2    C113575   3.135   1.023   1.097 -0.2451 -0.0713 -0.1963
  928MPD2    C213576   3.206   1.111   1.018 -0.1773 -0.1916 -0.2367
  928MPD2    C313577   3.153   1.172   0.903  0.1554  0.1874 -0.6519
  928MPD2    C413578   3.022   1.140   0.866 -0.7729  0.3262 -0.2578
  928MPD2    C513579   2.955   1.053   0.949 -0.1295 -0.0545 -0.4028
  928MPD2     H13580   3.299   1.139   1.067 -0.8306  0.2542  0.7556
  928MPD2    H113581   2.967   1.176   0.780 -1.3102 -0.4584 -0.2444
  928MPD2    H213582   2.951   0.926   1.113  0.7810  1.3709  2.3148
  928MPD2    H313583   2.855   1.016   0.927  0.0016 -0.9811  0.5417
  928MPD2     N13584   3.232   1.257   0.819  0.5778 -0.7130  0.2628
  928MPD2    H513585   3.181   1.285   0.736  0.0091  1.5615  1.3809
  928MPD2    N113586   3.191   0.968   1.220  0.2715 -0.6874  0.7221
  928MPD2    H713587   3.134   0.911   1.282 -2.2626  0.5014 -0.5118
  929MPD2     C13588   2.386   4.525  10.148 -0.4846  0.3974  0.6834
  929MPD2    C113589   2.389   4.402  10.079  0.3229 -0.4053 -0.7804
  929MPD2    C213590   2.412   4.401   9.938 -0.0015  0.0884  0.8411
  929MPD2    C313591   2.420   4.526   9.869 -0.1842  0.2535 -0.6418
  929MPD2    C413592   2.420   4.646   9.940  0.2199  0.2021  0.0068
  929MPD2    C513593   2.398   4.640  10.073 -0.4414  0.4396  0.5139
  929MPD2     H13594   2.401   4.308   9.883  0.2840 -0.1971  1.2663
  929MPD2    H113595   2.415   0.019   9.891 -1.9925  0.5797  0.9653
  929MPD2    H213596   2.368   4.541  10.254  1.1176 -0.6786  1.1044
  929MPD2    H313597   2.410   0.015  10.118  0.8784  1.4857 -2.1251
  929MPD2     N13598   2.435   4.541   9.730  0.4502  0.2186 -0.1556
  929MPD2    H513599   2.451   4.630   9.684  0.6113 -0.5190 -1.5405
  929MPD2    N113600   2.362   4.284  10.151 -0.5377  0.0592 -0.8374
  929MPD2    H713601   2.306   4.306  10.233  1.2209  0.2082  0.3167
  930MPD2     C13602   0.065   2.940  14.449  1.0383 -0.0031 -1.0993
  930MPD2    C113603   4.722   2.978  14.327 -0.5871  0.3271 -0.8123
  930MPD2    C213604   4.619   2.901  14.291 -0.0360  0.3271  0.8943
  930MPD2    C313605   4.575   2.789  14.362  0.3312  0.9558  0.7153
  930MPD2    C413606   4.634   2.758  14.486  0.4621 -0.2724 -0.3189
  930MPD2    C513607   0.015   2.842  14.529  0.4844  0.5569 -0.0875
  930MPD2     H13608   4.567   2.922  14.198 -1.1641  0.9455  1.6577
  930MPD2    H113609   4.607   2.671  14.544  1.2779 -0.4357 -0.1841
  930MPD2    H213610   0.145   2.994  14.499 -0.0357  0.4297  0.1468
  930MPD2    H313611   0.064   2.816  14.623  0.5104  2.0309  0.3016
  930MPD2     N13612   4.474   2.702  14.309  0.3338  0.2388 -0.5465
  930MPD2    H513613   4.456   2.614  14.357 -1.2234  0.3663 -0.9043
  930MPD2    N113614   0.055   3.075  14.242 -0.7228  0.1404 -0.5999
  930MPD2    H713615   0.139   3.125  14.270 -0.3733 -0.8635  0.1319
  931MPD2     C13616   4.445   2.281   1.055  0.6789 -0.2928  0.0663
  931MPD2    C113617   4.393   2.401   1.103  0.0147  0.1510 -0.3127
  931MPD2    C213618   4.312   2.403   1.217  0.4389  0.2247  0.2532
  931MPD2    C313619   4.289   2.283   1.281 -0.5575  0.1081  0.4670
  931MPD2    C413620   4.342   2.165   1.234 -0.2503  0.3374  0.6102
  931MPD2    C513621   4.407   2.155   1.108  0.2789 -0.2927 -0.2989
  931MPD2     H13622   4.283   2.504   1.243  0.8464  1.0397 -2.4735
  931MPD2    H113623   4.323   2.065   1.272 -0.5521 -0.3092 -1.2262
  931MPD2    H213624   4.508   2.286   0.967 -0.2733  0.2553 -0.5944
  931MPD2    H313625   4.445   2.064   1.063 -0.1869 -0.1835 -0.9167
  931MPD2     N13626   4.197   2.270   1.384 -0.9041 -0.3061  0.2612
  931MPD2    H513627   4.186   2.178   1.424  0.1168 -0.8987 -0.8133
  931MPD2    N113628   4.416   2.513   1.017 -0.2936 -0.5266  0.3754
  931MPD2    H713629   4.456   2.490   0.927  1.4047 -1.0316  1.2698
  932MPD2     C13630   2.273   0.238  10.982 -0.0736  0.1406  0.4689
  932MPD2    C113631   2.369   0.330  11.023 -0.4739 -0.5567 -0.5369
  932MPD2    C213632   2.448   0.295  11.131  0.8330 -0.9510 -0.3443
  932MPD2    C313633   2.437   0.167  11.190  0.2979  0.1722 -0.1746
  932MPD2    C413634   2.338   0.077  11.148 -0.1351 -0.2770 -0.0981
  932MPD2    C513635   2.259   0.117  11.047  0.5693  0.7966 -0.4976
  932MPD2     H13636   2.504   0.383  11.163  0.3107 -0.1373 -1.6597
  932MPD2    H113637   2.310   4.706  11.195 -0.4658  1.6891  3.6437
  932MPD2    H213638   2.204   0.266  10.903  1.0728 -0.4710 -0.7370
  932MPD2    H313639   2.181   0.048  11.017 -0.1003  0.8606  1.1420
  932MPD2     N13640   2.516   0.130  11.299  0.5792 -0.2515  0.0171
  932MPD2    H513641   2.491   0.039  11.336 -0.1054  0.1750  0.6067
  932MPD2    N113642   2.385   0.457  10.968  0.9112 -0.6526  0.4989
  932MPD2    H713643   2.465   0.513  10.997  1.8690 -0.4106 -2.5987
  933MPD2     C13644   3.356   0.194   1.282  1.4119  0.0287  0.3851
  933MPD2    C113645   3.278   0.297   1.335 -0.0370  0.4852 -0.1364
  933MPD2    C213646   3.142   0.276   1.330 -0.1383 -0.0070  0.5963
  933MPD2    C313647   3.083   0.166   1.269 -0.0789 -0.8517 -0.2389
  933MPD2    C413648   3.156   0.077   1.207 -0.3073 -1.4372  0.1346
  933MPD2    C513649   3.298   0.086   1.217  0.4111 -0.6080  0.5282
  933MPD2     H13650   3.079   0.356   1.366 -1.1573 -0.5966  0.1161
  933MPD2    H113651   3.121   0.001   1.137 -0.2484 -0.4732 -0.9367
  933MPD2    H213652   3.463   0.196   1.263  1.6220  0.5049  1.6243
  933MPD2    H313653   3.363   0.012   1.173  0.9048 -0.6666  1.3648
  933MPD2     N13654   2.941   0.175   1.263  0.1669 -0.1544 -0.1014
  933MPD2    H513655   2.899   0.262   1.296  0.4884  0.7221 -2.0336
  933MPD2    N113656   3.342   0.414   1.374  0.1703  0.2648  0.4669
  933MPD2    H713657   3.441   0.416   1.352 -0.6151  0.6804 -2.9748
  934MPD2     C13658   4.166   4.392   2.166  0.6873 -0.0698  0.4689
  934MPD2    C113659   4.221   4.356   2.047  0.4243 -0.7106  0.3322
  934MPD2    C213660   4.156   4.263   1.970  0.5155  0.5025 -0.2823
  934MPD2    C313661   4.029   4.220   2.003  0.0562  0.2948 -0.3255
  934MPD2    C413662   3.976   4.261   2.124  0.1758 -0.0287  0.0031
  934MPD2    C513663   4.049   4.344   2.203 -0.1286 -0.3914 -0.1560
  934MPD2     H13664   4.210   4.221   1.886 -0.1542  2.8621 -1.8986
  934MPD2    H113665   3.878   4.233   2.161  0.7764  0.8184  2.2294
  934MPD2    H213666   4.216   4.464   2.229  0.1244  0.9386 -0.2362
  934MPD2    H313667   4.001   4.374   2.295 -0.8477  0.4199 -0.7901
  934MPD2     N13668   3.956   4.126   1.926  0.0243  0.1668 -0.6520
  934MPD2    H513669   3.862   4.101   1.957 -0.5512 -0.4815 -2.9166
  934MPD2    N113670   4.352   4.394   2.004  0.5426 -0.2575  0.2394
  934MPD2    H713671   4.377   4.349   1.916 -1.8874 -1.1693  0.0276
  935MPD2     C13672   4.041   3.674   0.969 -0.2544  0.0494  0.4832
  935MPD2    C113673   3.976   3.603   1.063 -0.2448 -0.2467  0.1304
  935MPD2    C213674   3.964   3.642   1.194 -0.3427 -0.0930 -0.4945
  935MPD2    C313675   4.015   3.758   1.244 -0.1813  0.1255  0.0788
  935MPD2    C413676   4.094   3.828   1.151  0.1100 -0.1426 -0.4447
  935MPD2    C513677   4.104   3.786   1.017  0.3334 -0.7837 -0.0017
  935MPD2     H13678   3.903   3.583   1.260 -0.6417 -0.0108 -0.6992
  935MPD2    H113679   4.143   3.922   1.173 -0.4972  0.3202 -1.0718
  935MPD2    H213680   4.054   3.638   0.868 -1.2085  1.7548 -0.2235
  935MPD2    H313681   4.153   3.851   0.944 -1.8882 -1.2067 -1.8856
  935MPD2     N13682   3.987   3.809   1.375 -0.0171 -0.0245  0.0266
  935MPD2    H513683   4.028   3.901   1.391  3.2440 -1.5919  0.5557
  935MPD2    N113684   3.917   3.480   1.033  0.6642  0.3054  0.3074
  935MPD2    H713685   3.894   3.423   1.114 -1.0356  0.3198 -0.1468
  936MPD2     C13686   2.966   4.607  12.456 -0.0688 -0.3860 -0.0292
  936MPD2    C113687   3.037   4.539  12.553  0.2835  0.1024 -0.3347
  936MPD2    C213688   3.163   4.577  12.591 -0.2982 -0.2789  0.0425
  936MPD2    C313689   3.218   4.689  12.533 -0.0535  0.2765 -0.1919
  936MPD2    C413690   3.157   0.030  12.430  0.4401 -0.0909  0.4556
  936MPD2    C513691   3.028   4.717  12.399  0.0078 -0.0730  0.3992
  936MPD2     H13692   3.212   4.533  12.677 -1.3292  0.3161  0.9309
  936MPD2    H113693   3.201   0.110  12.373 -0.5847 -0.7523 -1.2479
  936MPD2    H213694   2.866   4.579  12.429  0.0379 -1.1435  0.3597
  936MPD2    H313695   2.971   0.040  12.319 -1.5002 -0.4458  1.2725
  936MPD2     N13696   3.344   0.005  12.586  0.6329  0.5347 -0.7808
  936MPD2    H513697   3.374   4.671  12.665 -1.0833  1.2886  0.4367
  936MPD2    N113698   2.987   4.430  12.631 -0.1367 -0.1833 -0.0048
  936MPD2    H713699   3.054   4.386  12.692 -0.0544 -0.1205 -0.0495
  937MPD2     C13700   0.216   0.365  11.722 -0.0043  0.4887 -0.4497
  937MPD2    C113701   0.270   0.482  11.779  0.5307 -0.1598 -0.3010
  937MPD2    C213702   0.382   0.541  11.717  0.5718  0.1721  0.6485
  937MPD2    C313703   0.451   0.476  11.614 -0.1678 -0.0340  0.1129
  937MPD2    C413704   0.406   0.355  11.585  0.0932  0.6913 -0.2959
  937MPD2    C513705   0.297   0.296  11.629  0.0806 -0.0460 -0.3680
  937MPD2     H13706   0.407   0.643  11.744 -0.5140  0.6179 -0.0485
  937MPD2    H113707   0.466   0.287  11.525 -0.8013  1.2040 -1.7536
  937MPD2    H213708   0.119   0.326  11.750  0.4971  1.6791  3.0439
  937MPD2    H313709   0.262   0.199  11.598 -1.5912  0.2433  0.6038
  937MPD2     N13710   0.559   0.541  11.547  0.2667 -0.6524  0.4012
  937MPD2    H513711   0.587   0.633  11.580 -0.6727 -1.0285  2.2811
  937MPD2    N113712   0.191   0.564  11.867 -0.4335  0.0471  0.4657
  937MPD2    H713713   0.224   0.659  11.884  0.2964  0.1149 -1.3064
  938MPD2     C13714   3.097   3.010   0.980  0.0972 -0.0373  0.2665
  938MPD2    C113715   2.991   3.051   1.051 -0.2055  0.9919  0.1412
  938MPD2    C213716   2.909   2.954   1.098  0.3402  0.0658 -0.4657
  938MPD2    C313717   2.926   2.821   1.079  0.2226 -0.8386 -0.0043
  938MPD2    C413718   3.023   2.788   0.988  0.9007 -0.2000  0.0784
  938MPD2    C513719   3.108   2.883   0.944 -0.2306  0.1474 -0.1172
  938MPD2     H13720   2.832   2.998   1.161 -0.1409 -0.3194 -0.7900
  938MPD2    H113721   3.029   2.689   0.945 -3.3358  0.8730 -2.9561
  938MPD2    H213722   3.166   3.078   0.932 -0.8473  1.8717  1.6198
  938MPD2    H313723   3.191   2.855   0.879 -0.7758 -0.4482 -0.5576
  938MPD2     N13724   2.838   2.724   1.137  0.2576 -0.2831 -0.8435
  938MPD2    H513725   2.862   2.629   1.111 -0.7636 -0.6712 -0.3702
  938MPD2    N113726   2.956   3.186   1.072  0.2008  0.4925  0.9042
  938MPD2    H713727   2.862   3.207   1.102  0.9349  1.4281  2.5380
  939MPD2     C13728   4.192   4.313   1.122  0.0602  0.1679 -0.0326
  939MPD2    C113729   4.092   4.340   1.027 -0.7213 -0.1243  0.2229
  939MPD2    C213730   4.108   4.280   0.904  0.8615 -0.1916 -0.6346
  939MPD2    C313731   4.219   4.210   0.868  0.1580 -0.6605  0.5380
  939MPD2    C413732   4.309   4.180   0.971  0.1145  0.1523 -0.6678
  939MPD2    C513733   4.300   4.226   1.100 -0.1974  0.4529  0.8726
  939MPD2     H13734   4.038   4.317   0.830  0.4465 -0.5142 -0.4108
  939MPD2    H113735   4.394   4.117   0.947  1.4266  0.3006  3.5615
  939MPD2    H213736   4.197   4.365   1.217 -0.6509  1.6624 -0.8239
  939MPD2    H313737   4.375   4.202   1.175  0.4095  1.3125  0.5479
  939MPD2     N13738   4.234   4.178   0.731  0.4133  0.5280  0.2515
  939MPD2    H513739   4.155   4.196   0.671 -0.1817  0.4376  1.0085
  939MPD2    N113740   3.981   4.427   1.054  0.4030  0.0220  0.0040
  939MPD2    H713741   3.994   4.489   1.133  0.8927  0.6664 -0.5784
  940MPD2     C13742   2.985   3.906  12.956  0.0615  0.6398  0.0748
  940MPD2    C113743   3.115   3.945  12.991  0.4750 -0.1174  0.2144
  940MPD2    C213744   3.191   3.970  12.883 -0.4012  0.2160 -0.5368
  940MPD2    C313745   3.153   3.943  12.751 -0.0539 -0.2636  0.5161
  940MPD2    C413746   3.026   3.897  12.730  0.0281 -0.0877  0.1151
  940MPD2    C513747   2.934   3.897  12.829 -0.7019 -0.0200  0.2973
  940MPD2     H13748   3.294   4.002  12.897  0.2420 -2.7048  1.5353
  940MPD2    H113749   2.992   3.877  12.629 -0.7600  0.7262  0.2249
  940MPD2    H213750   2.917   3.872  13.034 -0.5265 -0.9370 -1.1112
  940MPD2    H313751   2.832   3.861  12.826  0.4200 -3.1002 -0.9273
  940MPD2     N13752   3.240   3.943  12.640  0.7140 -0.5263 -0.0818
  940MPD2    H513753   3.204   3.914  12.550  1.3426 -1.1299 -0.1391
  940MPD2    N113754   3.171   3.964  13.118  0.7598 -0.1942 -0.2685
  940MPD2    H713755   3.267   3.999  13.120  0.8797 -0.5200 -0.3660
  941MPD2     C13756   1.669   2.494   9.184 -0.2169  0.9362  0.7709
  941MPD2    C113757   1.757   2.510   9.293  0.8631  0.0714 -0.1527
  941MPD2    C213758   1.746   2.419   9.397 -0.0772 -0.2904  0.0548
  941MPD2    C313759   1.646   2.322   9.401  0.1020 -0.3489 -0.1309
  941MPD2    C413760   1.548   2.316   9.302  0.1812 -0.0802 -0.3004
  941MPD2    C513761   1.567   2.404   9.196 -0.0403 -0.6261 -0.0066
  941MPD2     H13762   1.802   2.436   9.488  0.6071  1.1618 -0.6389
  941MPD2    H113763   1.456   2.261   9.314  0.4862 -0.8655 -1.6240
  941MPD2    H213764   1.683   2.548   9.091 -0.8694  1.7272  1.1342
  941MPD2    H313765   1.495   2.397   9.115 -2.4574  3.1579  1.7883
  941MPD2     N13766   1.625   2.252   9.518 -0.1974 -0.2427  0.0726
  941MPD2    H513767   1.538   2.201   9.524 -0.4784  0.1526 -0.7039
  941MPD2    N113768   1.853   2.613   9.301 -0.6955  0.1109 -0.2156
  941MPD2    H713769   1.895   2.620   9.393  0.2783  1.2659 -0.7507
  942MPD2     C13770   2.063   0.068   8.321 -0.0573 -0.5320 -0.0325
  942MPD2    C113771   2.017   0.019   8.439 -0.2171 -0.1049  0.0078
  942MPD2    C213772   2.088   4.642   8.502 -0.4417  0.0425  1.2637
  942MPD2    C313773   2.198   4.578   8.442  0.1051 -0.1253  0.5064
  942MPD2    C413774   2.239   4.626   8.318 -0.0248  1.0312  0.7050
  942MPD2    C513775   2.170   0.003   8.260  0.2901 -0.6500 -0.1049
  942MPD2     H13776   2.063   4.612   8.603  0.7303 -1.8705  0.9822
  942MPD2    H113777   2.324   4.576   8.272  0.6947  0.8963  2.1938
  942MPD2    H213778   2.022   0.158   8.276 -0.5650 -1.6637 -1.8105
  942MPD2    H313779   2.215   0.045   8.170 -1.0587  1.4755  0.1944
  942MPD2     N13780   2.274   4.462   8.491 -0.3157 -0.7231  0.1298
  942MPD2    H513781   2.356   4.432   8.440 -0.0345 -1.4442  0.9988
  942MPD2    N113782   1.902   0.071   8.512  0.3554 -0.2202  0.0734
  942MPD2    H713783   1.896   0.025   8.603  2.6624  0.5437  0.6195
  943MPD2     C13784   1.287   2.580   9.433  0.1552 -0.2706  0.0302
  943MPD2    C113785   1.154   2.614   9.433 -0.3300  0.9180  0.2966
  943MPD2    C213786   1.119   2.740   9.392  0.0147 -0.0942 -0.6992
  943MPD2    C313787   1.213   2.828   9.350  0.7209  0.4442  0.4039
  943MPD2    C413788   1.350   2.789   9.340  0.6459  0.8096 -0.5502
  943MPD2    C513789   1.382   2.664   9.391  0.0755 -0.2364 -0.8733
  943MPD2     H13790   1.014   2.768   9.386  0.7322  2.6956 -0.3327
  943MPD2    H113791   1.416   2.866   9.302  0.1505  0.9762 -1.0625
  943MPD2    H213792   1.315   2.481   9.468  3.7642 -0.2444 -2.8008
  943MPD2    H313793   1.486   2.633   9.385  0.0060 -0.7213  0.6065
  943MPD2     N13794   1.184   2.959   9.316  0.4009 -0.2623 -0.3257
  943MPD2    H513795   1.254   3.021   9.276 -0.5407  1.7715  1.1647
  943MPD2    N113796   1.059   2.517   9.472  0.9468  0.0501 -0.1216
  943MPD2    H713797   1.094   2.438   9.526 -0.9660  0.0791  1.1601
  944MPD2     C13798   0.483   1.468  10.859 -0.1358  0.0282 -0.3133
  944MPD2    C113799   0.593   1.481  10.945  0.4611 -0.0570 -0.3329
  944MPD2    C213800   0.589   1.419  11.069  0.2244 -0.2054 -0.8392
  944MPD2    C313801   0.475   1.356  11.120  0.0112 -0.2893  0.3664
  944MPD2    C413802   0.368   1.346  11.034 -0.5568  0.0696 -0.0410
  944MPD2    C513803   0.371   1.406  10.904  0.3181 -0.0850 -0.0782
  944MPD2     H13804   0.675   1.407  11.134  0.7114  1.6905 -1.1304
  944MPD2    H113805   0.278   1.291  11.057 -0.6233 -0.1299 -0.7580
  944MPD2    H213806   0.490   1.492  10.754 -2.6665 -1.0023 -0.7253
  944MPD2    H313807   0.295   1.389  10.830  1.0669 -0.9457 -0.6432
  944MPD2     N13808   0.483   1.305  11.241  0.0670 -0.5325 -0.4146
  944MPD2    H513809   0.552   1.350  11.300 -0.4152 -0.2337 -0.0721
  944MPD2    N113810   0.706   1.544  10.894 -0.2568  0.0297  0.4901
  944MPD2    H713811   0.684   1.576  10.800  2.3901  1.2149  0.2888
    1TCq1    O113812   3.477   2.913  13.997  0.1743 -0.5908 -0.1712
    1TCq1    C113813   3.515   2.958  13.877  0.1960 -0.4714 -0.1798
    1TCq1    O213814   3.479   2.906  13.771 -0.2250  0.6014  0.2347
    1TCq1    C213815   3.495   3.100  13.892 -0.4555  0.2632 -0.1618
    1TCq1    C313816   3.393   3.153  13.820  0.2858  0.5591  0.0706
    1TCq1    C413817   3.343   3.270  13.859 -0.4138  0.3787  0.5134
    1TCq1    C513818   3.402   3.345  13.959  0.1707  0.0204  0.3945
    1TCq1    C613819   3.506   3.291  14.033  0.2194  0.1928  0.4924
    1TCq1    C713820   3.556   3.166  14.000  0.0372  0.0360  0.2630
    1TCq1    C813821   3.560   3.363  14.148  0.0180 -0.1967 -0.2249
    1TCq1    O413822   3.641   3.305  14.218  0.3360  0.4137  0.4487
    1TCq1    C913823   3.235   3.332  13.792 -0.4470  0.2056 -0.4677
    1TCq1    O513824   3.156   3.405  13.855 -0.0502  0.0809 -0.6682
    1TCq1    O613825   3.213   3.293  13.674 -0.2225  0.5682 -0.3168
    1TCq1    H113826   3.515   2.955  14.077 -0.7751 -0.0175 -0.0178
    1TCq1    H213827   3.342   3.095  13.743 -0.4544 -0.2819  1.2004
    1TCq1    H313828   3.360   3.444  13.971  1.9137  0.9018 -0.8426
    1TCq1    H413829   3.641   3.134  14.059 -0.5276 -1.3125  0.3479
    2MPD2     C13830   3.574   3.799  14.394  0.3758 -0.4889 -0.1191
    2MPD2    C113831   3.499   3.822  14.281  0.3041  0.5221 -0.3750
    2MPD2    C213832   3.484   3.713  14.198 -0.3163  0.6184 -0.2265
    2MPD2    C313833   3.536   3.591  14.229 -0.4382  0.1406  0.1649
    2MPD2    C413834   3.608   3.571  14.347 -0.5697 -0.5724 -0.5958
    2MPD2    C513835   3.627   3.678  14.428  0.7026  0.4803  0.5072
    2MPD2     H13836   3.417   3.724  14.114  0.2233  0.5902 -0.6593
    2MPD2    H113837   3.648   3.475  14.379 -0.3513 -0.7899 -1.5248
    2MPD2    H213838   3.573   3.875  14.471  0.3309 -2.5057  1.8942
    2MPD2    H313839   3.673   3.669  14.526  1.3500 -1.8662  0.0017
    2MPD2     N13840   3.512   3.488  14.141 -0.4194 -0.5257 -0.5072
    2MPD2    H513841   3.453   3.506  14.060 -0.4421  2.5856  0.2110
    2MPD2    N113842   3.442   3.954  14.261  0.4816 -0.4886  0.2586
    2MPD2    H713843   3.459   4.020  14.337 -1.2664  0.5078 -0.2183
    3TMC2    C113844   3.376   4.149  14.141 -0.0497 -0.8078  0.7375
    3TMC2    C213845   3.417   4.216  14.254  0.3450 -0.5328 -0.5527
    3TMC2    C313846   3.446   4.344  14.232 -0.1395 -0.4371 -1.1326
    3TMC2    C413847   3.394   4.207  14.019  0.5129 -0.0109  0.6663
    3TMC2    C513848   3.443   4.334  14.011  0.2540 -0.6384 -0.5229
    3TMC2    C613849   3.475   4.409  14.114 -0.6198 -0.0436 -0.6964
    3TMC2     C13850   3.374   4.007  14.150  0.0310  1.0289 -0.6352
    3TMC2     O13851   3.344   3.941  14.053  0.5736  0.4722  0.0319
    3TMC2     H13852   3.398   4.192  14.358 -0.3964 -1.3901 -0.8815
    3TMC2    H113853   3.362   4.155  13.930 -1.7267 -0.8406  1.9749
    3TMC2    H213854   3.510   4.511  14.111  1.3866 -0.7523 -1.7565
    3TMC2    C713855   3.442   4.386  13.873  0.3404 -0.1554 -0.9449
    3TMC2    C813856   3.459   4.424  14.352  0.3009 -0.8310 -0.2873
    3TMC2    O113857   3.368   4.352  13.782 -0.6268  0.6423  0.1999
    3TMC2    O213858   3.422   4.543  14.363  0.1045  0.7628 -0.8100
    3TMC2    O513859   3.531   4.362  14.449  0.4031  0.0807  0.0451
    3TMC2    H513860   3.567   4.275  14.422  2.3354  0.8078  0.2364
    4MPD2     C13861   2.634   4.631  12.710  0.7722  0.9856 -0.9275
    4MPD2    C113862   2.721   0.008  12.683 -0.3950 -0.8470 -0.1023
    4MPD2    C213863   2.821   0.035  12.771  0.4355 -0.2569  0.2355
    4MPD2    C313864   2.844   4.695  12.891 -0.2201  0.6057 -0.9299
    4MPD2    C413865   2.750   4.588  12.916 -0.0459 -0.9052  0.1028
    4MPD2    C513866   2.644   4.559  12.828  0.4540 -0.4488 -0.2339
    4MPD2     H13867   2.902   0.102  12.744  1.0551 -1.9763 -2.2173
    4MPD2    H113868   2.758   4.531  13.008 -1.1945 -0.1426  0.6732
    4MPD2    H213869   2.560   4.590  12.642  0.1080 -2.4744  1.9005
    4MPD2    H313870   2.577   4.476  12.850  0.8965 -0.2486  1.9129
    4MPD2     N13871   2.966   4.721  12.960 -0.5145  0.3119 -0.3340
    4MPD2    H513872   3.026   0.066  12.914  1.2209 -2.8708 -2.8090
    4MPD2    N113873   2.699   0.067  12.556 -0.4284  0.2385 -0.3007
    4MPD2    H713874   2.632   0.021  12.496  0.9108 -1.3045 -0.6096
    5TCq2    C113875   3.012   4.658  13.071  0.8928  0.9187  0.2502
    5TCq2    O213876   2.955   4.575  13.141 -0.0657  0.1035  0.2378
    5TCq2    C213877   3.129   4.722  13.132 -0.1107  0.0640 -0.5478
    5TCq2    C313878   3.201   0.099  13.058  0.2197  0.4828  0.1452
    5TCq2    C413879   3.308   0.153  13.118  0.0534 -0.1082  0.1777
    5TCq2    C513880   3.342   0.120  13.249 -0.5071  0.0463 -0.4226
    5TCq2    C613881   3.268   0.022  13.314  0.3005 -0.2309 -0.1241
    5TCq2    C713882   3.152   4.684  13.263 -0.7644  0.2318  0.0297
    5TCq2    C813883   3.319   4.684  13.443 -0.4599  0.2284 -0.2179
    5TCq2    O413884   3.244   4.607  13.507 -0.6084 -0.1721  0.0512
    5TCq2    C913885   3.370   0.269  13.052 -0.3706  0.5725 -0.2139
    5TCq2    O513886   3.346   0.287  12.930  0.0244  0.1987 -0.8333
    5TCq2    O613887   3.460   0.332  13.117 -0.4605  0.4606  1.0475
    5TCq2    H213888   3.170   0.132  12.960 -1.1954 -0.2493  0.3431
    5TCq2    H313889   3.420   0.178  13.298  0.8126 -0.2746 -2.1179
    5TCq2    H413890   3.111   4.594  13.306 -1.3472 -0.1697 -1.3559
    6MPD1     C13891   2.661   1.865  12.862  0.3055  0.2598  0.2544
    6MPD1    C113892   2.618   1.759  12.940 -0.6716  0.2073 -0.3303
    6MPD1    C213893   2.595   1.639  12.879 -0.8260 -0.2722  0.3581
    6MPD1    C313894   2.625   1.608  12.745  0.0580 -0.3133 -0.1786
    6MPD1    C413895   2.677   1.716  12.674 -0.7700 -0.3266  0.4697
    6MPD1    C513896   2.696   1.842  12.731  0.2808  0.5764  0.5816
    6MPD1     H13897   2.567   1.559  12.948 -1.7085  0.0872  0.4052
    6MPD1    H113898   2.702   1.711  12.568 -0.4766  4.6174  0.3175
    6MPD1    H213899   2.686   1.959  12.909  0.7592  0.1790  0.1707
    6MPD1    H313900   2.742   1.918  12.669  3.6637 -1.9583 -0.0568
    6MPD1     N13901   2.593   1.489  12.677 -0.0269 -0.3308 -0.1583
    6MPD1    H513902   2.619   1.485  12.579  1.9841  0.1171  0.3703
    6MPD1    N113903   2.574   1.789  13.071 -0.3635  0.0548 -0.1098
    6MPD1    H613904   2.562   1.717  13.142  1.3842 -0.0004  0.1265
    6MPD1    H713905   2.612   1.873  13.114 -0.6178  0.5143 -0.7949
    7MPD2     C13906   2.155   0.706  12.606 -0.0799 -0.7455  0.3598
    7MPD2    C113907   2.271   0.737  12.547  0.2204 -0.4566  0.2382
    7MPD2    C213908   2.339   0.638  12.484 -0.1434  0.2299 -0.1881
    7MPD2    C313909   2.290   0.513  12.459  0.8637  0.9139  0.1240
    7MPD2    C413910   2.174   0.480  12.520  0.5123 -0.3515  0.0886
    7MPD2    C513911   2.106   0.577  12.596  0.3409  0.2292 -0.4000
    7MPD2     H13912   2.442   0.655  12.456  0.8048 -2.2006  1.8630
    7MPD2    H113913   2.133   0.380  12.525  3.3217 -1.5633 -1.0389
    7MPD2    H213914   2.092   0.783  12.651 -1.4903 -0.2947 -2.3570
    7MPD2    H313915   2.012   0.550  12.642  0.5972  0.9909  0.5948
    7MPD2     N13916   2.364   0.409  12.393 -0.0893 -0.3035 -0.4187
    7MPD2    H513917   2.334   0.314  12.412 -0.0994  0.1625  1.9004
    7MPD2    N113918   2.330   0.858  12.542 -0.5077 -0.2907  0.0235
    7MPD2    H713919   2.392   0.861  12.462 -0.1697 -1.6706  0.2420
    8TMC3    C113920   2.543   0.322  12.264 -0.0553  0.0802  0.2731
    8TMC3    C213921   2.579   0.242  12.376  0.5674 -0.6397  0.1790
    8TMC3    C313922   2.713   0.213  12.384 -0.2371 -0.1077 -0.1023
    8TMC3    C413923   2.629   0.343  12.164 -0.7385 -0.3776  0.1736
    8TMC3    C513924   2.763   0.332  12.186  0.7238 -0.0763  0.3423
    8TMC3    C613925   2.810   0.260  12.298  0.4474 -0.4754  0.2896
    8TMC3     C13926   2.461   0.438  12.291  0.6047 -0.0463 -0.1710
    8TMC3     O13927   2.493   0.543  12.237  0.2101 -0.1075 -0.6697
    8TMC3     H13928   2.515   0.229  12.463  0.0089  1.0406  0.0071
    8TMC3    H113929   2.599   0.393  12.072 -1.0775  1.1870  1.1330
    8TMC3    H213930   2.915   0.259  12.322  0.2003 -0.4413  1.3767
    8TMC3    C713931   2.851   0.445  12.160  0.3403 -0.0620  0.1115
    8TMC3    C813932   2.762   0.181  12.511 -0.6756 -0.8807  0.5038
    8TMC3    O113933   2.971   0.435  12.179  0.1791 -0.0979  0.4840
    8TMC3    O213934   2.843   0.256  12.567 -0.4540 -0.1626  0.6986
    9TMC3    C113935   2.513   1.267  12.648  0.0777 -0.5230  0.6304
    9TMC3    C213936   2.596   1.249  12.537  0.0142 -0.7883 -0.2529
    9TMC3    C313937   2.562   1.151  12.448  0.4578 -0.3548  0.0821
    9TMC3    C413938   2.417   1.172  12.677  0.2016 -0.3684 -0.3697
    9TMC3    C513939   2.386   1.078  12.586 -0.0489 -0.3136  0.4684
    9TMC3    C613940   2.457   1.068  12.464 -0.0148 -0.0421 -0.0594
    9TMC3     C13941   2.518   1.387  12.732  0.0022 -0.6691  0.3516
    9TMC3     O13942   2.438   1.391  12.830 -0.4786  0.0146 -0.2281
    9TMC3     H13943   2.679   1.318  12.521 -1.5550  0.6825 -2.1183
    9TMC3    H113944   2.351   1.190  12.761  1.2364  1.6880  0.0127
    9TMC3    H213945   2.424   1.019  12.373  1.4677 -0.8838 -0.1444
    9TMC3    C713946   2.297   0.965  12.617  0.8505 -0.5043 -0.5332
    9TMC3    C813947   2.669   1.108  12.371 -1.1091 -0.7460  0.2527
    9TMC3    O113948   2.227   0.972  12.721 -0.0394  0.3796  0.2976
    9TMC3    O213949   2.763   1.182  12.353  0.1256 -0.1712  0.0593
   10MPD2     C13950   2.935   0.733  12.119 -0.2972  0.0812  0.2141
   10MPD2    C113951   2.808   0.694  12.160  0.0449 -0.1782 -1.0348
   10MPD2    C213952   2.720   0.780  12.218 -0.1244  0.1824  0.9200
   10MPD2    C313953   2.754   0.909  12.248  0.8253  0.1465  0.1811
   10MPD2    C413954   2.876   0.957  12.200  0.8519  0.1263 -0.3569
   10MPD2    C513955   2.960   0.868  12.131  0.7583  0.3190  0.1470
   10MPD2     H13956   2.624   0.741  12.250  0.2362 -0.0449  1.7339
   10MPD2    H113957   2.920   1.056  12.206 -0.1444  0.4872  0.9823
   10MPD2    H213958   3.004   0.662  12.075 -0.1232  1.1747 -1.2753
   10MPD2    H313959   3.054   0.909  12.095 -0.1221  1.6235 -0.6463
   10MPD2     N13960   2.655   0.982  12.321  0.4918  0.4696  0.0009
   10MPD2    H513961   2.576   0.925  12.349 -0.3501  1.2138 -0.8524
   10MPD2    N113962   2.768   0.559  12.163  0.5247 -0.3558 -0.6342
   10MPD2    H713963   2.668   0.544  12.175  0.2135  1.5314 -0.8222
   11MPD2     C13964   3.707   4.619  13.772  0.0399  1.0965 -0.4674
   11MPD2    C113965   3.583   4.559  13.761 -0.2209  0.1694  0.4389
   11MPD2    C213966   3.493   4.595  13.667  0.6903 -0.0677  0.4277
   11MPD2    C313967   3.535   4.684  13.573  0.5780  0.2969 -0.1018
   11MPD2    C413968   3.660   0.012  13.580 -0.1446  0.7021  0.4956
   11MPD2    C513969   3.745   4.700  13.680 -0.2167 -0.5347  0.8346
   11MPD2     H13970   3.393   4.553  13.658 -0.2097  2.3549 -0.9255
   11MPD2    H113971   3.706   0.083  13.513 -2.2850  1.0578 -0.6025
   11MPD2    H213972   3.783   4.595  13.846 -0.6513 -0.2712 -0.2224
   11MPD2    H313973   3.847   0.012  13.698 -1.0528  1.5646  1.5349
   11MPD2     N13974   3.450   0.004  13.466 -0.1332 -0.4857 -0.0035
   11MPD2    H513975   3.486   0.080  13.409  1.2903 -2.4218 -1.6864
   11MPD2    N113976   3.547   4.473  13.868 -0.3673  0.0574  0.1979
   11MPD2    H713977   3.614   4.470  13.944  0.4303 -0.3407 -0.5202
    1MPD1     C13978   0.714   1.920  16.200 -0.0879 -0.0270 -0.8887
    1MPD1    C113979   0.833   1.981  16.215 -0.0751  0.4187 -0.1616
    1MPD1    C213980   0.930   1.913  16.286 -0.3112 -0.2088  0.5807
    1MPD1    C313981   0.904   1.796  16.361  0.2893 -0.9060  0.7806
    1MPD1    C413982   0.777   1.742  16.347  0.2663 -0.0578 -0.2743
    1MPD1    C513983   0.689   1.801  16.264 -0.0123 -0.1391 -0.4630
    1MPD1     H13984   1.027   1.961  16.275 -0.8151  0.1646 -2.0548
    1MPD1    H113985   0.746   1.655  16.403  0.0814  0.8130  0.9723
    1MPD1    H213986   0.636   1.959  16.137 -1.8825 -1.5009  0.4183
    1MPD1    H313987   0.586   1.768  16.256 -0.6449  1.8898 -0.8413
    1MPD1     N13988   0.989   1.728  16.443  0.7337  0.4289 -0.5209
    1MPD1    H513989   0.945   1.680  16.521 -0.2557 -2.7291 -3.0108
    1MPD1    N113990   0.859   2.090  16.135  0.1687 -0.0552  0.5418
    1MPD1    H613991   0.911   2.159  16.188  0.0890 -0.2284  0.8416
    1MPD1    H713992   0.779   2.140  16.095  1.8158  2.5581  0.4864
    2MPD1     C13993   1.134   1.206  17.273 -0.1566  0.5502 -0.0701
    2MPD1    C113994   1.260   1.263  17.267 -0.2083 -0.6702  0.6964
    2MPD1    C213995   1.281   1.339  17.154  0.2765  0.1202  0.5976
    2MPD1    C313996   1.186   1.366  17.062 -0.0224  0.5949 -0.1931
    2MPD1    C413997   1.056   1.324  17.083  0.0921  0.6255 -0.6097
    2MPD1    C513998   1.030   1.237  17.191  0.2100  0.2711  0.2466
    2MPD1     H13999   1.371   1.396  17.134  0.1474  0.0081 -0.2908
    2MPD1    H114000   0.976   1.363  17.021  1.0737  1.4914 -1.3279
    2MPD1    H214001   1.099   1.143  17.355  1.9620 -1.3410 -0.6219
    2MPD1    H314002   0.933   1.188  17.196  0.6001 -0.4952  0.2896
    2MPD1     N14003   1.229   1.451  16.955  0.1919 -0.2931  0.2573
    2MPD1    H514004   1.327   1.478  16.957 -0.0151  0.4622 -0.0057
    2MPD1    N114005   1.354   1.207  17.353  0.3136 -0.0021  0.3681
    2MPD1    H614006   1.422   1.278  17.379 -1.3941  1.9699 -0.5318
    2MPD1    H714007   1.314   1.172  17.439 -3.0589  1.3487 -0.6489
    3TMC3    C114008   1.218   1.591  16.755  0.2314  0.2485 -0.1483
    3TMC3    C214009   1.345   1.635  16.768 -0.2515  0.1074 -0.4114
    3TMC3    C314010   1.394   1.714  16.672 -0.1414 -0.0386  0.6480
    3TMC3    C414011   1.146   1.605  16.640  0.0372  0.4594 -0.1536
    3TMC3    C514012   1.197   1.696  16.548 -0.7204 -0.0704  0.5860
    3TMC3    C614013   1.324   1.750  16.560  0.0888 -0.2083  0.4674
    3TMC3     C14014   1.154   1.500  16.850 -0.0931  0.6077 -0.3378
    3TMC3     O14015   1.032   1.493  16.838 -0.0135  0.4941 -0.1164
    3TMC3     H14016   1.386   1.630  16.868 -0.2939  0.9554 -0.3492
    3TMC3    H114017   1.050   1.559  16.616  0.5871 -0.1278 -1.2426
    3TMC3    H214018   1.361   1.824  16.490 -3.7076 -0.0071 -1.2887
    3TMC3    C714019   1.124   1.747  16.436 -0.2348 -0.0877 -0.3210
    3TMC3    C814020   1.528   1.774  16.684  0.1890 -0.7083 -0.2965
    3TMC3    O114021   1.185   1.801  16.347 -0.3373 -0.2469  0.3060
    3TMC3    O214022   1.563   1.856  16.597  0.0286  0.1277  0.1513
    4MPD1     C14023   1.995   1.768  16.881  0.3841 -0.8682  0.2152
    4MPD1    C114024   1.917   1.689  16.956  0.0535  0.1790  0.2728
    4MPD1    C214025   1.784   1.677  16.932 -0.1443  0.0803 -0.1830
    4MPD1    C314026   1.736   1.733  16.813  0.9764 -0.5551  0.0956
    4MPD1    C414027   1.820   1.826  16.742  0.8547 -0.3440  0.1450
    4MPD1    C514028   1.946   1.841  16.781 -0.7515 -0.7468  0.0260
    4MPD1     H14029   1.707   1.639  16.999 -0.8560  0.0229 -1.0308
    4MPD1    H114030   1.787   1.891  16.662  0.7468  1.1873  1.4286
    4MPD1    H214031   2.099   1.779  16.912  0.3365  1.1030 -0.3299
    4MPD1    H314032   2.015   1.899  16.719  0.3476  0.2840  2.2198
    4MPD1     N14033   1.597   1.716  16.790 -0.1023  0.4110 -0.3027
    4MPD1    H514034   1.543   1.654  16.849  1.7825 -1.0722 -0.1070
    4MPD1    N114035   1.972   1.636  17.075  1.0250 -0.3535  0.5506
    4MPD1    H614036   1.921   1.550  17.094  1.9700 -0.8066  1.0665
    4MPD1    H714037   2.073   1.622  17.068  0.9047  0.1010 -1.8048
    1TCq1    O114038   3.032   4.079  12.374  0.1319  0.3178  0.5082
    1TCq1    C114039   3.090   4.170  12.296 -0.7318  0.5016 -0.4414
    1TCq1    O214040   3.210   4.196  12.293 -0.4902 -0.1143  1.1588
    1TCq1    C214041   2.991   4.246  12.225 -0.4318  0.0634 -0.1585
    1TCq1    C314042   2.886   4.180  12.170  0.2813  0.1352  0.7809
    1TCq1    C414043   2.790   4.246  12.088 -0.5542 -0.1473  0.1407
    1TCq1    C514044   2.794   4.386  12.102  0.1460  0.4041 -0.6006
    1TCq1    C614045   2.903   4.449  12.157 -0.0686  0.5470 -0.7007
    1TCq1    C714046   3.007   4.378  12.218 -0.2727 -0.4157 -0.2622
    1TCq1    C814047   2.930   4.584  12.114  0.7140 -0.1470 -0.0326
    1TCq1    O414048   2.846   4.668  12.081 -0.7580  0.1523  0.2288
    1TCq1    C914049   2.667   4.179  12.069 -0.2276 -0.3538 -0.4592
    1TCq1    O514050   2.661   4.054  12.090 -0.7218  0.0023  0.5627
    1TCq1    O614051   2.573   4.246  12.016  0.2847 -0.3099  0.4800
    1TCq1    H114052   2.934   4.081  12.370  0.1788 -1.0506 -1.4666
    1TCq1    H214053   2.878   4.072  12.168  0.3539  0.1639 -0.9169
    1TCq1    H314054   2.712   4.448  12.069 -0.0742 -0.8155 -2.3364
    1TCq1    H414055   3.100   4.417  12.260  1.0908 -0.1815 -3.4808
    2MPD1     C14056   3.298   0.207  12.023 -0.2095  0.0123 -0.7551
    2MPD1    C114057   3.354   0.080  12.009  0.5366  1.3353 -0.0536
    2MPD1    C214058   3.271   4.699  12.043 -0.1073  0.0755 -0.3214
    2MPD1    C314059   3.135   4.711  12.059  0.2511 -0.1740 -0.1224
    2MPD1    C414060   3.075   0.114  12.052 -0.1416 -0.0853 -0.2130
    2MPD1    C514061   3.164   0.224  12.030  0.3772 -0.3223 -0.1491
    2MPD1     H14062   3.314   4.601  12.053 -0.2874  0.0369  0.0623
    2MPD1    H114063   2.968   0.131  12.056  0.0976  0.7973  2.9993
    2MPD1    H214064   3.360   0.292  11.998 -1.4906  0.9073 -0.8931
    2MPD1    H314065   3.120   0.321  12.006  1.1436  0.2434  0.7503
    2MPD1     N14066   3.068   4.597  12.095  0.0940 -0.5844  0.2355
    2MPD1    H514067   3.116   4.510  12.117  2.3372  0.0150 -2.3269
    2MPD1    N114068   3.493   0.066  11.996 -0.1039 -0.0460  0.0313
    2MPD1    H614069   3.529   4.694  11.981  1.4931  0.2303  2.1493
    2MPD1    H714070   3.537   0.129  11.929 -1.9632 -2.1616 -3.1997
    1TCq1    O114071   3.319   0.758   9.377  0.3879 -0.2965  0.5767
    1TCq1    C114072   3.292   0.894   9.380  0.6322 -0.1587  0.3732
    1TCq1    O214073   3.309   0.970   9.478 -0.9774 -0.4361 -0.3835
    1TCq1    C214074   3.186   0.910   9.280 -0.3020  0.0869  0.3227
    1TCq1    C314075   3.192   0.851   9.157  0.5472  0.9586  0.9228
    1TCq1    C414076   3.107   0.889   9.056  1.0939 -0.2492  0.3179
    1TCq1    C514077   3.020   0.992   9.076  0.2819 -0.5432  0.1105
    1TCq1    C614078   3.019   1.055   9.199 -0.3169 -0.0133 -0.0778
    1TCq1    C714079   3.101   1.016   9.299  0.8473  0.3329  1.0639
    1TCq1    C814080   2.961   1.184   9.218  0.3721 -0.4830  0.6764
    1TCq1    O414081   3.008   1.250   9.310  0.4031 -0.2321 -0.3623
    1TCq1    C914082   3.154   0.872   8.915 -0.0694  0.2923  0.8097
    1TCq1    O514083   3.065   0.889   8.821 -1.0640 -0.2816 -0.2280
    1TCq1    O614084   3.268   0.825   8.896 -0.1531  0.4586 -0.3424
    1TCq1    H114085   3.299   0.711   9.293  2.4150 -0.4212  0.1631
    1TCq1    H214086   3.289   0.814   9.127  1.1558  0.6388  3.2765
    1TCq1    H314087   2.969   1.032   8.989  0.2561 -1.0246 -0.0925
    1TCq1    H414088   3.100   1.061   9.398 -0.6734  0.3892  1.0107
    2MPD1     C14089   2.787   1.600   9.000 -0.7753  0.2078  0.6589
    2MPD1    C114090   2.720   1.497   8.943  0.4889 -0.4950 -0.8725
    2MPD1    C214091   2.748   1.370   8.989  1.1919 -0.3520  0.2534
    2MPD1    C314092   2.829   1.352   9.101 -0.8482  0.2998 -0.2333
    2MPD1    C414093   2.884   1.462   9.161  0.1731  0.9565 -0.0799
    2MPD1    C514094   2.856   1.589   9.113 -0.2875 -0.1985 -0.5132
    2MPD1     H14095   2.707   1.288   8.930 -2.1686 -0.3249  2.5935
    2MPD1    H114096   2.948   1.447   9.248 -0.1044 -1.1175 -0.2381
    2MPD1    H214097   2.779   1.698   8.953 -0.4446 -0.6206 -1.1115
    2MPD1    H314098   2.890   1.678   9.166 -0.8731  0.1944 -0.7912
    2MPD1     N14099   2.875   1.221   9.122  0.3766  0.1072  0.0336
    2MPD1    H514100   2.845   1.143   9.064 -1.9847  1.4967 -0.6253
    2MPD1    N114101   2.649   1.510   8.825 -0.3765  0.2984 -0.0264
    2MPD1    H614102   2.574   1.442   8.828 -0.0561 -0.0669 -0.2709
    2MPD1    H714103   2.601   1.599   8.814  0.0866  0.4661 -0.7106
    1MPD1     C14104   3.990   0.302  12.258 -0.2607 -0.7066 -0.0877
    1MPD1    C114105   4.082   0.205  12.223  0.4880 -0.3754 -0.1344
    1MPD1    C214106   4.193   0.239  12.147 -0.3673 -0.4416  0.0442
    1MPD1    C314107   4.226   0.369  12.119  0.3394  0.6113 -0.7099
    1MPD1    C414108   4.142   0.466  12.172  0.6188  0.2145 -0.0373
    1MPD1    C514109   4.035   0.429  12.242  0.2581 -0.6219 -0.9667
    1MPD1     H14110   4.249   0.157  12.104  1.1620  0.3301  0.5621
    1MPD1    H114111   4.151   0.572  12.151 -1.0292  0.4972  0.7301
    1MPD1    H214112   3.897   0.277  12.307 -0.2082  0.9758  0.8853
    1MPD1    H314113   3.971   0.513  12.267  1.4213 -0.0920  0.2590
    1MPD1     N14114   4.329   0.403  12.028 -0.3437 -0.2524 -0.3782
    1MPD1    H514115   4.378   0.326  11.983  0.0270  1.1194 -2.3646
    1MPD1    N114116   4.057   0.066  12.238 -0.2540 -0.4953  0.3065
    1MPD1    H614117   4.140   0.008  12.225 -0.1289 -0.2678  0.0874
    1MPD1    H714118   4.018   0.045  12.330 -0.2326  0.2385  0.4809
    2MPD1     C14119   4.132   0.698  11.551  0.3214 -0.5427  0.3944
    2MPD1    C114120   4.085   0.572  11.559  0.4211  0.4230  0.1253
    2MPD1    C214121   4.099   0.490  11.450 -0.0426  0.2946 -0.0309
    2MPD1    C314122   4.187   0.512  11.342  0.2736  0.2290 -0.1106
    2MPD1    C414123   4.247   0.639  11.349 -0.2438  0.0028  0.5071
    2MPD1    C514124   4.214   0.730  11.442  0.0259 -0.7207 -0.0858
    2MPD1     H14125   4.039   0.399  11.442 -1.7743  1.4448 -0.1460
    2MPD1    H114126   4.294   0.674  11.257 -1.3230 -0.6775 -0.3048
    2MPD1    H214127   4.100   0.771  11.624  0.0809 -0.7220  0.4680
    2MPD1    H314128   4.239   0.836  11.438 -0.4888 -0.6379 -0.9557
    2MPD1     N14129   4.207   0.434  11.223  0.0535 -0.2540  0.0776
    2MPD1    H514130   4.271   0.468  11.152 -1.7071  1.6716 -0.6111
    2MPD1    N114131   3.985   0.543  11.655  0.2070 -0.1442 -0.3863
    2MPD1    H614132   3.999   0.445  11.678  1.9372  0.6743  1.9554
    2MPD1    H714133   4.013   0.587  11.742 -0.4831  1.2687 -0.8769
    3MPD1     C14134   3.439   4.692  10.860 -0.7585 -0.2395 -0.1254
    3MPD1    C114135   3.513   4.651  10.967 -0.8305  0.1217 -0.4110
    3MPD1    C214136   3.637   4.709  10.997  0.0269 -0.1736  0.0635
    3MPD1    C314137   3.693   0.067  10.902  0.0115  0.2810 -0.4076
    3MPD1    C414138   3.623   0.099  10.788 -0.5832  0.2378 -0.0216
    3MPD1    C514139   3.487   0.066  10.774  0.5838 -0.4112  0.3018
    3MPD1     H14140   3.690   4.698  11.091 -2.6544 -1.4254  1.4058
    3MPD1    H114141   3.669   0.168  10.719 -0.2152 -1.0794 -1.1081
    3MPD1    H214142   3.345   4.646  10.832 -1.2611 -0.2289  1.5484
    3MPD1    H314143   3.421   0.101  10.695 -0.1417 -1.5106  0.4273
    3MPD1     N14144   3.822   0.116  10.924  0.0968 -0.2610  0.2692
    3MPD1    H514145   3.865   0.092  11.012  2.9040 -0.8578 -1.2652
    3MPD1    N114146   3.440   4.578  11.066 -0.0618  0.1128  0.1936
    3MPD1    H614147   3.372   4.518  11.020  1.4799 -0.0570 -1.8977
    3MPD1    H714148   3.501   4.517  11.119 -1.3068 -0.4753  0.9469
    4MPD2     C14149   0.131   0.807  11.443  0.0787  0.2395  0.0015
    4MPD2    C114150   0.087   0.679  11.473  0.4259  0.0297  0.3081
    4MPD2    C214151   0.135   0.568  11.413  0.5558  0.2246  0.2393
    4MPD2    C314152   0.225   0.573  11.311 -0.0442 -0.9008  0.3362
    4MPD2    C414153   0.274   0.700  11.281 -0.0756 -0.5923  0.3594
    4MPD2    C514154   0.223   0.809  11.343  0.6179 -0.5561  0.0889
    4MPD2     H14155   0.092   0.472  11.439 -0.1484  0.2223 -0.9418
    4MPD2    H114156   0.349   0.711  11.204 -0.2930 -0.9867  0.0931
    4MPD2    H214157   0.100   0.899  11.492  0.4309  0.8298 -0.8922
    4MPD2    H314158   0.268   0.902  11.312 -3.2800  1.4217  0.3892
    4MPD2     N14159   0.271   0.458  11.256  0.4423 -0.6285 -0.5901
    4MPD2    H514160   0.253   0.372  11.308 -0.5362 -0.5497 -0.7965
    4MPD2    N114161   4.717   0.643  11.571  0.0115 -0.2096  0.1161
    4MPD2    H714162   4.701   0.543  11.567  0.1315 -0.2058 -0.4413
    5TMC3    C114163   4.502   0.671  11.678 -0.5019  0.1163 -0.2306
    5TMC3    C214164   4.474   0.661  11.812  0.3946  0.0009 -0.3892
    5TMC3    C314165   4.424   0.536  11.847 -0.0767  0.3756 -0.4116
    5TMC3    C414166   4.480   0.568  11.594  0.2224  0.0449 -0.0061
    5TMC3    C514167   4.453   0.444  11.642 -0.2620 -0.3806  0.6384
    5TMC3    C614168   4.421   0.425  11.773  0.0865 -0.6833  0.9089
    5TMC3     C14169   4.637   0.728  11.646  0.0096  0.3118  0.6162
    5TMC3     O14170   4.672   0.838  11.692  0.4459 -0.3207 -0.2332
    5TMC3     H14171   4.481   0.745  11.881  0.3511  1.7386 -2.4905
    5TMC3    H114172   4.480   0.583  11.487 -0.6028 -1.1362 -0.1684
    5TMC3    H214173   4.389   0.330  11.814 -0.9614 -1.6415 -2.1093
    5TMC3    C714174   4.540   0.345  11.583  0.4484 -0.8725 -0.1842
    5TMC3    C814175   4.352   0.529  11.977 -0.1776 -0.6944  0.2114
    5TMC3    O114176   4.599   0.380  11.483  0.5102 -0.7659 -0.5793
    5TMC3    O214177   4.316   0.640  12.018 -0.5865  0.0476 -0.5487
    6TMC3    C114178   4.173   0.255  11.078  0.8071 -0.1643  0.1969
    6TMC3    C214179   4.058   0.198  11.026  0.6511  0.1817 -0.2519
    6TMC3    C314180   4.033   0.224  10.894 -0.1933  0.1788  0.0926
    6TMC3    C414181   4.258   0.334  11.000 -0.0213 -0.3928 -0.5299
    6TMC3    C514182   4.236   0.348  10.869 -0.0280 -0.1784 -0.0346
    6TMC3    C614183   4.121   0.292  10.812  0.0980  0.9412  0.5528
    6TMC3     C14184   4.146   0.307  11.205  0.4334 -0.5028 -0.0290
    6TMC3     O14185   4.085   0.240  11.285 -0.3349 -0.3449  0.2007
    6TMC3     H14186   3.982   0.160  11.093  0.6089 -1.7061 -1.4028
    6TMC3    H114187   4.350   0.378  11.036 -0.9400  0.4946  0.7131
    6TMC3    H214188   4.104   0.298  10.705  0.0131  0.0699  0.5183
    6TMC3    C714189   4.341   0.373  10.775  0.4621 -0.0966  0.3500
    6TMC3    C814190   3.911   0.174  10.832  0.0914  0.3251 -0.2602
    6TMC3    O114191   4.318   0.448  10.682  0.0389 -0.0758  0.4287
    6TMC3    O214192   3.898   0.195  10.711 -0.8923 -0.3581 -0.4878
    7MPD2     C14193   0.060   4.619  11.560 -0.4209  0.6725  0.3953
    7MPD2    C114194   0.082   0.013  11.489  0.1414  0.2431 -0.2240
    7MPD2    C214195   0.018   0.128  11.529 -0.0921  0.7963 -0.0433
    7MPD2    C314196   4.636   0.118  11.617 -0.3705  0.5355  0.1516
    7MPD2    C414197   4.609   4.719  11.682  0.3994 -0.2633 -0.8330
    7MPD2    C514198   4.686   4.612  11.651  0.1863 -0.2968 -0.6593
    7MPD2     H14199   0.044   0.225  11.487 -0.8352  1.3957  0.8871
    7MPD2    H114200   4.520   4.714  11.744  0.8526  0.8076 -0.0953
    7MPD2    H214201   0.131   4.537  11.559 -0.9099  0.2673 -1.6408
    7MPD2    H314202   4.669   4.514  11.695  1.5480 -0.8257 -1.3213
    7MPD2     N14203   4.557   0.229  11.657 -0.3724  0.2283  0.3467
    7MPD2    H514204   4.489   0.219  11.732  1.1559  3.5095  2.1505
    7MPD2    N114205   0.181   0.013  11.389 -0.0194 -0.1991  0.2087
    7MPD2    H714206   0.236   4.653  11.372 -0.3552 -0.1254 -1.1932
    8TMC3    C114207   0.326   0.104  11.227 -0.1167 -0.3824  0.2100
    8TMC3    C214208   0.300   0.048  11.106 -0.5271  0.0007 -0.1087
    8TMC3    C314209   0.308   0.130  10.997 -0.1491 -0.8495 -0.4613
    8TMC3    C414210   0.372   0.231  11.238 -0.0379 -0.1188 -0.2462
    8TMC3    C514211   0.394   0.305  11.123  0.0795  0.4128 -0.5251
    8TMC3    C614212   0.357   0.256  11.003 -0.4486  0.1944 -0.1895
    8TMC3     C14213   0.207   0.120  11.304 -0.1943  0.2636 -0.5835
    8TMC3     O14214   0.146   0.224  11.297  0.1956 -0.2626  0.3339
    8TMC3     H14215   0.241   4.680  11.108  0.2872 -0.5734 -1.6049
    8TMC3    H114216   0.376   0.262  11.341  2.9284  0.8174 -0.6520
    8TMC3    H214217   0.373   0.315  10.913  1.1689 -1.0094 -0.6888
    8TMC3    C714218   0.354   0.451  11.147  0.1389 -0.3929 -0.5416
    8TMC3    C814219   0.193   0.114  10.909 -0.5118 -0.4684 -0.1717
    8TMC3    O114220   0.399   0.538  11.076 -0.0970 -0.1989 -0.1443
    8TMC3    O214221   0.108   0.030  10.939 -0.5012  0.4259 -0.0170
    9MPD2     C14222   0.097   0.300  10.608 -0.2182 -0.0006 -0.8441
    9MPD2    C114223   0.084   0.232  10.727  0.0316 -0.2601 -0.0070
    9MPD2    C214224   4.682   0.226  10.784  0.0936  1.0491 -0.4313
    9MPD2    C314225   4.575   0.289  10.721 -0.5885 -0.1167  0.2944
    9MPD2    C414226   4.593   0.355  10.602  0.1543 -0.3514 -0.3874
    9MPD2    C514227   4.710   0.352  10.539 -0.9265 -0.0016 -0.2070
    9MPD2     H14228   4.658   0.183  10.881  0.6659 -0.0841 -0.7834
    9MPD2    H114229   4.506   0.399  10.556  0.3951 -0.3833 -0.8710
    9MPD2    H214230   0.191   0.316  10.556 -1.3222  0.5093 -2.6827
    9MPD2    H314231   4.712   0.410  10.448 -1.4609 -0.7522 -0.6898
    9MPD2     N14232   4.455   0.302  10.800 -0.1535  0.6468 -0.2420
    9MPD2    H514233   4.452   0.248  10.886  0.8374  0.4323 -0.3351
    9MPD2    N114234   0.206   0.185  10.792  0.6453  0.5053 -0.6183
    9MPD2    H714235   0.297   0.219  10.765  0.0152  0.2407 -3.0707
    1MPD1     C14236   0.218   0.218  16.509 -0.3257  0.5427 -0.0068
    1MPD1    C114237   0.157   0.215  16.391  0.1202 -0.7139 -0.1711
    1MPD1    C214238   0.021   0.197  16.384  0.5141  0.2619 -0.6415
    1MPD1    C314239   4.665   0.194  16.493  0.7660  0.4198  0.1369
    1MPD1    C414240   0.001   0.197  16.619 -0.2257  0.1311 -0.3865
    1MPD1    C514241   0.136   0.201  16.620  0.2778 -0.2224 -0.0199
    1MPD1     H14242   4.706   0.189  16.283  2.9902  0.6984 -1.6189
    1MPD1    H114243   4.662   0.189  16.708 -0.1289 -2.5625 -0.5545
    1MPD1    H214244   0.323   0.226  16.532 -0.4376  0.2811  0.5894
    1MPD1    H314245   0.179   0.214  16.719  0.5881 -3.8990  0.3195
    1MPD1     N14246   4.521   0.173  16.486 -0.0325  1.1323  0.1355
    1MPD1    H514247   4.467   0.194  16.570  2.8812  1.5350  1.9115
    1MPD1    N114248   0.246   0.234  16.280  0.0465 -0.7567  0.5800
    1MPD1    H614249   0.225   0.165  16.208  1.8848  3.2243 -3.7386
    1MPD1    H714250   0.343   0.214  16.303  0.6690  1.5915 -0.0329
    2MPD1     C14251   3.826   0.061  15.736 -0.2877 -0.9834 -0.0675
    2MPD1    C114252   3.938   0.142  15.737  0.2168  0.2381 -0.2996
    2MPD1    C214253   4.000   0.158  15.861 -0.4733  0.2721 -0.5320
    2MPD1    C314254   3.964   0.090  15.974 -0.7385  0.3266 -0.2654
    2MPD1    C414255   3.871   4.710  15.957  0.4589  0.1450  0.1795
    2MPD1    C514256   3.796   4.702  15.844 -0.0587  0.0032 -0.1494
    2MPD1     H14257   4.075   0.236  15.870  1.3929 -1.7788  1.6236
    2MPD1    H114258   3.834   4.646  16.036 -0.4007  0.7428  0.2645
    2MPD1    H214259   3.757   0.060  15.653  0.7880  1.6984 -0.9829
    2MPD1    H314260   3.707   4.641  15.847  0.4376 -0.8104 -2.0149
    2MPD1     N14261   4.040   0.113  16.090 -0.2237  0.1317  0.5347
    2MPD1    H514262   4.123   0.172  16.085  0.2044 -0.6554 -1.6316
    2MPD1    N114263   3.965   0.228  15.631  0.1335  0.0270 -0.3497
    2MPD1    H614264   4.063   0.230  15.605  0.4525 -2.7021  0.5962
    2MPD1    H714265   3.914   0.211  15.544 -0.1068  1.4261 -0.4839
    3TCq2    C114266   3.995   0.070  16.217 -0.5157  0.1238  0.1946
    3TCq2    O214267   3.894   0.005  16.252  0.4325 -0.3243 -0.4115
    3TCq2    C214268   4.089   0.082  16.323  0.1211  0.7102 -0.2520
    3TCq2    C314269   4.051   0.047  16.450 -0.4198 -0.4248  0.1783
    3TCq2    C414270   4.147   0.043  16.552 -0.3591  0.8325  0.4930
    3TCq2    C514271   4.278   0.056  16.523 -0.1368  0.3123  0.3091
    3TCq2    C614272   4.310   0.102  16.400 -0.0197  0.2854  0.0502
    3TCq2    C714273   4.222   0.117  16.292  0.1348 -0.1100  0.2805
    3TCq2    C814274   4.448   0.142  16.373 -0.9357 -0.7144  0.0991
    3TCq2    O414275   4.493   0.127  16.260  0.3764  0.7223 -0.9780
    3TCq2    C914276   4.102   0.003  16.683 -1.0379 -0.0354 -0.2531
    3TCq2    O514277   4.172   0.044  16.781 -0.4207 -0.7199  0.3701
    3TCq2    O614278   3.984   4.680  16.693  0.0768 -0.3181  0.2285
    3TCq2    H214279   3.949   0.035  16.484 -1.4058  3.0103 -1.5960
    3TCq2    H314280   4.347   0.032  16.603  1.0447  2.9547  0.0704
    3TCq2    H414281   4.263   0.142  16.195  0.7955 -1.4095  0.2220
    1TCq1    O114282   2.329   4.081  12.532 -0.0195 -0.2805 -0.2098
    1TCq1    C114283   2.411   3.969  12.545  0.0927 -0.3630 -0.4510
    1TCq1    O214284   2.530   3.969  12.520 -0.5051  0.4922  0.0467
    1TCq1    C214285   2.360   3.910  12.667 -0.0710  0.3787 -0.6582
    1TCq1    C314286   2.231   3.867  12.652 -0.3846  0.7638 -0.4193
    1TCq1    C414287   2.198   3.752  12.724  0.1404 -0.3796 -0.0169
    1TCq1    C514288   2.284   3.692  12.815  0.2292  0.2765 -0.1389
    1TCq1    C614289   2.408   3.750  12.840  0.1130  0.4189  0.5955
    1TCq1    C714290   2.449   3.849  12.755 -0.2287 -0.3992 -0.6506
    1TCq1    C814291   2.499   3.687  12.926  0.3185 -0.3038 -0.3402
    1TCq1    O414292   2.618   3.708  12.911 -0.1194  0.4747 -0.1997
    1TCq1    C914293   2.076   3.675  12.694  0.5352  0.5584 -0.1299
    1TCq1    O514294   2.011   3.715  12.598  0.6392  0.2792 -0.0174
    1TCq1    O614295   2.051   3.588  12.776  0.4315  0.4628  0.1107
    1TCq1    H114296   2.259   4.079  12.601 -0.6049 -1.2002 -0.8202
    1TCq1    H214297   2.173   3.904  12.569 -0.2346 -2.5837 -2.0033
    1TCq1    H314298   2.257   3.598  12.863 -1.5007  1.4237  1.1433
    1TCq1    H414299   2.556   3.864  12.750 -0.4015  0.7250 -0.9633
    2MPD2     C14300   2.625   3.455  13.049 -0.3345  0.2304 -0.6363
    2MPD2    C114301   2.515   3.518  13.101 -0.1460 -0.5426 -0.4000
    2MPD2    C214302   2.463   3.480  13.225  0.0223  0.1204 -0.4645
    2MPD2    C314303   2.542   3.395  13.310 -0.0814 -0.1316 -0.0642
    2MPD2    C414304   2.655   3.334  13.249  0.5954 -0.0843  0.2384
    2MPD2    C514305   2.698   3.367  13.125  0.4274  0.0041 -0.7559
    2MPD2     H14306   2.371   3.529  13.256  0.5835 -0.2732  1.7855
    2MPD2    H114307   2.710   3.255  13.300  2.3896 -0.4143 -2.2280
    2MPD2    H214308   2.670   3.486  12.956  0.8064  1.6577  0.4042
    2MPD2    H314309   2.788   3.316  13.093  0.6321 -0.2634  0.2251
    2MPD2     N14310   2.494   3.371  13.444  0.2097  0.5226  0.2958
    2MPD2    H514311   2.410   3.418  13.478 -0.3230  0.9635 -1.5897
    2MPD2    N114312   2.446   3.616  13.029  0.3423  0.3789  0.0521
    2MPD2    H714313   2.355   3.634  13.071  0.9760 -2.0326  2.4750
    3TCq1    O114314   2.404   3.550  13.920 -0.0092  0.5178 -0.4910
    3TCq1    C114315   2.310   3.450  13.924  0.3684  0.8627 -0.4525
    3TCq1    O214316   2.222   3.437  14.007 -0.5598  0.2776 -0.4567
    3TCq1    C214317   2.355   3.344  13.832 -0.3432  0.0902 -0.5454
    3TCq1    C314318   2.355   3.213  13.880  0.2604  0.9604 -0.0021
    3TCq1    C414319   2.419   3.118  13.813  0.6160  0.1329 -0.3869
    3TCq1    C514320   2.484   3.148  13.700 -0.5735  0.0824  0.7631
    3TCq1    C614321   2.481   3.271  13.648 -0.1060 -0.4026 -0.7031
    3TCq1    C714322   2.423   3.377  13.716  1.0514 -0.0520 -0.0780
    3TCq1    C814323   2.556   3.286  13.528 -0.1266 -0.2705 -0.2114
    3TCq1    O414324   2.645   3.208  13.504 -0.0529 -0.3980 -0.3423
    3TCq1    C914325   2.436   2.987  13.868  0.1723 -0.9824 -0.9037
    3TCq1    O514326   2.380   2.966  13.980  0.1972  0.2841 -0.1747
    3TCq1    O614327   2.513   2.903  13.810  0.1789  0.1049  0.8286
    3TCq1    H114328   2.496   3.516  13.911  0.2080  0.7950  0.6408
    3TCq1    H214329   2.314   3.191  13.979  0.5413 -0.5568 -0.2203
    3TCq1    H314330   2.534   3.067  13.647 -0.3890  0.0416  1.0013
    3TCq1    H414331   2.431   3.482  13.688 -0.9493  0.4722  1.3148
    1MPD2     C14332   1.680   4.563  14.610  0.1256 -1.2472 -0.7741
    1MPD2    C114333   1.570   4.595  14.685 -0.1731  0.2224  0.1100
    1MPD2    C214334   1.452   4.532  14.675 -0.6621  0.1627  0.4968
    1MPD2    C314335   1.450   4.417  14.595 -0.1613  0.6348  0.2224
    1MPD2    C414336   1.559   4.376  14.524 -0.2148  0.1929 -0.4973
    1MPD2    C514337   1.675   4.451  14.521 -0.2118  0.1973  0.5338
    1MPD2     H14338   1.368   4.556  14.739 -0.1256  0.0045  1.2565
    1MPD2    H114339   1.547   4.294  14.454 -1.7115 -0.3892  0.4464
    1MPD2    H214340   1.767   4.627  14.618  0.0010 -1.0595 -0.9145
    1MPD2    H314341   1.764   4.432  14.462 -0.8242  0.8537 -0.5823
    1MPD2     N14342   1.334   4.336  14.580  0.9067  0.0109 -0.2832
    1MPD2    H514343   1.350   4.241  14.550 -3.1070 -0.2880 -1.4449
    1MPD2    N114344   1.587   4.708  14.772  0.3277 -0.2010  0.2930
    1MPD2    H714345   1.674   0.035  14.757  0.8644 -0.4004  2.7638
    2TMC3    C114346   1.522   0.136  14.957  0.0608 -0.0090 -0.9329
    2TMC3    C214347   1.437   0.136  15.065 -0.1133 -0.4030  0.0930
    2TMC3    C314348   1.374   0.248  15.095  0.4770 -0.0827 -0.0830
    2TMC3    C414349   1.556   0.247  14.887 -0.1502  0.0966  0.0067
    2TMC3    C514350   1.493   0.361  14.919  0.1580 -0.2921 -0.2642
    2TMC3    C614351   1.403   0.362  15.024 -0.8907  0.5897  0.2377
    2TMC3     C14352   1.485   0.026  14.863  0.3890  0.3468  0.8384
    2TMC3     O14353   1.378   4.699  14.895  0.0089 -0.1245  0.0770
    2TMC3     H14354   1.412   0.042  15.114 -1.1183  0.9464  2.1789
    2TMC3    H114355   1.611   0.245  14.793 -1.1746  1.8449 -0.6348
    2TMC3    H214356   1.351   0.454  15.048 -2.1281 -0.4968  1.6450
    2TMC3    C714357   1.483   0.466  14.824  0.1625  0.0279  0.4283
    2TMC3    C814358   1.225   0.245  15.094 -0.2895 -0.9761  0.7545
    2TMC3    O114359   1.369   0.500  14.806 -0.6735  0.9840 -0.4578
    2TMC3    O214360   1.166   0.325  15.161  0.3705  0.6048  0.3698
    3TCq1    O114361   2.255   1.283  14.344 -0.0204 -0.2863  0.2961
    3TCq1    C114362   2.339   1.183  14.398  0.9054 -1.0916 -0.8821
    3TCq1    O214363   2.458   1.180  14.386  0.1211  0.1750  0.1804
    3TCq1    C214364   2.268   1.119  14.510 -1.1128  0.6009  0.2625
    3TCq1    C314365   2.335   1.100  14.627 -0.0339 -0.6998  0.0935
    3TCq1    C414366   2.275   1.030  14.725  0.2776  0.0648 -0.0204
    3TCq1    C514367   2.145   0.987  14.703  0.6099 -0.3500 -0.2850
    3TCq1    C614368   2.077   1.018  14.584  0.3911 -0.2010  0.1730
    3TCq1    C714369   2.139   1.085  14.488  0.3096  0.2723  0.4592
    3TCq1    C814370   1.936   0.987  14.571 -0.4908  0.1716 -0.9414
    3TCq1    O414371   1.872   1.059  14.494  0.1184  0.0185  0.5010
    3TCq1    C914372   2.344   0.983  14.843  1.1059  0.5770  0.0173
    3TCq1    O514373   2.457   1.029  14.863  0.0516 -0.8074  0.5600
    3TCq1    O614374   2.306   0.867  14.879 -0.3912  0.2825  0.2538
    3TCq1    H114375   2.181   1.305  14.404  1.4510 -1.5466  2.5829
    3TCq1    H214376   2.442   1.117  14.624  0.3765 -3.3884 -0.8388
    3TCq1    H314377   2.096   0.937  14.786  1.6731 -1.5127 -0.3523
    3TCq1    H414378   2.088   1.109  14.396 -1.0679  0.2500  1.2147
    4MPD2     C14379   1.655   0.891  14.597 -0.3007 -0.1592  0.0265
    4MPD2    C114380   1.766   0.829  14.650  0.4344  0.1859 -0.0536
    4MPD2    C214381   1.747   0.714  14.725 -0.3972 -0.3270  0.2611
    4MPD2    C314382   1.622   0.651  14.735  0.1650 -0.0676  0.2897
    4MPD2    C414383   1.517   0.712  14.672  0.0811  0.5074  0.9672
    4MPD2    C514384   1.533   0.831  14.615  0.5600  0.6337 -0.1436
    4MPD2     H14385   1.831   0.676  14.783 -1.0492 -2.0707  0.0691
    4MPD2    H114386   1.415   0.679  14.687  0.1760  0.2071  0.9349
    4MPD2    H214387   1.666   0.982  14.540 -0.7790 -0.8214 -1.1300
    4MPD2    H314388   1.442   0.882  14.586  0.9423  0.4665 -1.6586
    4MPD2     N14389   1.606   0.523  14.801  0.0251 -0.4645  0.0045
    4MPD2    H514390   1.692   0.482  14.836  0.5980  1.2693  0.6306
    4MPD2    N114391   1.897   0.878  14.645  0.0017 -0.5338  0.3120
    4MPD2    H714392   1.968   0.825  14.696  1.2293 -0.4868 -1.3416
    5TMC2    C114393   0.901   4.311  14.731  0.1613 -0.2782 -0.5518
    5TMC2    C214394   0.915   4.178  14.780  0.2636 -0.0046  0.6745
    5TMC2    C314395   1.023   4.115  14.741  0.2422 -0.6549  0.5290
    5TMC2    C414396   0.979   4.362  14.635  0.4230 -0.7392  0.0991
    5TMC2    C514397   1.098   4.293  14.610  0.3596 -0.0165  0.9005
    5TMC2    C614398   1.122   4.176  14.666 -0.0981 -0.3814  0.5751
    5TMC2     C14399   0.844   4.408  14.816 -0.0005 -0.6543  0.9699
    5TMC2     O14400   0.746   4.384  14.885 -0.2421  0.7338  0.3282
    5TMC2     H14401   0.849   4.146  14.860  0.5591 -0.1764  0.8487
    5TMC2    H114402   0.952   4.453  14.582 -0.6268  0.0804  2.0202
    5TMC2    H214403   1.217   4.127  14.652  0.0858 -0.0536  0.6917
    5TMC2    C714404   1.205   4.385  14.598 -0.2705 -0.1054 -0.4728
    5TMC2    C814405   1.068   3.992  14.801  0.5181 -0.1393 -0.2589
    5TMC2    O114406   1.167   4.502  14.615  0.3463  0.3386  0.4677
    5TMC2    O214407   1.183   3.949  14.788 -0.4575  0.3019 -0.3228
    5TMC2    O514408   0.959   3.933  14.847  0.9851 -0.1968 -0.4816
    5TMC2    H514409   0.877   3.968  14.808  1.3346  0.2548 -0.8162
    6MPD2     C14410   0.951   0.128  15.067  0.0868  0.2208 -0.7557
    6MPD2    C114411   1.061   0.087  14.997  0.1899  0.0340  0.1627
    6MPD2    C214412   1.044   4.709  14.907  0.4782 -0.6958  0.3518
    6MPD2    C314413   0.931   4.632  14.903  0.1208  0.4387 -0.1179
    6MPD2    C414414   0.825   4.668  14.978 -0.4528 -0.3069  0.2166
    6MPD2    C514415   0.838   0.050  15.060  0.4554 -0.5989 -0.6124
    6MPD2     H14416   1.129   4.674  14.850  1.4117 -0.3078  1.4984
    6MPD2    H114417   0.734   4.610  14.977 -0.3598 -0.4465 -0.5638
    6MPD2    H214418   0.959   0.206  15.142  2.3350 -3.6454  3.0176
    6MPD2    H314419   0.754   0.084  15.120  0.8085  1.4973 -1.2773
    6MPD2     N14420   0.934   4.518  14.817 -0.4305 -0.1813  0.3722
    6MPD2    H514421   1.016   4.510  14.759 -1.0158 -1.6976 -0.2518
    6MPD2    N114422   1.188   0.148  15.004 -0.6428  0.1398  0.3672
    6MPD2    H714423   1.253   0.099  14.943 -0.1435 -2.8291  3.3186
  945NH4     N114424   2.846   2.877   2.258  0.3172 -0.1272  0.5137
  945NH4     H214425   2.767   2.907   2.318 -2.0040 -0.3013 -2.4481
  945NH4     H314426   2.931   2.924   2.294 -0.2441  0.6909  0.7627
  945NH4     H414427   2.832   2.899   2.157 -1.6099  0.4737  0.9016
  945NH4     H514428   2.857   2.774   2.270  0.3389 -0.3281 -1.1312
  946SOD     NA14429   1.803   3.081   9.810  0.0625  0.4831 -0.4181
  947SOD     NA14430   0.015   1.054  16.482  0.1984  0.2488 -0.1627
  948SOD     NA14431   1.611   0.819   9.657 -0.0389  0.0604  0.2367
  949SOD     NA14432   0.966   3.585  14.478  0.0546  0.4958  0.1395
  950SOD     NA14433   2.635   2.906  11.763 -0.0807 -0.0566  0.0777
  951SOD     NA14434   2.338   4.541   2.070  0.1562 -0.0471  0.6407
  952SOD     NA14435   3.491   1.716  15.999 -0.1308 -0.1661 -0.5256
  953SOD     NA14436   3.249   3.735  11.003  0.6043  0.0416  0.5307
  954SOD     NA14437   3.648   2.434  12.801  0.3296 -0.0939 -0.0066
  955SOD     NA14438   1.873   0.500   3.064  0.2203 -0.0536  0.1840
  956SOD     NA14439   0.886   0.368  13.403 -0.4678 -0.2637  0.2868
  957SOD     NA14440   1.075   3.207  13.010 -0.1683  0.1177  0.3734
  958SOD     NA14441   3.978   3.951   0.098  0.2599 -0.1038  0.2070
  959SOD     NA14442   2.441   4.084  12.103  0.1029  0.7217  0.1982
  960SOD     NA14443   0.509   4.072  13.127  0.1496 -0.4104 -0.5594
  961SOD     NA14444   1.123   0.983   2.265  0.1238  0.1571 -0.3564
  962SOD     NA14445   1.483   2.403  12.608  0.1765  0.1714  0.0380
  963SOD     NA14446   1.654   2.818   9.739 -0.2275 -0.0162  0.7169
  964SOD     NA14447   2.346   4.458  11.647 -0.1162  0.1551  0.0928
  965SOD     NA14448   1.612   0.333  10.695 -0.5631 -0.0024  0.2738
  966SOD     NA14449   1.434   2.633   9.928  0.0024  0.0235 -0.4118
  967SOD     NA14450   2.057   1.927  10.820 -0.0259  0.4690  0.4145
  968SOD     NA14451   1.088   3.165   8.067 -0.1166  0.1777 -0.3269
  969SOD     NA14452   4.102   2.793   1.204  0.1197  0.3327  0.4461
  970SOD     NA14453   1.088   1.567   9.287  0.2896 -0.2296  0.0498
  971SOD     NA14454   1.460   1.977  10.728 -0.0038 -0.4232  0.0374
  972SOD     NA14455   2.750   3.619  13.784  0.3925 -0.3178  0.2586
  973SOD     NA14456   2.313   2.092  11.609 -0.0749  0.2913  0.4972
  974SOD     NA14457   1.707   3.264   9.569 -0.3827  0.1632  0.2327
  975SOD     NA14458   2.737   2.053  10.916 -0.0177  0.2588  0.3692
  976SOD     NA14459   2.666   0.458  14.156  0.1393 -0.4769 -0.2478
  977SOD     NA14460   2.619   0.373  14.476 -0.1090 -0.1578  0.0441
  978SOD     NA14461   0.217   1.710   0.994  0.3190  0.4470  0.1348
  979SOD     NA14462   0.079   2.508  13.428  0.1080  0.1737  0.4905
  980SOD     NA14463   2.681   4.603  14.382 -0.0727  0.2201 -0.4385
  981SOD     NA14464   4.271   2.987   2.795 -0.2468 -0.1584  0.0705
  982SOD     NA14465   2.581   4.694  16.514 -0.0515  0.1486 -0.1936
  983SOD     NA14466   1.750   3.065   1.749  0.2840 -0.1882 -0.5735
  984SOD     NA14467   4.610   2.183   9.701  0.4872  0.2616 -0.3986
  985SOD     NA14468   1.113   1.209   0.625 -0.2825  0.1225 -0.2376
  986SOD     NA14469   2.552   0.974   0.318 -0.3610  0.1963 -0.4791
  987SOD     NA14470   2.988   3.392  13.707  0.1415  0.0237 -0.2285
  988SOD     NA14471   3.886   4.669  16.879  0.3167 -0.3292 -0.1112
  989SOD     NA14472   3.552   4.369   0.421 -0.0538 -0.0309 -0.1259
  990SOD     NA14473   0.282   2.034   0.835  1.0533 -0.1173  0.3296
  991SOD     NA14474   1.074   2.853   7.569 -0.0189  0.4001  0.1674
  992SOD     NA14475   2.357   3.096  11.350 -0.1577  0.1632 -0.0355
  993SOD     NA14476   3.019   3.536  13.997  0.1422 -0.3907  0.2679
  994SOD     NA14477   1.216   0.477  15.329 -0.7921 -0.2158 -0.1096
  995SOD     NA14478   3.434   2.692   2.441 -0.2843  0.0582  0.1935
  996SOD     NA14479   2.572   4.391  11.858  0.4782 -0.0491 -0.1875
  997SOD     NA14480   2.181   2.972   2.209  0.9767  0.2937 -0.2944
  998SOD     NA14481   3.209   2.496  13.772 -0.2272 -0.0223 -0.5088
  999SOD     NA14482   4.275   2.008  12.987  0.1043  0.0508  0.2209
 1000SOD     NA14483   2.688   2.952  11.464 -0.0658 -0.4218  0.1147
 1001SOD     NA14484   2.613   1.712  15.195  0.5537 -0.2043  0.4472
 1002SOD     NA14485   1.230   1.115   7.105  0.3533 -0.1230  0.4077
 1003SOD     NA14486   3.852   4.182   0.466 -0.2209 -0.0467 -0.6794
 1004SOD     NA14487   3.821   3.788  14.758  0.3791 -0.2717 -0.0432
 1005SOD     NA14488   0.415   2.084   9.152  0.2117 -0.2061  0.0069
 1006SOD     NA14489   1.146   2.271   9.889  0.0392 -0.3508 -0.1468
 1007SOD     NA14490   3.136   1.477   4.773  0.1544  0.4774  0.0615
 1008SOD     NA14491   0.440   1.954   9.517  0.2007  0.2200  0.2398
 1009SOD     NA14492   3.387   4.269  11.108 -0.0133  0.0326 -0.2421
 1010SOD     NA14493   3.448   0.943   8.918  0.2762  0.0840  0.4239
 1011SOL     OW14494   1.310   3.590  10.768  0.5287  0.4087 -0.2156
 1011SOL    HW114495   1.218   3.601  10.741 -0.4255 -0.5081  2.7102
 1011SOL    HW214496   1.304   3.510  10.820 -0.7010  1.9476  2.0094
 1012SOL     OW14497   1.296   0.937   9.919 -0.3623 -0.3242 -0.4971
 1012SOL    HW114498   1.262   1.015   9.962 -0.3300  1.0011 -2.9152
 1012SOL    HW214499   1.388   0.936   9.945 -0.6224 -0.5754  0.4390
 1013SOL     OW14500   2.633   1.166   7.126  0.0954  0.0716  0.3913
 1013SOL    HW114501   2.540   1.169   7.146 -0.3770  0.9458 -1.9542
 1013SOL    HW214502   2.673   1.134   7.207 -0.3752  0.1686  0.6610
 1014SOL     OW14503   3.031   3.458   6.980 -0.0279 -0.4356 -0.5016
 1014SOL    HW114504   3.008   3.464   6.887  1.5598  1.9445 -0.7308
 1014SOL    HW214505   3.071   3.542   6.999 -0.4783 -0.2489 -0.3691
 1015SOL     OW14506   2.853   4.431   0.037 -0.1459  0.0433  0.2951
 1015SOL    HW114507   2.887   4.463   0.121 -2.5295  0.4088  1.1355
 1015SOL    HW214508   2.902   4.498  17.681  0.9930 -1.5375 -0.7111
 1016SOL     OW14509   0.647   1.239   8.033 -0.5394 -0.0408  0.0624
 1016SOL    HW114510   0.598   1.309   8.076 -0.5621  0.2963 -0.5051
 1016SOL    HW214511   0.591   1.222   7.958  0.5299 -1.1436 -0.4922
 1017SOL     OW14512   3.839   4.086   2.784 -0.8926 -0.3870 -0.1820
 1017SOL    HW114513   3.804   4.054   2.867 -1.2379  3.0330  1.0129
 1017SOL    HW214514   3.930   4.060   2.792 -0.4862  0.6717 -1.2869
 1018SOL     OW14515   3.744   0.933   3.397 -0.6363 -0.6152 -0.2010
 1018SOL    HW114516   3.827   0.981   3.396  0.3627 -2.3899 -2.1500
 1018SOL    HW214517   3.740   0.914   3.491 -0.4839 -0.4719 -0.1653
 1019SOL     OW14518   2.114   4.673   5.507  0.1900 -0.0967 -0.4538
 1019SOL    HW114519   2.068   4.685   5.423 -1.8287 -1.5626  0.4332
 1019SOL    HW214520   2.126   4.579   5.500 -0.7711 -0.3914  1.7321
 1020SOL     OW14521   2.550   4.183  14.153  0.6083  0.8572  0.4682
 1020SOL    HW114522   2.578   4.114  14.092  1.9529  0.5172  1.4619
 1020SOL    HW214523   2.567   4.144  14.238 -1.4549  0.1478  0.5435
 1021SOL     OW14524   4.601   0.931  12.807 -0.3547  0.4292 -0.1882
 1021SOL    HW114525   4.651   0.851  12.826 -1.0457  0.1135  0.3106
 1021SOL    HW214526   4.578   0.929  12.715  0.0135 -2.4449 -0.2410
 1022SOL     OW14527   0.023   3.218   4.368 -0.4803  0.4339  0.3301
 1022SOL    HW114528   4.700   3.273   4.305 -0.5153 -0.0234 -0.0479
 1022SOL    HW214529   0.110   3.258   4.364 -0.3257 -0.3080 -4.0767
 1023SOL     OW14530   0.252   3.481   6.167  0.1828 -0.1046  0.1624
 1023SOL    HW114531   0.199   3.494   6.088 -0.9127 -2.7916  0.4508
 1023SOL    HW214532   0.183   3.430   6.210 -2.2247  0.7240 -2.7520
 1024SOL     OW14533   2.103   1.324   0.035  0.3851 -0.1004 -0.5651
 1024SOL    HW114534   2.187   1.297  17.690  0.1291 -2.2534  0.3923
 1024SOL    HW214535   2.135   1.366   0.116  0.5137 -0.1073 -0.6114
 1025SOL     OW14536   3.842   0.940   8.154 -0.1781 -0.3109 -0.1816
 1025SOL    HW114537   3.915   0.961   8.096  0.9161 -0.4663  1.1427
 1025SOL    HW214538   3.856   0.989   8.235  1.2576 -2.4750  0.8660
 1026SOL     OW14539   1.178   0.338   9.233 -0.4119  0.2015  0.2155
 1026SOL    HW114540   1.144   0.427   9.242 -2.3979 -0.3491 -2.0865
 1026SOL    HW214541   1.261   0.345   9.281  0.1678 -0.5256 -0.6939
 1027SOL     OW14542   3.443   4.630   2.335 -0.2878  0.4310 -0.1527
 1027SOL    HW114543   3.455   4.714   2.379  0.6465 -0.4665  1.3277
 1027SOL    HW214544   3.534   4.610   2.313 -0.1944  1.5601 -0.7695
 1028SOL     OW14545   2.503   1.055   2.497 -0.3203 -0.2777 -0.0789
 1028SOL    HW114546   2.520   1.133   2.444 -0.2306  0.6365  1.2901
 1028SOL    HW214547   2.581   1.003   2.475 -0.2161  0.0232 -0.4404
 1029SOL     OW14548   4.431   4.606   6.968  0.2612 -0.6068 -0.3579
 1029SOL    HW114549   4.407   4.654   7.047 -1.8560  0.7209 -1.7934
 1029SOL    HW214550   4.476   4.529   7.002  1.5832  0.0607 -0.5981
 1030SOL     OW14551   4.507   0.036   5.428  0.1471 -0.0797 -0.3372
 1030SOL    HW114552   4.447   4.716   5.367  0.2914  0.2367 -0.7005
 1030SOL    HW214553   4.495   4.697   5.501 -0.0490  1.2687  0.7707
 1031SOL     OW14554   3.619   4.328   8.282  0.0689  0.2859 -0.0363
 1031SOL    HW114555   3.609   4.279   8.363  3.4040 -0.1599  0.1326
 1031SOL    HW214556   3.645   4.412   8.319  2.2159 -0.0728 -0.6758
 1032SOL     OW14557   3.214   2.376   8.950  0.2998  0.1077 -0.5045
 1032SOL    HW114558   3.142   2.362   8.889 -0.1606  0.9245 -0.1543
 1032SOL    HW214559   3.164   2.374   9.032  0.0375 -1.1973 -0.7112
 1033SOL     OW14560   1.211   2.865   7.147  0.6706  0.0561 -0.0691
 1033SOL    HW114561   1.284   2.843   7.089  0.1078 -3.0137  0.3936
 1033SOL    HW214562   1.174   2.937   7.096  0.3814  0.6725  1.0320
 1034SOL     OW14563   1.290   4.552   3.801  0.0900 -0.6138 -0.0330
 1034SOL    HW114564   1.196   4.569   3.791 -0.1929 -3.0990 -1.6408
 1034SOL    HW214565   1.280   4.457   3.794 -1.5418 -0.5934  2.0454
 1035SOL     OW14566   3.445   0.270   4.605  0.0437 -0.0409  0.1483
 1035SOL    HW114567   3.398   0.342   4.563 -0.2995 -1.2651 -1.5788
 1035SOL    HW214568   3.434   0.297   4.696  2.4108 -2.3898  1.1352
 1036SOL     OW14569   2.990   1.344   3.865  0.0851  0.2742  0.5168
 1036SOL    HW114570   3.085   1.341   3.855  0.1691 -1.6393  2.0195
 1036SOL    HW214571   2.965   1.253   3.881  2.8838 -0.3778  1.0909
 1037SOL     OW14572   2.781   2.154   9.246  0.1668 -0.4541 -0.0869
 1037SOL    HW114573   2.837   2.227   9.274 -0.1781 -0.7040  1.2666
 1037SOL    HW214574   2.714   2.148   9.314  0.3319 -0.7187  0.0546
 1038SOL     OW14575   1.545   2.650   0.911  0.1996  0.8121 -0.5341
 1038SOL    HW114576   1.474   2.674   0.852 -1.5612 -0.0875  1.2489
 1038SOL    HW214577   1.596   2.727   0.884  1.4039 -0.5692 -2.1883
 1039SOL     OW14578   2.730   4.305   5.763 -0.2489  0.2689 -0.4785
 1039SOL    HW114579   2.731   4.398   5.741 -0.1124  0.5221  0.6019
 1039SOL    HW214580   2.723   4.310   5.858  4.6343  1.5929 -0.1626
 1040SOL     OW14581   3.768   0.190   5.488 -0.0663  0.3275  0.2081
 1040SOL    HW114582   3.761   0.143   5.405 -0.0681 -0.7805  0.8289
 1040SOL    HW214583   3.827   0.260   5.461 -1.8819  0.6526 -2.8726
 1041SOL     OW14584   1.211   0.120   3.383  0.1166 -0.1270  0.0378
 1041SOL    HW114585   1.270   0.084   3.449  1.0375  0.3933 -0.5059
 1041SOL    HW214586   1.197   0.207   3.421  1.3293 -0.7624  1.9095
 1042SOL     OW14587   0.153   3.568   8.254 -0.2717  0.1105 -0.2496
 1042SOL    HW114588   0.183   3.538   8.168 -0.8771 -0.5531 -0.2324
 1042SOL    HW214589   0.087   3.503   8.278  0.4088 -0.8139 -0.8715
 1043SOL     OW14590   2.177   3.087   4.300 -0.2907  0.8658 -0.1531
 1043SOL    HW114591   2.217   3.003   4.276  0.1095  0.3861  2.1755
 1043SOL    HW214592   2.173   3.079   4.395 -0.2539 -0.2458 -0.2455
 1044SOL     OW14593   3.678   2.594   6.268  0.1761  0.0751  0.1349
 1044SOL    HW114594   3.765   2.566   6.296  0.2997 -0.5736 -0.8964
 1044SOL    HW214595   3.685   2.690   6.275  2.8941 -0.1998  1.1469
 1045SOL     OW14596   0.326   2.267   8.808  0.6174  0.0681 -0.3892
 1045SOL    HW114597   0.278   2.185   8.801  1.0921 -0.2707  0.2433
 1045SOL    HW214598   0.314   2.281   8.902  0.4824 -0.9714 -0.2517
 1046SOL     OW14599   1.217   2.547  10.253 -0.0447 -0.6525 -0.0871
 1046SOL    HW114600   1.239   2.488  10.181 -0.1570  0.3076 -0.9062
 1046SOL    HW214601   1.212   2.488  10.328 -0.4478  0.6730  0.9269
 1047SOL     OW14602   2.714   1.722  11.941  0.1197 -0.7554  0.2540
 1047SOL    HW114603   2.767   1.642  11.943  1.0434 -0.0855  2.3103
 1047SOL    HW214604   2.678   1.730  11.852 -3.3456  0.0036  1.7617
 1048SOL     OW14605   2.929   4.444   7.931  0.1798 -0.0568  0.5154
 1048SOL    HW114606   2.887   4.406   7.855  3.5397  2.7547 -2.7759
 1048SOL    HW214607   3.022   4.426   7.914  0.5918  3.9875 -1.5175
 1049SOL     OW14608   3.740   2.618  15.056  0.3428  0.2729 -0.6715
 1049SOL    HW114609   3.817   2.670  15.078  1.2738 -0.4459 -2.2242
 1049SOL    HW214610   3.752   2.612  14.961  1.2050  0.5239 -0.5736
 1050SOL     OW14611   4.552   3.063   5.908  0.4909 -0.0655  0.1507
 1050SOL    HW114612   4.640   3.093   5.885  0.1635  2.3248  1.9893
 1050SOL    HW214613   4.565   2.968   5.910  0.5388 -0.0404  1.0118
 1051SOL     OW14614   2.302   0.165   0.215 -0.2695  0.2875  0.1798
 1051SOL    HW114615   2.357   0.089   0.234 -1.0018  0.0995  1.5461
 1051SOL    HW214616   2.222   0.117   0.194  0.4179 -0.1714 -1.3492
 1052SOL     OW14617   4.549   4.570   3.481  0.4195 -0.0959  0.1317
 1052SOL    HW114618   4.587   4.557   3.394  1.8886 -1.0657  0.9098
 1052SOL    HW214619   4.632   4.597   3.521  1.0163 -0.0091 -1.1541
 1053SOL     OW14620   3.452   1.050  14.701  0.1488  0.1401 -0.2375
 1053SOL    HW114621   3.449   1.045  14.797  1.3036  0.6341 -0.1679
 1053SOL    HW214622   3.547   1.051  14.686  0.3057 -1.1802  0.6416
 1054SOL     OW14623   0.660   3.528   9.559 -0.1892  0.2859 -0.3952
 1054SOL    HW114624   0.669   3.510   9.465  0.7737 -1.0529 -0.0473
 1054SOL    HW214625   0.712   3.455   9.592  1.0541  0.3453 -2.1939
 1055SOL     OW14626   1.841   1.314   4.352 -0.1174  0.2711 -0.6780
 1055SOL    HW114627   1.810   1.380   4.290 -0.8624  1.6072  1.1181
 1055SOL    HW214628   1.904   1.366   4.402 -1.2039  1.4793 -0.5762
 1056SOL     OW14629   2.642   0.187   2.003 -0.2687  0.4597  0.1568
 1056SOL    HW114630   2.582   0.127   1.960 -0.5740  0.6440  0.3280
 1056SOL    HW214631   2.610   0.175   2.093  0.8557  1.6596  0.7244
 1057SOL     OW14632   1.954   1.539  13.012  0.3817  0.4572  0.8637
 1057SOL    HW114633   2.048   1.524  13.003  0.1992 -0.7234  1.0023
 1057SOL    HW214634   1.919   1.457  12.978  1.1270  0.6531 -0.4007
 1058SOL     OW14635   1.438   0.216  15.787 -0.6879 -0.1070 -0.1201
 1058SOL    HW114636   1.436   0.278  15.713  2.0740 -0.2782 -0.3294
 1058SOL    HW214637   1.351   0.178  15.775 -1.2875  0.8881  1.1339
 1059SOL     OW14638   0.109   3.019   7.429  0.2633 -0.1509  0.1942
 1059SOL    HW114639   0.164   2.994   7.354 -0.2127 -0.4185 -0.0636
 1059SOL    HW214640   0.168   3.082   7.471 -0.8865 -0.8693  2.8549
 1060SOL     OW14641   2.641   4.611  17.265  0.1149  0.4867  0.4691
 1060SOL    HW114642   2.676   4.553  17.333 -0.8205 -1.0441 -0.3414
 1060SOL    HW214643   2.579   4.557  17.215 -1.0404  2.1330  0.1425
 1061SOL     OW14644   3.468   4.477   5.384 -0.6179 -0.7389 -0.4540
 1061SOL    HW114645   3.430   4.511   5.464 -0.5355 -1.1357 -0.2430
 1061SOL    HW214646   3.418   4.395   5.381 -1.2134 -0.4900  2.6556
 1062SOL     OW14647   3.197   0.016   5.071  0.4518  0.5734  0.3980
 1062SOL    HW114648   3.236   4.676   5.010 -1.1674  0.6215 -0.7205
 1062SOL    HW214649   3.132   0.056   5.013  1.6290  0.5159 -0.9661
 1063SOL     OW14650   0.832   1.261   2.135  0.1357  0.3098 -0.2304
 1063SOL    HW114651   0.887   1.183   2.144  0.9528  0.8473 -0.5196
 1063SOL    HW214652   0.779   1.263   2.215  0.5700  0.9450  0.0427
 1064SOL     OW14653   1.632   2.474   1.729 -0.4433  0.4947  0.0141
 1064SOL    HW114654   1.672   2.556   1.699  0.5433  0.1884  0.4868
 1064SOL    HW214655   1.692   2.453   1.800 -1.2519 -0.2001  0.4798
 1065SOL     OW14656   4.547   3.541   7.330 -0.3632  0.0540 -0.2976
 1065SOL    HW114657   4.495   3.606   7.377 -2.2840 -1.7531  0.0911
 1065SOL    HW214658   4.491   3.521   7.255 -1.0913  2.7624 -0.4702
 1066SOL     OW14659   2.649   3.616  13.587  0.5699 -0.2869  0.4248
 1066SOL    HW114660   2.581   3.620  13.519  1.2997 -0.9125 -0.3380
 1066SOL    HW214661   2.716   3.671  13.548  0.1362 -1.0218 -1.3446
 1067SOL     OW14662   0.915   0.615   4.282 -0.2597  0.0135  0.5479
 1067SOL    HW114663   0.853   0.682   4.255  1.9682  2.2146  0.9218
 1067SOL    HW214664   0.897   0.608   4.376 -0.1914  0.3621  0.5859
 1068SOL     OW14665   3.248   4.535   3.021  0.3339 -0.7257 -0.1489
 1068SOL    HW114666   3.176   4.513   2.962 -0.4912 -0.3181  0.7100
 1068SOL    HW214667   3.282   4.447   3.038  0.2082 -0.7215  0.1214
 1069SOL     OW14668   1.652   1.519   4.193 -0.0986 -0.8444  0.4096
 1069SOL    HW114669   1.563   1.528   4.227 -0.8962 -0.5467 -1.7288
 1069SOL    HW214670   1.687   1.607   4.205 -0.4471 -0.6934  0.3235
 1070SOL     OW14671   2.915   0.903   5.409 -0.1304  0.0049  0.2071
 1070SOL    HW114672   2.848   0.847   5.370 -0.2246  0.5798 -0.4483
 1070SOL    HW214673   2.893   0.885   5.501  0.3856 -0.5188  0.2278
 1071SOL     OW14674   1.033   2.756   6.125 -0.0364  0.1396 -0.8298
 1071SOL    HW114675   1.091   2.769   6.200  0.5200  0.0487 -1.2455
 1071SOL    HW214676   0.963   2.816   6.149 -0.8021 -0.1537 -2.3049
 1072SOL     OW14677   4.378   0.266   9.210 -0.1736 -0.0131  0.5714
 1072SOL    HW114678   4.457   0.319   9.220 -0.4333  0.7170 -1.2454
 1072SOL    HW214679   4.387   0.204   9.282 -1.1296  1.0942  1.6482
 1073SOL     OW14680   2.125   2.381  15.854  0.0807  0.0427  0.3482
 1073SOL    HW114681   2.135   2.422  15.768  0.1317  1.8210  1.2046
 1073SOL    HW214682   2.042   2.333  15.848 -0.4354  0.3290  5.4266
 1074SOL     OW14683   0.454   1.015   4.879  0.1269  0.0479  0.2354
 1074SOL    HW114684   0.453   1.106   4.847 -0.2070 -0.5529 -1.4600
 1074SOL    HW214685   0.546   0.997   4.899  0.3218  0.9108  0.1517
 1075SOL     OW14686   4.089   3.153   4.472 -0.4498 -0.4997  0.3270
 1075SOL    HW114687   4.058   3.063   4.462 -5.1584  1.0685  0.8811
 1075SOL    HW214688   4.044   3.196   4.545  0.4677  0.2081  0.4804
 1076SOL     OW14689   4.449   0.301   4.717  0.3470 -0.2150 -0.2698
 1076SOL    HW114690   4.358   0.303   4.687  0.6318  0.9453 -1.0740
 1076SOL    HW214691   4.489   0.331   4.635 -1.1753  2.1036 -0.1660
 1077SOL     OW14692   2.150   4.486   4.738 -0.0168 -0.1054  0.3185
 1077SOL    HW114693   2.066   4.530   4.732 -0.5652 -1.3088 -0.8339
 1077SOL    HW214694   2.143   4.420   4.669 -2.6351  1.0756 -0.5170
 1078SOL     OW14695   1.791   1.978   7.727 -0.0827  0.1432 -0.4020
 1078SOL    HW114696   1.779   2.010   7.637 -1.9998  1.0185  0.1571
 1078SOL    HW214697   1.785   2.054   7.785  1.4558 -0.8505  1.0776
 1079SOL     OW14698   0.930   4.149  17.002 -0.1693  0.3075  0.2488
 1079SOL    HW114699   0.865   4.091  16.962  1.8986 -2.2823  0.5965
 1079SOL    HW214700   0.992   4.083  17.034  0.5059  0.6243 -0.4193
 1080SOL     OW14701   1.362   0.109   1.636  0.1119 -0.0286 -0.0786
 1080SOL    HW114702   1.450   0.102   1.599  0.1929 -1.2068  0.3359
 1080SOL    HW214703   1.374   0.184   1.694  1.9407 -0.4480  0.0799
 1081SOL     OW14704   1.082   2.126   3.669 -0.2859 -0.0072 -0.0691
 1081SOL    HW114705   1.063   2.215   3.700 -0.2850 -0.0691  0.1063
 1081SOL    HW214706   0.996   2.087   3.658  0.8373 -1.9482 -2.1147
 1082SOL     OW14707   2.976   4.436   1.055  0.2129  0.7750  0.3413
 1082SOL    HW114708   2.980   4.527   1.084 -0.8209  0.7799  0.4764
 1082SOL    HW214709   3.063   4.428   1.016 -0.1065  1.5318 -0.5236
 1083SOL     OW14710   2.969   0.797   1.346  0.6465  0.1820  0.0287
 1083SOL    HW114711   2.947   0.820   1.437  0.4423 -0.9559  0.2738
 1083SOL    HW214712   2.902   0.848   1.300  1.8914  2.9204  1.2251
 1084SOL     OW14713   4.696   1.118   5.807 -0.3841  0.1519  0.0611
 1084SOL    HW114714   0.024   1.091   5.730  0.5847 -1.0627  1.1317
 1084SOL    HW214715   0.026   1.071   5.871  0.5949 -0.3324 -1.0987
 1085SOL     OW14716   2.304   2.670   5.396 -0.0945 -0.0294  0.5260
 1085SOL    HW114717   2.282   2.651   5.487 -0.1551 -0.7832  0.3531
 1085SOL    HW214718   2.290   2.765   5.392  0.9750  0.2243  2.8049
 1086SOL     OW14719   0.024   4.292   5.580 -0.4270 -0.0555 -0.2495
 1086SOL    HW114720   4.697   4.211   5.572  1.5580 -1.0382 -2.4236
 1086SOL    HW214721   0.060   4.285   5.669 -0.8637  2.6040  0.1308
 1087SOL     OW14722   1.348   2.074   6.756 -0.2648 -0.8321  0.1796
 1087SOL    HW114723   1.344   2.083   6.660  3.3966  0.6663  0.1881
 1087SOL    HW214724   1.377   1.983   6.758  0.4650 -0.6480 -1.6803
 1088SOL     OW14725   1.908   3.318   3.316  0.0990 -0.0066 -0.4151
 1088SOL    HW114726   1.998   3.348   3.300  0.5393 -1.6366 -1.0506
 1088SOL    HW214727   1.932   3.226   3.327  1.5154  0.2854 -1.0468
 1089SOL     OW14728   2.268   3.534  11.617  0.0201 -0.1857 -0.4043
 1089SOL    HW114729   2.178   3.505  11.631  0.0658 -1.1095 -1.9328
 1089SOL    HW214730   2.268   3.593  11.541 -0.2573  0.9934  0.5149
 1090SOL     OW14731   2.150   1.261   2.340 -0.0191 -0.0501  0.2915
 1090SOL    HW114732   2.188   1.195   2.398  0.0956  1.5626  2.0207
 1090SOL    HW214733   2.144   1.205   2.262 -3.1379 -0.1980  0.6376
 1091SOL     OW14734   3.970   0.304   6.707  0.1137 -0.3415 -0.5213
 1091SOL    HW114735   3.952   0.319   6.800 -2.6409 -0.6355 -0.9987
 1091SOL    HW214736   4.065   0.312   6.697 -0.0327  0.6329 -1.1875
 1092SOL     OW14737   3.415   2.257  15.280 -0.3744 -0.3818  0.0588
 1092SOL    HW114738   3.330   2.301  15.278 -0.4662 -0.5164  1.0280
 1092SOL    HW214739   3.474   2.332  15.271 -1.9788  0.9552  0.7089
 1093SOL     OW14740   4.069   1.306  10.841 -0.4069 -0.2074 -0.3402
 1093SOL    HW114741   4.119   1.225  10.848 -2.0143 -1.2341 -0.5704
 1093SOL    HW214742   3.985   1.270  10.871 -1.2191  2.0469  0.0932
 1094SOL     OW14743   1.682   0.080   2.597  0.2141 -0.8077  0.0806
 1094SOL    HW114744   1.678   0.073   2.502  0.3206 -0.8830  0.0822
 1094SOL    HW214745   1.610   0.026   2.628 -0.8552  0.5406 -0.0596
 1095SOL     OW14746   2.932   0.111   6.549  0.0410  0.8568  0.3644
 1095SOL    HW114747   3.004   0.102   6.612  0.6117  1.1384 -0.2498
 1095SOL    HW214748   2.931   0.207   6.556 -0.5322  0.7388  1.9227
 1096SOL     OW14749   2.116   1.156   1.517  0.1053 -0.2138  0.0732
 1096SOL    HW114750   2.079   1.229   1.467  1.1349 -1.3070 -2.2969
 1096SOL    HW214751   2.182   1.123   1.456  0.5674  0.8058  0.0132
 1097SOL     OW14752   2.572   2.907   2.339 -0.0504  0.3018  0.3370
 1097SOL    HW114753   2.557   2.964   2.414  0.7398  0.5879  0.2749
 1097SOL    HW214754   2.486   2.873   2.314 -1.8006  1.4312  4.7474
 1098SOL     OW14755   3.351   0.324   4.249 -0.6907 -0.1865  0.3155
 1098SOL    HW114756   3.388   0.411   4.237 -1.0392  0.0450  0.8832
 1098SOL    HW214757   3.318   0.322   4.339 -2.1761 -1.2103 -0.2396
 1099SOL     OW14758   2.415   1.055  16.354 -0.0078  0.1610  0.0139
 1099SOL    HW114759   2.478   1.033  16.423  0.8513  0.2813 -0.7453
 1099SOL    HW214760   2.387   1.135  16.399 -0.2396 -0.0950  0.3322
 1100SOL     OW14761   3.888   0.566   9.766 -0.1974 -0.3755  0.1331
 1100SOL    HW114762   3.949   0.545   9.836 -1.5809 -1.3082  1.0712
 1100SOL    HW214763   3.940   0.554   9.687 -2.2893 -1.1458 -1.1510
 1101SOL     OW14764   4.197   3.822   5.623 -0.3125 -0.6010  0.2405
 1101SOL    HW114765   4.203   3.785   5.711 -0.0537 -2.1074 -0.4031
 1101SOL    HW214766   4.120   3.878   5.633 -0.3065 -0.2556 -1.5886
 1102SOL     OW14767   0.632   0.888  12.014 -0.1414 -0.3049  0.0896
 1102SOL    HW114768   0.646   0.856  12.103  1.1516  0.1577  0.0514
 1102SOL    HW214769   0.715   0.918  11.977 -0.0364  1.6264  1.8795
 1103SOL     OW14770   3.778   2.251   7.984  0.0141 -0.1708  0.4065
 1103SOL    HW114771   3.873   2.251   7.995  0.1827 -2.5925 -1.0893
 1103SOL    HW214772   3.761   2.342   8.010  1.2536  0.8588 -2.4070
 1104SOL     OW14773   4.048   1.148   3.732 -0.6395  0.2160  0.2505
 1104SOL    HW114774   4.090   1.177   3.652 -1.8153  0.1059 -0.4182
 1104SOL    HW214775   3.986   1.217   3.756 -0.0741 -0.3231  3.2642
 1105SOL     OW14776   2.303   2.853   6.925  0.1895  0.3899  0.2158
 1105SOL    HW114777   2.373   2.790   6.910 -0.0930 -0.1168  0.9944
 1105SOL    HW214778   2.315   2.912   6.851 -2.7738  0.1472 -0.4381
 1106SOL     OW14779   0.624   3.721   9.329  0.2485  0.0357  0.2578
 1106SOL    HW114780   0.664   3.635   9.315  2.5171  1.1458 -0.2651
 1106SOL    HW214781   0.695   3.781   9.306  1.6937 -0.4015  3.5894
 1107SOL     OW14782   0.310   1.720   0.472  0.2575 -0.5531  0.1415
 1107SOL    HW114783   0.303   1.650   0.407  0.3790  0.4262 -0.9438
 1107SOL    HW214784   0.220   1.748   0.484  0.4918  0.3471 -0.1863
 1108SOL     OW14785   4.472   1.218  10.883 -0.7298  0.5790 -0.1918
 1108SOL    HW114786   4.443   1.179  10.800 -0.4969  1.9939 -0.9466
 1108SOL    HW214787   4.425   1.172  10.953 -1.8707  0.9580 -0.7096
 1109SOL     OW14788   0.077   3.592   2.140  0.1405  0.0725 -0.5392
 1109SOL    HW114789   0.086   3.576   2.047  0.2319  1.1104 -0.7141
 1109SOL    HW214790   0.104   3.508   2.176  0.7460  0.9633  1.0831
 1110SOL     OW14791   0.998   1.450   8.494 -0.1461 -0.2278 -0.5116
 1110SOL    HW114792   0.960   1.364   8.510 -0.5300  0.3329  1.6001
 1110SOL    HW214793   1.048   1.446   8.576 -2.5059 -0.5883  0.8991
 1111SOL     OW14794   3.119   0.687   9.938 -0.3711 -0.4523 -0.0302
 1111SOL    HW114795   3.024   0.673   9.935 -0.1210 -2.4362  0.7419
 1111SOL    HW214796   3.159   0.600   9.927  0.5563  0.1129 -1.0618
 1112SOL     OW14797   0.648   3.496   6.899  0.2086  0.0410 -0.2129
 1112SOL    HW114798   0.663   3.459   6.811 -1.3212  1.5988 -1.1324
 1112SOL    HW214799   0.656   3.588   6.876 -0.5938  0.7815  2.4742
 1113SOL     OW14800   1.136   0.773   0.009 -0.2847 -0.4431 -0.8308
 1113SOL    HW114801   1.145   0.682   0.038 -2.2360 -0.5698 -0.6077
 1113SOL    HW214802   1.172   0.767  17.614  1.7889  1.4262 -0.0831
 1114SOL     OW14803   4.154   1.144   3.302 -0.0661  0.1770 -0.2048
 1114SOL    HW114804   4.071   1.105   3.275 -0.1314 -0.1514  0.4601
 1114SOL    HW214805   4.168   1.208   3.233  2.0279 -1.1241 -1.0147
 1115SOL     OW14806   0.683   2.557  16.052 -0.2165 -0.3094 -0.0369
 1115SOL    HW114807   0.670   2.620  16.123  0.2073  0.7407 -0.9030
 1115SOL    HW214808   0.635   2.597  15.980 -0.6242  1.8511  1.4399
 1116SOL     OW14809   1.593   3.223   1.850 -0.0353  0.2384  0.0353
 1116SOL    HW114810   1.507   3.224   1.893  0.2198  0.7789  0.5252
 1116SOL    HW214811   1.622   3.312   1.866 -0.4514  0.1705  1.1642
 1117SOL     OW14812   3.911   3.537  12.433  0.4164 -0.2024  0.4475
 1117SOL    HW114813   3.920   3.600  12.361 -0.7638 -0.1168  0.3789
 1117SOL    HW214814   3.822   3.557  12.462 -0.4402 -0.6413 -1.8955
 1118SOL     OW14815   1.134   3.003   7.394  0.4172  0.8974 -0.5477
 1118SOL    HW114816   1.115   2.963   7.309 -1.3388  0.5711 -0.0058
 1118SOL    HW214817   1.227   3.024   7.392 -0.1115  3.3464  0.3787
 1119SOL     OW14818   2.126   2.574   8.494 -0.0716 -0.4969 -0.2515
 1119SOL    HW114819   2.143   2.595   8.402 -0.0347  0.8326  0.0647
 1119SOL    HW214820   2.036   2.605   8.505  0.4653  1.0909 -0.3977
 1120SOL     OW14821   2.875   4.436   4.921  0.2881 -0.1022 -0.2033
 1120SOL    HW114822   2.861   4.363   4.981  0.2365  1.9666  2.2879
 1120SOL    HW214823   2.797   4.487   4.943  1.6739  1.7120  0.4582
 1121SOL     OW14824   0.339   0.403   4.827  0.2115 -0.1914 -0.0136
 1121SOL    HW114825   0.427   0.437   4.841  0.2362  0.2724 -1.2664
 1121SOL    HW214826   0.305   0.474   4.773 -0.3258 -0.2267  0.2861
 1122SOL     OW14827   3.614   3.486  15.052 -0.0554  0.3575  0.3222
 1122SOL    HW114828   3.528   3.524  15.033  0.0104  1.8285  3.0382
 1122SOL    HW214829   3.595   3.392  15.060  3.1225 -0.6735 -4.4159
 1123SOL     OW14830   0.164   4.079   2.914 -0.2036  0.3032  0.2220
 1123SOL    HW114831   0.081   4.128   2.911  0.1745  1.0749  2.0676
 1123SOL    HW214832   0.188   4.075   2.821  0.8567 -0.1110  0.5186
 1124SOL     OW14833   3.503   3.470   3.413 -0.7102  0.2645  0.7708
 1124SOL    HW114834   3.475   3.561   3.409 -1.2247  0.1494  2.1474
 1124SOL    HW214835   3.523   3.474   3.319 -0.6030 -3.1384  0.6658
 1125SOL     OW14836   1.459   0.849   0.728 -0.5444  0.1045  0.3815
 1125SOL    HW114837   1.419   0.830   0.643  0.9238  1.9760 -0.7199
 1125SOL    HW214838   1.519   0.916   0.696 -0.6522 -0.5567 -1.2321
 1126SOL     OW14839   2.265   1.155   2.561 -0.0929  0.3372  0.6806
 1126SOL    HW114840   2.308   1.223   2.614 -0.1235 -1.1918  2.6346
 1126SOL    HW214841   2.329   1.086   2.574  0.0957  0.1115 -1.4877
 1127SOL     OW14842   4.010   0.293   1.342  0.9281  0.2171 -0.1786
 1127SOL    HW114843   3.964   0.238   1.279  0.6438 -0.9586  1.0673
 1127SOL    HW214844   4.017   0.233   1.416  0.7381 -0.5788 -0.8068
 1128SOL     OW14845   3.512   2.799  11.669  0.0668  0.2927 -0.6297
 1128SOL    HW114846   3.517   2.836  11.757  4.2477  1.4567 -1.3801
 1128SOL    HW214847   3.433   2.746  11.681 -0.4722  1.9879  3.4116
 1129SOL     OW14848   0.337   1.136   5.160 -0.5616  0.6585  0.5227
 1129SOL    HW114849   0.327   1.150   5.066 -0.5236 -1.0608  0.2541
 1129SOL    HW214850   0.246   1.117   5.181 -0.4236 -0.1198  0.4105
 1130SOL     OW14851   3.357   1.458   5.116 -0.1277  0.2393  0.1252
 1130SOL    HW114852   3.415   1.452   5.041  1.0434 -0.1862  1.0751
 1130SOL    HW214853   3.362   1.553   5.129  1.0659  0.3720 -1.2642
 1131SOL     OW14854   1.111   2.240  11.467 -0.0452  0.7367  0.1538
 1131SOL    HW114855   1.163   2.255  11.545  2.5866 -0.9843 -1.2654
 1131SOL    HW214856   1.080   2.152  11.488  1.7496 -0.0253 -0.3903
 1132SOL     OW14857   0.963   1.870   4.249 -0.5856  0.7536 -0.1952
 1132SOL    HW114858   0.938   1.901   4.162  0.0369  0.0708 -0.6139
 1132SOL    HW214859   0.879   1.891   4.290 -1.1719 -2.4068  0.2070
 1133SOL     OW14860   3.827   2.068   5.436 -0.3450 -0.1246 -0.2294
 1133SOL    HW114861   3.821   1.997   5.499 -3.1763  0.2701 -0.0625
 1133SOL    HW214862   3.781   2.024   5.363  2.2192 -0.9448 -1.3464
 1134SOL     OW14863   4.064   1.837  14.195  0.3045  0.4844  0.0682
 1134SOL    HW114864   3.990   1.787  14.161  1.4732 -1.6979  0.7064
 1134SOL    HW214865   4.023   1.922  14.209  1.4585  1.0603 -0.0467
 1135SOL     OW14866   1.201   3.857   4.445  0.2541 -0.1871 -0.3383
 1135SOL    HW114867   1.293   3.835   4.432 -0.6778 -4.3541  0.1174
 1135SOL    HW214868   1.202   3.953   4.442 -1.8030 -0.1913 -1.9429
 1136SOL     OW14869   3.928   1.900  10.422  0.1271 -1.2466  0.2630
 1136SOL    HW114870   3.933   1.960  10.496 -3.0231 -1.4281  0.6238
 1136SOL    HW214871   3.979   1.954  10.362  1.0020  0.6381  2.7343
 1137SOL     OW14872   3.117   3.099   3.260  0.5050  0.2872 -0.1726
 1137SOL    HW114873   3.159   3.078   3.177  0.6990  0.4072 -0.1059
 1137SOL    HW214874   3.193   3.080   3.316 -0.0711  0.8441  0.8056
 1138SOL     OW14875   3.867   4.057   8.157 -0.0344 -0.0259  0.4127
 1138SOL    HW114876   3.865   4.046   8.252 -0.7811 -0.9767  0.2912
 1138SOL    HW214877   3.778   4.086   8.141 -0.3374 -1.3299 -0.2054
 1139SOL     OW14878   0.085   3.713   4.488 -0.1711  0.5649  0.0426
 1139SOL    HW114879   0.086   3.623   4.520 -0.6377  0.9468  1.1391
 1139SOL    HW214880   0.063   3.751   4.573  0.8139  0.2370  0.4444
 1140SOL     OW14881   1.165   3.283   5.187  0.0155 -0.2480 -0.0565
 1140SOL    HW114882   1.085   3.261   5.140 -0.3606 -0.4567  0.6787
 1140SOL    HW214883   1.178   3.200   5.233 -0.2281  0.1661  0.7581
 1141SOL     OW14884   0.396   2.694   8.306  0.0180  0.5783 -0.4549
 1141SOL    HW114885   0.359   2.709   8.393  0.3459 -0.9684 -0.0592
 1141SOL    HW214886   0.435   2.609   8.323 -0.1100  0.4398 -0.8517
 1142SOL     OW14887   3.829   4.177  11.687 -0.1053  0.7964  0.0579
 1142SOL    HW114888   3.923   4.189  11.674 -0.0118  0.7837  0.6897
 1142SOL    HW214889   3.807   4.128  11.608 -3.2207  0.5477  1.0533
 1143SOL     OW14890   2.410   2.733  12.501  0.0219 -0.2884 -0.6099
 1143SOL    HW114891   2.339   2.686  12.545  3.2278 -4.3485  0.2291
 1143SOL    HW214892   2.402   2.821  12.537 -0.4769 -0.6223  0.0810
 1144SOL     OW14893   1.417   3.512  16.975  0.6124  0.4158 -0.1266
 1144SOL    HW114894   1.341   3.503  16.918  0.4657 -2.7105  0.5657
 1144SOL    HW214895   1.442   3.421  16.991 -2.4067 -0.1357  1.4760
 1145SOL     OW14896   0.293   0.919   8.556 -0.0263 -0.2723  0.3029
 1145SOL    HW114897   0.288   0.870   8.474 -1.5636  1.8777 -0.8856
 1145SOL    HW214898   0.210   0.965   8.543 -0.2815 -1.5864 -2.5189
 1146SOL     OW14899   2.235   0.157   3.041 -0.4353 -0.2394 -0.6166
 1146SOL    HW114900   2.168   0.090   3.026  1.3431 -2.4326  1.1868
 1146SOL    HW214901   2.301   0.146   2.972 -1.9753  0.0569 -2.1357
 1147SOL     OW14902   1.469   2.595   6.772 -0.2053 -0.1361  0.1674
 1147SOL    HW114903   1.526   2.624   6.701 -1.7273 -0.5912 -1.2113
 1147SOL    HW214904   1.505   2.506   6.771 -0.0769 -0.0846  0.1621
 1148SOL     OW14905   3.122   1.322   6.457 -0.4712  0.4356 -0.3331
 1148SOL    HW114906   3.135   1.400   6.404 -0.2371  0.1649 -0.6721
 1148SOL    HW214907   3.047   1.358   6.504 -0.3352  0.8927 -0.4737
 1149SOL     OW14908   2.912   2.299   1.551  0.0348 -0.3088  0.6881
 1149SOL    HW114909   2.916   2.394   1.562 -1.2656 -0.2148  0.3365
 1149SOL    HW214910   2.985   2.269   1.605  1.2218 -0.3703 -0.9602
 1150SOL     OW14911   2.280   1.245   7.494  0.4841 -0.6977 -0.5482
 1150SOL    HW114912   2.202   1.196   7.470  0.7646 -1.4313  0.0347
 1150SOL    HW214913   2.254   1.296   7.571 -0.1053 -2.2474  0.2670
 1151SOL     OW14914   1.930   4.278   0.625 -0.0584  0.4134  0.5136
 1151SOL    HW114915   1.933   4.311   0.535 -0.2102  1.2397  0.8095
 1151SOL    HW214916   1.856   4.219   0.615  0.7731 -0.6652  0.8078
 1152SOL     OW14917   0.073   1.342   2.992 -0.2657  0.3953 -0.1465
 1152SOL    HW114918   0.165   1.318   2.997 -0.7315 -1.8075 -2.1167
 1152SOL    HW214919   0.027   1.271   3.036 -2.4067  0.9212 -1.5087
 1153SOL     OW14920   2.165   3.462  14.790  0.2144  0.2506  0.5042
 1153SOL    HW114921   2.255   3.462  14.757  0.9867  0.3879  2.6043
 1153SOL    HW214922   2.120   3.499  14.714 -0.4980 -1.2668  0.1934
 1154SOL     OW14923   3.961   1.458   8.347 -0.0468 -0.9539 -0.1494
 1154SOL    HW114924   3.971   1.489   8.257  0.3070  1.5412  0.7321
 1154SOL    HW214925   3.873   1.421   8.354 -1.0171  1.0931 -1.7221
 1155SOL     OW14926   0.696   3.462   6.637 -0.2955  0.8302  0.3815
 1155SOL    HW114927   0.668   3.518   6.566  1.0305  1.6098  0.4827
 1155SOL    HW214928   0.786   3.491   6.650  0.3801 -1.2092  0.2719
 1156SOL     OW14929   3.194   2.354  11.965  0.4013 -0.5441 -0.5404
 1156SOL    HW114930   3.113   2.342  12.015  0.2652 -0.7292 -0.8020
 1156SOL    HW214931   3.222   2.437  12.003  2.6730 -1.3589 -0.4585
 1157SOL     OW14932   1.697   4.032   7.390  0.5835  0.4226  0.4823
 1157SOL    HW114933   1.749   4.111   7.396 -0.0267  0.8162  0.6168
 1157SOL    HW214934   1.651   4.051   7.308 -0.7808  0.1081  1.1729
 1158SOL     OW14935   1.372   1.842   2.038 -0.2814  0.1690 -0.1342
 1158SOL    HW114936   1.441   1.859   1.974 -0.6625 -0.8353 -0.8178
 1158SOL    HW214937   1.417   1.877   2.115  2.4055 -0.4746 -1.3811
 1159SOL     OW14938   0.485   3.638  11.398 -0.6662 -0.8619  0.0934
 1159SOL    HW114939   0.542   3.665  11.325 -0.5717 -0.3009  0.3754
 1159SOL    HW214940   0.535   3.624  11.478 -0.0204  0.8619 -0.0182
 1160SOL     OW14941   3.269   1.652  17.107 -0.4437  0.3054 -0.2088
 1160SOL    HW114942   3.256   1.714  17.036 -2.5343  2.1523  1.7714
 1160SOL    HW214943   3.274   1.709  17.184 -1.2060  0.4369 -0.2573
 1161SOL     OW14944   1.803   0.157  14.658 -0.4935  0.3014 -0.2614
 1161SOL    HW114945   1.810   0.253  14.657 -2.7748  0.4838  2.7993
 1161SOL    HW214946   1.823   0.132  14.568 -2.8545 -1.3272 -0.3339
 1162SOL     OW14947   1.503   4.593  17.568 -0.3446  0.4411  0.0298
 1162SOL    HW114948   1.414   4.625  17.584 -0.3451  0.0022  0.8941
 1162SOL    HW214949   1.503   4.509  17.614 -0.5457  0.4466  0.0422
 1163SOL     OW14950   3.015   3.262   8.845 -0.3583  0.2350  0.1267
 1163SOL    HW114951   3.015   3.342   8.792  1.5726 -0.4629 -0.9200
 1163SOL    HW214952   2.978   3.288   8.929 -0.7477  0.4391 -0.1073
 1164SOL     OW14953   4.170   4.501   8.656  0.4551 -0.4822  0.3366
 1164SOL    HW114954   4.191   4.443   8.729  0.0780  1.5679  2.0849
 1164SOL    HW214955   4.144   4.438   8.589 -1.6062 -0.2282  0.8885
 1165SOL     OW14956   3.879   1.317  13.202  0.0610 -0.1533  0.1412
 1165SOL    HW114957   3.853   1.359  13.120  0.9284  2.3973  1.1708
 1165SOL    HW214958   3.799   1.265  13.210 -1.4419  1.4815 -4.2308
 1166SOL     OW14959   4.271   3.561   6.572  0.3885  0.5044 -0.4624
 1166SOL    HW114960   4.216   3.506   6.628  2.0013 -0.4537  0.1700
 1166SOL    HW214961   4.359   3.527   6.587  0.5429  0.9136 -0.4526
 1167SOL     OW14962   4.656   2.750   1.767 -0.5293 -0.5006 -0.8369
 1167SOL    HW114963   0.024   2.732   1.744  0.7616  0.2874  3.7401
 1167SOL    HW214964   4.623   2.804   1.695  1.0916  1.1418 -0.3419
 1168SOL     OW14965   0.103   1.055   1.905 -0.7627 -0.7480  0.3622
 1168SOL    HW114966   0.083   1.146   1.881 -0.7289 -0.9975 -0.6072
 1168SOL    HW214967   0.189   1.067   1.946 -0.9729 -0.4347  0.7143
 1169SOL     OW14968   2.497   1.236   5.059 -0.2197  0.4667  0.5667
 1169SOL    HW114969   2.500   1.211   4.967 -0.0088 -0.6269  0.8705
 1169SOL    HW214970   2.534   1.164   5.110  1.8403  1.2600  0.1815
 1170SOL     OW14971   3.761   0.810  14.858  0.0700  0.5708  0.1241
 1170SOL    HW114972   3.706   0.736  14.884  1.9092 -1.2209 -1.0704
 1170SOL    HW214973   3.811   0.834  14.935 -1.0501  1.4481  0.5747
 1171SOL     OW14974   0.448   4.339   3.910  0.5173 -0.6151 -0.2425
 1171SOL    HW114975   0.444   4.339   4.006 -0.3956  3.1375 -0.2946
 1171SOL    HW214976   0.435   4.246   3.895 -0.4069 -0.3741 -0.9038
 1172SOL     OW14977   1.093   2.269   7.225 -0.9208 -0.4227  0.3963
 1172SOL    HW114978   1.146   2.314   7.159  0.5118 -0.0713  1.7985
 1172SOL    HW214979   1.078   2.329   7.297 -2.5230 -0.3906  0.0298
 1173SOL     OW14980   1.564   0.057   7.464  0.5143  1.0113  0.1557
 1173SOL    HW114981   1.563   0.066   7.369 -2.0407 -1.2591 -0.0241
 1173SOL    HW214982   1.512   0.132   7.491 -0.7706 -0.1689  0.9758
 1174SOL     OW14983   0.890   1.357   5.513  0.7018  0.3015 -0.6628
 1174SOL    HW114984   0.799   1.350   5.485  1.2254 -0.2303 -2.1989
 1174SOL    HW214985   0.926   1.293   5.451  0.9176 -0.0623 -0.1711
 1175SOL     OW14986   2.767   1.666   7.909 -0.8789  0.3553 -0.1417
 1175SOL    HW114987   2.715   1.667   7.828 -3.2928  1.1803  1.4206
 1175SOL    HW214988   2.842   1.610   7.889  1.4061  1.9917  3.9086
 1176SOL     OW14989   3.860   4.093   3.891  0.4774  0.0051  0.2639
 1176SOL    HW114990   3.875   4.035   3.817 -1.2131  0.4677 -0.4402
 1176SOL    HW214991   3.898   4.171   3.851 -3.9276  0.9409 -2.1340
 1177SOL     OW14992   3.003   1.789   6.638 -0.0005  0.0054 -0.7665
 1177SOL    HW114993   3.004   1.719   6.573  0.2123 -0.1113 -0.6398
 1177SOL    HW214994   2.920   1.828   6.612  0.4326  1.5725  0.1988
 1178SOL     OW14995   4.159   2.288   0.503  0.0372 -0.1576 -0.1723
 1178SOL    HW114996   4.244   2.283   0.460  0.7368  1.0265  1.0529
 1178SOL    HW214997   4.119   2.364   0.460  1.6718  1.3987  1.0346
 1179SOL     OW14998   3.239   2.836  10.103 -0.0811  0.2011  0.6549
 1179SOL    HW114999   3.233   2.829  10.199  0.6938  1.1210  0.7737
 1179SOL    HW215000   3.315   2.894  10.098 -1.0372  1.4878  0.9331
 1180SOL     OW15001   0.628   2.792   3.936  0.3237  0.1016 -0.2451
 1180SOL    HW115002   0.711   2.838   3.950 -0.4355  1.7999 -1.4066
 1180SOL    HW215003   0.636   2.726   4.005  0.8977  0.4714  0.0439
 1181SOL     OW15004   3.212   3.580  11.899  0.0848 -0.2639 -0.2246
 1181SOL    HW115005   3.233   3.607  11.809 -0.5789 -1.9550 -0.8823
 1181SOL    HW215006   3.184   3.663  11.937  2.2665 -0.1420  1.1420
 1182SOL     OW15007   2.760   4.052  12.418 -0.5471 -0.5308  0.5377
 1182SOL    HW115008   2.680   4.075  12.371  0.4658 -0.4674 -1.1441
 1182SOL    HW215009   2.713   3.999  12.482  0.7171 -0.0785  1.8407
 1183SOL     OW15010   2.804   3.195   7.179  0.3248 -0.3556 -0.2375
 1183SOL    HW115011   2.782   3.239   7.097 -0.7321  1.1472  0.8486
 1183SOL    HW215012   2.870   3.255   7.213 -1.1234 -0.0126  1.9058
 1184SOL     OW15013   1.353   2.759  10.097  0.1451  0.0297  0.2037
 1184SOL    HW115014   1.318   2.716  10.176  2.0088 -1.7882  0.0450
 1184SOL    HW215015   1.399   2.836  10.130  1.4939 -1.5269  1.9216
 1185SOL     OW15016   4.189   0.875   3.069  0.2700 -0.1218 -0.1476
 1185SOL    HW115017   4.128   0.925   3.013  0.1367 -0.5625 -0.4029
 1185SOL    HW215018   4.274   0.906   3.038 -1.2169  2.0935 -1.9690
 1186SOL     OW15019   2.517   4.420  17.045 -0.2252 -1.4001  0.0203
 1186SOL    HW115020   2.468   4.439  16.965 -0.6230  0.2745  0.6557
 1186SOL    HW215021   2.447   4.375  17.092 -0.4456 -0.2272  0.8103
 1187SOL     OW15022   0.960   1.833   8.108 -0.1639  0.5389  0.7366
 1187SOL    HW115023   0.912   1.796   8.182 -0.6075  0.6891  0.5195
 1187SOL    HW215024   1.047   1.793   8.110 -0.3420  0.2455  2.5482
 1188SOL     OW15025   1.991   4.044   6.864  0.6355 -0.1398 -0.0407
 1188SOL    HW115026   2.032   3.960   6.846 -1.4259 -1.0442 -0.4757
 1188SOL    HW215027   2.056   4.108   6.834  0.3007  0.2223  0.0025
 1189SOL     OW15028   1.686   1.963   5.119  0.0575 -0.4374 -0.1434
 1189SOL    HW115029   1.777   1.937   5.138  0.1433 -0.4674 -0.6013
 1189SOL    HW215030   1.676   2.055   5.144  0.4147 -0.9508  1.9202
 1190SOL     OW15031   3.296   3.782  10.448 -0.6756  0.2408  0.2248
 1190SOL    HW115032   3.349   3.707  10.478  2.5288  2.6679  0.6623
 1190SOL    HW215033   3.362   3.821  10.391 -0.2928  0.4861  0.8322
 1191SOL     OW15034   3.547   2.481  16.427 -0.0298 -0.5102 -0.5187
 1191SOL    HW115035   3.545   2.451  16.518 -0.8496  0.8817 -0.0804
 1191SOL    HW215036   3.640   2.496  16.411  0.2481  1.8801  3.1870
 1192SOL     OW15037   3.449   1.940   9.331 -0.7376 -0.0053 -0.2197
 1192SOL    HW115038   3.458   2.025   9.289 -1.2225  0.1812  0.0430
 1192SOL    HW215039   3.539   1.910   9.317 -0.7648  0.1596 -0.7273
 1193SOL     OW15040   3.018   3.517   8.750 -0.2629 -0.2426  0.2958
 1193SOL    HW115041   3.029   3.610   8.732  0.2985 -0.6602 -1.6193
 1193SOL    HW215042   3.012   3.513   8.845 -0.8370  2.7199  0.3760
 1194SOL     OW15043   3.314   0.165   0.048 -0.5981 -0.0035  0.2902
 1194SOL    HW115044   3.250   0.135   0.113  0.9956 -3.4788  0.2421
 1194SOL    HW215045   3.254   0.184  17.669 -1.0271 -0.1385  0.6118
 1195SOL     OW15046   3.611   1.485  11.925  0.0237  0.0932  0.1897
 1195SOL    HW115047   3.559   1.405  11.930 -1.3214  0.8628 -1.6532
 1195SOL    HW215048   3.571   1.549  11.867 -1.0885  0.2046  1.0931
 1196SOL     OW15049   0.993   1.283   4.052 -0.5066  0.4401  0.5198
 1196SOL    HW115050   1.015   1.205   4.103 -0.5347  0.0896 -0.0084
 1196SOL    HW215051   0.898   1.286   4.046 -0.5571  0.8115  1.4597
 1197SOL     OW15052   1.475   2.687   7.790  0.0583 -0.1614  0.0437
 1197SOL    HW115053   1.547   2.702   7.852 -0.4173  0.9130  0.3387
 1197SOL    HW215054   1.508   2.614   7.739 -0.9786 -0.7795  0.2498
 1198SOL     OW15055   4.386   3.530   1.858 -0.2451  0.1607 -0.2192
 1198SOL    HW115056   4.394   3.460   1.793 -0.6000 -1.2600  1.2767
 1198SOL    HW215057   4.350   3.596   1.799 -0.7633 -0.3778 -0.5023
 1199SOL     OW15058   3.534   2.275   5.602 -0.3385 -0.4157  0.5444
 1199SOL    HW115059   3.629   2.268   5.595 -0.3065  2.4992 -1.8019
 1199SOL    HW215060   3.514   2.366   5.624  0.3766  0.3023 -1.7376
 1200SOL     OW15061   4.582   3.225   6.205 -0.0218 -0.0765 -0.3206
 1200SOL    HW115062   4.550   3.315   6.193 -0.8998 -0.6645 -2.3298
 1200SOL    HW215063   4.543   3.178   6.132 -1.7722  0.2956  0.3732
 1201SOL     OW15064   1.639   2.483   7.668  0.2675 -0.1817 -0.3765
 1201SOL    HW115065   1.639   2.387   7.659  1.1792 -0.3609  1.4605
 1201SOL    HW215066   1.681   2.514   7.588 -0.1148 -1.3180 -1.0135
 1202SOL     OW15067   1.014   0.761   5.577  0.1517  0.2225 -0.2031
 1202SOL    HW115068   0.920   0.742   5.571 -0.5644  3.4183  0.7740
 1202SOL    HW215069   1.016   0.816   5.656 -0.7031 -0.1456  0.0771
 1203SOL     OW15070   0.887   1.204   7.896  0.1203  0.2673  0.9795
 1203SOL    HW115071   0.804   1.196   7.944  0.5890 -0.4549  1.6794
 1203SOL    HW215072   0.950   1.174   7.962 -0.5633 -1.4488  0.8690
 1204SOL     OW15073   2.227   3.862   3.562  0.0725  0.4356  0.3507
 1204SOL    HW115074   2.257   3.933   3.505  1.2162  0.8279  1.4450
 1204SOL    HW215075   2.279   3.881   3.640  1.3332 -1.0591 -0.1091
 1205SOL     OW15076   2.952   0.530   1.232 -0.5094  0.7109 -0.1263
 1205SOL    HW115077   2.974   0.603   1.289 -2.1330  0.8360  0.3443
 1205SOL    HW215078   2.857   0.533   1.219 -0.5161  1.0609  0.0078
 1206SOL     OW15079   2.443   0.673   3.510  0.1762  0.2073  0.6771
 1206SOL    HW115080   2.530   0.639   3.532  0.4809 -0.3243 -1.3480
 1206SOL    HW215081   2.430   0.614   3.436 -0.1299  0.8035  0.2524
 1207SOL     OW15082   3.857   0.332   4.318 -0.4367  0.9676  0.1636
 1207SOL    HW115083   3.916   0.376   4.257  1.4587  1.3335  2.2248
 1207SOL    HW215084   3.776   0.314   4.270 -0.1550 -1.5485  0.6443
 1208SOL     OW15085   1.134   0.414  15.541 -0.0515 -0.2295  0.1969
 1208SOL    HW115086   1.209   0.356  15.550  1.1015  1.3929  0.9768
 1208SOL    HW215087   1.115   0.451  15.628 -0.8377  0.7845 -0.4045
 1209SOL     OW15088   3.279   0.499  12.149 -0.0100 -0.7893 -0.1300
 1209SOL    HW115089   3.318   0.476  12.233 -0.9997  1.4371  0.9317
 1209SOL    HW215090   3.189   0.466  12.151 -0.5936  0.8301  0.9428
 1210SOL     OW15091   0.984   1.223   7.413  0.2975 -0.0644 -0.0099
 1210SOL    HW115092   0.891   1.224   7.434  0.6475 -0.3059  1.5658
 1210SOL    HW215093   1.026   1.280   7.477  0.6494 -0.1947 -0.1191
 1211SOL     OW15094   1.506   1.671   1.158  0.4461 -0.0503  0.6747
 1211SOL    HW115095   1.522   1.614   1.082 -1.2280 -0.0120  0.3014
 1211SOL    HW215096   1.456   1.745   1.123  0.9248  0.1178  0.3396
 1212SOL     OW15097   1.177   0.642  12.447 -0.2322 -0.1672  0.2260
 1212SOL    HW115098   1.128   0.563  12.466 -2.6977  1.2188 -0.3862
 1212SOL    HW215099   1.240   0.643  12.519 -0.9419  1.0111  0.8181
 1213SOL     OW15100   1.704   4.351  14.105 -0.2306  0.0730 -0.4080
 1213SOL    HW115101   1.671   4.321  14.020  0.3538  0.8564 -0.9151
 1213SOL    HW215102   1.712   4.268  14.153  0.2344 -1.5649 -3.2974
 1214SOL     OW15103   3.469   1.008   2.548  0.1204  0.3672  0.6388
 1214SOL    HW115104   3.382   1.020   2.587 -0.5058  0.2205 -0.7178
 1214SOL    HW215105   3.527   1.062   2.602 -0.2205  1.1249  0.2532
 1215SOL     OW15106   0.160   4.523   5.970  0.6062  0.0439  0.1378
 1215SOL    HW115107   0.238   4.544   5.920  1.7810 -0.8555  1.6194
 1215SOL    HW215108   0.125   4.612   5.973 -1.8229 -0.9234  0.5387
 1216SOL     OW15109   2.345   0.328   8.391  0.2364 -0.1126 -0.1113
 1216SOL    HW115110   2.292   0.327   8.311 -1.9954 -3.7287  1.3832
 1216SOL    HW215111   2.419   0.379   8.360 -0.0373  0.3482 -0.0112
 1217SOL     OW15112   0.015   0.970   8.774 -0.0839  0.3083 -0.4940
 1217SOL    HW115113   4.645   0.989   8.789  0.1045  0.4114  0.5487
 1217SOL    HW215114   0.034   0.896   8.832 -1.0168 -0.0711 -0.6626
 1218SOL     OW15115   1.952   4.621   7.943  0.1711 -0.1356 -0.3809
 1218SOL    HW115116   1.967   4.567   7.865 -0.9390 -0.7113 -0.1999
 1218SOL    HW215117   1.886   4.685   7.916 -0.2271 -0.8099 -1.0199
 1219SOL     OW15118   0.261   0.700  10.747 -0.0196 -0.1861 -0.3264
 1219SOL    HW115119   0.312   0.643  10.689  2.2112  0.3766  1.1092
 1219SOL    HW215120   0.219   0.758  10.683 -1.0166 -1.7266 -1.0774
 1220SOL     OW15121   1.572   4.289   3.179 -0.4278  0.3464 -0.2261
 1220SOL    HW115122   1.564   4.201   3.144  2.3877  0.3023 -0.7321
 1220SOL    HW215123   1.657   4.319   3.147 -0.5152  1.4785  0.5702
 1221SOL     OW15124   2.384   2.039  10.536 -0.2975 -0.5383 -0.4130
 1221SOL    HW115125   2.307   2.073  10.491 -0.5173 -1.7778 -0.9768
 1221SOL    HW215126   2.435   2.120  10.531 -1.2744  0.0623 -0.7347
 1222SOL     OW15127   3.675   3.830   4.044 -0.4071 -0.0535  0.8270
 1222SOL    HW115128   3.645   3.752   3.997  3.0387  0.2336 -1.9011
 1222SOL    HW215129   3.662   3.893   3.973 -1.4262  0.7878  1.7588
 1223SOL     OW15130   0.077   3.832   7.599  0.2493  0.0176  0.6184
 1223SOL    HW115131   0.053   3.923   7.586 -1.0804 -0.8168 -2.7654
 1223SOL    HW215132   0.108   3.822   7.689  1.9834 -1.7741 -0.1708
 1224SOL     OW15133   0.546   2.894  13.807  0.2908  0.3447  0.0093
 1224SOL    HW115134   0.612   2.825  13.807 -1.1123 -0.9852  2.3416
 1224SOL    HW215135   0.601   2.972  13.813  0.0707  0.4201  1.0629
 1225SOL     OW15136   1.607   3.227   3.534  0.1501  0.3536  0.1284
 1225SOL    HW115137   1.600   3.196   3.443 -0.2170 -1.2476  0.7148
 1225SOL    HW215138   1.615   3.144   3.581  0.5159 -0.1489 -0.8200
 1226SOL     OW15139   4.121   3.551   5.273  0.1893 -0.3411 -0.2095
 1226SOL    HW115140   4.082   3.619   5.327  0.5480  0.8204 -1.3966
 1226SOL    HW215141   4.117   3.590   5.185 -0.6287  0.6323  0.2680
 1227SOL     OW15142   0.050   3.231   2.112  0.6044  0.1112 -0.2924
 1227SOL    HW115143   0.077   3.154   2.163  1.0862  0.6615  0.2874
 1227SOL    HW215144   4.693   3.260   2.157 -0.3130  1.3775 -2.7126
 1228SOL     OW15145   2.430   4.185   4.292 -0.3280 -0.2770  0.0012
 1228SOL    HW115146   2.486   4.234   4.353 -1.5097 -0.0130  0.8757
 1228SOL    HW215147   2.354   4.237   4.266  0.3638 -0.1035 -1.6583
 1229SOL     OW15148   2.793   2.543   0.893 -0.2696  0.1702  0.3257
 1229SOL    HW115149   2.735   2.472   0.868  0.6486 -0.6124  0.4179
 1229SOL    HW215150   2.739   2.619   0.873 -0.4388 -0.3873 -1.3025
 1230SOL     OW15151   3.395   0.533  14.561 -0.0030  0.4183 -0.2932
 1230SOL    HW115152   3.383   0.603  14.625  1.5881  0.3591  0.0680
 1230SOL    HW215153   3.425   0.578  14.482 -0.9061 -0.6941 -1.2717
 1231SOL     OW15154   1.096   0.800   6.717 -0.5741  0.4652  0.3160
 1231SOL    HW115155   1.144   0.830   6.794  3.8142 -2.7089 -1.1374
 1231SOL    HW215156   1.164   0.739   6.686  0.5924  2.3697 -0.8744
 1232SOL     OW15157   3.611   2.418   9.288  0.3809  0.1282  0.6116
 1232SOL    HW115158   3.694   2.439   9.247  0.2341  3.4867  2.0366
 1232SOL    HW215159   3.624   2.456   9.375 -0.9961  0.8481  0.5120
 1233SOL     OW15160   3.117   4.058   5.236 -0.3917 -0.1277  0.0067
 1233SOL    HW115161   3.123   4.068   5.142  2.0487  1.3779  0.3301
 1233SOL    HW215162   3.021   4.060   5.241 -0.4014  1.1575 -0.9182
 1234SOL     OW15163   0.986   3.413   7.683 -0.4965  0.2333  0.0100
 1234SOL    HW115164   1.072   3.411   7.725 -0.4882 -0.1242 -0.0256
 1234SOL    HW215165   0.982   3.332   7.633  0.5931  0.6106 -0.6921
 1235SOL     OW15166   1.975   1.768   8.103  0.0507  0.1872 -0.2346
 1235SOL    HW115167   1.909   1.768   8.033  0.1971  0.6088 -0.3726
 1235SOL    HW215168   2.053   1.785   8.049 -1.4754  0.5321 -2.3304
 1236SOL     OW15169   2.356   0.049   1.924 -0.3301  0.3662  0.0396
 1236SOL    HW115170   2.414   0.059   1.848 -0.8680  0.1262 -0.4101
 1236SOL    HW215171   2.291   0.116   1.902  0.0806  1.6286  2.7983
 1237SOL     OW15172   0.269   3.347   6.773  0.5369  0.1209  0.3009
 1237SOL    HW115173   0.297   3.370   6.862  1.7247 -2.8052  0.7107
 1237SOL    HW215174   0.236   3.431   6.742  0.3807 -0.4146 -0.9966
 1238SOL     OW15175   1.792   1.349   3.326  0.2415  0.4835  0.4298
 1238SOL    HW115176   1.769   1.393   3.243 -1.3811  2.5168  1.9538
 1238SOL    HW215177   1.773   1.258   3.305  3.2087 -0.5288  2.1471
 1239SOL     OW15178   3.572   2.119   3.232 -0.5412 -0.1677 -0.0813
 1239SOL    HW115179   3.603   2.209   3.232 -0.9878 -0.0213 -0.9445
 1239SOL    HW215180   3.646   2.072   3.271 -0.9017 -0.8776 -0.2421
 1240SOL     OW15181   0.992   4.657   2.223 -0.1402 -0.3312  0.2890
 1240SOL    HW115182   0.913   4.647   2.275 -0.0241  0.4832  0.6209
 1240SOL    HW215183   1.034   4.722   2.279 -1.8355 -0.2667  1.4903
 1241SOL     OW15184   2.798   4.705  16.422 -0.0807  0.1721  0.3136
 1241SOL    HW115185   2.843   0.066  16.437 -0.2272  0.5183 -1.1350
 1241SOL    HW215186   2.846   4.682  16.343 -1.6837 -1.6173 -0.1415
 1242SOL     OW15187   0.942   0.642   7.602 -0.1890  0.3897  0.1510
 1242SOL    HW115188   0.901   0.689   7.529 -1.0030 -2.8107 -1.4355
 1242SOL    HW215189   1.029   0.631   7.564 -1.3246 -2.4674 -1.5889
 1243SOL     OW15190   3.114   3.700   8.081  0.1235  0.1524  0.4054
 1243SOL    HW115191   3.141   3.608   8.084 -0.4668 -0.0617 -0.8547
 1243SOL    HW215192   3.074   3.707   7.995  0.5017  0.2402  0.2404
 1244SOL     OW15193   0.770   0.973   9.506 -0.8953 -0.3838 -0.3735
 1244SOL    HW115194   0.806   1.037   9.444 -0.1908  0.4464  0.8927
 1244SOL    HW215195   0.829   0.902   9.482 -0.1716  0.5297 -1.3082
 1245SOL     OW15196   4.539   2.422   3.661 -0.2880  0.2162  0.1223
 1245SOL    HW115197   4.567   2.484   3.728 -0.1867 -0.8851  1.1107
 1245SOL    HW215198   4.447   2.410   3.687  0.2669  0.7191  2.3562
 1246SOL     OW15199   4.312   2.967   3.209  0.1560 -0.5424 -0.0574
 1246SOL    HW115200   4.300   2.892   3.151  0.2931  0.2931 -1.1725
 1246SOL    HW215201   4.245   3.022   3.169  2.1299  0.4904 -1.9490
 1247SOL     OW15202   2.470   1.929   6.751 -0.1722  0.1959  0.1158
 1247SOL    HW115203   2.393   1.935   6.807 -1.1247  1.4476 -1.3421
 1247SOL    HW215204   2.491   2.021   6.767 -0.4689  0.1046  1.0204
 1248SOL     OW15205   1.513   4.246   0.274 -0.0238  0.2361  0.1661
 1248SOL    HW115206   1.502   4.155   0.245 -0.7848 -0.1510  1.6502
 1248SOL    HW215207   1.490   4.239   0.367 -2.4208 -2.9384 -0.6633
 1249SOL     OW15208   1.432   1.878   7.417  0.6136  0.4147 -0.5697
 1249SOL    HW115209   1.349   1.831   7.415  1.0894 -0.5157  0.8399
 1249SOL    HW215210   1.425   1.955   7.362 -1.0165  0.1922 -0.6670
 1250SOL     OW15211   2.451   0.606  11.835 -0.1596 -0.1063  0.6991
 1250SOL    HW115212   2.448   0.612  11.740 -0.1825  0.7984  0.7513
 1250SOL    HW215213   2.454   0.512  11.852 -4.1337 -0.2635  0.5388
 1251SOL     OW15214   1.894   0.782   6.448  0.0376  0.3005  0.1278
 1251SOL    HW115215   1.891   0.732   6.366  2.4476  0.1700  0.1011
 1251SOL    HW215216   1.810   0.826   6.446  0.2050  0.5343 -1.9963
 1252SOL     OW15217   1.300   2.885   4.718 -0.4885 -0.0328  0.3399
 1252SOL    HW115218   1.267   2.944   4.785 -0.7194  0.6776 -0.3960
 1252SOL    HW215219   1.394   2.904   4.723 -0.1290 -1.8522  0.6058
 1253SOL     OW15220   2.782   2.214   2.345  0.0650 -0.5594  0.1603
 1253SOL    HW115221   2.737   2.299   2.342  2.6126  0.8512  1.6996
 1253SOL    HW215222   2.843   2.209   2.271  0.3344  4.2483  0.0342
 1254SOL     OW15223   1.530   3.800   4.057 -0.0799 -0.0068  0.0080
 1254SOL    HW115224   1.519   3.705   4.069 -2.2712  0.3935  1.0185
 1254SOL    HW215225   1.596   3.800   3.988 -1.4452  2.1147 -1.2640
 1255SOL     OW15226   1.337   4.546   7.626  0.6884  0.8251 -0.1227
 1255SOL    HW115227   1.425   4.574   7.650  0.3749  0.6005  1.3031
 1255SOL    HW215228   1.286   4.619   7.662  0.4458  0.5219  0.1522
 1256SOL     OW15229   3.068   3.685  12.442  0.2798  0.0978 -0.0454
 1256SOL    HW115230   3.133   3.647  12.383  0.1224 -0.7776  0.3520
 1256SOL    HW215231   2.993   3.688  12.382  0.5370  0.0268 -0.3695
 1257SOL     OW15232   0.074   2.521  11.262 -0.6473  0.1349  0.4586
 1257SOL    HW115233   0.008   2.452  11.252  0.6179 -1.1065  0.6452
 1257SOL    HW215234   0.122   2.506  11.180 -1.5990 -1.4290  0.1799
 1258SOL     OW15235   4.619   0.156  11.254 -0.4586  0.1062 -0.2282
 1258SOL    HW115236   4.710   0.184  11.249 -1.4889  3.6930  1.7347
 1258SOL    HW215237   4.598   0.201  11.336 -0.7573 -0.1982 -0.1348
 1259SOL     OW15238   2.903   0.561  16.249 -0.4819  0.3528 -0.0163
 1259SOL    HW115239   2.848   0.580  16.173 -1.3123 -0.3253  0.4187
 1259SOL    HW215240   2.859   0.494  16.301  0.4518 -0.9715 -0.9546
 1260SOL     OW15241   0.399   1.854  13.777 -0.3480 -0.6193  0.1136
 1260SOL    HW115242   0.490   1.877  13.756 -0.9293  0.4660 -1.2427
 1260SOL    HW215243   0.411   1.876  13.869 -1.1916  0.2423  0.0147
 1261SOL     OW15244   0.916   4.138  13.957 -0.2483  0.1046 -0.0948
 1261SOL    HW115245   0.848   4.163  14.019  0.7332  0.4200  0.8400
 1261SOL    HW215246   0.951   4.220  13.923 -2.0574  1.4706  1.3317
 1262SOL     OW15247   0.815   2.219   5.176 -0.2136 -0.3024  0.3837
 1262SOL    HW115248   0.789   2.128   5.161 -2.7663  0.4355  0.2354
 1262SOL    HW215249   0.755   2.230   5.249  0.1644 -1.8580  0.9391
 1263SOL     OW15250   1.313   1.679   8.491  0.5744  0.0089 -0.3470
 1263SOL    HW115251   1.403   1.706   8.472  0.6923  0.8259  1.2858
 1263SOL    HW215252   1.270   1.762   8.470 -2.0410 -0.8359  1.7343
 1264SOL     OW15253   3.569   0.518   5.414  0.1106 -0.1537 -0.1316
 1264SOL    HW115254   3.579   0.610   5.389 -1.2157  0.1338  0.3729
 1264SOL    HW215255   3.515   0.529   5.493  1.0240 -0.7256  0.5822
 1265SOL     OW15256   1.607   0.263  11.356  0.3026  0.1237  0.2306
 1265SOL    HW115257   1.619   0.302  11.443  0.3071 -0.7699  0.6236
 1265SOL    HW215258   1.679   0.305  11.309  0.9160  1.1853  2.0898
 1266SOL     OW15259   3.044   0.778   0.356  0.3840 -0.1073  0.2289
 1266SOL    HW115260   3.115   0.717   0.337  0.7849  0.4595 -0.0892
 1266SOL    HW215261   3.017   0.819   0.274  1.2733 -0.4592 -0.2265
 1267SOL     OW15262   3.627   3.317   7.928 -0.1606 -0.1844  0.0265
 1267SOL    HW115263   3.614   3.300   7.835  1.6068  0.0827 -0.2713
 1267SOL    HW215264   3.592   3.404   7.949  0.6444  0.4424 -1.2176
 1268SOL     OW15265   0.858   0.859   3.422  0.1954 -0.0531  0.1752
 1268SOL    HW115266   0.923   0.832   3.357 -0.6574 -2.8844  0.4840
 1268SOL    HW215267   0.787   0.902   3.376 -0.0083  1.0760  1.5351
 1269SOL     OW15268   1.743   1.831   6.030 -0.7212  0.0382  0.1021
 1269SOL    HW115269   1.695   1.891   6.087  0.6645  1.9573 -0.7517
 1269SOL    HW215270   1.678   1.808   5.963  1.0060 -0.9836 -1.2398
 1270SOL     OW15271   1.876   3.792  12.991  0.0059 -0.2114  0.0337
 1270SOL    HW115272   1.810   3.767  13.056  0.9069 -1.9388  0.2978
 1270SOL    HW215273   1.945   3.725  13.000 -0.5889 -0.5356  2.3809
 1271SOL     OW15274   2.057   0.053   0.946  0.2266  0.3193  0.1169
 1271SOL    HW115275   2.136   0.023   0.903 -0.2025 -3.0233  1.6630
 1271SOL    HW215276   2.097   0.085   1.027  0.5892 -0.8511  0.4073
 1272SOL     OW15277   3.828   2.643   7.348  0.8606 -0.1481  0.3591
 1272SOL    HW115278   3.897   2.667   7.287 -0.2646 -0.6846 -1.1335
 1272SOL    HW215279   3.753   2.698   7.323  3.1378  1.9690 -1.8529
 1273SOL     OW15280   0.949   1.152   3.192  0.6949 -0.5759  0.1643
 1273SOL    HW115281   0.860   1.186   3.191  0.0574 -2.2941 -0.7169
 1273SOL    HW215282   1.000   1.226   3.158  0.6080 -0.4436  0.3201
 1274SOL     OW15283   0.163   2.238   1.886  0.6528  0.7908 -0.1690
 1274SOL    HW115284   0.151   2.282   1.802  0.2446  0.5199 -0.2527
 1274SOL    HW215285   0.200   2.159   1.847 -2.1457  0.5694 -2.3364
 1275SOL     OW15286   0.197   4.513   3.958  0.3470 -0.2319  0.2207
 1275SOL    HW115287   0.252   4.443   3.993  0.9747  0.8046  1.3056
 1275SOL    HW215288   0.236   4.533   3.873  2.2652  1.1238  1.4084
 1276SOL     OW15289   4.423   1.249   1.851  0.0452  0.4014  0.1159
 1276SOL    HW115290   4.335   1.215   1.832  0.2034  0.3584 -0.5399
 1276SOL    HW215291   4.482   1.176   1.871 -0.6144 -0.2320 -0.2433
 1277SOL     OW15292   3.501   1.594   1.146 -0.2112 -0.0679 -0.2525
 1277SOL    HW115293   3.550   1.619   1.224  1.0254 -2.1689 -0.3543
 1277SOL    HW215294   3.568   1.543   1.100  3.5308  5.2747 -0.7839
 1278SOL     OW15295   2.851   4.605   4.347 -0.3020 -0.2634  0.0991
 1278SOL    HW115296   2.907   4.654   4.407  2.2810 -1.8937 -0.9675
 1278SOL    HW215297   2.782   4.664   4.315 -0.7029  0.7491  2.7931
 1279SOL     OW15298   1.347   4.589   7.349  0.2584  0.0673  0.3722
 1279SOL    HW115299   1.269   4.549   7.310  0.6069 -1.9204  1.7603
 1279SOL    HW215300   1.327   4.565   7.439  2.8507  1.4770  1.3015
 1280SOL     OW15301   1.369   3.113  13.321 -0.8256 -0.2404 -0.0430
 1280SOL    HW115302   1.322   3.166  13.256 -2.4067  0.1087  1.3759
 1280SOL    HW215303   1.410   3.185  13.368  0.3544 -1.3922  0.6922
 1281SOL     OW15304   3.251   4.526   7.203  0.7602 -0.1365  0.0333
 1281SOL    HW115305   3.249   4.591   7.133 -0.2383 -0.4495 -0.2340
 1281SOL    HW215306   3.183   4.462   7.180  0.2710  0.4798 -0.2261
 1282SOL     OW15307   0.429   1.840   2.505 -0.2112 -0.7498 -0.6217
 1282SOL    HW115308   0.420   1.848   2.600  1.8109 -0.3632 -0.4724
 1282SOL    HW215309   0.336   1.839   2.480  0.2116  2.5055 -2.3352
 1283SOL     OW15310   3.640   3.524   9.796  0.4058 -0.0852 -0.0940
 1283SOL    HW115311   3.726   3.484   9.810  0.0462 -0.1306  2.0532
 1283SOL    HW215312   3.587   3.450   9.767 -0.0259  0.4459 -0.6645
 1284SOL     OW15313   3.068   0.649   9.600  0.0202 -0.1626 -0.0027
 1284SOL    HW115314   3.085   0.702   9.678  0.5670 -0.7474  0.2740
 1284SOL    HW215315   3.119   0.569   9.612 -1.6185 -1.2694 -0.3009
 1285SOL     OW15316   1.592   0.257  12.421 -0.5697  0.2201 -0.3173
 1285SOL    HW115317   1.568   0.164  12.418  0.4577  0.0193 -2.3186
 1285SOL    HW215318   1.572   0.288  12.510 -1.3788  1.2683 -0.8725
 1286SOL     OW15319   0.114   0.415   8.385  0.0428  0.0483  0.3088
 1286SOL    HW115320   0.089   0.436   8.475 -0.5488 -0.6245  0.3059
 1286SOL    HW215321   0.042   0.456   8.337 -2.0816 -0.2284  3.2319
 1287SOL     OW15322   3.818   2.679   4.997 -0.3373  0.5083  0.6912
 1287SOL    HW115323   3.773   2.762   5.016  1.7808  1.5754  1.0716
 1287SOL    HW215324   3.872   2.663   5.075 -0.4198 -1.0997  0.4067
 1288SOL     OW15325   0.653   2.782  12.738  0.1933 -0.6741 -0.0347
 1288SOL    HW115326   0.590   2.812  12.804 -0.2360  1.0295 -1.2211
 1288SOL    HW215327   0.674   2.861  12.688 -1.9615 -0.6156 -0.8683
 1289SOL     OW15328   1.125   2.519  13.151  0.5520 -0.3264 -0.0301
 1289SOL    HW115329   1.085   2.489  13.069 -2.7274 -2.1151  2.2077
 1289SOL    HW215330   1.062   2.589  13.168  0.4641 -0.4093 -0.0124
 1290SOL     OW15331   3.382   0.922  17.182 -0.1064  0.6022 -0.6587
 1290SOL    HW115332   3.343   0.942  17.267 -2.5502  1.6585 -2.0124
 1290SOL    HW215333   3.426   1.004  17.159 -0.2600  0.4825 -1.3957
 1291SOL     OW15334   1.756   2.968  16.922 -0.3544  0.0026 -0.4297
 1291SOL    HW115335   1.700   2.897  16.891  0.5886 -0.2040 -1.6699
 1291SOL    HW215336   1.783   3.006  16.838 -1.7504 -1.2275 -1.4464
 1292SOL     OW15337   2.848   2.736  15.072  0.1329  0.2166  0.3037
 1292SOL    HW115338   2.765   2.784  15.067  0.7424  1.0923 -1.5068
 1292SOL    HW215339   2.842   2.690  14.988 -2.9770 -0.4852  0.9141
 1293SOL     OW15340   0.478   3.835  10.506  0.2415  0.4127  0.6934
 1293SOL    HW115341   0.572   3.818  10.512  0.6425  2.2695 -0.4314
 1293SOL    HW215342   0.469   3.925  10.537  1.3051  1.8254 -3.1268
 1294SOL     OW15343   1.523   4.059   5.234 -0.2971  0.4163 -0.2961
 1294SOL    HW115344   1.508   4.139   5.284  2.4484 -0.7053  2.3338
 1294SOL    HW215345   1.453   4.076   5.171 -0.3214  4.7023  0.8766
 1295SOL     OW15346   4.170   4.418   9.855 -0.1274 -0.5520  0.3330
 1295SOL    HW115347   4.148   4.339   9.807  0.6003 -1.5740  1.6919
 1295SOL    HW215348   4.261   4.437   9.831 -1.0323  2.6731 -0.6146
 1296SOL     OW15349   0.442   0.661   9.549 -0.2968 -0.4472  0.4326
 1296SOL    HW115350   0.383   0.679   9.622 -0.9996  2.0382 -0.7651
 1296SOL    HW215351   0.483   0.748   9.543  0.7628 -1.0496 -1.0605
 1297SOL     OW15352   3.284   3.311   5.442  0.0150 -0.1193 -0.0770
 1297SOL    HW115353   3.347   3.336   5.509  1.9457 -1.5424 -1.3629
 1297SOL    HW215354   3.256   3.399   5.415  2.4763 -0.0395 -2.4278
 1298SOL     OW15355   0.608   0.518   4.867  0.0139  0.3926  0.6812
 1298SOL    HW115356   0.664   0.450   4.906 -0.5637 -1.3331 -1.4698
 1298SOL    HW215357   0.672   0.586   4.844 -1.5384  0.7402 -2.7177
 1299SOL     OW15358   1.385   2.265   5.167 -0.1741  0.1454  0.5936
 1299SOL    HW115359   1.292   2.248   5.180 -0.0525 -1.7650 -1.0772
 1299SOL    HW215360   1.414   2.218   5.245 -1.0248  1.6541  1.8113
 1300SOL     OW15361   2.545   1.793   8.797  0.0334 -0.1604 -0.1489
 1300SOL    HW115362   2.567   1.845   8.719 -0.0545  0.8984  0.5416
 1300SOL    HW215363   2.575   1.847   8.870 -1.5084  0.6991 -0.1464
 1301SOL     OW15364   2.488   2.152   6.882  0.3606  0.6903 -0.3205
 1301SOL    HW115365   2.482   2.096   6.960 -2.0400  0.9327 -0.3391
 1301SOL    HW215366   2.456   2.234   6.920 -1.9429  0.0770 -0.9484
 1302SOL     OW15367   1.167   3.372   3.493  0.0125  0.1478 -0.3368
 1302SOL    HW115368   1.104   3.414   3.552  0.5745 -0.0208  0.3859
 1302SOL    HW215369   1.132   3.285   3.473  1.3121 -0.4971  0.2000
 1303SOL     OW15370   3.144   4.344   8.832 -0.1666 -0.0272 -0.4459
 1303SOL    HW115371   3.177   4.330   8.921  0.6552  0.9670 -0.5899
 1303SOL    HW215372   3.185   4.424   8.799 -0.2559  0.3347  0.3213
 1304SOL     OW15373   0.059   0.108   3.533  0.2935 -0.7846  0.1361
 1304SOL    HW115374   0.023   0.167   3.599 -1.0488 -0.5123 -0.8479
 1304SOL    HW215375   0.123   0.171   3.499 -1.1469 -0.0510 -1.1769
 1305SOL     OW15376   0.963   0.485   3.194 -0.6031  0.0209  0.3579
 1305SOL    HW115377   1.021   0.436   3.135 -0.2237  0.2582  0.5462
 1305SOL    HW215378   0.995   0.574   3.189  1.2617 -0.5854  1.7542
 1306SOL     OW15379   3.510   1.432   9.092 -0.3935 -0.5623  0.4523
 1306SOL    HW115380   3.419   1.457   9.108 -0.6299 -2.1440  1.5646
 1306SOL    HW215381   3.506   1.395   9.004 -0.2452 -1.0544  0.6533
 1307SOL     OW15382   1.526   0.023   4.717  0.6532 -0.4729 -0.2896
 1307SOL    HW115383   1.462   0.024   4.788 -1.9428 -0.3080 -2.6364
 1307SOL    HW215384   1.602   4.715   4.767  1.6962  1.4465 -0.6875
 1308SOL     OW15385   4.530   2.225  15.433 -0.5603 -0.2390 -0.3518
 1308SOL    HW115386   4.583   2.299  15.406 -0.1023 -1.0844 -1.7963
 1308SOL    HW215387   4.454   2.272  15.467  0.1534 -1.6823  3.2879
 1309SOL     OW15388   2.661   1.395   8.361  0.5134  0.3185  0.1344
 1309SOL    HW115389   2.639   1.436   8.277 -1.0917 -1.6353 -0.3841
 1309SOL    HW215390   2.648   1.469   8.420 -0.7562  0.7266 -0.6477
 1310SOL     OW15391   2.746   4.064   0.065  0.6290  0.1448 -0.3058
 1310SOL    HW115392   2.792   4.106   0.138  1.4222  0.0184 -0.7310
 1310SOL    HW215393   2.804   3.992   0.039 -1.7811 -1.8429 -0.1894
 1311SOL     OW15394   0.161   3.882  14.567 -0.0789 -0.2260 -0.3344
 1311SOL    HW115395   0.109   3.922  14.638  0.6147 -0.4636  0.3072
 1311SOL    HW215396   0.224   3.833  14.620  1.6131 -0.0113 -2.1629
 1312SOL     OW15397   3.201   0.239  10.550 -0.0035 -0.1588 -0.1335
 1312SOL    HW115398   3.193   0.154  10.594 -0.9000  0.4741  0.9116
 1312SOL    HW215399   3.113   0.253  10.515  0.8642  2.7455 -1.1338
 1313SOL     OW15400   1.360   2.617  13.067 -0.0777  0.1779  0.0467
 1313SOL    HW115401   1.277   2.592  13.107  0.1135  0.0949  0.3932
 1313SOL    HW215402   1.339   2.632  12.975 -0.3139 -0.1985  0.0399
 1314SOL     OW15403   2.718   4.390   3.443  0.5425  0.9486  0.2700
 1314SOL    HW115404   2.811   4.385   3.467  0.6375  1.0172 -0.0948
 1314SOL    HW215405   2.727   4.479   3.408  0.1530  1.3076  1.0772
 1315SOL     OW15406   2.601   2.694   3.045  0.0870 -0.4475  0.0466
 1315SOL    HW115407   2.636   2.606   3.059  0.2307 -0.8250 -2.5834
 1315SOL    HW215408   2.604   2.723   3.136  0.6818 -1.5286  0.3710
 1316SOL     OW15409   1.764   0.577   0.705 -0.3489 -0.6728 -0.5956
 1316SOL    HW115410   1.831   0.514   0.677  0.7101 -0.1067  0.6677
 1316SOL    HW215411   1.686   0.552   0.656 -0.3140  0.4814 -1.2446
 1317SOL     OW15412   3.709   3.176   4.968  0.3288  0.0576 -0.4936
 1317SOL    HW115413   3.728   3.148   4.879 -2.1837 -1.3438 -0.6008
 1317SOL    HW215414   3.718   3.271   4.982  1.9415 -0.1145 -0.3914
 1318SOL     OW15415   1.107   2.491   4.937 -0.3527  0.6678 -0.5305
 1318SOL    HW115416   1.199   2.470   4.920 -0.5085  0.3949 -1.0190
 1318SOL    HW215417   1.082   2.410   4.981 -0.5975  1.4168  0.7354
 1319SOL     OW15418   3.004   2.555   5.531 -0.3343  0.2039 -0.4664
 1319SOL    HW115419   3.002   2.553   5.627 -0.2376 -2.2417 -0.5071
 1319SOL    HW215420   3.076   2.492   5.526  0.2506  0.7871  0.5258
 1320SOL     OW15421   3.060   3.602   7.772  0.0548 -0.2506 -0.1424
 1320SOL    HW115422   2.966   3.586   7.767  0.0071  0.7280 -2.1926
 1320SOL    HW215423   3.082   3.549   7.696  0.5515  1.2336 -1.0425
 1321SOL     OW15424   3.234   2.145   6.783 -0.5860 -0.8024  0.1196
 1321SOL    HW115425   3.218   2.099   6.866 -0.9535  2.2211  1.7303
 1321SOL    HW215426   3.307   2.201   6.810 -1.9072  0.9666  0.0204
 1322SOL     OW15427   0.415   2.640  13.386  0.2846 -0.0079 -0.0351
 1322SOL    HW115428   0.496   2.594  13.407 -0.3823 -0.8521  0.6995
 1322SOL    HW215429   0.449   2.726  13.362 -2.4063  0.3501 -2.6144
 1323SOL     OW15430   2.707   3.172   5.245 -0.0470  0.0335 -0.0764
 1323SOL    HW115431   2.654   3.093   5.255  0.3912 -0.4567 -1.5402
 1323SOL    HW215432   2.635   3.234   5.231 -0.0248  0.4496  1.6943
 1324SOL     OW15433   0.911   2.250   0.557  0.7157  0.0367  0.0957
 1324SOL    HW115434   0.968   2.180   0.525  0.0845 -1.2474  1.7729
 1324SOL    HW215435   0.836   2.193   0.573 -0.1661  1.1798  0.0348
 1325SOL     OW15436   1.617   2.216   7.659 -0.2934 -0.0986 -0.0866
 1325SOL    HW115437   1.660   2.184   7.579 -1.0878  0.3648 -0.6922
 1325SOL    HW215438   1.585   2.141   7.710 -1.2356  1.4071  1.5306
 1326SOL     OW15439   2.827   4.086   4.015  0.1303  0.0180  0.5114
 1326SOL    HW115440   2.836   4.072   4.109 -1.0384 -3.8612  0.0756
 1326SOL    HW215441   2.896   4.024   3.989  0.3041  0.5538 -0.2989
 1327SOL     OW15442   0.835   2.137  15.787  0.5079  0.4418 -0.1371
 1327SOL    HW115443   0.761   2.190  15.818  0.0525  0.2591 -0.9020
 1327SOL    HW215444   0.821   2.049  15.822  0.4551  0.4124 -0.2313
 1328SOL     OW15445   1.240   1.783  14.762 -0.0321 -0.2345  0.5167
 1328SOL    HW115446   1.236   1.719  14.833  2.3058 -0.4389  0.4706
 1328SOL    HW215447   1.168   1.842  14.787 -1.6052 -1.7058 -0.5761
 1329SOL     OW15448   3.173   3.857   7.765 -0.4732  0.4581 -0.2530
 1329SOL    HW115449   3.157   3.762   7.762  0.5897  0.1353  3.6587
 1329SOL    HW215450   3.184   3.868   7.860 -3.4461 -1.4194  0.3375
 1330SOL     OW15451   1.486   2.576   4.822 -0.1049  0.6825 -0.0748
 1330SOL    HW115452   1.492   2.666   4.788  0.4525  0.0302 -1.7075
 1330SOL    HW215453   1.558   2.583   4.885  0.3146  0.6396 -0.5437
 1331SOL     OW15454   2.026   2.888  16.187 -0.0371 -0.1190 -0.1915
 1331SOL    HW115455   2.088   2.818  16.170 -0.2758 -0.8638  1.9700
 1331SOL    HW215456   1.961   2.894  16.117  0.1588 -2.0843 -0.5305
 1332SOL     OW15457   4.689   1.595   4.376  0.3763  0.2549  0.2788
 1332SOL    HW115458   4.612   1.642   4.344 -1.1792 -1.4723  1.5684
 1332SOL    HW215459   4.681   1.506   4.342  1.2430  0.5327 -0.6534
 1333SOL     OW15460   0.698   2.191   0.027 -0.3851 -0.1506  0.1129
 1333SOL    HW115461   0.794   2.187   0.022 -0.2470  1.3729  1.4907
 1333SOL    HW215462   0.680   2.259   0.091 -2.2298 -0.1833 -0.3884
 1334SOL     OW15463   3.603   0.861   6.407 -0.1300  0.0876 -0.1650
 1334SOL    HW115464   3.673   0.926   6.418  0.2868 -0.1128 -1.6866
 1334SOL    HW215465   3.634   0.786   6.457 -1.0982 -0.2884 -0.1235
 1335SOL     OW15466   3.630   0.764   1.942 -0.7144  0.0736  0.2143
 1335SOL    HW115467   3.579   0.683   1.943 -0.7752  0.1397  2.5579
 1335SOL    HW215468   3.636   0.778   1.848 -0.5435 -1.3793  0.0182
 1336SOL     OW15469   0.150   1.276  15.264  0.1125 -0.2044 -0.2539
 1336SOL    HW115470   0.168   1.309  15.176  1.6742 -0.1376  0.0808
 1336SOL    HW215471   0.204   1.331  15.321  0.7168 -1.4875  0.4368
 1337SOL     OW15472   1.646   0.236   7.168 -0.5308  0.2995  0.3482
 1337SOL    HW115473   1.696   0.199   7.096 -1.0415  0.6940 -0.2064
 1337SOL    HW215474   1.564   0.187   7.175 -0.2269 -0.1788  0.5785
 1338SOL     OW15475   3.627   0.555   2.335  0.3407 -0.0771  0.6403
 1338SOL    HW115476   3.690   0.617   2.300 -0.2536  0.8724  1.2499
 1338SOL    HW215477   3.548   0.591   2.294  1.4856  1.7405  0.0393
 1339SOL     OW15478   1.740   2.598   9.682  0.1455 -0.2951  0.1853
 1339SOL    HW115479   1.741   2.548   9.763  1.9357 -2.8934 -1.4146
 1339SOL    HW215480   1.824   2.567   9.647 -0.0985  0.9412 -1.4702
 1340SOL     OW15481   3.724   0.199   8.706  0.4739  0.2412 -0.3800
 1340SOL    HW115482   3.815   0.212   8.731  0.0981 -0.4459  1.3419
 1340SOL    HW215483   3.700   0.120   8.754  1.9667 -0.0612 -0.1518
 1341SOL     OW15484   0.273   3.809   8.761 -0.4246  0.0761 -0.1716
 1341SOL    HW115485   0.188   3.772   8.737 -0.5437  0.2853 -0.0683
 1341SOL    HW215486   0.283   3.768   8.847  0.5828 -1.0553 -0.8402
 1342SOL     OW15487   0.210   3.152  16.404  0.5601  0.4483 -0.3671
 1342SOL    HW115488   0.139   3.144  16.467  0.2515 -0.3479 -0.8186
 1342SOL    HW215489   0.282   3.185  16.457  0.4570  0.8348 -0.4646
 1343SOL     OW15490   1.414   0.589   6.219  0.4180  0.2575  0.4020
 1343SOL    HW115491   1.356   0.515   6.203  2.4065 -1.5017  1.4159
 1343SOL    HW215492   1.383   0.619   6.304 -0.9820  1.2619 -0.4549
 1344SOL     OW15493   0.171   2.026   3.786 -0.1910 -0.5780 -0.2635
 1344SOL    HW115494   0.110   2.009   3.857 -0.0604 -0.2466 -0.0681
 1344SOL    HW215495   0.261   2.038   3.816 -0.8675  0.5911  1.3144
 1345SOL     OW15496   3.037   3.843   5.931 -0.2226  0.0495  0.6367
 1345SOL    HW115497   3.086   3.864   5.852 -0.9483  0.9293  0.4277
 1345SOL    HW215498   3.012   3.752   5.912 -0.6122  0.4608 -0.8395
 1346SOL     OW15499   0.582   2.578   4.130 -0.4630 -0.3950 -0.4133
 1346SOL    HW115500   0.659   2.590   4.186 -0.6632 -0.1672 -0.1858
 1346SOL    HW215501   0.533   2.507   4.172 -0.4799 -0.2755 -0.2310
 1347SOL     OW15502   2.406   0.108  14.352  0.3113  0.5480  0.0104
 1347SOL    HW115503   2.426   0.135  14.441 -1.0284  1.6658 -0.0321
 1347SOL    HW215504   2.490   0.117  14.308  0.3247 -3.2843 -0.7541
 1348SOL     OW15505   3.551   3.794   6.388  0.1964 -0.4839  0.3276
 1348SOL    HW115506   3.624   3.850   6.417 -1.3201  1.5978  0.1532
 1348SOL    HW215507   3.543   3.802   6.293 -1.5194 -1.7179  0.3858
 1349SOL     OW15508   1.634   2.556   0.605 -0.3579  0.3116  0.2420
 1349SOL    HW115509   1.706   2.595   0.555  1.3972 -3.7597 -0.4278
 1349SOL    HW215510   1.591   2.635   0.635  0.9598  0.6840  1.1658
 1350SOL     OW15511   3.605   4.456  15.973  0.0324 -0.1859 -0.0919
 1350SOL    HW115512   3.631   4.490  16.059  0.0807  1.3584 -0.7205
 1350SOL    HW215513   3.629   4.365  15.994 -3.7561 -0.9662  0.8510
 1351SOL     OW15514   1.535   2.495   5.162 -0.5381  0.4909 -0.1022
 1351SOL    HW115515   1.513   2.501   5.255 -0.6686 -0.2014 -0.0893
 1351SOL    HW215516   1.479   2.423   5.133 -1.5905  1.3386 -0.1517
 1352SOL     OW15517   3.691   0.259   9.058  0.1268 -0.6294  0.5842
 1352SOL    HW115518   3.623   0.270   8.992 -0.0350  0.3540  0.9138
 1352SOL    HW215519   3.642   0.216   9.128  0.4854 -2.8324 -0.5111
 1353SOL     OW15520   0.968   3.819   0.429 -0.4538 -0.0043  0.1966
 1353SOL    HW115521   0.902   3.794   0.365  0.6401  0.7608 -1.2282
 1353SOL    HW215522   0.940   3.907   0.453  0.0223 -0.0851  1.0375
 1354SOL     OW15523   2.816   2.054   7.781 -0.1249 -0.0519  0.1352
 1354SOL    HW115524   2.775   2.095   7.857 -1.0668 -0.3656 -0.1934
 1354SOL    HW215525   2.898   2.103   7.783 -0.1613 -0.0402  1.2962
 1355SOL     OW15526   0.608   2.976  15.183  0.3130  0.0705  0.1832
 1355SOL    HW115527   0.601   2.998  15.276 -1.7819  1.8736 -0.3966
 1355SOL    HW215528   0.687   3.025  15.160 -0.3967  0.9193 -0.4466
 1356SOL     OW15529   3.019   4.203   1.367  0.5052 -0.3168 -0.0492
 1356SOL    HW115530   2.990   4.222   1.456 -0.0396 -1.7893  0.0834
 1356SOL    HW215531   3.006   4.109   1.377 -3.0290  0.1649 -0.2491
 1357SOL     OW15532   2.381   3.031   6.736  0.4356  0.3574  0.5949
 1357SOL    HW115533   2.445   3.101   6.751 -0.7792  1.3770  0.9689
 1357SOL    HW215534   2.318   3.068   6.675  0.6822 -1.5511 -0.8132
 1358SOL     OW15535   1.610   1.848  15.802 -0.6758  0.0504 -0.0335
 1358SOL    HW115536   1.666   1.900  15.860 -2.6171  1.6415  0.4469
 1358SOL    HW215537   1.529   1.898  15.789 -0.8449  0.4250  2.3235
 1359SOL     OW15538   3.714   0.837   7.696  0.3967  0.2616  0.1094
 1359SOL    HW115539   3.710   0.795   7.611  1.2570 -0.7716  0.5756
 1359SOL    HW215540   3.700   0.761   7.753  0.6456 -1.6271 -2.3669
 1360SOL     OW15541   1.372   3.463  12.796  0.0369 -0.0180  0.1387
 1360SOL    HW115542   1.388   3.497  12.708 -1.6598 -1.6111 -0.7796
 1360SOL    HW215543   1.439   3.504  12.850  1.4799 -2.5200  0.2604
 1361SOL     OW15544   1.044   1.619   3.164  0.1796 -0.1331  0.7298
 1361SOL    HW115545   1.120   1.668   3.134 -1.2624  0.8869 -1.2729
 1361SOL    HW215546   0.980   1.657   3.103 -1.2564 -0.5366  1.9725
 1362SOL     OW15547   3.503   4.085  15.360 -0.2437  0.0631 -0.8894
 1362SOL    HW115548   3.597   4.099  15.343  0.2591 -1.6511  0.3818
 1362SOL    HW215549   3.479   4.174  15.386  0.3694 -0.6934  2.3282
 1363SOL     OW15550   3.460   0.539   0.571 -1.1252  0.3852 -0.1003
 1363SOL    HW115551   3.453   0.545   0.666 -1.3263  2.5459 -0.2404
 1363SOL    HW215552   3.509   0.615   0.540  1.2104 -0.2804  1.9747
 1364SOL     OW15553   3.524   1.468   3.177  0.1972  0.0240 -0.2577
 1364SOL    HW115554   3.480   1.451   3.094 -0.2565 -1.8348  0.3657
 1364SOL    HW215555   3.542   1.384   3.219  2.0228  0.1119 -0.8529
 1365SOL     OW15556   1.362   2.608   1.562  0.2657 -0.1102  0.4521
 1365SOL    HW115557   1.381   2.686   1.616  0.7205 -0.2291  0.4663
 1365SOL    HW215558   1.298   2.572   1.624 -1.2228 -2.4337 -2.4704
 1366SOL     OW15559   0.068   4.213  14.589 -0.5418 -0.4274 -0.3930
 1366SOL    HW115560   0.060   4.248  14.500 -1.2896 -0.8685 -0.4974
 1366SOL    HW215561   0.162   4.194  14.586 -0.9587 -3.0144  2.4388
 1367SOL     OW15562   2.897   4.149   0.253 -0.2718  0.3422 -0.2089
 1367SOL    HW115563   2.969   4.181   0.199  0.9379  1.3046  1.9421
 1367SOL    HW215564   2.935   4.117   0.335 -1.0228  2.0926  0.8254
 1368SOL     OW15565   4.421   3.869   7.739  0.3039 -0.0394  0.1055
 1368SOL    HW115566   4.356   3.860   7.809 -0.3080 -1.3190 -0.6182
 1368SOL    HW215567   4.455   3.953   7.768  1.6120  0.1360 -1.9203
 1369SOL     OW15568   3.589   2.357   6.176  0.0090  0.0871  0.4072
 1369SOL    HW115569   3.675   2.332   6.143  0.9547  1.2790  1.9698
 1369SOL    HW215570   3.603   2.439   6.223 -1.9107  1.5569 -1.6043
 1370SOL     OW15571   1.597   2.503   2.583  0.0319  0.1676  0.2364
 1370SOL    HW115572   1.502   2.507   2.598 -0.0450 -2.2471  0.2880
 1370SOL    HW215573   1.627   2.501   2.673  0.0402  3.7156  0.3234
 1371SOL     OW15574   3.755   3.506   5.584 -0.2991 -0.1563  0.3223
 1371SOL    HW115575   3.829   3.543   5.632 -0.9178  0.0009  1.1528
 1371SOL    HW215576   3.772   3.412   5.586  1.8056  0.1968 -0.8260
 1372SOL     OW15577   4.005   0.690  15.021  0.2926 -0.1762 -0.0167
 1372SOL    HW115578   4.073   0.631  15.052 -2.4632 -1.3581  3.7870
 1372SOL    HW215579   3.950   0.634  14.966  2.1343  0.2968 -2.3139
 1373SOL     OW15580   1.074   3.073   4.563 -0.0430 -0.2621 -0.2311
 1373SOL    HW115581   1.019   3.005   4.602  1.8606 -1.8935 -0.3832
 1373SOL    HW215582   1.122   3.010   4.509 -1.5198 -0.6359 -1.0921
 1374SOL     OW15583   1.540   3.125   3.888  0.2082 -0.1435  0.6348
 1374SOL    HW115584   1.589   3.204   3.909 -2.4766  1.3164  1.5205
 1374SOL    HW215585   1.600   3.091   3.822  1.0987  0.1377  1.3129
 1375SOL     OW15586   1.709   0.518   6.637  0.1078 -0.3094  0.6054
 1375SOL    HW115587   1.718   0.439   6.583  0.2968 -0.4580  0.8546
 1375SOL    HW215588   1.796   0.557   6.627 -1.5919  3.0502 -0.9788
 1376SOL     OW15589   4.173   3.633   8.963  0.1270  0.4504  0.6038
 1376SOL    HW115590   4.238   3.603   9.027  0.2617  0.6107  0.5441
 1376SOL    HW215591   4.146   3.719   8.996 -0.3386  0.8849 -0.9097
 1377SOL     OW15592   1.672   3.382   0.141  0.8655 -0.4753  0.0833
 1377SOL    HW115593   1.715   3.404   0.058 -0.3772  2.2115  0.1557
 1377SOL    HW215594   1.604   3.321   0.113  0.5804 -0.5154  0.8840
 1378SOL     OW15595   0.911   4.552   6.800  0.2535  0.9425 -0.8860
 1378SOL    HW115596   0.961   4.509   6.730  1.8950 -0.5678  1.2228
 1378SOL    HW215597   0.986   4.553   6.860 -0.4020  0.8825 -0.0706
 1379SOL     OW15598   0.167   4.012   2.616  0.5958 -0.0587  0.0066
 1379SOL    HW115599   0.162   3.992   2.523  0.0621 -1.3934  0.3212
 1379SOL    HW215600   0.109   3.947   2.655  2.9547 -0.9793  1.9804
 1380SOL     OW15601   2.919   3.805   2.287 -0.0183 -0.9022  0.6854
 1380SOL    HW115602   2.843   3.829   2.339 -0.7214  1.1307 -1.2750
 1380SOL    HW215603   2.870   3.792   2.205  1.7549 -1.6658 -0.2549
 1381SOL     OW15604   3.765   2.760   2.785  0.3946 -0.2827 -0.0335
 1381SOL    HW115605   3.815   2.793   2.859  1.3201 -0.5699 -0.5216
 1381SOL    HW215606   3.696   2.708   2.825  0.3379  1.1947  1.7621
 1382SOL     OW15607   3.190   4.241  14.525 -0.3578  0.1734 -0.1111
 1382SOL    HW115608   3.187   4.248  14.620 -2.3342  2.2622 -0.3392
 1382SOL    HW215609   3.148   4.322  14.497  1.6005  0.4108 -2.3649
 1383SOL     OW15610   3.339   2.270  14.484  0.9275 -0.0760  0.1930
 1383SOL    HW115611   3.366   2.338  14.545  1.2829  0.3316 -0.4203
 1383SOL    HW215612   3.371   2.192  14.530 -0.0719 -0.1349  0.7754
 1384SOL     OW15613   0.908   1.551   9.415  0.2424 -0.1464  0.5896
 1384SOL    HW115614   0.848   1.495   9.465 -1.9611  2.1251  0.4825
 1384SOL    HW215615   0.872   1.634   9.446 -0.3161  0.0163 -0.4825
 1385SOL     OW15616   4.007   2.889   0.389 -0.4591 -0.2265  0.2523
 1385SOL    HW115617   3.914   2.908   0.404 -0.2846  0.0813  0.9348
 1385SOL    HW215618   4.056   2.946   0.449 -0.1227 -0.4554  0.1954
 1386SOL     OW15619   3.931   4.305   5.296 -0.1932 -1.0476 -1.0616
 1386SOL    HW115620   3.921   4.285   5.389  1.8244 -0.1094 -0.6495
 1386SOL    HW215621   3.864   4.372   5.282  3.1058  2.2629 -1.0697
 1387SOL     OW15622   3.798   1.105   9.166 -0.2855  0.7099 -0.5678
 1387SOL    HW115623   3.783   1.188   9.211  0.3044  1.5419 -1.9390
 1387SOL    HW215624   3.892   1.116   9.152 -0.2096 -1.0578 -1.4311
 1388SOL     OW15625   0.351   0.392   6.995  0.2413 -0.0908  0.2166
 1388SOL    HW115626   0.421   0.405   7.059 -0.9028  0.5185  1.3455
 1388SOL    HW215627   0.364   0.297   6.988 -0.7458 -0.1617 -0.5942
 1389SOL     OW15628   0.193   4.033  11.319  0.3435 -1.3629 -0.1872
 1389SOL    HW115629   0.284   4.029  11.290  0.2360 -1.5827 -0.4917
 1389SOL    HW215630   0.185   3.947  11.362 -3.7287  0.2679  2.2708
 1390SOL     OW15631   1.666   0.526   6.929 -0.7179  0.8195  0.2172
 1390SOL    HW115632   1.649   0.515   6.835  0.8701 -0.6321  0.0917
 1390SOL    HW215633   1.644   0.440   6.966 -0.4972 -0.0596 -1.6851
 1391SOL     OW15634   1.925   1.238   2.652  0.1052 -0.6278  0.0248
 1391SOL    HW115635   1.921   1.268   2.561 -1.5118  0.9722  0.6290
 1391SOL    HW215636   1.940   1.145   2.635  0.2560 -0.3786 -1.2724
 1392SOL     OW15637   4.059   1.696   7.773  0.0652  0.1306  0.4816
 1392SOL    HW115638   4.070   1.734   7.685 -1.4666 -0.0235  0.2313
 1392SOL    HW215639   4.007   1.762   7.818  1.4913  1.5467  0.0697
 1393SOL     OW15640   3.561   1.972   4.778 -0.0101 -0.3696 -0.2127
 1393SOL    HW115641   3.557   1.918   4.856 -3.6004  1.7403  1.0619
 1393SOL    HW215642   3.646   1.944   4.744  0.3277 -2.6180  2.4763
 1394SOL     OW15643   3.260   3.606   3.875 -0.4351  0.2033 -0.5737
 1394SOL    HW115644   3.239   3.666   3.804 -0.9970  1.1276  0.3779
 1394SOL    HW215645   3.222   3.653   3.949 -2.6150 -0.2932 -1.3806
 1395SOL     OW15646   3.625   1.269   4.558 -0.1286 -0.5619 -0.0079
 1395SOL    HW115647   3.681   1.330   4.511  0.8247 -3.5368 -2.7561
 1395SOL    HW215648   3.546   1.281   4.506  0.0435 -0.2335 -0.1889
 1396SOL     OW15649   3.309   4.240   2.443  0.2410 -0.4999 -0.1058
 1396SOL    HW115650   3.296   4.322   2.491 -1.3273 -0.4275 -0.6457
 1396SOL    HW215651   3.403   4.221   2.448  0.0928 -1.1497  0.1872
 1397SOL     OW15652   1.611   1.375   5.524  0.2500 -0.2282  1.1183
 1397SOL    HW115653   1.685   1.317   5.542  0.8399 -0.2062 -1.2343
 1397SOL    HW215654   1.560   1.378   5.604 -0.1212 -1.4905  0.9292
 1398SOL     OW15655   4.166   1.857  12.151  0.3344  0.1415 -1.1067
 1398SOL    HW115656   4.194   1.766  12.159  0.8053  0.4378  0.6405
 1398SOL    HW215657   4.252   1.895  12.172 -0.6339  2.0229 -0.5161
 1399SOL     OW15658   2.582   4.129   8.190 -0.4216  0.1430  0.1501
 1399SOL    HW115659   2.494   4.113   8.156 -0.7031 -0.1630  1.0296
 1399SOL    HW215660   2.629   4.050   8.163 -2.4998 -1.0435  0.0344
 1400SOL     OW15661   0.304   0.130   5.081  0.0098 -0.3782 -0.9096
 1400SOL    HW115662   0.220   0.088   5.065  0.4250 -1.1517 -1.0779
 1400SOL    HW215663   0.333   0.084   5.160 -0.1397 -1.5179 -1.5143
 1401SOL     OW15664   0.508   4.535   2.213 -0.1713 -0.1826 -0.0446
 1401SOL    HW115665   0.442   4.566   2.151 -0.7417  0.5717  0.9420
 1401SOL    HW215666   0.451   4.518   2.289  0.3494 -1.1819  0.1249
 1402SOL     OW15667   1.482   4.624  10.801  0.2394 -0.1676  0.3254
 1402SOL    HW115668   1.562   4.572  10.799 -1.0822 -2.2507  0.6197
 1402SOL    HW215669   1.506   4.690  10.737 -0.8708 -1.1491 -1.1124
 1403SOL     OW15670   1.737   0.104   5.853  0.0866  0.1034 -0.0768
 1403SOL    HW115671   1.661   0.160   5.834 -0.9099 -0.6151  1.8159
 1403SOL    HW215672   1.722   0.092   5.946  2.7837 -1.9831  0.0856
 1404SOL     OW15673   3.604   4.333   7.371  0.1433  0.7951 -0.0607
 1404SOL    HW115674   3.609   4.277   7.294  0.6508  2.0481 -0.9335
 1404SOL    HW215675   3.587   4.413   7.322  0.5555  1.8098  1.4369
 1405SOL     OW15676   1.580   0.896  13.434  0.6070  0.1014 -0.4695
 1405SOL    HW115677   1.503   0.953  13.442  0.2969 -0.1306 -1.6718
 1405SOL    HW215678   1.548   0.822  13.383  1.2678 -0.2935 -0.3028
 1406SOL     OW15679   2.804   1.820  10.883  0.2305  0.1397 -0.2815
 1406SOL    HW115680   2.895   1.832  10.855  0.4615  0.9944  0.8537
 1406SOL    HW215681   2.791   1.726  10.892  0.7005  0.4430  3.5559
 1407SOL     OW15682   2.460   4.309   3.277 -0.2322  0.2309 -0.0409
 1407SOL    HW115683   2.543   4.327   3.321  0.1061  1.5710 -1.1864
 1407SOL    HW215684   2.417   4.256   3.344 -0.7899  0.9475  0.1700
 1408SOL     OW15685   2.070   2.148  16.845  0.3632  0.1309  0.1110
 1408SOL    HW115686   2.055   2.185  16.932 -0.0576  0.6712 -0.1934
 1408SOL    HW215687   1.984   2.152  16.804  0.5002 -0.0539 -0.2028
 1409SOL     OW15688   0.920   0.385   4.666  0.0755 -0.2236 -0.0325
 1409SOL    HW115689   0.871   0.339   4.598 -2.1879  2.3482 -0.1449
 1409SOL    HW215690   0.887   0.353   4.750  1.2547  0.6395  0.7711
 1410SOL     OW15691   0.469   2.551   7.443  0.6279 -0.0007 -0.0270
 1410SOL    HW115692   0.430   2.467   7.467  2.1010  0.1732  2.9250
 1410SOL    HW215693   0.458   2.603   7.523  2.4680 -0.1902  0.3363
 1411SOL     OW15694   0.913   2.178   4.122 -0.1391 -0.2382 -0.0847
 1411SOL    HW115695   0.851   2.224   4.066  0.4786  0.8881  0.1437
 1411SOL    HW215696   0.933   2.097   4.076  1.3669 -0.3453  0.7546
 1412SOL     OW15697   0.869   4.705  16.122  0.0572 -0.4369 -0.2300
 1412SOL    HW115698   0.921   0.049  16.076 -0.7169 -0.5787 -1.3276
 1412SOL    HW215699   0.782   4.718  16.084  0.2089  0.8479 -0.1380
 1413SOL     OW15700   1.761   2.533   4.985 -0.4547  0.2767  0.0427
 1413SOL    HW115701   1.674   2.525   5.023 -1.1361  2.9623 -0.9752
 1413SOL    HW215702   1.820   2.540   5.060  0.6090  2.2613 -0.9665
 1414SOL     OW15703   0.015   0.798   5.213 -0.0159  0.4671 -0.2983
 1414SOL    HW115704   4.667   0.788   5.277  2.1612 -2.9974  1.5421
 1414SOL    HW215705   0.061   0.715   5.222 -1.2762 -0.1485  0.4129
 1415SOL     OW15706   0.442   4.102   7.588 -0.2528 -0.1071 -0.0726
 1415SOL    HW115707   0.364   4.087   7.642 -0.5711  0.6240 -0.3434
 1415SOL    HW215708   0.490   4.023   7.615 -0.4364  0.6454  2.5008
 1416SOL     OW15709   2.993   1.607   3.502  0.6107  0.5622 -0.0431
 1416SOL    HW115710   2.982   1.695   3.467  2.1614 -0.1669 -2.3456
 1416SOL    HW215711   2.913   1.591   3.552 -0.0828  0.5468 -1.1575
 1417SOL     OW15712   2.960   1.646   3.135 -0.1596  0.1984 -0.2134
 1417SOL    HW115713   2.881   1.594   3.149  1.1288 -2.0497 -1.2055
 1417SOL    HW215714   2.963   1.719   3.197 -4.9574 -0.1166  0.3887
 1418SOL     OW15715   2.847   2.297   5.472  0.2519 -0.3893  0.2161
 1418SOL    HW115716   2.867   2.333   5.558 -0.9195  0.2735  0.2134
 1418SOL    HW215717   2.779   2.359   5.445  0.3156 -0.4449 -0.0666
 1419SOL     OW15718   0.260   3.470   0.906  0.3973 -0.0818 -0.4221
 1419SOL    HW115719   0.197   3.540   0.923  0.9477  0.0813  0.9654
 1419SOL    HW215720   0.222   3.402   0.963 -1.7808  0.8209 -0.7984
 1420SOL     OW15721   0.472   3.698   1.484 -0.1891  0.9747  0.2100
 1420SOL    HW115722   0.530   3.656   1.421 -1.0147 -1.4255  1.0575
 1420SOL    HW215723   0.519   3.778   1.507  0.6130  0.4951  0.2601
 1421SOL     OW15724   3.912   0.845   6.614  0.3927  0.1084 -0.5815
 1421SOL    HW115725   3.864   0.926   6.596  2.1267  0.8545 -1.8351
 1421SOL    HW215726   3.899   0.834   6.708 -2.2134  4.3012 -0.4212
 1422SOL     OW15727   2.401   3.819   7.830  0.4056 -0.0423 -0.5907
 1422SOL    HW115728   2.348   3.836   7.752  1.7758 -1.3336 -1.8069
 1422SOL    HW215729   2.330   3.771   7.873  0.5500  0.0077 -0.2955
 1423SOL     OW15730   2.286   3.205   3.041  0.5017 -0.0968  0.6327
 1423SOL    HW115731   2.360   3.147   3.024  0.2189 -1.0422  2.6062
 1423SOL    HW215732   2.312   3.279   2.986  0.9533 -0.7270 -0.0028
 1424SOL     OW15733   2.307   2.317   1.502  0.5023  0.5580 -0.1640
 1424SOL    HW115734   2.389   2.295   1.547  0.8180  2.2945  0.1084
 1424SOL    HW215735   2.260   2.381   1.556 -0.4883 -0.0961 -0.2518
 1425SOL     OW15736   2.941   4.363  13.425  0.0427  0.1557  0.7459
 1425SOL    HW115737   2.865   4.411  13.391  1.9723  2.1255 -0.8179
 1425SOL    HW215738   2.967   4.319  13.345 -0.3775  0.8168  0.2446
 1426SOL     OW15739   4.126   2.901  14.818  0.4867 -0.0787 -0.3112
 1426SOL    HW115740   4.106   2.930  14.730  0.9189 -0.9171 -0.6843
 1426SOL    HW215741   4.214   2.867  14.800  0.0996 -0.4442 -1.5121
 1427SOL     OW15742   4.674   2.639  14.043 -0.2174  0.4619 -0.2678
 1427SOL    HW115743   4.651   2.721  14.001  0.4701  1.0118  0.4218
 1427SOL    HW215744   0.018   2.613  13.979  0.3679 -4.0805  2.1918
 1428SOL     OW15745   4.151   1.221   5.990 -0.4715  0.4520  0.2415
 1428SOL    HW115746   4.179   1.284   5.924 -2.5843  1.8172  0.6522
 1428SOL    HW215747   4.181   1.142   5.946 -1.9456 -1.6061  2.8856
 1429SOL     OW15748   0.002   1.493   4.728  0.3602  0.3863  0.1917
 1429SOL    HW115749   0.012   1.477   4.821  1.5669 -3.8150 -0.6643
 1429SOL    HW215750   0.084   1.533   4.702  1.2736 -0.7964  1.2854
 1430SOL     OW15751   0.766   0.632   3.542 -0.0048  0.0061  0.3988
 1430SOL    HW115752   0.840   0.579   3.511  1.1012  2.2364 -0.7494
 1430SOL    HW215753   0.776   0.709   3.486  2.0383 -0.3216  0.3188
 1431SOL     OW15754   2.493   0.807   1.364  0.2674 -0.0852 -0.1126
 1431SOL    HW115755   2.585   0.825   1.342  0.1830 -0.2186 -0.5851
 1431SOL    HW215756   2.457   0.895   1.363 -2.6727 -1.2997 -0.4236
 1432SOL     OW15757   4.182   3.396   6.789 -0.2496 -0.0656  0.0092
 1432SOL    HW115758   4.219   3.320   6.833  0.4037  0.4742  0.3993
 1432SOL    HW215759   4.089   3.376   6.785  0.5054 -3.5728  0.6098
 1433SOL     OW15760   1.345   0.676   5.963 -0.0918  0.1103  0.0170
 1433SOL    HW115761   1.365   0.671   6.056 -0.7588 -1.8578  0.0471
 1433SOL    HW215762   1.343   0.772   5.960 -2.1415  0.0940  0.3739
 1434SOL     OW15763   3.393   0.974   0.778  0.2400  0.1206  0.9746
 1434SOL    HW115764   3.314   0.996   0.826  0.5958  0.3029  1.4760
 1434SOL    HW215765   3.362   0.968   0.688  0.3052 -3.6347  1.1855
 1435SOL     OW15766   3.371   4.137   9.249  0.4954 -1.0252 -1.1044
 1435SOL    HW115767   3.447   4.130   9.306 -0.5840 -1.3796  0.2899
 1435SOL    HW215768   3.304   4.136   9.318  1.2001 -1.1548 -0.4245
 1436SOL     OW15769   3.023   0.700   5.097 -0.1918 -0.2650 -0.1783
 1436SOL    HW115770   2.952   0.683   5.159 -0.5760 -0.9974 -0.8172
 1436SOL    HW215771   3.090   0.640   5.129 -1.2442 -0.6367  1.3337
 1437SOL     OW15772   4.331   3.140   7.707 -0.5392  0.0052 -0.6724
 1437SOL    HW115773   4.286   3.069   7.751 -2.2752  0.0851 -2.3087
 1437SOL    HW215774   4.418   3.103   7.721 -1.3726 -1.7010 -0.1397
 1438SOL     OW15775   1.407   0.438   6.639 -0.2897  0.6519 -0.2170
 1438SOL    HW115776   1.378   0.506   6.700 -0.3158 -0.2126  0.7463
 1438SOL    HW215777   1.501   0.449   6.623  0.2509 -1.9508  1.1009
 1439SOL     OW15778   4.095   1.012   4.544  0.2051 -0.5130 -0.0055
 1439SOL    HW115779   4.094   0.961   4.463  0.1437 -1.4975  0.6240
 1439SOL    HW215780   4.155   1.080   4.514  1.4873 -1.7716 -0.3015
 1440SOL     OW15781   4.467   3.143   1.846 -0.8227  0.2328  0.1026
 1440SOL    HW115782   4.461   3.207   1.775 -0.5030 -1.1637 -1.1751
 1440SOL    HW215783   4.405   3.077   1.815 -0.5030 -0.5320  1.0769
 1441SOL     OW15784   1.532   2.082  12.796 -0.0937 -0.1587 -0.1629
 1441SOL    HW115785   1.627   2.074  12.794 -0.1543 -1.2307  0.6423
 1441SOL    HW215786   1.511   1.994  12.829 -0.0380 -0.1540 -0.1147
 1442SOL     OW15787   0.824   2.223   5.581 -0.1364 -0.7579 -0.0195
 1442SOL    HW115788   0.771   2.178   5.515  2.8897 -3.4194 -0.6288
 1442SOL    HW215789   0.859   2.145   5.625  1.9362 -0.3705 -0.9978
 1443SOL     OW15790   4.593   1.320   2.586  0.6354  0.0111 -0.4032
 1443SOL    HW115791   4.619   1.237   2.626 -0.5162 -0.5748 -0.8784
 1443SOL    HW215792   4.553   1.358   2.665  0.8451  2.1417 -1.3169
 1444SOL     OW15793   1.559   2.111   2.670 -0.2192  0.0569  0.1471
 1444SOL    HW115794   1.580   2.079   2.582  1.5477 -0.1654  0.6633
 1444SOL    HW215795   1.639   2.085   2.714  0.1897  2.0551  0.5721
 1445SOL     OW15796   3.741   4.372   9.148  0.0049  0.0003 -1.0423
 1445SOL    HW115797   3.672   4.438   9.147  0.5356  0.5633 -0.9783
 1445SOL    HW215798   3.700   4.299   9.101  0.1300  1.3982 -3.3252
 1446SOL     OW15799   0.998   1.943   9.401  0.4787  0.3992 -0.1239
 1446SOL    HW115800   1.073   1.922   9.457  1.1913  0.5364 -1.0105
 1446SOL    HW215801   0.924   1.896   9.438 -0.2829  1.0639 -0.7798
 1447SOL     OW15802   3.943   2.631   7.982 -0.7041  0.1250 -0.2334
 1447SOL    HW115803   3.960   2.718   8.016 -0.8564 -0.5581  1.6003
 1447SOL    HW215804   3.971   2.637   7.891 -0.7793 -1.3594 -0.3657
 1448SOL     OW15805   1.246   1.809  15.574 -0.2018  0.0568  0.1730
 1448SOL    HW115806   1.214   1.720  15.563  1.0300 -0.6596  2.6907
 1448SOL    HW215807   1.175   1.837  15.632  0.1197 -0.9668  1.0553
 1449SOL     OW15808   3.814   0.976   7.271 -0.1441 -0.2163  0.3230
 1449SOL    HW115809   3.808   1.062   7.311  0.5312 -0.1153  0.2087
 1449SOL    HW215810   3.885   0.992   7.208 -0.0001  0.7085  0.7188
 1450SOL     OW15811   1.864   0.967   4.156 -0.4947 -0.6225  0.1926
 1450SOL    HW115812   1.785   0.982   4.207 -0.5778  0.8680 -0.3693
 1450SOL    HW215813   1.910   1.050   4.163  0.6789 -1.1929 -0.6681
 1451SOL     OW15814   4.268   4.677   2.754  0.7836  0.0248  0.2193
 1451SOL    HW115815   4.344   4.695   2.810  0.2971  1.5534  0.3884
 1451SOL    HW215816   4.224   0.032   2.720  0.2668  1.0773  3.3300
 1452SOL     OW15817   3.443   3.627  10.000  0.3134 -0.3476 -0.8344
 1452SOL    HW115818   3.522   3.597   9.954  0.6528  2.7064 -2.2377
 1452SOL    HW215819   3.410   3.542  10.029  1.1602 -1.1517 -2.2160
 1453SOL     OW15820   4.528   3.863  12.279  0.5786  0.2567 -0.5474
 1453SOL    HW115821   4.467   3.929  12.245 -0.3847 -0.3579 -0.0036
 1453SOL    HW215822   4.469   3.825  12.344  3.2280  0.7625  2.1394
 1454SOL     OW15823   4.075   3.010   6.281 -0.4258  0.0933  0.3552
 1454SOL    HW115824   4.082   2.988   6.188 -1.5538 -2.1132  0.8092
 1454SOL    HW215825   4.088   3.105   6.286  1.0704 -0.0237 -1.4292
 1455SOL     OW15826   0.374   4.364   7.625  0.1127 -0.1832 -0.8461
 1455SOL    HW115827   0.444   4.418   7.663 -1.2297  0.4958  0.6422
 1455SOL    HW215828   0.419   4.280   7.621 -0.6899 -0.6977  1.0386
 1456SOL     OW15829   0.630   3.393   2.560  0.2100 -0.0160  0.3634
 1456SOL    HW115830   0.668   3.476   2.531 -0.4894 -0.7010 -2.4760
 1456SOL    HW215831   0.644   3.407   2.654 -0.0211  2.6746  0.0120
 1457SOL     OW15832   2.268   3.324   8.047  0.1344  0.2689  0.1039
 1457SOL    HW115833   2.358   3.298   8.066 -0.3134  0.5675  2.6005
 1457SOL    HW215834   2.238   3.339   8.137  1.5290 -0.1119  0.6315
 1458SOL     OW15835   3.673   1.703   3.175  0.2939 -0.0563 -0.0729
 1458SOL    HW115836   3.600   1.646   3.151 -0.7354  1.9728 -1.8153
 1458SOL    HW215837   3.737   1.675   3.110 -0.6731  0.4346 -1.2439
 1459SOL     OW15838   2.775   3.007   2.835  0.0872  0.2894 -0.3563
 1459SOL    HW115839   2.833   3.083   2.845  1.7534 -1.3478  2.3428
 1459SOL    HW215840   2.772   2.966   2.921  2.4426 -0.0216 -0.4157
 1460SOL     OW15841   3.745   1.712   5.799  0.1103 -0.1755  0.2405
 1460SOL    HW115842   3.780   1.801   5.804  0.7629 -0.5547  2.7169
 1460SOL    HW215843   3.651   1.730   5.798  0.0532 -0.4854  0.2463
 1461SOL     OW15844   2.963   1.036  15.815  0.4166 -0.0596 -0.5554
 1461SOL    HW115845   2.991   0.988  15.737 -1.0215 -0.3500 -0.8949
 1461SOL    HW215846   2.913   1.107  15.774 -0.9473 -1.2363 -0.9492
 1462SOL     OW15847   2.186   0.753   0.361  0.1989  0.1296  0.1173
 1462SOL    HW115848   2.155   0.691   0.294 -0.5110  1.9268 -1.2129
 1462SOL    HW215849   2.107   0.770   0.413  0.6125  0.2981  0.6871
 1463SOL     OW15850   2.771   4.312   4.296 -1.0065 -0.1880 -1.0081
 1463SOL    HW115851   2.782   4.363   4.376  1.4225  0.0656 -1.5064
 1463SOL    HW215852   2.690   4.354   4.268 -0.9181 -0.7451 -2.1175
 1464SOL     OW15853   3.271   0.889  17.681 -0.1603  0.3152 -0.2814
 1464SOL    HW115854   3.351   0.849   0.023 -0.0809  0.5870 -0.1554
 1464SOL    HW215855   3.249   0.960   0.048  1.3785 -1.6217  2.5816
 1465SOL     OW15856   3.200   1.926   4.420  0.3813 -0.4248  0.3491
 1465SOL    HW115857   3.138   1.984   4.463 -0.3792 -0.9212 -0.0903
 1465SOL    HW215858   3.253   1.991   4.373 -0.2880 -2.2044 -2.8626
 1466SOL     OW15859   4.179   0.768  10.103  0.0452 -0.1466  0.5500
 1466SOL    HW115860   4.274   0.772  10.108  0.0218  2.5296 -1.3117
 1466SOL    HW215861   4.146   0.840  10.157  1.4716 -0.1716  1.4470
 1467SOL     OW15862   3.661   0.850   7.091 -0.1168  0.0346  0.7257
 1467SOL    HW115863   3.713   0.896   7.158 -0.4671 -0.4449  1.3314
 1467SOL    HW215864   3.602   0.919   7.062  0.1497  0.6616  1.6751
 1468SOL     OW15865   3.532   3.798   2.780 -0.8066 -0.0403  0.2898
 1468SOL    HW115866   3.608   3.740   2.786 -0.3479  0.1668 -3.4338
 1468SOL    HW215867   3.536   3.843   2.865 -1.9422 -1.3140  0.9967
 1469SOL     OW15868   0.441   4.048   8.727 -0.0869  0.7058 -0.0984
 1469SOL    HW115869   0.402   3.960   8.725  0.6846  0.4172 -2.0519
 1469SOL    HW215870   0.402   4.090   8.804  1.1079 -1.8555  1.8786
 1470SOL     OW15871   2.467   3.315   3.888  0.2364  0.4583  0.0055
 1470SOL    HW115872   2.399   3.335   3.951 -1.4130  1.0005 -1.9525
 1470SOL    HW215873   2.531   3.262   3.936 -0.8569 -2.1232 -1.4205
 1471SOL     OW15874   0.058   4.489  15.816 -0.2873  0.2666  0.5426
 1471SOL    HW115875   0.111   4.423  15.772 -0.5395  0.0365  0.5855
 1471SOL    HW215876   0.021   4.534  15.740  1.0478  0.2562 -0.1100
 1472SOL     OW15877   1.465   0.843   2.063 -0.1482  0.0485  0.5409
 1472SOL    HW115878   1.538   0.851   2.126  0.6865 -1.0187 -0.2844
 1472SOL    HW215879   1.519   0.809   1.991 -1.5484  2.2932 -1.5331
 1473SOL     OW15880   4.509   1.288   4.402  0.2919 -0.3601  0.2901
 1473SOL    HW115881   4.571   1.302   4.331  2.3035  0.3691  2.1731
 1473SOL    HW215882   4.566   1.253   4.471  0.7997 -0.0213  0.0439
 1474SOL     OW15883   4.036   1.297   8.892  0.9220 -0.2119  0.2536
 1474SOL    HW115884   3.993   1.306   8.806  1.4050 -0.7069 -0.0376
 1474SOL    HW215885   3.992   1.365   8.943  1.0417  1.0623 -1.3392
 1475SOL     OW15886   2.255   1.895   2.072  0.6692  0.0989 -0.3245
 1475SOL    HW115887   2.242   1.981   2.111 -0.9692 -0.4714  0.3971
 1475SOL    HW215888   2.190   1.908   2.003 -0.9173 -1.8291  0.8112
 1476SOL     OW15889   2.632   1.035   6.459  0.1315  0.0377  0.8153
 1476SOL    HW115890   2.699   1.035   6.391  0.5971 -1.3438  1.2854
 1476SOL    HW215891   2.557   1.069   6.410 -1.3439 -0.7431  2.4991
 1477SOL     OW15892   4.190   3.358   2.107  0.2145  0.6198 -0.1310
 1477SOL    HW115893   4.144   3.382   2.026 -2.0300  1.5654  1.4073
 1477SOL    HW215894   4.120   3.320   2.160 -0.2466 -1.0393 -1.9119
 1478SOL     OW15895   0.972   3.945   5.398  0.2156 -0.4977  0.4011
 1478SOL    HW115896   1.025   4.018   5.429 -0.0210 -0.0758 -0.1871
 1478SOL    HW215897   0.885   3.981   5.413  0.7720  0.0900  2.1561
 1479SOL     OW15898   0.541   2.781   3.399  0.0982  0.5404  0.2218
 1479SOL    HW115899   0.602   2.796   3.472  0.7789  0.0845 -0.2542
 1479SOL    HW215900   0.469   2.733   3.440 -0.2220  1.5872  0.8830
 1480SOL     OW15901   2.182   0.222   1.808  0.3886 -0.3181  0.2001
 1480SOL    HW115902   2.100   0.270   1.796  0.0895 -0.8695  0.0280
 1480SOL    HW215903   2.252   0.283   1.783 -1.4310  1.4087 -0.7348
 1481SOL     OW15904   3.516   3.702   6.134 -0.0086 -0.0505 -0.1126
 1481SOL    HW115905   3.495   3.636   6.068 -1.6282  1.9100 -1.5323
 1481SOL    HW215906   3.611   3.689   6.143  0.1141  0.7916 -0.1663
 1482SOL     OW15907   1.930   3.204   7.037  0.2783 -0.4223 -0.0544
 1482SOL    HW115908   2.018   3.178   7.065  0.0536 -1.3553 -0.2114
 1482SOL    HW215909   1.882   3.187   7.118  0.0325  0.3573 -0.0362
 1483SOL     OW15910   3.961   0.051   2.394 -0.3874  0.1491  0.4947
 1483SOL    HW115911   3.890   0.025   2.452 -2.2987 -0.9121 -2.2780
 1483SOL    HW215912   4.034   0.009   2.439  0.7005 -1.4003 -2.7183
 1484SOL     OW15913   4.416   3.063   4.852  0.1146 -0.6157  1.1540
 1484SOL    HW115914   4.359   3.123   4.899 -0.9540  0.0162 -1.0055
 1484SOL    HW215915   4.399   3.089   4.762  2.3876  0.8114  1.1246
 1485SOL     OW15916   2.785   1.269  11.305  0.5750 -0.3627  0.1979
 1485SOL    HW115917   2.755   1.241  11.391 -1.8560  0.3826 -0.3976
 1485SOL    HW215918   2.841   1.341  11.334 -1.5440  0.9218  1.1063
 1486SOL     OW15919   4.467   0.786   0.552  0.3031 -0.0430  0.2958
 1486SOL    HW115920   4.452   0.761   0.643 -0.4319  4.4233  1.3890
 1486SOL    HW215921   4.388   0.826   0.516  1.8782  1.3768 -1.5750
 1487SOL     OW15922   3.062   2.937  17.443 -0.3281 -0.3835  0.3077
 1487SOL    HW115923   3.157   2.952  17.434 -0.4942  0.0501 -0.7873
 1487SOL    HW215924   3.072   2.849  17.480 -0.2405  0.1615  1.5954
 1488SOL     OW15925   1.884   0.968   0.720 -0.1108  0.0710 -0.0806
 1488SOL    HW115926   1.955   1.032   0.720 -1.4490  1.5373 -2.6964
 1488SOL    HW215927   1.908   0.891   0.772  0.8688  0.7874  0.5219
 1489SOL     OW15928   4.054   3.149  14.250 -0.3774 -0.1163 -0.1677
 1489SOL    HW115929   4.141   3.115  14.272  0.1997  1.6619  0.3056
 1489SOL    HW215930   4.070   3.228  14.200 -0.8212  0.9330  1.3499
 1490SOL     OW15931   4.498   3.466   6.071 -0.8260  0.0731 -0.2988
 1490SOL    HW115932   4.416   3.454   6.023 -2.4655  2.4104  1.9492
 1490SOL    HW215933   4.482   3.546   6.120 -0.6241 -0.7299  1.1075
 1491SOL     OW15934   4.622   4.277   3.317  0.0605  0.2885 -0.3280
 1491SOL    HW115935   4.687   4.249   3.253  0.0322 -1.5741  0.4605
 1491SOL    HW215936   4.592   4.350   3.263 -3.2618 -0.3056  0.7223
 1492SOL     OW15937   0.663   0.352  13.422 -0.0406 -0.1034  0.2146
 1492SOL    HW115938   0.625   0.310  13.499 -0.1483 -1.3499 -0.5046
 1492SOL    HW215939   0.608   0.430  13.416  1.4621  0.9543  0.2144
 1493SOL     OW15940   3.255   4.285   9.072  1.5338  0.4413 -0.3702
 1493SOL    HW115941   3.299   4.221   9.128 -1.5415 -0.9155  0.5365
 1493SOL    HW215942   3.264   4.368   9.120  2.0357 -0.1843  0.6099
 1494SOL     OW15943   3.520   4.156   3.166 -0.3946  0.0164 -0.3504
 1494SOL    HW115944   3.609   4.187   3.177 -0.3131  0.5666 -2.4710
 1494SOL    HW215945   3.476   4.239   3.146 -1.2981 -0.4938 -0.4853
 1495SOL     OW15946   4.251   2.400   6.445 -0.4810  0.0337 -0.2628
 1495SOL    HW115947   4.227   2.492   6.456  0.6052  0.2681  0.1586
 1495SOL    HW215948   4.333   2.410   6.493  0.0505 -0.1057 -1.1295
 1496SOL     OW15949   2.840   4.058   5.308 -0.5321 -0.2357 -0.0750
 1496SOL    HW115950   2.763   4.024   5.263  0.9225 -0.4207 -2.3991
 1496SOL    HW215951   2.847   3.990   5.375 -0.7979 -0.4484 -0.2622
 1497SOL     OW15952   3.279   2.782  10.371  0.7954 -0.1206  0.5856
 1497SOL    HW115953   3.311   2.699  10.335  3.0874  0.7642  0.5910
 1497SOL    HW215954   3.301   2.764  10.462  2.6754  0.8908  0.3305
 1498SOL     OW15955   3.865   3.217   2.217  0.1290 -0.3792  0.0383
 1498SOL    HW115956   3.903   3.131   2.197  2.0297  0.7045 -0.9695
 1498SOL    HW215957   3.795   3.231   2.153 -0.1644  2.2062  0.9576
 1499SOL     OW15958   2.302   3.800   4.789  0.1544  0.1748  0.6591
 1499SOL    HW115959   2.379   3.856   4.790  0.4387 -0.0945 -3.5739
 1499SOL    HW215960   2.282   3.789   4.882 -1.3452 -0.0617  0.3089
 1500SOL     OW15961   1.870   1.532  13.490 -0.8281  1.0065 -0.0034
 1500SOL    HW115962   1.931   1.605  13.503 -0.7575  0.9309  0.0950
 1500SOL    HW215963   1.887   1.473  13.564  1.6490  0.1285 -1.2805
 1501SOL     OW15964   2.693   0.702   6.836  0.0514 -0.1000 -0.4474
 1501SOL    HW115965   2.711   0.739   6.923 -0.1186  2.1429 -1.3684
 1501SOL    HW215966   2.632   0.631   6.857  1.4010 -1.6125 -1.6203
 1502SOL     OW15967   2.665   0.774  13.330  0.0125  0.0472  0.1639
 1502SOL    HW115968   2.755   0.741  13.333 -0.3572 -0.9594  0.3407
 1502SOL    HW215969   2.628   0.692  13.297 -1.5617  0.0047  2.0693
 1503SOL     OW15970   1.968   1.347   3.572  0.5010  0.0238  0.1870
 1503SOL    HW115971   1.892   1.368   3.518  0.9145  0.4404 -0.2416
 1503SOL    HW215972   2.028   1.413   3.538 -0.4293 -0.7910 -2.9826
 1504SOL     OW15973   3.670   2.331   3.833  0.9951  0.7005  0.0063
 1504SOL    HW115974   3.741   2.314   3.894  0.4391 -3.2060 -0.4208
 1504SOL    HW215975   3.714   2.373   3.760 -0.7524  2.3685 -0.0831
 1505SOL     OW15976   0.252   4.043   7.765  0.1950 -0.5570  0.0898
 1505SOL    HW115977   0.223   3.967   7.816  1.7826 -0.7586  0.7111
 1505SOL    HW215978   0.221   4.114   7.820  1.7309  0.9484 -1.0016
 1506SOL     OW15979   4.702   0.746   3.388 -0.5444  0.2351  0.2585
 1506SOL    HW115980   4.617   0.790   3.385 -0.4069  0.4980  0.1378
 1506SOL    HW215981   0.034   0.825   3.387  2.5393 -1.9392 -1.6502
 1507SOL     OW15982   1.853   3.614   3.377  0.0153 -0.4069 -0.0811
 1507SOL    HW115983   1.885   3.533   3.415  0.9510  0.0625  0.1408
 1507SOL    HW215984   1.870   3.668   3.455  1.1134 -4.3858  2.4205
 1508SOL     OW15985   1.941   0.390   0.650  0.5409  0.0111  0.1808
 1508SOL    HW115986   1.925   0.313   0.595  2.6503 -0.7709  0.6448
 1508SOL    HW215987   1.918   0.348   0.733  0.4788  0.0519  0.1837
 1509SOL     OW15988   1.401   1.231   7.032 -0.1367 -0.2003 -0.0625
 1509SOL    HW115989   1.478   1.254   7.084 -0.2038 -0.7405  0.2780
 1509SOL    HW215990   1.374   1.315   6.996 -0.4698 -0.1074  0.3955
 1510SOL     OW15991   2.278   0.629   1.242  0.0418 -0.4669 -0.1928
 1510SOL    HW115992   2.358   0.661   1.199  0.9561  0.1995  1.9498
 1510SOL    HW215993   2.296   0.654   1.333 -3.0688  2.0379 -0.2885
 1511SOL     OW15994   2.536   1.915  15.253 -0.2153  0.0022 -0.2543
 1511SOL    HW115995   2.530   1.990  15.313  2.7834  0.0653 -0.0527
 1511SOL    HW215996   2.541   1.961  15.169  1.5238 -1.8367 -1.1416
 1512SOL     OW15997   3.177   3.887   0.001  0.5637  0.1237  0.4820
 1512SOL    HW115998   3.088   3.861  17.671  1.1972 -0.5080 -1.1701
 1512SOL    HW215999   3.223   3.811  17.660  1.0274 -0.5758  2.6575
 1513SOL     OW16000   0.026   2.794  12.892  0.2481 -0.0263  0.3935
 1513SOL    HW116001   0.088   2.732  12.931 -1.6363  0.1008  3.5824
 1513SOL    HW216002   4.701   2.751  12.821 -1.1095 -0.2907  1.4870
 1514SOL     OW16003   1.321   1.725   6.805 -0.4738 -0.0885 -0.1570
 1514SOL    HW116004   1.236   1.683   6.806 -1.0085  0.9284 -1.9888
 1514SOL    HW216005   1.370   1.674   6.869  2.1539  0.1697 -1.9704
 1515SOL     OW16006   4.166   1.047   5.350  0.7630 -0.1840 -0.6720
 1515SOL    HW116007   4.091   1.100   5.322 -0.6915 -1.6589  0.4492
 1515SOL    HW216008   4.143   1.029   5.441  0.8596  2.5965 -0.0915
 1516SOL     OW16009   3.858   4.132   8.522  0.3294  0.0642  0.2090
 1516SOL    HW116010   3.858   4.038   8.504 -0.5198 -0.0017  0.5671
 1516SOL    HW216011   3.765   4.148   8.505  0.6148  0.1955 -1.2340
 1517SOL     OW16012   3.050   1.073   7.865 -0.9805 -0.3291 -0.0464
 1517SOL    HW116013   3.068   1.073   7.959 -1.0190  1.0205 -0.0481
 1517SOL    HW216014   3.117   1.137   7.840 -1.9455  0.8603  0.4578
 1518SOL     OW16015   1.956   0.921   7.606  0.5990 -0.1935  0.0397
 1518SOL    HW116016   1.930   0.834   7.576 -1.9442  0.0312  1.5496
 1518SOL    HW216017   2.048   0.906   7.628  0.4934 -0.5893  0.2046
 1519SOL     OW16018   0.187   2.687  14.160  0.1073  0.4514  0.2806
 1519SOL    HW116019   0.092   2.694  14.156  0.0740 -1.4835 -2.2348
 1519SOL    HW216020   0.209   2.624  14.229 -1.2015 -0.8165 -0.4614
 1520SOL     OW16021   4.375   2.891  12.718 -0.4114  0.1147 -0.2343
 1520SOL    HW116022   4.434   2.823  12.686 -0.0001 -0.2963  1.3838
 1520SOL    HW216023   4.425   2.966  12.686  2.1874 -1.7101 -0.3780
 1521SOL     OW16024   1.995   4.613   3.424  0.4930 -0.8232  0.4350
 1521SOL    HW116025   1.906   4.585   3.402  0.4455 -1.4328  1.4423
 1521SOL    HW216026   2.008   4.548   3.493 -0.1993 -0.0764  1.2627
 1522SOL     OW16027   1.252   3.937   7.294 -0.0972 -0.3185  0.5916
 1522SOL    HW116028   1.190   3.864   7.300 -0.7322  0.1324 -0.3041
 1522SOL    HW216029   1.284   3.944   7.204 -0.3342  0.8390  0.5933
 1523SOL     OW16030   3.183   3.976   4.403 -0.3763 -0.4276  0.3291
 1523SOL    HW116031   3.216   4.059   4.438  3.1133 -1.3391 -0.8445
 1523SOL    HW216032   3.164   4.004   4.313  0.3862  1.0833  0.6495
 1524SOL     OW16033   2.029   3.476  12.251 -0.0868 -0.2640 -0.3252
 1524SOL    HW116034   2.036   3.460  12.157 -2.2282 -0.7474 -0.4022
 1524SOL    HW216035   2.113   3.438  12.274 -0.0754 -0.1326 -0.1521
 1525SOL     OW16036   1.211   1.012   7.804  0.4840 -0.1930  0.4321
 1525SOL    HW116037   1.173   0.925   7.812 -0.2973  0.0875 -0.2152
 1525SOL    HW216038   1.231   1.025   7.897  1.0760 -0.6669  0.3740
 1526SOL     OW16039   1.253   3.313   7.089  0.4263  0.6615 -0.1037
 1526SOL    HW116040   1.321   3.330   7.025 -0.9377 -1.4187 -2.1005
 1526SOL    HW216041   1.221   3.402   7.107 -0.0432  0.3889  0.4450
 1527SOL     OW16042   4.176   3.744   5.874 -0.4402 -0.3453  0.2026
 1527SOL    HW116043   4.161   3.721   5.966  0.6927  0.9494  0.7110
 1527SOL    HW216044   4.133   3.829   5.873  0.1617 -0.0147  1.4865
 1528SOL     OW16045   2.326   4.208  13.991 -0.4119  0.3384  0.3167
 1528SOL    HW116046   2.320   4.304  13.989 -1.3914  0.2845  0.6846
 1528SOL    HW216047   2.407   4.190  14.040 -0.8648 -1.8103  0.2865
 1529SOL     OW16048   4.676   4.224  13.765 -0.0150 -0.5807  0.0556
 1529SOL    HW116049   4.675   4.294  13.699 -2.1861 -0.9169 -0.2884
 1529SOL    HW216050   4.631   4.272  13.835 -0.1270  0.2282 -0.5611
 1530SOL     OW16051   1.472   0.183  11.944 -0.3612 -0.1467  0.5102
 1530SOL    HW116052   1.487   0.253  12.007  1.2661 -0.1542  0.1421
 1530SOL    HW216053   1.386   0.151  11.970  0.4840 -3.6778 -1.1339
 1531SOL     OW16054   0.151   1.811   5.710  0.0638  0.5193  0.0819
 1531SOL    HW116055   0.066   1.792   5.750 -0.5932  0.3076 -1.4200
 1531SOL    HW216056   0.116   1.871   5.644 -0.8773  0.3678  0.4367
 1532SOL     OW16057   0.029   3.351   7.283 -0.2518  0.2628 -0.1220
 1532SOL    HW116058   4.686   3.411   7.318  0.2991  0.7056  0.1671
 1532SOL    HW216059   0.038   3.291   7.357 -1.0679 -1.4763 -1.4256
 1533SOL     OW16060   0.709   0.230   7.388 -0.2815 -0.6513 -0.2201
 1533SOL    HW116061   0.787   0.194   7.344  1.6693  1.5276  1.4900
 1533SOL    HW216062   0.672   0.146   7.415  3.4111 -1.9533  0.7454
 1534SOL     OW16063   2.285   3.468   4.051 -0.5007 -0.3421 -0.2588
 1534SOL    HW116064   2.260   3.429   4.135  0.3426 -0.3451 -0.0134
 1534SOL    HW216065   2.368   3.506   4.079 -0.1202 -1.8608  0.6875
 1535SOL     OW16066   0.714   1.211   1.522  0.3135  0.2289 -0.1888
 1535SOL    HW116067   0.661   1.133   1.539 -0.2302  0.6868  0.2402
 1535SOL    HW216068   0.651   1.269   1.480  0.9150  0.7238 -0.4127
 1536SOL     OW16069   4.043   3.270   9.658  0.2824  0.2424 -0.4927
 1536SOL    HW116070   4.011   3.346   9.706 -0.5459  0.4407 -1.3720
 1536SOL    HW216071   4.123   3.304   9.618  1.3643 -0.4544  1.0680
 1537SOL     OW16072   2.925   2.683   6.673 -0.3787  0.1500 -0.2581
 1537SOL    HW116073   2.837   2.710   6.698 -1.7989 -2.6900 -2.1296
 1537SOL    HW216074   2.966   2.670   6.759  1.1586 -0.0322 -1.0140
 1538SOL     OW16075   0.758   1.334   9.504 -0.3215  0.2824 -0.0682
 1538SOL    HW116076   0.788   1.287   9.427 -0.7165 -2.3748  1.4188
 1538SOL    HW216077   0.822   1.305   9.569 -1.5761  0.0394  1.0715
 1539SOL     OW16078   3.365   4.216   6.890 -0.4608 -0.1258  0.1728
 1539SOL    HW116079   3.447   4.234   6.935 -0.1895  1.2586 -0.8738
 1539SOL    HW216080   3.396   4.257   6.809  4.0866 -1.7948  1.0591
 1540SOL     OW16081   3.010   0.123   3.515 -0.3006  0.3361  0.4926
 1540SOL    HW116082   2.957   0.140   3.592 -3.7787 -1.1279 -1.5940
 1540SOL    HW216083   2.948   0.142   3.445  1.3817 -1.6518 -1.5619
 1541SOL     OW16084   1.985   3.147   6.279  0.6116  0.3604 -0.3904
 1541SOL    HW116085   1.958   3.116   6.365  1.3842  0.4125 -0.1362
 1541SOL    HW216086   2.049   3.201   6.324  0.4505  0.7105 -0.5745
 1542SOL     OW16087   2.954   3.248   3.586  0.2726 -0.3081  0.0889
 1542SOL    HW116088   2.998   3.291   3.660 -2.0050  0.4569  1.0110
 1542SOL    HW216089   2.883   3.310   3.573 -0.0207 -1.0772 -1.9076
 1543SOL     OW16090   3.940   3.416   6.061  0.1096 -0.5824 -0.1934
 1543SOL    HW116091   3.999   3.342   6.075  1.3048  0.2898 -0.7001
 1543SOL    HW216092   3.854   3.374   6.063 -0.3097  0.2657 -0.2614
 1544SOL     OW16093   3.761   2.578   1.298  0.6039  0.2889  0.2393
 1544SOL    HW116094   3.855   2.562   1.301  0.8385  1.9705  1.8944
 1544SOL    HW216095   3.768   2.640   1.225  0.4087 -0.6093 -0.5450
 1545SOL     OW16096   0.330   1.980   6.815 -0.0076  0.3505  0.4420
 1545SOL    HW116097   0.264   1.915   6.792  1.4606 -0.5678 -1.0779
 1545SOL    HW216098   0.391   1.919   6.856  0.6499  0.3403 -0.5581
 1546SOL     OW16099   4.703   4.227  11.598  0.6804  0.2821  0.5000
 1546SOL    HW116100   4.713   4.276  11.679  1.0522  1.1269 -0.0461
 1546SOL    HW216101   4.616   4.263  11.579  0.2893 -1.4449 -0.9443
 1547SOL     OW16102   2.581   3.597   6.807  0.2340 -0.8132  0.5336
 1547SOL    HW116103   2.561   3.541   6.883  0.9448 -0.6273  0.8581
 1547SOL    HW216104   2.502   3.649   6.797 -0.7145 -2.3917 -0.2710
 1548SOL     OW16105   2.031   0.087  16.854 -0.8542 -0.6231 -0.4093
 1548SOL    HW116106   1.996   0.098  16.942 -1.2767  0.0301 -0.6590
 1548SOL    HW216107   1.975   0.145  16.803 -1.2885  1.9359  2.9885
 1549SOL     OW16108   4.005   0.851  15.618  0.1381 -0.1315 -0.0684
 1549SOL    HW116109   3.961   0.935  15.633 -0.9440 -0.9189  1.1442
 1549SOL    HW216110   4.083   0.889  15.577  0.9502 -0.9667  0.6877
 1550SOL     OW16111   2.071   4.265   5.185 -0.8418  0.0783 -0.2374
 1550SOL    HW116112   2.070   4.356   5.155  0.9518  0.3625  0.5744
 1550SOL    HW216113   1.979   4.237   5.181 -0.7070 -0.3245 -0.5587
 1551SOL     OW16114   1.107   2.422   7.695 -0.1156 -0.0712 -0.7081
 1551SOL    HW116115   1.191   2.386   7.668  2.6304  1.9231  4.9876
 1551SOL    HW216116   1.090   2.356   7.762  1.5604  1.1977  0.9862
 1552SOL     OW16117   4.606   2.279   7.229  0.0585  0.5130  0.0395
 1552SOL    HW116118   4.529   2.278   7.172  0.7115  0.3275 -0.8511
 1552SOL    HW216119   4.575   2.337   7.298 -1.8707  1.2347 -1.4284
 1553SOL     OW16120   1.356   1.944   2.653 -0.0654 -0.1025 -0.2324
 1553SOL    HW116121   1.414   1.893   2.710  0.0454  0.0934 -0.1697
 1553SOL    HW216122   1.409   2.023   2.639 -1.5812  1.2410  1.5601
 1554SOL     OW16123   1.683   0.529  10.822 -0.2618 -0.4975 -0.3892
 1554SOL    HW116124   1.672   0.521  10.917 -1.0020  1.6289 -0.3078
 1554SOL    HW216125   1.778   0.534  10.822 -0.3137  0.3874  0.3036
 1555SOL     OW16126   1.633   0.353   5.445 -0.1367 -0.3862  0.0740
 1555SOL    HW116127   1.581   0.372   5.523  1.5265  2.0870  0.5790
 1555SOL    HW216128   1.718   0.323   5.479  0.3426  1.8416  0.8186
 1556SOL     OW16129   4.105   3.132  11.344  0.1801  0.3312  0.0411
 1556SOL    HW116130   4.106   3.153  11.437 -0.2515 -0.8731  0.3108
 1556SOL    HW216131   4.020   3.088  11.348 -0.7828  2.0891 -0.8311
 1557SOL     OW16132   0.555   4.193   5.860  0.4106  0.0602  0.2590
 1557SOL    HW116133   0.523   4.211   5.949  2.2128  0.6054  0.8065
 1557SOL    HW216134   0.554   4.277   5.814  0.7236 -1.5599 -2.6625
 1558SOL     OW16135   1.811   4.628   5.457  0.4656  0.3715  0.4390
 1558SOL    HW116136   1.744   4.696   5.462  2.2533  2.2204 -0.9346
 1558SOL    HW216137   1.853   4.639   5.372 -1.2542 -2.9314 -0.8265
 1559SOL     OW16138   1.523   0.281   2.370 -0.0004 -0.4656 -0.0691
 1559SOL    HW116139   1.462   0.219   2.409  0.5649 -1.8723 -1.3893
 1559SOL    HW216140   1.599   0.223   2.364  0.3114  0.0072 -0.8306
 1560SOL     OW16141   3.580   0.828   5.030 -0.0724 -0.4290  0.3192
 1560SOL    HW116142   3.606   0.737   5.019  0.7362 -0.2578  0.7911
 1560SOL    HW216143   3.575   0.854   4.937  2.5967 -0.6011  0.1069
 1561SOL     OW16144   0.503   3.258   2.365 -0.0285 -0.2137  0.3761
 1561SOL    HW116145   0.551   3.307   2.432  1.0361 -2.6385  1.3551
 1561SOL    HW216146   0.409   3.276   2.375 -0.2424 -0.8359 -0.5908
 1562SOL     OW16147   1.494   0.383   3.187  0.0497 -0.6813  0.2497
 1562SOL    HW116148   1.522   0.292   3.199  2.6848 -0.0241 -0.9712
 1562SOL    HW216149   1.570   0.422   3.145 -1.4422  2.1231  0.1779
 1563SOL     OW16150   1.758   3.587  14.451  0.5306 -0.2565 -0.1046
 1563SOL    HW116151   1.764   3.597  14.546  0.7356 -1.1488 -0.0253
 1563SOL    HW216152   1.715   3.502  14.455  0.9269 -0.3709  1.7356
 1564SOL     OW16153   1.853   4.260   7.348 -0.3449  0.0282  0.5555
 1564SOL    HW116154   1.911   4.249   7.423  1.1310  1.6554 -0.3353
 1564SOL    HW216155   1.775   4.308   7.376 -0.8697 -0.3598 -0.2236
 1565SOL     OW16156   1.256   3.251   7.576 -0.1090 -0.2230 -0.0945
 1565SOL    HW116157   1.287   3.340   7.560 -0.0077 -0.3361 -0.5237
 1565SOL    HW216158   1.166   3.253   7.544 -0.2856 -1.2411  0.3472
 1566SOL     OW16159   1.041   3.790   3.349 -0.2346  0.1986 -0.1826
 1566SOL    HW116160   1.103   3.734   3.396 -1.6349  0.6740  2.2085
 1566SOL    HW216161   1.094   3.866   3.325  1.6999 -1.4034 -1.0276
 1567SOL     OW16162   3.640   3.491  12.796  0.0970 -0.7692  0.9869
 1567SOL    HW116163   3.602   3.559  12.851 -0.1630 -0.7417  0.7742
 1567SOL    HW216164   3.604   3.413  12.838 -0.8652  0.5488  2.6153
 1568SOL     OW16165   0.234   4.265  15.735  0.3512  0.1336 -0.0790
 1568SOL    HW116166   0.218   4.175  15.707 -0.1443  0.2937 -0.3151
 1568SOL    HW216167   0.243   4.273  15.830  1.1402 -0.7852 -0.0716
 1569SOL     OW16168   4.484   1.536   9.072 -0.3708 -0.3712  0.0586
 1569SOL    HW116169   4.498   1.499   9.159  0.3682 -2.0227 -0.7545
 1569SOL    HW216170   4.403   1.499   9.037  1.2613 -1.2020 -2.8428
 1570SOL     OW16171   0.358   1.102   4.205 -0.0943  0.0144 -0.2213
 1570SOL    HW116172   0.411   1.043   4.259  0.7025  0.5218 -0.4591
 1570SOL    HW216173   0.317   1.170   4.258  0.0540  1.2281 -1.6566
 1571SOL     OW16174   0.826   3.454   2.785  0.5696 -0.2043 -0.1375
 1571SOL    HW116175   0.883   3.514   2.834  3.0783  0.0663 -3.3772
 1571SOL    HW216176   0.814   3.386   2.852  1.7239 -0.9632 -0.6934
 1572SOL     OW16177   1.986   0.079   2.092 -0.1388 -0.0282  0.2400
 1572SOL    HW116178   1.994   0.025   2.013 -2.6351  0.4217 -0.3141
 1572SOL    HW216179   1.929   0.146   2.054 -0.4877  0.2623  1.2750
 1573SOL     OW16180   3.466   3.725   1.425 -0.0140  0.1635  0.2833
 1573SOL    HW116181   3.484   3.715   1.519  0.2277 -0.0258  0.2164
 1573SOL    HW216182   3.476   3.816   1.398  0.3474 -0.1403 -0.5967
 1574SOL     OW16183   4.356   1.007   7.982  0.3196  0.3505  0.8558
 1574SOL    HW116184   4.405   0.961   8.051 -1.5744 -0.5877  1.5921
 1574SOL    HW216185   4.394   1.094   7.979  0.7109  0.1262 -0.7248
 1575SOL     OW16186   0.565   0.513  17.132 -0.7107  0.4656 -0.4395
 1575SOL    HW116187   0.539   0.461  17.209 -0.9498  1.0068 -0.1580
 1575SOL    HW216188   0.645   0.556  17.164  0.4020 -1.0065 -1.2304
 1576SOL     OW16189   1.790   2.504  15.446 -0.9297 -0.7807  0.2729
 1576SOL    HW116190   1.840   2.427  15.420  1.6723  0.0932  2.7225
 1576SOL    HW216191   1.816   2.565  15.377 -2.6119  0.6612  0.9034
 1577SOL     OW16192   2.476   1.345  16.234  0.2785 -0.1774 -0.1456
 1577SOL    HW116193   2.444   1.428  16.199  0.6478  1.1435  2.6549
 1577SOL    HW216194   2.427   1.345  16.316  0.4234  0.4507 -0.0597
 1578SOL     OW16195   2.485   1.858   8.473  0.3197  0.3444  0.0823
 1578SOL    HW116196   2.428   1.899   8.538  0.2137 -1.9423  1.4190
 1578SOL    HW216197   2.508   1.928   8.411  1.4325 -0.0228  0.0883
 1579SOL     OW16198   0.995   3.498  10.195  0.2494  0.3127  0.0388
 1579SOL    HW116199   1.066   3.474  10.255 -0.3493 -0.7112  0.3445
 1579SOL    HW216200   0.984   3.415  10.148  0.3815 -0.4839  1.4131
 1580SOL     OW16201   0.051   1.554   2.226 -0.3190  0.3452  0.0480
 1580SOL    HW116202   4.722   1.589   2.299 -1.1130  0.4178 -0.5438
 1580SOL    HW216203   0.000   1.479   2.197 -0.1845  0.7309 -1.1634
 1581SOL     OW16204   4.706   2.400   4.321 -0.3710 -0.4906 -0.4587
 1581SOL    HW116205   0.046   2.437   4.383 -0.8215 -2.6838  1.3143
 1581SOL    HW216206   0.023   2.450   4.250  1.3551 -2.2136 -0.7034
 1582SOL     OW16207   4.407   3.319   1.664  0.1322 -0.2443  0.3258
 1582SOL    HW116208   4.324   3.362   1.640  0.3948 -0.2833 -0.6605
 1582SOL    HW216209   4.425   3.286   1.576  0.6238  1.2840 -0.1432
 1583SOL     OW16210   0.607   2.893   9.621  0.0592 -0.1056 -0.4920
 1583SOL    HW116211   0.569   2.886   9.534  0.9521 -0.6399 -0.8380
 1583SOL    HW216212   0.702   2.889   9.606  0.0915  1.4404 -0.6828
 1584SOL     OW16213   4.202   0.638   2.532 -0.3419 -0.4847  0.3188
 1584SOL    HW116214   4.288   0.607   2.559  0.0381  0.7475  0.5281
 1584SOL    HW216215   4.148   0.577   2.583  0.0846 -1.0987  0.0388
 1585SOL     OW16216   2.582   3.780   3.768 -0.3622  0.0092 -0.1301
 1585SOL    HW116217   2.588   3.762   3.862  0.4350  0.6494 -0.0611
 1585SOL    HW216218   2.504   3.834   3.766 -0.8961 -0.6474  2.2326
 1586SOL     OW16219   4.263   4.512   3.301 -0.0048  0.1461  0.2089
 1586SOL    HW116220   4.309   4.524   3.218 -2.5619  1.0451 -1.0748
 1586SOL    HW216221   4.248   4.604   3.322  1.0450  0.5214 -0.7348
 1587SOL     OW16222   2.933   4.582   3.747  0.2520 -0.2478 -0.1410
 1587SOL    HW116223   2.938   4.564   3.841 -0.0129  0.8591  0.0951
 1587SOL    HW216224   2.972   4.670   3.743  3.2445 -1.6357 -1.6760
 1588SOL     OW16225   2.674   2.882   5.521 -0.0877  0.1445 -0.1824
 1588SOL    HW116226   2.679   2.792   5.554  1.7718 -0.2760 -1.5904
 1588SOL    HW216227   2.593   2.910   5.563  0.2952  1.7700 -0.5250
 1589SOL     OW16228   1.446   0.796   3.579  0.2178  0.0923 -0.1842
 1589SOL    HW116229   1.534   0.819   3.611 -0.1317  0.1367  0.7304
 1589SOL    HW216230   1.378   0.852   3.617 -1.0995 -2.2836  0.9271
 1590SOL     OW16231   3.179   2.016   7.917  0.3399 -0.4527  0.0268
 1590SOL    HW116232   3.185   2.070   7.838  0.8723  0.5355  0.7436
 1590SOL    HW216233   3.129   1.938   7.892 -0.5558  1.1708 -3.2657
 1591SOL     OW16234   0.074   2.300   9.763  0.0381 -0.4841  0.0057
 1591SOL    HW116235   0.059   2.375   9.820  1.3504  1.8079 -2.6283
 1591SOL    HW216236   0.169   2.303   9.751 -0.0186 -0.0433 -0.3466
 1592SOL     OW16237   1.341   2.291   7.775 -0.3360 -0.2404 -0.7287
 1592SOL    HW116238   1.385   2.308   7.692 -0.2207  1.3529 -0.3448
 1592SOL    HW216239   1.333   2.196   7.766  0.4892 -0.3102 -0.7202
 1593SOL     OW16240   3.575   0.021   4.479 -0.2174  0.1385 -0.1070
 1593SOL    HW116241   3.554   0.105   4.519  1.8817  0.9889 -0.7638
 1593SOL    HW216242   3.540   4.676   4.537 -1.5662  0.6353 -0.3387
 1594SOL     OW16243   2.645   4.056  14.390  0.0936  0.4098  0.4568
 1594SOL    HW116244   2.739   4.069  14.395 -0.0284  1.2105  0.7807
 1594SOL    HW216245   2.620   4.107  14.468  1.6364 -0.7581  1.7034
 1595SOL     OW16246   0.843   2.486  10.665 -0.0532 -0.0429  0.0262
 1595SOL    HW116247   0.894   2.514  10.741  1.4557 -0.6661 -0.7590
 1595SOL    HW216248   0.761   2.528  10.689  1.4309  3.2930 -0.8019
 1596SOL     OW16249   4.635   2.467   8.062  0.3255  0.2369  0.0233
 1596SOL    HW116250   4.649   2.561   8.071 -0.5385  0.1970  1.7844
 1596SOL    HW216251   4.612   2.441   8.151 -1.2092 -1.4665 -0.8701
 1597SOL     OW16252   2.745   4.254  17.152 -0.4337  0.3490  0.4468
 1597SOL    HW116253   2.676   4.320  17.140 -0.8086  0.0343  0.8232
 1597SOL    HW216254   2.825   4.305  17.151 -0.0410 -0.2644  0.3571
 1598SOL     OW16255   4.688   2.557   1.975  0.1566  0.2553  0.2213
 1598SOL    HW116256   4.667   2.618   1.905 -0.3340  0.1443  0.2688
 1598SOL    HW216257   0.061   2.555   1.965 -0.1560 -0.3658 -2.4747
 1599SOL     OW16258   3.074   3.694   5.641 -0.1344 -0.0756  0.5527
 1599SOL    HW116259   3.031   3.654   5.716  0.7072 -1.1910  0.4281
 1599SOL    HW216260   3.160   3.677   5.677 -0.6152 -1.6990  0.9030
 1600SOL     OW16261   2.127   1.108   6.038 -0.5210 -0.0637  0.3357
 1600SOL    HW116262   2.111   1.186   6.092  0.7211 -0.6633  1.5625
 1600SOL    HW216263   2.132   1.035   6.099 -2.1990 -0.1057  0.4230
 1601SOL     OW16264   1.090   2.705  14.208 -0.6094 -0.1743 -0.0785
 1601SOL    HW116265   1.079   2.679  14.116  0.5220 -0.0786 -0.2408
 1601SOL    HW216266   1.152   2.777  14.201  0.4061 -1.1058 -0.6869
 1602SOL     OW16267   3.294   1.141   6.050  0.0302  0.0106  0.1446
 1602SOL    HW116268   3.342   1.113   6.128  0.2311 -1.6709 -0.5772
 1602SOL    HW216269   3.304   1.236   6.054  1.1715 -0.1517  1.1144
 1603SOL     OW16270   2.826   2.265  16.949 -0.7852  0.2199 -0.3721
 1603SOL    HW116271   2.885   2.331  16.912 -0.7014  1.0366  1.2353
 1603SOL    HW216272   2.885   2.191  16.933 -0.3861  0.3002  0.7957
 1604SOL     OW16273   0.704   0.138  17.019  0.2631 -0.1450 -0.5274
 1604SOL    HW116274   0.687   0.196  17.094 -1.4767  1.0440 -1.8451
 1604SOL    HW216275   0.796   0.117  17.034 -0.1035 -0.4354  1.3488
 1605SOL     OW16276   3.357   4.391   0.256 -0.1650 -0.3260  0.0551
 1605SOL    HW116277   3.323   4.326   0.318 -0.5995  0.4118  0.6030
 1605SOL    HW216278   3.317   4.475   0.283  0.0682 -0.2461  0.1528
 1606SOL     OW16279   1.872   2.285   8.964 -0.4805  0.2889 -0.3084
 1606SOL    HW116280   1.815   2.252   9.033  0.2531  1.3450  0.8092
 1606SOL    HW216281   1.824   2.358   8.925 -0.6623 -0.1556 -0.9122
 1607SOL     OW16282   2.284   1.125   2.072  0.0145  0.0856  0.2712
 1607SOL    HW116283   2.234   1.072   2.009 -0.1933  0.1649  0.3686
 1607SOL    HW216284   2.286   1.075   2.153 -1.5858  0.4078  0.5176
 1608SOL     OW16285   1.799   0.060  12.729 -0.8083  0.2020 -0.6133
 1608SOL    HW116286   1.844   0.145  12.733  0.8399 -0.7004  0.2842
 1608SOL    HW216287   1.785   0.040  12.637 -0.6893 -1.5456 -0.2468
 1609SOL     OW16288   0.837   2.749   6.874 -0.5983 -1.0309 -0.1261
 1609SOL    HW116289   0.772   2.812   6.907  2.6923  2.1414  0.3671
 1609SOL    HW216290   0.807   2.668   6.914 -0.8067 -1.4200 -1.0818
 1610SOL     OW16291   2.604   4.165   9.810 -0.3485  0.0690  0.1028
 1610SOL    HW116292   2.545   4.225   9.764  2.4538  0.5420 -2.8802
 1610SOL    HW216293   2.571   4.189   9.897 -3.1809 -1.7482 -0.4814
 1611SOL     OW16294   1.654   0.807   2.286  0.4016  0.2304 -0.1957
 1611SOL    HW116295   1.653   0.787   2.379  0.2764 -0.9412 -0.4503
 1611SOL    HW216296   1.669   0.901   2.296  0.9159  0.4899 -3.2478
 1612SOL     OW16297   3.386   2.618  10.636 -0.0364  0.2895  0.2449
 1612SOL    HW116298   3.468   2.587  10.598  0.0778  1.3415 -0.3797
 1612SOL    HW216299   3.420   2.689  10.691  2.8946 -0.5133 -0.5425
 1613SOL     OW16300   2.976   1.318  17.215 -0.3731  0.1566  0.0692
 1613SOL    HW116301   2.991   1.407  17.181 -0.5096 -0.7083 -2.2516
 1613SOL    HW216302   2.994   1.261  17.140  0.9960 -2.3719  2.3402
 1614SOL     OW16303   0.938   4.010   8.909  0.1871 -0.1524 -0.4967
 1614SOL    HW116304   0.987   4.016   8.991  0.2598  0.2747 -0.5757
 1614SOL    HW216305   0.848   4.010   8.942  0.1331  0.3504 -0.6527
 1615SOL     OW16306   3.586   1.082   2.083  0.2515  0.3844 -0.5453
 1615SOL    HW116307   3.646   1.129   2.141 -2.4369  0.7668  1.9714
 1615SOL    HW216308   3.636   1.013   2.040  2.0757  1.1549  0.3508
 1616SOL     OW16309   4.071   1.061   8.045  0.3513  0.7562 -0.1503
 1616SOL    HW116310   4.161   1.031   8.034  0.9410  2.3135  0.3727
 1616SOL    HW216311   4.085   1.155   8.053  1.4158  0.5441  0.4133
 1617SOL     OW16312   3.792   2.272  12.679  0.3246 -0.8198  0.1097
 1617SOL    HW116313   3.876   2.237  12.709 -0.8423 -2.0590  2.0092
 1617SOL    HW216314   3.813   2.280  12.586  0.6626 -4.2863 -0.1133
 1618SOL     OW16315   4.185   3.173   5.599 -0.2160  0.0844 -0.8164
 1618SOL    HW116316   4.117   3.234   5.627  0.2259  0.3623 -0.3559
 1618SOL    HW216317   4.216   3.145   5.685 -1.8811 -0.0660 -0.2809
 1619SOL     OW16318   2.046   3.087   2.999 -0.8663  0.3223  0.2822
 1619SOL    HW116319   2.136   3.108   3.024 -0.8954 -1.6769  2.0169
 1619SOL    HW216320   2.036   3.098   2.905  0.1304  2.0854  0.3824
 1620SOL     OW16321   3.517   4.503  15.736  0.6597 -0.0548 -0.1794
 1620SOL    HW116322   3.552   4.458  15.813 -0.6471  1.7739  1.4739
 1620SOL    HW216323   3.469   4.433  15.692 -1.0149  0.5212  0.7452
 1621SOL     OW16324   0.538   1.169   7.806 -0.4402 -0.4141 -0.3353
 1621SOL    HW116325   0.504   1.086   7.771  0.4790 -0.3886 -1.3046
 1621SOL    HW216326   0.508   1.227   7.736 -0.5146 -0.6612 -0.5083
 1622SOL     OW16327   0.637   0.891   6.302 -0.1219 -0.4133  0.2941
 1622SOL    HW116328   0.591   0.818   6.260  0.5405 -0.2240 -0.7571
 1622SOL    HW216329   0.622   0.887   6.396 -0.9283  0.7340  0.2227
 1623SOL     OW16330   3.263   2.390   2.762 -0.1737 -0.5437  0.0939
 1623SOL    HW116331   3.218   2.388   2.847 -2.3187  1.5425 -1.0115
 1623SOL    HW216332   3.299   2.301   2.759  0.5982 -0.2723  1.3591
 1624SOL     OW16333   4.189   0.389   1.143  0.5240 -0.0534  0.4238
 1624SOL    HW116334   4.266   0.346   1.180 -0.6635 -1.2766  1.4603
 1624SOL    HW216335   4.127   0.374   1.215 -0.6995 -0.7118 -0.7702
 1625SOL     OW16336   0.026   2.543   4.867 -0.5518 -0.8678 -0.0021
 1625SOL    HW116337   0.097   2.481   4.889  0.3046 -0.3834 -1.4216
 1625SOL    HW216338   0.021   2.594   4.948  1.6761 -0.4449 -0.1371
 1626SOL     OW16339   2.846   4.050   8.807  0.2980  0.2916  0.4333
 1626SOL    HW116340   2.880   4.043   8.718  1.4852 -0.4174  0.9543
 1626SOL    HW216341   2.857   4.144   8.825 -1.7032  0.3316  1.4382
 1627SOL     OW16342   2.441   0.022   2.613  0.0083 -0.1987 -0.0749
 1627SOL    HW116343   2.454   0.057   2.525  0.3522 -0.2919 -0.0605
 1627SOL    HW216344   2.484   4.660   2.603  0.1196 -0.1020 -0.4136
 1628SOL     OW16345   4.654   2.347   8.840 -0.0975 -0.1991 -0.4793
 1628SOL    HW116346   4.581   2.370   8.899 -1.5352  1.0128 -2.7053
 1628SOL    HW216347   4.659   2.252   8.843  0.3178 -0.1537  0.2142
 1629SOL     OW16348   3.191   4.145   3.386  0.2040 -0.6551 -0.0363
 1629SOL    HW116349   3.127   4.200   3.340  0.3184 -0.5749 -0.1026
 1629SOL    HW216350   3.144   4.137   3.469 -1.6296 -2.2580 -1.2350
 1630SOL     OW16351   2.805   2.533  17.173 -0.3316 -0.4762  0.0749
 1630SOL    HW116352   2.866   2.602  17.145  0.9598 -2.1456 -1.2409
 1630SOL    HW216353   2.731   2.550  17.115 -0.5463  3.1022  1.3637
 1631SOL     OW16354   4.387   0.009   4.892  0.3561 -0.4145 -0.0356
 1631SOL    HW116355   4.343   0.008   4.807 -1.4866 -1.2194  0.9177
 1631SOL    HW216356   4.379   0.103   4.911  1.2270 -0.4500  0.5255
 1632SOL     OW16357   2.699   0.074   7.069  0.3907  0.0020  0.0525
 1632SOL    HW116358   2.742   0.127   7.002 -2.0471  0.6218 -1.0205
 1632SOL    HW216359   2.745   4.713   7.064  0.9499  0.3500 -0.5758
 1633SOL     OW16360   0.510   2.648   2.902  0.0462  0.2627 -0.1567
 1633SOL    HW116361   0.443   2.589   2.937 -1.8925  3.2272  1.1181
 1633SOL    HW216362   0.588   2.602   2.932  0.5668 -0.0642 -2.0070
 1634SOL     OW16363   2.905   2.586   8.879 -0.3656 -0.4843  0.2191
 1634SOL    HW116364   2.908   2.663   8.822  0.5204  1.0032  2.2674
 1634SOL    HW216365   2.933   2.516   8.820 -0.7903 -0.4398 -0.0405
 1635SOL     OW16366   3.030   1.212   2.524 -0.0817 -0.0437 -0.8846
 1635SOL    HW116367   2.999   1.203   2.434  1.0631  1.6709 -1.4561
 1635SOL    HW216368   2.974   1.280   2.560 -0.8982 -1.7486  1.0595
 1636SOL     OW16369   4.362   1.732   2.636 -0.3401  0.3190  1.1383
 1636SOL    HW116370   4.323   1.819   2.637 -2.3911 -0.5730 -1.9413
 1636SOL    HW216371   4.431   1.735   2.703 -2.2524  3.9566  2.9177
 1637SOL     OW16372   3.883   3.613   8.478 -0.7068 -0.3054 -0.2803
 1637SOL    HW116373   3.972   3.647   8.465 -1.4125  1.4298 -0.6086
 1637SOL    HW216374   3.882   3.543   8.412 -1.9520 -1.0024  0.4919
 1638SOL     OW16375   3.025   0.947   1.794 -0.3766 -0.0927 -0.2255
 1638SOL    HW116376   3.063   0.996   1.721  0.7887  0.1926  0.5790
 1638SOL    HW216377   2.997   0.865   1.753 -0.4117 -0.4662  0.5498
 1639SOL     OW16378   4.490   2.198  16.851 -0.3410 -0.1832  0.3454
 1639SOL    HW116379   4.487   2.176  16.944  1.1287 -0.9850  0.2112
 1639SOL    HW216380   4.403   2.226  16.823 -0.0331 -1.6650 -2.1462
 1640SOL     OW16381   3.805   4.416   2.850 -0.0395 -0.3980 -0.1626
 1640SOL    HW116382   3.831   4.467   2.926  1.3409 -0.0253 -0.8892
 1640SOL    HW216383   3.831   4.324   2.861  1.6548  0.0490 -0.4615
 1641SOL     OW16384   0.603   0.130   9.797  0.1602  0.6023 -0.2632
 1641SOL    HW116385   0.655   0.111   9.874  2.1956  2.8165 -1.1164
 1641SOL    HW216386   0.531   0.067   9.806  0.5638  0.0986 -0.5573
 1642SOL     OW16387   3.428   3.551   1.846 -0.5101 -0.6616  0.5246
 1642SOL    HW116388   3.442   3.634   1.800 -1.9797 -0.2777  0.7865
 1642SOL    HW216389   3.519   3.523   1.858  0.9131  3.4991 -0.3215
 1643SOL     OW16390   2.988   1.837   1.839 -0.2126 -0.1065  0.3064
 1643SOL    HW116391   2.980   1.860   1.746  0.8141  0.9246  0.4614
 1643SOL    HW216392   2.895   1.837   1.861 -0.1860 -1.6354  0.3859
 1644SOL     OW16393   3.805   3.192   9.209 -0.5792  0.2304  0.3581
 1644SOL    HW116394   3.879   3.197   9.150  0.8722  0.4985  2.2036
 1644SOL    HW216395   3.740   3.148   9.154 -0.6222  0.5518  0.1559
 1645SOL     OW16396   2.162   1.626  15.406  0.2126  0.0064 -0.6880
 1645SOL    HW116397   2.110   1.606  15.328  3.0211 -0.2711 -2.4931
 1645SOL    HW216398   2.094   1.638  15.473  1.2385  2.3674 -0.0724
 1646SOL     OW16399   0.112   4.292   8.872  0.2190 -0.2418  0.0032
 1646SOL    HW116400   0.093   4.287   8.965  0.0993 -0.1036 -0.0140
 1646SOL    HW216401   0.170   4.369   8.866  2.8351 -2.4581 -3.3113
 1647SOL     OW16402   3.333   0.504   4.801 -0.0341 -0.2078  0.1013
 1647SOL    HW116403   3.317   0.597   4.785  2.7546 -0.0412 -1.7385
 1647SOL    HW216404   3.422   0.498   4.836 -0.3727 -0.2431  0.9407
 1648SOL     OW16405   3.283   2.206   3.008 -0.8570  0.3426 -0.5707
 1648SOL    HW116406   3.289   2.165   2.921  1.3570  1.1673 -0.8088
 1648SOL    HW216407   3.240   2.138   3.061  1.6010 -0.1410  0.8162
 1649SOL     OW16408   0.978   4.620   3.795 -0.1024  0.0113  0.4303
 1649SOL    HW116409   0.993   4.610   3.701  0.4342  0.1400  0.5029
 1649SOL    HW216410   0.927   4.541   3.814  0.6408 -0.5069  0.2634
 1650SOL     OW16411   2.973   4.384   3.552 -0.3883 -0.4676  1.0588
 1650SOL    HW116412   2.980   4.454   3.617 -2.2132 -0.2311  1.0002
 1650SOL    HW216413   2.973   4.307   3.609  1.1544 -0.0057  1.6749
 1651SOL     OW16414   3.073   0.595  12.375  0.1379  0.8157  0.2108
 1651SOL    HW116415   3.012   0.546  12.320 -0.1283  0.9034  0.4240
 1651SOL    HW216416   3.097   0.666  12.317  3.1120 -0.1144  0.2708
 1652SOL     OW16417   0.170   3.809   7.902  0.5924  0.2959  0.1131
 1652SOL    HW116418   0.118   3.818   7.981 -0.7810  0.7863 -0.8536
 1652SOL    HW216419   0.200   3.718   7.907 -1.8508 -0.3450  3.1272
 1653SOL     OW16420   3.720   2.145   7.165  0.4874 -0.0509  0.3714
 1653SOL    HW116421   3.649   2.165   7.104 -0.9728 -3.1797  1.0342
 1653SOL    HW216422   3.696   2.060   7.202  3.5576 -0.4177  1.4999
 1654SOL     OW16423   1.935   4.058   4.251 -1.0516 -0.7479 -0.4052
 1654SOL    HW116424   2.010   4.047   4.193 -1.5710 -0.2687 -1.1764
 1654SOL    HW216425   1.974   4.063   4.338 -1.5068 -2.9086 -0.0642
 1655SOL     OW16426   0.385   3.180  14.709  1.0833 -0.8332 -0.1390
 1655SOL    HW116427   0.476   3.169  14.734  0.8280 -0.6188  0.8892
 1655SOL    HW216428   0.360   3.254  14.765 -1.6831 -0.3535 -1.9546
 1656SOL     OW16429   2.275   2.837  11.341 -0.0980 -0.1089 -0.0827
 1656SOL    HW116430   2.199   2.779  11.348  0.5143 -0.8556  0.4380
 1656SOL    HW216431   2.297   2.834  11.248  1.3440  0.6120  0.2471
 1657SOL     OW16432   1.825   0.798   3.944  0.2850 -0.7254 -0.0577
 1657SOL    HW116433   1.844   0.828   4.033  0.6030 -2.6113  0.5068
 1657SOL    HW216434   1.765   0.866   3.914  1.3218  0.8787  1.4896
 1658SOL     OW16435   4.455   4.606   6.302 -0.1212 -0.3712  0.1271
 1658SOL    HW116436   4.513   4.555   6.245 -1.0645 -0.1533 -1.0343
 1658SOL    HW216437   4.498   4.690   6.318 -2.4987  0.8697 -0.0346
 1659SOL     OW16438   1.621   4.265  13.872  0.3134  0.0647 -0.2360
 1659SOL    HW116439   1.537   4.246  13.831 -1.4361  1.2601  2.8045
 1659SOL    HW216440   1.673   4.190  13.843  0.4574 -0.2523  0.8263
 1660SOL     OW16441   4.319   4.309   5.498 -0.1805 -0.5683  1.0444
 1660SOL    HW116442   4.267   4.279   5.573 -0.6065 -0.6835  0.7072
 1660SOL    HW216443   4.353   4.224   5.470 -0.7175 -0.3752 -0.2021
 1661SOL     OW16444   4.511   4.126   7.783 -0.1280 -0.1494  0.1955
 1661SOL    HW116445   4.565   4.131   7.704 -1.0172  0.4126 -0.3808
 1661SOL    HW216446   4.442   4.192   7.775  1.4275  1.7385  2.5642
 1662SOL     OW16447   2.836   4.551   7.066  0.7112  0.5940 -0.4051
 1662SOL    HW116448   2.914   4.507   7.101  1.2412  0.4228 -1.7779
 1662SOL    HW216449   2.773   4.494   7.108  1.2049  0.5124  0.2314
 1663SOL     OW16450   4.516   2.224   6.622  0.7363 -0.8388  0.5599
 1663SOL    HW116451   4.489   2.285   6.554 -3.3666 -2.6059  0.6149
 1663SOL    HW216452   4.597   2.268   6.647  0.1128 -0.7534  2.5201
 1664SOL     OW16453   1.454   1.886   2.899  0.2115  0.0824  0.0847
 1664SOL    HW116454   1.532   1.836   2.925 -0.5997 -1.7660 -1.0469
 1664SOL    HW216455   1.397   1.809   2.902  2.0163 -1.4011 -4.3140
 1665SOL     OW16456   4.403   0.988  10.280  0.3145  0.2261 -0.3598
 1665SOL    HW116457   4.355   1.071  10.279  1.9263  1.2035  2.1141
 1665SOL    HW216458   4.321   0.941  10.297  1.5746 -2.0351 -0.5093
 1666SOL     OW16459   4.594   4.193  16.582 -0.4710  0.5522 -0.0970
 1666SOL    HW116460   4.640   4.241  16.514 -0.6348  0.5546 -0.2055
 1666SOL    HW216461   4.665   4.137  16.615  0.5983  2.1830  0.3480
 1667SOL     OW16462   3.506   3.853   5.895  0.6325 -0.0073 -0.3067
 1667SOL    HW116463   3.566   3.809   5.955  1.6181  0.6434 -0.8031
 1667SOL    HW216464   3.555   3.836   5.815  1.6259  0.3849  0.2232
 1668SOL     OW16465   4.206   4.550   6.810  0.3912 -0.1271  0.1014
 1668SOL    HW116466   4.127   4.577   6.857  0.6582 -0.8057  0.9490
 1668SOL    HW216467   4.276   4.582   6.867  0.2622 -0.6744  0.5714
 1669SOL     OW16468   2.110   2.517   3.361 -0.2664  0.2617  0.0288
 1669SOL    HW116469   2.197   2.488   3.333  1.5356  4.8449  0.7561
 1669SOL    HW216470   2.083   2.444   3.417 -2.5713 -1.2391 -3.0954
 1670SOL     OW16471   0.009   0.557   5.689  0.4416 -0.6799 -0.4947
 1670SOL    HW116472   4.705   0.586   5.602  0.7444 -0.5015 -0.5285
 1670SOL    HW216473   4.674   0.482   5.705 -0.0529 -0.3042 -0.4967
 1671SOL     OW16474   2.827   0.601   9.850  0.6185 -0.1291  0.5388
 1671SOL    HW116475   2.850   0.538   9.781 -1.4365 -0.2170 -0.0735
 1671SOL    HW216476   2.860   0.553   9.926  0.4176  0.1236  0.7813
 1672SOL     OW16477   0.937   1.624  17.191 -0.1641 -0.6632 -0.7123
 1672SOL    HW116478   0.995   1.555  17.160 -1.0766 -1.7476 -0.0225
 1672SOL    HW216479   0.847   1.605  17.163  0.7959 -1.7039 -3.0358
 1673SOL     OW16480   4.088   0.802   7.887  0.0371  0.6460  0.0574
 1673SOL    HW116481   4.166   0.772   7.935  0.2613  1.5829  0.2791
 1673SOL    HW216482   4.058   0.870   7.948 -1.6202 -1.1757  1.2753
 1674SOL     OW16483   1.356   1.106   8.518  0.2082  0.2688  0.2060
 1674SOL    HW116484   1.300   1.134   8.589 -0.6052  1.3830 -0.8872
 1674SOL    HW216485   1.421   1.057   8.569  1.0601 -0.6581 -1.7631
 1675SOL     OW16486   0.181   1.482  16.131  0.6346  0.1560  0.1434
 1675SOL    HW116487   0.102   1.441  16.096  0.9834  1.1335 -1.8053
 1675SOL    HW216488   0.181   1.560  16.076  1.4636  0.1065  0.0819
 1676SOL     OW16489   4.077   3.620   4.371  0.3262 -0.4566 -0.3368
 1676SOL    HW116490   4.121   3.538   4.349  1.5192  0.1096 -0.0580
 1676SOL    HW216491   4.092   3.655   4.283 -1.1740  0.8690 -0.0664
 1677SOL     OW16492   3.308   1.073   7.449 -0.4069  0.2882 -0.2609
 1677SOL    HW116493   3.327   1.164   7.424 -1.4780  0.4048 -0.6563
 1677SOL    HW216494   3.214   1.073   7.432 -0.3577 -0.5672 -0.5128
 1678SOL     OW16495   3.664   3.877  16.489  0.1649 -0.2041  0.1442
 1678SOL    HW116496   3.757   3.886  16.467 -0.0292  0.7872 -0.2639
 1678SOL    HW216497   3.649   3.784  16.504 -2.4020  0.5122  1.8725
 1679SOL     OW16498   1.403   1.426  12.958 -0.1328 -0.5820 -0.0333
 1679SOL    HW116499   1.450   1.469  13.030 -0.7809  1.8341 -1.0460
 1679SOL    HW216500   1.349   1.495  12.919 -0.2250  0.3074  1.6742
 1680SOL     OW16501   4.436   3.825   2.135  0.1947 -0.1395 -0.1124
 1680SOL    HW116502   4.449   3.731   2.147 -0.2447 -0.0919  0.6752
 1680SOL    HW216503   4.349   3.843   2.101 -0.7279 -3.5485  0.4635
 1681SOL     OW16504   0.020   4.014  12.252 -0.0150 -0.0567  0.4799
 1681SOL    HW116505   4.662   3.964  12.259  0.3395 -0.5106  1.2821
 1681SOL    HW216506   0.073   3.960  12.310 -0.7545 -0.8198  0.4347
 1682SOL     OW16507   2.674   4.100  13.924 -0.2994  0.2489 -0.0744
 1682SOL    HW116508   2.607   4.164  13.900  0.2656  1.1760  0.8339
 1682SOL    HW216509   2.747   4.161  13.916 -0.6148  0.5774 -0.4360
 1683SOL     OW16510   2.161   2.144   8.621  0.2381  0.8835  0.0889
 1683SOL    HW116511   2.168   2.071   8.559 -2.3897  1.3692 -0.7916
 1683SOL    HW216512   2.130   2.093   8.696  1.8092 -0.8944 -0.4993
 1684SOL     OW16513   2.144   2.353   6.655 -0.5741 -0.0104 -0.2438
 1684SOL    HW116514   2.162   2.437   6.612  1.8663  0.4544  1.7057
 1684SOL    HW216515   2.106   2.383   6.737  1.7759 -1.4017  1.3285
 1685SOL     OW16516   1.188   1.942   9.626  0.1607 -0.8175 -0.0642
 1685SOL    HW116517   1.159   1.994   9.701 -1.9801 -0.2416 -1.3089
 1685SOL    HW216518   1.233   1.881   9.685 -0.0225 -1.2336 -0.3572
 1686SOL     OW16519   2.080   0.126   1.343  0.0276  0.0999  0.9904
 1686SOL    HW116520   2.028   0.191   1.389  2.6226  3.7364 -1.2081
 1686SOL    HW216521   2.012   0.091   1.285 -0.1924  1.8409  0.2075
 1687SOL     OW16522   0.378   2.945   3.291  0.1271  0.0523  0.0426
 1687SOL    HW116523   0.440   2.905   3.352 -0.0209 -0.1491  0.0605
 1687SOL    HW216524   0.384   2.881   3.220 -0.2196 -1.0662  1.0241
 1688SOL     OW16525   0.026   3.241  13.323 -0.0562  0.2437  0.4135
 1688SOL    HW116526   0.007   3.335  13.325  0.1017  0.2455  1.9358
 1688SOL    HW216527   0.062   3.232  13.235 -0.3211  0.7590  0.2497
 1689SOL     OW16528   3.941   3.749   7.334  0.3477  0.0086 -0.2903
 1689SOL    HW116529   3.882   3.824   7.343 -0.3261 -0.4269 -1.0946
 1689SOL    HW216530   3.877   3.679   7.349  1.9700 -1.1413  1.2634
 1690SOL     OW16531   1.205   2.527   6.716  0.4611 -0.3932  0.0917
 1690SOL    HW116532   1.187   2.490   6.630 -1.5018 -2.0675  1.2241
 1690SOL    HW216533   1.300   2.514   6.721  0.5289  0.4965  1.2704
 1691SOL     OW16534   1.734   1.815   3.294  0.3454 -0.0500  0.6554
 1691SOL    HW116535   1.790   1.775   3.360 -0.3666 -2.9065 -0.4721
 1691SOL    HW216536   1.754   1.760   3.218 -2.4219  1.5346 -1.1877
 1692SOL     OW16537   2.674   3.813  17.504  0.1598  0.0528  0.1832
 1692SOL    HW116538   2.657   3.782  17.415 -0.4762 -2.6155  1.2325
 1692SOL    HW216539   2.596   3.866  17.515  0.7702  0.7469  1.1874
 1693SOL     OW16540   1.523   3.240  17.034  0.3855  0.3962  0.0828
 1693SOL    HW116541   1.460   3.175  17.003  1.8542 -0.9448 -0.0472
 1693SOL    HW216542   1.609   3.200  17.021  0.0463 -0.3388  0.0897
 1694SOL     OW16543   0.282   2.487   2.961 -0.0964  0.2714  0.4368
 1694SOL    HW116544   0.277   2.446   2.875 -0.3267  1.6547 -0.2108
 1694SOL    HW216545   0.247   2.420   3.019  0.5546 -1.3652 -1.0625
 1695SOL     OW16546   1.605   2.305   7.024 -0.2654 -0.0506 -0.1787
 1695SOL    HW116547   1.538   2.296   6.957  1.1596 -1.3774 -1.4230
 1695SOL    HW216548   1.660   2.378   6.995 -2.1620  1.5913  0.3901
 1696SOL     OW16549   1.472   0.738   2.890 -0.4567 -0.4782  0.0512
 1696SOL    HW116550   1.431   0.677   2.830 -2.2380 -3.3700  4.2134
 1696SOL    HW216551   1.418   0.717   2.966  3.5640 -2.1886  2.4225
 1697SOL     OW16552   4.711   0.400   8.121  0.4251  0.0080  0.0676
 1697SOL    HW116553   4.708   0.362   8.033  1.6017  0.4290 -0.1575
 1697SOL    HW216554   0.080   0.384   8.143  0.3176 -1.1152 -0.3222
 1698SOL     OW16555   3.162   4.212  14.783  0.9189 -0.0198 -0.1877
 1698SOL    HW116556   3.078   4.183  14.819  0.4174  0.3258 -1.0821
 1698SOL    HW216557   3.226   4.169  14.840  2.1032 -0.7576 -2.1113
 1699SOL     OW16558   1.986   4.715  11.715 -0.2262  0.2647  0.5992
 1699SOL    HW116559   1.994   4.706  11.620 -0.9797  1.3700  0.4351
 1699SOL    HW216560   1.902   0.037  11.725  0.9323  2.1177  1.9095
 1700SOL     OW16561   2.918   2.810   8.698  0.3748  0.3478  0.7513
 1700SOL    HW116562   2.823   2.813   8.691  0.5611 -0.7815 -1.9840
 1700SOL    HW216563   2.942   2.815   8.606  0.7562 -1.5434  0.7547
 1701SOL     OW16564   3.773   2.904  13.005 -0.5619  0.1542 -0.2648
 1701SOL    HW116565   3.852   2.939  12.965  0.2031 -2.1667 -0.7666
 1701SOL    HW216566   3.815   2.833  13.053  2.2370  2.2015  0.2774
 1702SOL     OW16567   4.392   3.541   2.149  0.0003  0.1672 -0.5534
 1702SOL    HW116568   4.322   3.475   2.151 -1.4557  1.7333  0.1719
 1702SOL    HW216569   4.401   3.538   2.054 -2.1180 -1.3893 -0.7144
 1703SOL     OW16570   1.049   4.442   3.086 -0.4167 -0.7247  0.2957
 1703SOL    HW116571   1.087   4.510   3.141 -0.8668 -0.3444  0.1372
 1703SOL    HW216572   1.113   4.371   3.088 -0.2517 -0.6201 -1.2981
 1704SOL     OW16573   1.917   3.858  10.839 -0.3758 -0.5423 -0.2379
 1704SOL    HW116574   1.883   3.770  10.827 -2.5048  0.1724  0.6139
 1704SOL    HW216575   1.876   3.896  10.761 -1.4116 -2.1454 -0.4536
 1705SOL     OW16576   0.514   4.283   8.488  0.0888 -0.2284 -0.1440
 1705SOL    HW116577   0.459   4.235   8.550 -2.1097 -0.0566 -1.9215
 1705SOL    HW216578   0.467   4.277   8.404 -0.3670 -0.4997  0.1328
 1706SOL     OW16579   2.970   0.024   6.139  0.5159 -0.2279 -0.5950
 1706SOL    HW116580   2.937   4.704   6.218  0.4878  0.0980 -0.4290
 1706SOL    HW216581   3.047   4.690   6.133  1.5293  0.8457  2.2020
 1707SOL     OW16582   1.033   1.980   8.505  0.0969 -0.1341  0.2765
 1707SOL    HW116583   0.949   1.968   8.462  0.2019  0.6317 -0.1528
 1707SOL    HW216584   0.994   2.011   8.587 -0.9726 -2.8510  0.7673
 1708SOL     OW16585   0.543   2.942  13.410 -0.5199 -0.4870 -0.2561
 1708SOL    HW116586   0.548   2.987  13.326  0.6490 -2.7215 -1.3595
 1708SOL    HW216587   0.630   2.964  13.442 -0.7945  0.3643 -0.0757
 1709SOL     OW16588   0.626   2.994   5.157 -0.0672  0.4005  0.0716
 1709SOL    HW116589   0.685   3.069   5.148  2.6367 -1.7624 -0.0811
 1709SOL    HW216590   0.592   2.972   5.070 -0.8731 -1.7322  0.9151
 1710SOL     OW16591   2.536   4.600   2.158 -0.4406  0.5260  0.4188
 1710SOL    HW116592   2.631   4.587   2.148 -0.4350 -0.2633  1.4862
 1710SOL    HW216593   2.534   4.691   2.189  0.1497  0.4911  0.5773
 1711SOL     OW16594   3.444   2.647   4.272  0.2878  0.2330 -0.1654
 1711SOL    HW116595   3.412   2.557   4.267  1.7589 -0.2063 -1.6020
 1711SOL    HW216596   3.368   2.688   4.231 -0.7201  1.2278  2.6561
 1712SOL     OW16597   4.094   1.960   0.472 -0.0378  0.1693 -0.9674
 1712SOL    HW116598   4.031   1.947   0.543 -0.3679  0.3084 -1.2354
 1712SOL    HW216599   4.085   2.052   0.450  0.9243  0.2572 -0.9646
 1713SOL     OW16600   2.033   1.219  16.012  0.1183 -0.0076 -0.5222
 1713SOL    HW116601   2.084   1.139  16.000  0.9739  0.4814 -0.1603
 1713SOL    HW216602   2.000   1.232  15.923  3.0561  1.0704 -1.4659
 1714SOL     OW16603   0.878   3.181   3.789  0.5480 -0.4436  0.2006
 1714SOL    HW116604   0.908   3.152   3.875 -0.1712  1.7162  1.1692
 1714SOL    HW216605   0.891   3.105   3.732  1.3286  0.5494 -0.9436
 1715SOL     OW16606   3.905   3.576   5.818  0.1504  0.2636 -0.2413
 1715SOL    HW116607   3.972   3.644   5.810  2.0556 -1.7957 -1.9855
 1715SOL    HW216608   3.913   3.546   5.908  3.9983 -0.0496 -0.6825
 1716SOL     OW16609   2.457   0.219   3.201  0.6813  0.6114 -0.1596
 1716SOL    HW116610   2.389   0.217   3.133  0.2661  2.2454  0.2101
 1716SOL    HW216611   2.524   0.161   3.166 -1.2145  0.5210 -3.6083
 1717SOL     OW16612   1.219   4.541  10.815 -0.1447 -0.1705  0.3858
 1717SOL    HW116613   1.311   4.536  10.842  0.0671  2.6416  0.1457
 1717SOL    HW216614   1.192   4.571  10.902 -1.9175  3.4630 -1.4338
 1718SOL     OW16615   2.385   3.473  15.255  0.3194 -0.2643  0.2002
 1718SOL    HW116616   2.341   3.556  15.274  1.8727  0.6494 -0.2190
 1718SOL    HW216617   2.354   3.453  15.167 -0.4259  0.4553  0.2965
 1719SOL     OW16618   1.703   0.334   6.393 -0.0587 -0.0352 -0.3399
 1719SOL    HW116619   1.645   0.362   6.323  1.7126 -0.0380 -1.8123
 1719SOL    HW216620   1.759   0.269   6.350 -0.0539 -0.9352  1.0157
 1720SOL     OW16621   4.238   1.209  14.547 -0.5131 -0.2995 -0.3584
 1720SOL    HW116622   4.288   1.258  14.612  0.1232 -2.4398  0.7600
 1720SOL    HW216623   4.213   1.136  14.604  0.0103  0.5716  0.9630
 1721SOL     OW16624   1.720   0.420   5.171 -0.3577  0.1532 -0.0071
 1721SOL    HW116625   1.732   0.327   5.188 -0.5706 -0.0937 -1.1740
 1721SOL    HW216626   1.670   0.445   5.249 -0.5703 -1.6086  0.4238
 1722SOL     OW16627   3.915   2.004   3.643  0.3135 -0.3590  0.3857
 1722SOL    HW116628   3.829   2.041   3.662  1.0611  0.6451  1.8906
 1722SOL    HW216629   3.943   1.990   3.734 -1.5173 -0.8092  0.8694
 1723SOL     OW16630   0.497   2.242  13.242  0.4728  0.1091 -0.6479
 1723SOL    HW116631   0.579   2.219  13.199  0.8845  0.5902 -0.1228
 1723SOL    HW216632   0.488   2.172  13.306  2.8159 -0.0534 -0.5091
 1724SOL     OW16633   2.435   0.217  17.506  0.3535  0.1128 -0.4048
 1724SOL    HW116634   2.499   0.254  17.445  1.0500 -0.8299 -0.2374
 1724SOL    HW216635   2.480   0.152  17.560  2.4071 -0.2886 -2.6088
 1725SOL     OW16636   1.901   1.032  14.010  0.7139 -0.5255  0.0685
 1725SOL    HW116637   1.834   1.034  14.079  1.0464  0.6909  0.3404
 1725SOL    HW216638   1.974   1.076  14.053 -1.4312  1.5200  1.5902
 1726SOL     OW16639   1.784   1.329   2.146  0.8958 -1.0459 -0.4884
 1726SOL    HW116640   1.706   1.381   2.164  1.0853 -0.6058 -0.9637
 1726SOL    HW216641   1.762   1.303   2.057 -2.4006 -1.0620  0.3196
 1727SOL     OW16642   1.845   3.100   1.998 -0.5474  0.4810  0.6312
 1727SOL    HW116643   1.806   3.028   2.046 -0.1334 -0.0113  0.2300
 1727SOL    HW216644   1.792   3.173   2.032  1.7225  1.0574  2.9075
 1728SOL     OW16645   2.187   3.063   7.082  0.2274 -0.4824  0.0615
 1728SOL    HW116646   2.253   3.024   7.025  2.6713  1.3836  1.6301
 1728SOL    HW216647   2.119   2.997   7.094  1.4162 -1.6781  0.2331
 1729SOL     OW16648   2.123   2.152  10.426 -0.2542  0.2111  0.2706
 1729SOL    HW116649   2.119   2.119  10.337 -0.3714  1.1205 -0.0637
 1729SOL    HW216650   2.109   2.247  10.418 -0.5612  0.2615  1.4471
 1730SOL     OW16651   0.681   4.103   4.491  0.3923  0.3015 -0.5857
 1730SOL    HW116652   0.744   4.144   4.432 -0.3724 -0.5946 -2.0321
 1730SOL    HW216653   0.649   4.025   4.445  4.1945 -1.2164 -0.6188
 1731SOL     OW16654   1.726   2.946   7.885  0.0019 -0.7263 -0.2994
 1731SOL    HW116655   1.803   3.000   7.902 -1.5251  1.3408  0.0640
 1731SOL    HW216656   1.745   2.881   7.953  2.0522 -0.6818 -0.8389
 1732SOL     OW16657   3.812   0.505   8.464  0.1192 -0.7154 -0.0607
 1732SOL    HW116658   3.828   0.446   8.390  0.8217  0.7074 -1.0406
 1732SOL    HW216659   3.860   0.586   8.448  0.2273 -0.9761 -1.0316
 1733SOL     OW16660   0.645   3.322   5.364  0.4268 -0.4502  0.7003
 1733SOL    HW116661   0.626   3.270   5.442  1.9408 -3.0196 -0.6028
 1733SOL    HW216662   0.735   3.291   5.356  0.8693  0.7873  0.9447
 1734SOL     OW16663   1.234   3.427  10.540  0.2827 -0.0975  0.2175
 1734SOL    HW116664   1.302   3.421  10.607 -2.9519 -2.1297  3.3526
 1734SOL    HW216665   1.217   3.335  10.523  1.2115 -0.4340  1.1350
 1735SOL     OW16666   1.680   1.785  10.341 -0.3961  0.0441 -0.3358
 1735SOL    HW116667   1.738   1.811  10.269  2.4258 -0.3918  1.7626
 1735SOL    HW216668   1.596   1.811  10.304 -1.3733 -1.7377  0.6550
 1736SOL     OW16669   0.001   3.805   4.712  0.2036  0.2605  0.4883
 1736SOL    HW116670   4.652   3.812   4.774  0.2742  3.1404  0.2515
 1736SOL    HW216671   4.702   3.885   4.664 -1.6136 -0.0377  0.8192
 1737SOL     OW16672   2.624   2.100   4.266 -0.0673 -0.4810 -0.4752
 1737SOL    HW116673   2.715   2.129   4.260 -0.5699  1.2517  0.3508
 1737SOL    HW216674   2.607   2.079   4.358 -1.8658  0.8558 -0.5140
 1738SOL     OW16675   1.042   1.785   3.781 -0.8589 -0.3002  0.0222
 1738SOL    HW116676   1.038   1.803   3.687  0.5650 -0.3968 -0.0451
 1738SOL    HW216677   1.079   1.698   3.764 -0.9492  0.0962 -2.2157
 1739SOL     OW16678   2.726   1.904   3.245  0.2299 -0.0702 -0.4215
 1739SOL    HW116679   2.744   1.941   3.159 -3.2550 -2.0456 -1.9895
 1739SOL    HW216680   2.634   1.878   3.239 -0.0241  1.1935 -1.8112
 1740SOL     OW16681   2.428   0.828   1.780 -0.2190  0.3399  0.3008
 1740SOL    HW116682   2.493   0.863   1.840  0.8091 -0.6233 -0.2554
 1740SOL    HW216683   2.414   0.907   1.728 -1.9564 -0.3461 -0.2962
 1741SOL     OW16684   3.558   3.858  10.624 -0.2334 -0.1253  0.1426
 1741SOL    HW116685   3.516   3.942  10.643  0.4657  0.2548 -0.0156
 1741SOL    HW216686   3.545   3.844  10.530 -1.6006 -1.2389  0.4880
 1742SOL     OW16687   3.346   3.070   4.112  0.3433 -0.2389 -0.3022
 1742SOL    HW116688   3.392   3.084   4.195  1.0077 -1.4807 -0.4776
 1742SOL    HW216689   3.297   2.989   4.125 -0.5990  0.3839  0.0707
 1743SOL     OW16690   0.594   2.532   3.240  0.1087  0.8587 -0.0297
 1743SOL    HW116691   0.621   2.462   3.181 -1.0611 -0.8916  1.5012
 1743SOL    HW216692   0.671   2.589   3.242  0.4106  0.4466  0.1296
 1744SOL     OW16693   0.464   1.441   6.695 -0.0913  0.7451  0.1653
 1744SOL    HW116694   0.372   1.421   6.677  0.7065 -1.2927 -1.7660
 1744SOL    HW216695   0.445   1.504   6.764  2.1761  0.4560  1.0517
 1745SOL     OW16696   1.876   1.599  15.948  0.0249  0.4711  0.2693
 1745SOL    HW116697   1.879   1.601  15.853  0.0169 -0.8186  0.2434
 1745SOL    HW216698   1.802   1.542  15.970  0.7736 -1.3254 -2.0404
 1746SOL     OW16699   3.932   1.850  10.864  0.0539 -0.5914  0.6057
 1746SOL    HW116700   3.856   1.792  10.857 -0.6651  0.3490  0.7015
 1746SOL    HW216701   3.940   1.864  10.959 -0.3620  0.3523  0.4925
 1747SOL     OW16702   2.052   0.717  14.839  0.2251  0.4532 -0.0655
 1747SOL    HW116703   2.116   0.782  14.869  0.4485  0.1827  0.0520
 1747SOL    HW216704   1.997   0.702  14.916  1.8420  1.1080  1.2318
 1748SOL     OW16705   0.104   0.800   8.978 -0.0876 -0.1621 -0.3282
 1748SOL    HW116706   0.133   0.820   9.067  1.1379 -0.2888 -0.6914
 1748SOL    HW216707   0.184   0.770   8.934  0.2935  1.3609 -0.6762
 1749SOL     OW16708   0.699   2.114   3.325 -0.4865  0.0189 -0.0224
 1749SOL    HW116709   0.768   2.181   3.329 -1.2417  0.7759  0.1967
 1749SOL    HW216710   0.630   2.164   3.282  1.2174 -0.5273 -3.3850
 1750SOL     OW16711   1.327   1.600   7.293  0.4760  0.4595  0.2470
 1750SOL    HW116712   1.247   1.606   7.346 -0.4112  1.0022 -1.1605
 1750SOL    HW216713   1.304   1.664   7.226 -1.5005 -1.2106 -0.6578
 1751SOL     OW16714   0.929   2.019  17.302 -0.2250  1.1191 -0.1760
 1751SOL    HW116715   0.914   2.106  17.338  0.9940  1.2973 -0.1096
 1751SOL    HW216716   0.888   2.022  17.215  1.5834 -0.1361 -1.0923
 1752SOL     OW16717   0.243   0.763   4.256  0.1911  0.0780 -0.2634
 1752SOL    HW116718   0.252   0.805   4.170 -2.1494 -1.2721 -1.1878
 1752SOL    HW216719   0.326   0.773   4.302 -0.7826  0.4476  1.4232
 1753SOL     OW16720   3.221   2.644   6.381  0.0327  0.4754 -0.0214
 1753SOL    HW116721   3.142   2.603   6.416  0.3270  1.3514  1.6390
 1753SOL    HW216722   3.268   2.569   6.344 -0.4491 -0.0719  0.4886
 1754SOL     OW16723   0.468   0.902   5.966 -0.0561 -0.5399  0.2522
 1754SOL    HW116724   0.468   0.828   6.027 -1.8401  1.4479  2.6690
 1754SOL    HW216725   0.513   0.970   6.016 -1.8090  0.9206 -0.1995
 1755SOL     OW16726   3.600   1.233   1.156 -0.2276 -0.3829  0.7749
 1755SOL    HW116727   3.530   1.174   1.181  1.7123 -2.5344  1.0941
 1755SOL    HW216728   3.564   1.287   1.085  0.7343 -1.6223 -0.6547
 1756SOL     OW16729   3.487   3.272   4.682  0.7610 -0.1458 -0.6705
 1756SOL    HW116730   3.485   3.353   4.733  0.8571 -0.3453 -0.3480
 1756SOL    HW216731   3.553   3.304   4.622  1.1739  1.4298  0.6250
 1757SOL     OW16732   2.105   3.234   0.274 -0.4882 -0.9576  1.4044
 1757SOL    HW116733   2.200   3.225   0.280 -0.1714  2.0482  0.7747
 1757SOL    HW216734   2.092   3.284   0.354 -0.4137  2.9789 -1.0706
 1758SOL     OW16735   0.745   0.765   4.771  0.3351  0.2134 -0.0787
 1758SOL    HW116736   0.753   0.825   4.845 -0.6608  0.4989 -0.1953
 1758SOL    HW216737   0.661   0.793   4.734 -0.2494 -2.2163 -0.6335
 1759SOL     OW16738   2.877   3.045   7.402 -0.7391 -0.3475  0.3910
 1759SOL    HW116739   2.861   3.101   7.478  2.8654  1.6337 -0.3432
 1759SOL    HW216740   2.824   3.094   7.339 -0.4096 -0.6579 -0.1308
 1760SOL     OW16741   3.054   2.791   6.132  0.4317 -0.2744  0.9230
 1760SOL    HW116742   3.073   2.783   6.226  1.5484  0.6315  0.7673
 1760SOL    HW216743   3.025   2.883   6.129  1.4738  0.0867  2.1441
 1761SOL     OW16744   2.605   0.066   7.545  0.2891 -0.6338 -0.1306
 1761SOL    HW116745   2.574   0.017   7.469  0.5645 -0.2718 -0.4805
 1761SOL    HW216746   2.595   0.003   7.617 -0.9361  1.4050  1.4754
 1762SOL     OW16747   4.232   2.189   9.178  0.0446 -0.2455  0.0821
 1762SOL    HW116748   4.279   2.196   9.095 -1.9361  1.5292 -0.8907
 1762SOL    HW216749   4.298   2.215   9.242  1.1695 -2.7135 -0.0569
 1763SOL     OW16750   3.921   4.609   0.593 -0.5016 -0.0716 -0.2395
 1763SOL    HW116751   3.975   4.562   0.530  3.1519  3.1307  0.4894
 1763SOL    HW216752   3.899   4.682   0.535  1.3209  1.7513  1.3114
 1764SOL     OW16753   2.399   3.581  14.398 -0.1837  0.1798  0.3075
 1764SOL    HW116754   2.480   3.557  14.353 -0.4499 -1.1373  0.5454
 1764SOL    HW216755   2.409   3.673  14.423  1.0160  0.4159 -1.0380
 1765SOL     OW16756   1.211   3.060   6.770 -0.1175 -0.0877  0.8368
 1765SOL    HW116757   1.129   3.108   6.761 -0.3027 -0.5248  0.2135
 1765SOL    HW216758   1.177   2.971   6.779  0.9464 -0.4225  1.5359
 1766SOL     OW16759   4.373   0.628   9.184  0.1860 -0.3706 -0.8020
 1766SOL    HW116760   4.405   0.636   9.274 -0.2738 -1.1068 -0.5806
 1766SOL    HW216761   4.302   0.565   9.189 -0.5887  0.3177 -2.8616
 1767SOL     OW16762   3.371   2.348   7.572  0.0743  0.0598 -0.4908
 1767SOL    HW116763   3.393   2.380   7.659  0.4996 -0.9479 -0.2290
 1767SOL    HW216764   3.432   2.401   7.520 -0.2779  2.2139  1.3116
 1768SOL     OW16765   0.791   2.527   1.249 -0.0638  0.3314  0.6249
 1768SOL    HW116766   0.741   2.496   1.324 -0.7091 -0.4779 -0.1405
 1768SOL    HW216767   0.830   2.610   1.277  1.2360  0.2453 -0.9145
 1769SOL     OW16768   2.075   0.673   2.281 -0.6610  0.3006  0.0288
 1769SOL    HW116769   2.105   0.624   2.205  1.5635  1.6926  0.0210
 1769SOL    HW216770   1.979   0.667   2.277 -0.5492 -2.0814  1.0806
 1770SOL     OW16771   0.002   1.366   4.256 -0.4001 -0.0443 -0.1106
 1770SOL    HW116772   0.092   1.333   4.257 -0.0805  0.7932 -0.9081
 1770SOL    HW216773   4.711   1.367   4.161 -1.0724  0.4626 -0.0135
 1771SOL     OW16774   4.508   1.306   7.511 -0.0360 -0.2027  0.2799
 1771SOL    HW116775   4.439   1.372   7.504 -0.6167 -0.8460 -0.1101
 1771SOL    HW216776   4.590   1.345   7.479  0.7552 -1.3278  0.9695
 1772SOL     OW16777   0.803   3.248   4.168 -0.1099 -0.3116 -0.2284
 1772SOL    HW116778   0.811   3.274   4.076 -0.3044 -0.9750 -0.4353
 1772SOL    HW216779   0.710   3.268   4.182  0.2268  0.8426  0.3470
 1773SOL     OW16780   1.417   1.125   1.174  0.5330 -0.0743  0.7662
 1773SOL    HW116781   1.367   1.202   1.199  1.4043  0.7777 -0.1419
 1773SOL    HW216782   1.375   1.059   1.230 -0.0477  0.0231  0.4387
 1774SOL     OW16783   3.028   3.093   2.244  0.4096 -0.3203 -0.4681
 1774SOL    HW116784   3.048   3.176   2.200  0.4811 -0.9083 -1.5356
 1774SOL    HW216785   3.031   3.125   2.334 -1.1819  0.8246 -0.8193
 1775SOL     OW16786   4.216   0.059   9.802 -0.3402 -0.0617  0.5041
 1775SOL    HW116787   4.295   0.101   9.767 -0.8274  1.2410  0.9782
 1775SOL    HW216788   4.151   0.129   9.807  2.7038  2.9405 -1.6750
 1776SOL     OW16789   4.307   2.648   3.759  0.4247 -0.0909  0.2581
 1776SOL    HW116790   4.263   2.583   3.704 -3.5675  0.2785  3.0228
 1776SOL    HW216791   4.315   2.591   3.836 -0.5126 -0.9215 -0.2456
 1777SOL     OW16792   2.796   4.387   4.558 -1.0568  0.0512 -0.2972
 1777SOL    HW116793   2.838   4.313   4.601 -2.5332 -0.4841  0.2296
 1777SOL    HW216794   2.862   4.452   4.578  0.2168 -1.8737  1.7004
 1778SOL     OW16795   3.874   0.162  11.427 -0.4423 -0.2998 -0.0761
 1778SOL    HW116796   3.958   0.188  11.389 -0.4661  1.9048  1.3793
 1778SOL    HW216797   3.818   0.203  11.361 -1.3472  0.2454  1.0323
 1779SOL     OW16798   1.105   4.385   5.312 -0.9300 -0.2293  0.2502
 1779SOL    HW116799   1.147   4.367   5.227  0.8599 -0.3627  1.1689
 1779SOL    HW216800   1.062   4.469   5.297  0.4001  0.5534  0.8438
 1780SOL     OW16801   2.002   0.430   6.850  0.5741  0.3298 -0.5195
 1780SOL    HW116802   1.976   0.505   6.796 -0.6890  0.9257  0.9091
 1780SOL    HW216803   1.948   0.366   6.802 -0.7170  0.7681  0.3364
 1781SOL     OW16804   3.853   1.136   2.711 -0.5261 -0.2787  0.3179
 1781SOL    HW116805   3.925   1.152   2.649 -0.2728  1.8996  1.2084
 1781SOL    HW216806   3.894   1.086   2.781 -0.1045 -1.8404 -1.0306
 1782SOL     OW16807   0.737   1.327   3.947 -0.0472 -0.8773  0.1373
 1782SOL    HW116808   0.784   1.309   3.866 -0.9756 -0.4849 -0.4938
 1782SOL    HW216809   0.693   1.245   3.969 -0.0624 -0.6956  0.7852
 1783SOL     OW16810   2.709   1.162   5.265  0.3691  0.1417 -0.0426
 1783SOL    HW116811   2.711   1.092   5.331 -1.7193  1.2922  1.2637
 1783SOL    HW216812   2.763   1.126   5.195  2.1563 -1.6604  2.2515
 1784SOL     OW16813   1.808   3.967   1.823  0.2201 -0.2812 -0.3300
 1784SOL    HW116814   1.812   3.900   1.892  3.4871  1.0801  0.7869
 1784SOL    HW216815   1.893   3.962   1.780 -0.2706 -1.5008 -1.1804
 1785SOL     OW16816   2.036   2.501  16.581 -0.9037 -0.2786  0.6693
 1785SOL    HW116817   2.013   2.499  16.674 -0.6643  0.1818  0.7374
 1785SOL    HW216818   2.023   2.407  16.569  0.4146 -0.1950 -1.5632
 1786SOL     OW16819   4.693   4.244  12.124 -0.5132  0.8350 -0.6255
 1786SOL    HW116820   4.688   4.300  12.201  0.7825  0.5861 -0.3698
 1786SOL    HW216821   4.710   4.165  12.175 -0.8087  0.7004 -0.7363
 1787SOL     OW16822   3.523   0.154   9.217 -0.0893 -0.3100  0.0108
 1787SOL    HW116823   3.536   0.132   9.309 -0.6724 -1.4207 -0.1702
 1787SOL    HW216824   3.435   0.191   9.208  0.5445  1.2937  0.3149
 1788SOL     OW16825   1.307   2.806   1.730  0.9673  0.7006 -0.0030
 1788SOL    HW116826   1.236   2.782   1.789 -0.7547 -0.4705 -2.5189
 1788SOL    HW216827   1.298   2.901   1.730  1.1907  0.7156  1.0284
 1789SOL     OW16828   4.455   4.694   7.232 -0.1668  1.0125 -0.1005
 1789SOL    HW116829   4.405   0.035   7.283  0.0045 -0.8455  2.3715
 1789SOL    HW216830   4.446   4.610   7.277  0.5328  1.5284  1.0139
 1790SOL     OW16831   1.658   2.373  15.975  0.2799  0.7843 -0.1336
 1790SOL    HW116832   1.596   2.302  15.993 -0.7101  1.5754 -0.4677
 1790SOL    HW216833   1.620   2.437  16.035  3.4726  0.9643  1.6980
 1791SOL     OW16834   3.497   0.578   3.766  0.0168 -0.2887  0.7418
 1791SOL    HW116835   3.551   0.577   3.687  1.1451  2.3942  1.4918
 1791SOL    HW216836   3.414   0.546   3.730  0.5324 -1.2759  0.4180
 1792SOL     OW16837   4.224   1.712   6.755  0.0560 -0.2691  0.1049
 1792SOL    HW116838   4.210   1.646   6.687 -0.8562  0.0315  0.0046
 1792SOL    HW216839   4.225   1.670   6.841  0.2652  0.7325  0.5951
 1793SOL     OW16840   2.080   2.099  11.738 -0.1888  0.6458  0.3240
 1793SOL    HW116841   2.050   2.118  11.827 -1.1936 -0.8288  0.3019
 1793SOL    HW216842   2.045   2.178  11.697  0.0587  1.6234  2.0125
 1794SOL     OW16843   2.451   4.519   6.359 -0.0773 -0.0275 -0.9981
 1794SOL    HW116844   2.370   4.521   6.308  0.1059 -1.7345 -1.3668
 1794SOL    HW216845   2.515   4.524   6.288  0.6545 -0.4274 -0.3654
 1795SOL     OW16846   4.336   0.025  13.248  0.4576 -0.2487  0.0263
 1795SOL    HW116847   4.345   0.066  13.334 -0.6867  0.4179 -0.1665
 1795SOL    HW216848   4.399   0.072  13.195 -1.1488 -1.9355 -3.3673
 1796SOL     OW16849   1.973   0.823   2.033 -0.3992  0.1708  0.2296
 1796SOL    HW116850   2.056   0.869   2.048 -0.9564  1.5643 -0.9054
 1796SOL    HW216851   1.996   0.739   1.994  0.8941  0.4936  0.2645
 1797SOL     OW16852   1.668   1.686   2.683  0.8987 -0.2228 -0.3722
 1797SOL    HW116853   1.666   1.605   2.632 -0.7378  0.7350 -1.8300
 1797SOL    HW216854   1.599   1.692   2.748  1.4642 -4.1030  0.5726
 1798SOL     OW16855   0.700   4.544   2.518 -0.2201  0.2108  0.1766
 1798SOL    HW116856   0.723   4.594   2.440 -0.4934  1.1933  0.7234
 1798SOL    HW216857   0.612   4.574   2.539  0.5359  0.5491  2.8477
 1799SOL     OW16858   1.897   1.782   8.944 -0.0074  0.0568 -0.4574
 1799SOL    HW116859   1.813   1.813   8.911  0.2898  0.9170 -0.4033
 1799SOL    HW216860   1.934   1.743   8.865  3.1246  0.8112  0.6599
 1800SOL     OW16861   0.941   1.439   9.096  0.4722  0.3635 -0.0292
 1800SOL    HW116862   0.989   1.463   9.017  0.7914  2.6526  0.8625
 1800SOL    HW216863   0.857   1.465   9.057 -0.1974  0.6226  1.5848
 1801SOL     OW16864   0.520   1.819  15.964  0.2150 -0.1320 -0.0191
 1801SOL    HW116865   0.484   1.773  16.039 -2.3717 -1.3148 -2.0036
 1801SOL    HW216866   0.444   1.858  15.920  0.0745  0.3072  0.6088
 1802SOL     OW16867   2.376   2.410   3.322 -0.2317 -0.4264  0.3146
 1802SOL    HW116868   2.393   2.401   3.415 -1.7187  1.0988  0.7321
 1802SOL    HW216869   2.461   2.444   3.293 -0.8375 -0.6707 -1.7690
 1803SOL     OW16870   0.495   3.567   4.349  0.1158  0.3223  0.1290
 1803SOL    HW116871   0.430   3.522   4.403  0.3809 -1.4148 -0.9868
 1803SOL    HW216872   0.572   3.533   4.394 -0.5234 -0.7205  0.4509
 1804SOL     OW16873   2.568   0.559   4.709 -0.2330  0.5562 -0.2275
 1804SOL    HW116874   2.630   0.549   4.782  0.4880 -0.8677 -1.0560
 1804SOL    HW216875   2.546   0.652   4.718 -0.5780  0.1469  3.1709
 1805SOL     OW16876   2.320   1.610   1.985 -0.3763 -0.1369  0.3388
 1805SOL    HW116877   2.294   1.700   2.002  2.4230  1.0380 -1.6612
 1805SOL    HW216878   2.355   1.606   1.896 -0.6388 -2.4488  0.3200
 1806SOL     OW16879   3.429   0.112   8.088  0.2856  0.4020 -0.6830
 1806SOL    HW116880   3.367   0.164   8.037  0.5829  0.3744 -1.0680
 1806SOL    HW216881   3.452   0.059   8.012  1.6760 -0.9617  0.6907
 1807SOL     OW16882   2.569   2.673   7.267  0.3912 -0.1340  0.1402
 1807SOL    HW116883   2.486   2.654   7.223  0.0262  1.6053  0.0642
 1807SOL    HW216884   2.596   2.757   7.230 -0.0801  0.7343  1.7196
 1808SOL     OW16885   2.886   3.562   0.112  0.2414  0.3564  0.3795
 1808SOL    HW116886   2.882   3.617   0.190  1.7377  2.9158 -1.3504
 1808SOL    HW216887   2.918   3.626   0.048 -0.4120  1.4056  1.0975
 1809SOL     OW16888   1.201   0.978   1.298  0.3018 -0.1234  0.2085
 1809SOL    HW116889   1.186   0.963   1.391  0.8966 -0.0628  0.3197
 1809SOL    HW216890   1.213   0.890   1.263  0.6690 -0.3177  0.8285
 1810SOL     OW16891   2.889   2.042  14.064 -0.0355  0.1523  0.3275
 1810SOL    HW116892   2.932   1.997  14.136 -1.6690  1.8758  2.3818
 1810SOL    HW216893   2.961   2.096  14.033 -0.2885 -0.9410 -2.1614
 1811SOL     OW16894   3.297   0.893  14.305  0.4182 -0.7731  0.4284
 1811SOL    HW116895   3.390   0.881  14.325  0.1762  0.7070  2.3367
 1811SOL    HW216896   3.299   0.952  14.230 -0.5459  0.2239  1.1975
 1812SOL     OW16897   2.956   3.694   4.015 -0.2508 -0.0352  0.1813
 1812SOL    HW116898   2.972   3.745   3.936 -0.9753 -1.3847 -0.8416
 1812SOL    HW216899   3.006   3.733   4.087  0.0305  0.2399 -0.1661
 1813SOL     OW16900   4.015   1.795   0.263 -0.2048  0.0555  0.2964
 1813SOL    HW116901   4.051   1.859   0.325 -1.5753  0.7075  0.4344
 1813SOL    HW216902   3.951   1.749   0.317 -0.2413 -1.0823 -0.7265
 1814SOL     OW16903   4.584   2.655   6.127  0.5830  0.2075  0.0590
 1814SOL    HW116904   4.492   2.681   6.128  0.3481 -0.6242  0.2710
 1814SOL    HW216905   4.604   2.638   6.219  0.0649  2.0447  0.5186
 1815SOL     OW16906   3.894   3.670   3.591  0.0019 -0.0398  0.1898
 1815SOL    HW116907   3.863   3.749   3.545  2.0561  0.6467 -0.0151
 1815SOL    HW216908   3.910   3.602   3.526  1.6185  0.9283 -0.4233
 1816SOL     OW16909   0.763   2.599   1.951 -0.2828  0.2024  0.3528
 1816SOL    HW116910   0.795   2.558   2.032 -0.0975  0.2620  0.3109
 1816SOL    HW216911   0.703   2.667   1.983  0.8817  1.5425 -0.3074
 1817SOL     OW16912   0.368   0.279   8.408 -0.0890 -0.0114 -0.2246
 1817SOL    HW116913   0.291   0.336   8.418  0.8738  0.8726  1.9686
 1817SOL    HW216914   0.437   0.328   8.452 -1.5889  0.2762  1.7758
 1818SOL     OW16915   3.872   3.679   8.751  0.1662 -0.1130  0.5120
 1818SOL    HW116916   3.878   3.632   8.668 -0.5463 -1.2586  1.1189
 1818SOL    HW216917   3.886   3.610   8.816  2.1032 -0.2197 -0.0115
 1819SOL     OW16918   4.433   3.224   1.401  0.0489 -0.0973  0.0739
 1819SOL    HW116919   4.405   3.275   1.325 -1.3008  0.2245  0.7940
 1819SOL    HW216920   4.358   3.165   1.409  0.4409 -0.5939  0.0576
 1820SOL     OW16921   2.589   1.989   4.513 -0.1903  0.3921 -0.1302
 1820SOL    HW116922   2.500   1.957   4.523  0.5599 -1.8000 -0.6090
 1820SOL    HW216923   2.642   1.910   4.520 -1.5593 -0.6506 -1.5491
 1821SOL     OW16924   2.173   1.416   0.296 -0.4777 -0.3340  0.1504
 1821SOL    HW116925   2.152   1.509   0.303 -0.9972 -0.5277  1.2157
 1821SOL    HW216926   2.268   1.421   0.287 -0.5430 -0.5554 -0.6583
 1822SOL     OW16927   0.419   0.914   3.873  0.6432  0.5820  0.2946
 1822SOL    HW116928   0.365   0.977   3.825  1.7513  2.0924  1.0358
 1822SOL    HW216929   0.407   0.833   3.824 -0.9864  0.8554  0.2455
 1823SOL     OW16930   4.099   1.882   5.759  0.8116 -0.7882  0.4909
 1823SOL    HW116931   4.020   1.936   5.763  0.0248 -1.8515 -0.8768
 1823SOL    HW216932   4.122   1.911   5.671  0.6430  0.3213  0.8077
 1824SOL     OW16933   2.907   0.601   4.241 -0.6016  0.3403 -0.2006
 1824SOL    HW116934   2.868   0.552   4.312  1.1625  0.2145  0.6887
 1824SOL    HW216935   2.840   0.668   4.224 -0.9059 -0.0859 -0.6860
 1825SOL     OW16936   1.030   1.301   3.796  0.5780  0.7800 -0.1109
 1825SOL    HW116937   0.999   1.289   3.886  0.5902 -0.4510 -0.2636
 1825SOL    HW216938   1.102   1.238   3.807 -3.0049 -2.9296  1.9033
 1826SOL     OW16939   3.294   3.502   0.853 -0.3644 -0.1283  0.6226
 1826SOL    HW116940   3.262   3.422   0.895  0.4891 -1.9192 -2.0745
 1826SOL    HW216941   3.367   3.524   0.912  1.6798 -0.1523 -1.8665
 1827SOL     OW16942   4.085   1.109   2.928 -0.5033 -0.0350  0.3638
 1827SOL    HW116943   4.159   1.139   2.874 -2.1759  2.1350 -0.6885
 1827SOL    HW216944   4.068   1.197   2.962 -3.9097 -0.9229  0.8739
 1828SOL     OW16945   2.036   4.596   7.610  0.2048 -1.1027  0.1925
 1828SOL    HW116946   1.979   4.672   7.597  2.1562  0.6537  1.7744
 1828SOL    HW216947   2.011   4.546   7.533 -0.4479  0.2003 -0.4347
 1829SOL     OW16948   4.620   1.946   6.241 -0.2297  0.2845 -0.3255
 1829SOL    HW116949   4.597   2.030   6.201 -2.7882 -0.7162 -0.9223
 1829SOL    HW216950   4.664   1.985   6.316 -0.3149 -2.3403  1.0788
 1830SOL     OW16951   4.334   0.890  15.281  0.0487  0.3381  0.4067
 1830SOL    HW116952   4.264   0.828  15.300  1.5771 -1.3502  0.4590
 1830SOL    HW216953   4.410   0.865  15.333  0.3108  3.2463  1.3935
 1831SOL     OW16954   2.499   0.020  16.936 -0.7797 -0.1205 -0.3305
 1831SOL    HW116955   2.430   4.722  16.872 -2.4018  2.2808  0.6550
 1831SOL    HW216956   2.469   4.715  17.023 -3.5023 -1.0968 -1.5877
 1832SOL     OW16957   2.891   2.722   4.628 -0.1224  0.6305 -0.5739
 1832SOL    HW116958   2.944   2.801   4.621 -0.3873  0.8864  0.2785
 1832SOL    HW216959   2.853   2.729   4.715 -1.2641 -1.2680 -0.9168
 1833SOL     OW16960   1.451   3.744   9.981 -0.3564  0.2598 -0.1999
 1833SOL    HW116961   1.361   3.742   9.949 -1.4011 -4.4876  3.1426
 1833SOL    HW216962   1.493   3.756   9.895  0.7562  1.2706  0.4884
 1834SOL     OW16963   1.824   4.593  16.078  0.5251 -0.4917  0.3756
 1834SOL    HW116964   1.833   4.688  16.084 -0.9432 -0.1505 -2.9037
 1834SOL    HW216965   1.902   4.562  16.124  1.7261 -0.5705 -1.7456
 1835SOL     OW16966   3.533   0.365   0.971  0.3244  0.1386  0.4609
 1835SOL    HW116967   3.600   0.317   1.020 -0.6823 -1.9160 -0.1630
 1835SOL    HW216968   3.548   0.454   1.001  1.7693 -0.6251  2.0020
 1836SOL     OW16969   2.246   2.598  12.005 -0.6358 -0.1819  0.1710
 1836SOL    HW116970   2.305   2.635  12.071 -0.1577  0.3879 -0.5778
 1836SOL    HW216971   2.262   2.504  12.018 -0.9956 -0.3136 -0.3486
 1837SOL     OW16972   0.028   3.196   2.407 -0.0367  0.3283 -0.4257
 1837SOL    HW116973   4.679   3.253   2.381 -0.5265  0.2446  0.7407
 1837SOL    HW216974   0.043   3.229   2.495 -1.5271 -0.7966  0.2534
 1838SOL     OW16975   0.632   2.014   5.104  0.0401 -0.3182  0.4693
 1838SOL    HW116976   0.627   1.918   5.110  1.2182 -0.3132  1.4865
 1838SOL    HW216977   0.548   2.042   5.143  1.6904  3.0597  1.6049
 1839SOL     OW16978   0.178   0.466   4.226  0.5085  0.0149 -0.1792
 1839SOL    HW116979   0.163   0.559   4.241  0.3630  0.1158 -0.9412
 1839SOL    HW216980   0.095   0.422   4.246  0.7819  1.1912  3.5455
 1840SOL     OW16981   0.863   0.091   9.101  0.2812 -1.0184 -0.9585
 1840SOL    HW116982   0.824   0.157   9.159 -0.0009 -1.1084 -1.0434
 1840SOL    HW216983   0.809   0.016   9.127  1.0555 -1.0672  0.4718
 1841SOL     OW16984   4.187   1.608   9.289 -0.6626  0.0138 -0.3283
 1841SOL    HW116985   4.139   1.684   9.322 -1.1915  0.4998 -2.2420
 1841SOL    HW216986   4.184   1.555   9.369  1.5665  0.0386 -0.2171
 1842SOL     OW16987   2.475   0.668   3.828  0.0909  0.0798 -0.5509
 1842SOL    HW116988   2.406   0.619   3.873 -0.0676  0.2920 -0.5596
 1842SOL    HW216989   2.426   0.682   3.747 -1.3621  0.8757  0.4643
 1843SOL     OW16990   3.022   0.952   2.061  0.0321 -0.1731 -0.0971
 1843SOL    HW116991   3.008   0.983   1.971 -0.2881 -2.3050 -0.7905
 1843SOL    HW216992   3.114   0.929   2.053  0.2455  0.6312  0.0199
 1844SOL     OW16993   0.570   3.167   8.989 -0.1654  0.5971 -0.2743
 1844SOL    HW116994   0.510   3.108   9.034  0.4976  2.0554  2.5280
 1844SOL    HW216995   0.651   3.117   9.002  0.9583  2.3579 -0.4432
 1845SOL     OW16996   3.993   0.930   9.312  0.2768 -0.5879 -1.0625
 1845SOL    HW116997   3.943   0.947   9.391 -1.2447 -0.1254 -2.1188
 1845SOL    HW216998   4.047   1.008   9.301  4.1382 -3.0836  0.2229
 1846SOL     OW16999   1.614   4.022  10.441  0.2163  0.4243  0.0606
 1846SOL    HW117000   1.610   3.974  10.358  2.0765 -0.6767  0.6122
 1846SOL    HW217001   1.527   4.002  10.477  0.5316 -0.1133  0.5191
 1847SOL     OW17002   0.674   2.468   1.491  0.1255 -0.3014 -0.2157
 1847SOL    HW117003   0.677   2.564   1.495  3.2009 -0.5370  2.6184
 1847SOL    HW217004   0.728   2.446   1.566  0.7180  0.3349 -0.4475
 1848SOL     OW17005   2.668   4.548  13.922 -0.6769 -0.3021 -0.3010
 1848SOL    HW117006   2.644   4.639  13.939 -1.0506 -0.6189  0.8111
 1848SOL    HW217007   2.750   4.560  13.874 -0.9405  1.1393 -0.4036
 1849SOL     OW17008   0.418   2.043   4.373  0.5072  0.0508 -0.2505
 1849SOL    HW117009   0.448   1.988   4.301  0.1761  0.6989 -0.8768
 1849SOL    HW217010   0.462   2.128   4.363  1.4122 -0.7817 -3.2787
 1850SOL     OW17011   3.711   4.125  14.393  0.0467 -0.1414  0.6032
 1850SOL    HW117012   3.770   4.158  14.461 -0.2157  0.3475  0.5965
 1850SOL    HW217013   3.762   4.048  14.369 -1.0136 -0.1356 -1.6635
 1851SOL     OW17014   4.460   2.445  13.211  0.0115 -0.4138 -0.8818
 1851SOL    HW117015   4.437   2.477  13.124 -0.8220 -1.0466 -0.8903
 1851SOL    HW217016   4.376   2.449  13.256 -0.1409 -0.4696 -1.1611
 1852SOL     OW17017   2.875   0.754  13.916 -0.1349  0.1766 -0.3025
 1852SOL    HW117018   2.943   0.726  13.855  0.6358 -0.1246  0.6936
 1852SOL    HW217019   2.817   0.798  13.853 -2.3501  0.4471  1.9308
 1853SOL     OW17020   3.309   1.632   2.646  0.1119 -0.0715  0.2861
 1853SOL    HW117021   3.391   1.663   2.607 -0.3744 -0.4784 -1.0614
 1853SOL    HW217022   3.302   1.689   2.723 -1.4126  0.4424 -0.2409
 1854SOL     OW17023   4.000   2.665   8.444 -0.3416 -0.0079 -0.0914
 1854SOL    HW117024   3.908   2.638   8.449 -1.2513  2.9591 -0.1515
 1854SOL    HW217025   4.026   2.597   8.382  1.2518  0.8449 -0.3693
 1855SOL     OW17026   1.162   3.379   3.005 -0.2587  0.3174 -0.1056
 1855SOL    HW117027   1.125   3.309   3.059  0.8226  0.3196  0.6225
 1855SOL    HW217028   1.145   3.456   3.059  1.3979  0.6935 -0.1289
 1856SOL     OW17029   1.277   1.351   1.243  0.3027  0.2346 -0.0666
 1856SOL    HW117030   1.332   1.410   1.190  0.9515  2.0266  2.6261
 1856SOL    HW217031   1.231   1.409   1.303  0.0286 -1.0921  1.0049
 1857SOL     OW17032   1.676   2.476   4.201  0.0599 -0.4455 -0.0144
 1857SOL    HW117033   1.736   2.499   4.131 -0.0156  1.2281  0.4647
 1857SOL    HW217034   1.617   2.414   4.159  0.0695  0.5213 -1.4514
 1858SOL     OW17035   2.915   4.349   6.470  0.3676 -0.1748  0.5125
 1858SOL    HW117036   2.908   4.389   6.556  0.1280  0.8354  0.0279
 1858SOL    HW217037   2.957   4.419   6.419 -1.8624  2.2588  2.0069
 1859SOL     OW17038   3.887   0.528   2.668 -0.2233  0.6775  0.4976
 1859SOL    HW117039   3.793   0.534   2.653 -0.0373 -0.3602 -1.1848
 1859SOL    HW217040   3.906   0.437   2.643  0.6450  0.8791  0.4020
 1860SOL     OW17041   4.538   4.408   7.987 -0.2368 -0.6459 -0.2218
 1860SOL    HW117042   4.471   4.447   7.930  1.4848  1.0074 -1.0937
 1860SOL    HW217043   4.478   4.356   8.041 -0.4639 -1.2395 -1.0438
 1861SOL     OW17044   2.608   1.623   8.476 -0.3826 -0.1294  0.9454
 1861SOL    HW117045   2.680   1.664   8.525  0.2700  0.6171 -0.6333
 1861SOL    HW217046   2.554   1.702   8.470 -2.9892 -2.0861 -1.0479
 1862SOL     OW17047   2.690   0.730  10.399 -0.0319  0.1442  0.4370
 1862SOL    HW117048   2.676   0.682  10.481 -0.7857  0.8432  0.7315
 1862SOL    HW217049   2.756   0.795  10.424 -0.6834  0.3429  1.7007
 1863SOL     OW17050   4.435   3.158  14.525 -0.4623 -0.0371  0.7399
 1863SOL    HW117051   4.360   3.210  14.554  0.2901  0.3445  2.0097
 1863SOL    HW217052   4.464   3.206  14.448  0.0160  0.3041  1.1376
 1864SOL     OW17053   2.278   3.810   4.312 -0.3093 -0.3597 -0.1920
 1864SOL    HW117054   2.203   3.808   4.371 -0.3919 -0.9838 -0.3221
 1864SOL    HW217055   2.239   3.857   4.238 -0.1298 -0.6203 -0.4521
 1865SOL     OW17056   1.290   1.478   8.273 -0.5268  0.2837  0.4919
 1865SOL    HW117057   1.253   1.540   8.336 -2.5952  1.3766 -1.8327
 1865SOL    HW217058   1.382   1.502   8.277 -0.2227 -0.9010  0.7740
 1866SOL     OW17059   1.608   1.911   1.921 -0.1997  0.2968  0.1581
 1866SOL    HW117060   1.637   1.869   1.840  2.1413  2.0277  0.1033
 1866SOL    HW217061   1.684   1.908   1.979  1.7694  0.4072 -2.4177
 1867SOL     OW17062   0.673   0.424   7.571  0.1060  0.2211 -0.6183
 1867SOL    HW117063   0.740   0.476   7.527 -0.4551  3.8922  2.8194
 1867SOL    HW217064   0.670   0.344   7.518  0.5289 -0.2532  0.0708
 1868SOL     OW17065   0.857   2.770   1.345  0.1228 -0.7821  0.8859
 1868SOL    HW117066   0.819   2.855   1.320 -0.4135 -2.0448 -2.6691
 1868SOL    HW217067   0.948   2.798   1.345 -0.5306  1.3299  2.4136
 1869SOL     OW17068   2.614   4.455   7.203 -0.2829  0.0084  0.2498
 1869SOL    HW117069   2.559   4.533   7.210 -0.2516  0.0325  0.2309
 1869SOL    HW217070   2.583   4.396   7.271 -1.8534 -0.3686 -0.7977
 1870SOL     OW17071   2.173   3.704   7.015 -0.0190 -0.5547 -0.6347
 1870SOL    HW117072   2.233   3.690   7.088 -0.5303 -1.8560 -0.4698
 1870SOL    HW217073   2.150   3.616   6.985  1.2808 -1.0079 -0.3118
 1871SOL     OW17074   1.254   1.766   3.107  0.0609  0.8340  0.0313
 1871SOL    HW117075   1.230   1.833   3.043  1.3615  1.1178 -0.1692
 1871SOL    HW217076   1.288   1.821   3.178  1.8327 -2.6059  1.8178
 1872SOL     OW17077   2.314   4.616   6.710 -0.3033  0.2403 -0.5537
 1872SOL    HW117078   2.403   4.632   6.742 -0.3654  3.0384 -1.7574
 1872SOL    HW217079   2.342   4.566   6.633 -1.1558  2.4892 -2.3358
 1873SOL     OW17080   1.234   4.466  13.177 -0.0416  0.0769  0.1350
 1873SOL    HW117081   1.297   4.538  13.184  3.1129 -2.7039  0.4427
 1873SOL    HW217082   1.174   4.480  13.250  0.4087  0.5047  0.4282
 1874SOL     OW17083   2.660   1.230   1.979 -0.3271 -0.2535  0.0952
 1874SOL    HW117084   2.740   1.203   1.934 -0.0533  0.6354  0.0377
 1874SOL    HW217085   2.673   1.325   1.985 -2.7766  0.2876 -2.8667
 1875SOL     OW17086   0.905   4.115   9.197  0.2457  0.2044  0.5656
 1875SOL    HW117087   0.899   4.197   9.150  1.1549 -0.3622 -0.5322
 1875SOL    HW217088   0.922   4.145   9.287  1.0229  0.6667  0.2579
 1876SOL     OW17089   4.615   3.022   3.137  0.5076 -0.3862 -0.4234
 1876SOL    HW117090   4.586   2.933   3.161 -0.0468  0.2777  1.3507
 1876SOL    HW217091   4.602   3.055   3.226  0.5985 -1.2809 -0.0694
 1877SOL     OW17092   2.212   0.193  11.902 -0.1352 -0.0622 -0.2752
 1877SOL    HW117093   2.230   0.156  11.988 -0.3031 -0.7620 -0.5366
 1877SOL    HW217094   2.290   0.247  11.891 -1.1574  0.5140 -4.8127
 1878SOL     OW17095   2.582   0.827  14.685  0.4678 -0.4939  0.0432
 1878SOL    HW117096   2.541   0.850  14.768  2.4553  0.1194  0.8432
 1878SOL    HW217097   2.656   0.887  14.679  0.2945 -0.3043 -0.1963
 1879SOL     OW17098   0.463   4.146   5.513  0.1380  0.3821  0.1874
 1879SOL    HW117099   0.385   4.182   5.469 -0.6914 -1.7642 -0.0674
 1879SOL    HW217100   0.430   4.124   5.599 -0.1668  0.6224  0.1321
 1880SOL     OW17101   3.304   2.933   6.010  0.3210 -0.1765 -0.2471
 1880SOL    HW117102   3.310   2.910   6.102  0.6594 -1.1643 -0.5081
 1880SOL    HW217103   3.273   2.853   5.968  2.5822 -1.6257  0.8649
 1881SOL     OW17104   0.839   3.940   8.601 -0.1679  0.1557  0.2423
 1881SOL    HW117105   0.782   4.004   8.644  0.1169  1.1226 -0.8310
 1881SOL    HW217106   0.885   3.886   8.665 -0.5142  0.9555  1.1780
 1882SOL     OW17107   4.206   1.094   0.520  0.6456  0.2673  0.1477
 1882SOL    HW117108   4.250   1.074   0.438  0.3568  1.2141 -0.2430
 1882SOL    HW217109   4.120   1.060   0.495  0.3925  0.0460  1.3070
 1883SOL     OW17110   1.479   1.359   7.304  0.1181 -0.4778 -0.1105
 1883SOL    HW117111   1.408   1.300   7.281 -2.1289  1.9551  0.5095
 1883SOL    HW217112   1.436   1.445   7.307  1.9946  0.4495  0.1680
 1884SOL     OW17113   2.016   2.748   6.723 -0.0647 -0.1142 -0.1363
 1884SOL    HW117114   2.109   2.728   6.719 -0.3373 -1.0663 -1.4661
 1884SOL    HW217115   2.015   2.840   6.750  4.0900  0.4190 -1.8262
 1885SOL     OW17116   1.195   0.644   4.497 -0.4777 -0.3017  0.5221
 1885SOL    HW117117   1.257   0.659   4.568  1.5404  2.0124 -1.7344
 1885SOL    HW217118   1.130   0.587   4.540  0.6251 -0.6619  1.7018
 1886SOL     OW17119   3.577   2.846   5.020  0.4716  0.1236 -0.2352
 1886SOL    HW117120   3.534   2.781   5.076  0.0195  0.6675  0.0457
 1886SOL    HW217121   3.613   2.908   5.082 -0.6045  0.5714 -0.0485
 1887SOL     OW17122   3.508   1.278   8.827 -0.4879  0.2413 -0.1877
 1887SOL    HW117123   3.564   1.224   8.882  0.5275  3.2560  1.7562
 1887SOL    HW217124   3.451   1.209   8.794 -0.0229 -0.2161 -0.0218
 1888SOL     OW17125   1.600   3.174   0.482 -0.2911  0.0054  0.3739
 1888SOL    HW117126   1.630   3.199   0.569 -2.3315 -2.2122  1.6854
 1888SOL    HW217127   1.682   3.177   0.433 -0.9804  0.2111 -0.7965
 1889SOL     OW17128   2.808   2.133   4.831  0.1021  0.3550  0.5512
 1889SOL    HW117129   2.881   2.185   4.799 -2.7446  2.4605 -2.4361
 1889SOL    HW217130   2.737   2.150   4.769 -1.0232 -1.6027  1.2952
 1890SOL     OW17131   1.497   4.363   8.264 -0.3432 -0.2883 -0.2792
 1890SOL    HW117132   1.472   4.273   8.284 -2.7661  0.2404 -0.9027
 1890SOL    HW217133   1.587   4.344   8.240 -0.0338  0.9979 -0.1412
 1891SOL     OW17134   0.877   2.440   2.444  0.0171 -0.1661  0.0573
 1891SOL    HW117135   0.934   2.371   2.409  0.1107  0.9740 -2.0459
 1891SOL    HW217136   0.921   2.450   2.528 -1.2149  0.0585  0.6868
 1892SOL     OW17137   0.143   3.807   4.242 -0.1590  0.1177  0.3092
 1892SOL    HW117138   0.234   3.780   4.232  0.2462  1.6049  0.1040
 1892SOL    HW217139   0.136   3.787   4.336  3.5840 -0.8522  0.3812
 1893SOL     OW17140   2.272   1.058   4.648 -0.5867 -0.1180  0.7586
 1893SOL    HW117141   2.204   1.125   4.657  0.0209  0.6270 -0.1711
 1893SOL    HW217142   2.262   1.030   4.557  0.4672 -0.1215  0.6507
 1894SOL     OW17143   1.135   2.902   8.327 -0.0620  0.0314 -0.7709
 1894SOL    HW117144   1.220   2.858   8.331  0.1323  0.5453  0.6284
 1894SOL    HW217145   1.161   2.991   8.350 -1.6761  0.7114 -1.6120
 1895SOL     OW17146   1.353   1.972  11.401 -0.4109  0.2304  0.2945
 1895SOL    HW117147   1.261   1.999  11.407 -0.6293 -0.4789  0.2408
 1895SOL    HW217148   1.367   1.956  11.494 -3.0430  0.7374  0.7928
 1896SOL     OW17149   0.029   2.229  17.198  0.5756  0.0406  0.4541
 1896SOL    HW117150   0.044   2.141  17.235 -2.6033 -0.6799 -0.0190
 1896SOL    HW217151   4.657   2.220  17.193  0.5045 -0.0698  1.9546
 1897SOL     OW17152   0.829   0.087   9.977 -0.1767  0.1861 -0.1394
 1897SOL    HW117153   0.875   0.066   9.895  0.5118 -0.5061  0.4328
 1897SOL    HW217154   0.885   0.160  10.002 -0.5371  0.8966 -1.3614
 1898SOL     OW17155   0.450   3.218  15.086  0.3949  0.1740  0.4027
 1898SOL    HW117156   0.543   3.241  15.093  0.2030  1.2674 -0.5837
 1898SOL    HW217157   0.442   3.132  15.046  0.9256  1.4407 -2.4246
 1899SOL     OW17158   0.778   0.895   0.447  0.1071  0.2749 -0.6011
 1899SOL    HW117159   0.792   0.814   0.495 -0.6281 -0.0819 -1.0033
 1899SOL    HW217160   0.708   0.935   0.499  0.2195 -1.3170  0.7882
 1900SOL     OW17161   0.533   3.653   3.365  0.5088 -0.8249 -0.6905
 1900SOL    HW117162   0.480   3.603   3.303  0.2962 -2.6376  0.9623
 1900SOL    HW217163   0.464   3.708   3.402  1.5008  0.0519 -0.1260
 1901SOL     OW17164   2.671   2.756  12.433 -0.1009 -0.6367 -0.6395
 1901SOL    HW117165   2.687   2.835  12.485  0.0375 -0.5052 -0.8861
 1901SOL    HW217166   2.578   2.745  12.457 -0.1405  0.2679 -0.3475
 1902SOL     OW17167   0.686   3.179   7.965 -0.4475  0.4608 -0.2193
 1902SOL    HW117168   0.607   3.127   7.969 -0.1439  0.0066 -0.1662
 1902SOL    HW217169   0.688   3.213   8.055  0.4521  0.5679 -0.2782
 1903SOL     OW17170   0.896   2.350   7.452 -0.0951  0.0700 -0.4370
 1903SOL    HW117171   0.974   2.351   7.508  1.0796  0.2180 -2.0869
 1903SOL    HW217172   0.832   2.323   7.518 -0.5591  2.0512 -0.0737
 1904SOL     OW17173   2.358   0.293  11.605  0.2293  0.3318 -0.0705
 1904SOL    HW117174   2.314   0.211  11.584 -0.4950  0.2797  1.6723
 1904SOL    HW217175   2.330   0.346  11.530 -1.6813 -0.1296  0.3154
 1905SOL     OW17176   3.809   1.401   7.564  0.8159  0.2069  0.0373
 1905SOL    HW117177   3.775   1.426   7.650  2.2976  1.6063  0.1944
 1905SOL    HW217178   3.903   1.391   7.573  0.7596 -1.2519 -0.8540
 1906SOL     OW17179   4.022   1.612   4.975  0.3390 -0.2065  0.1008
 1906SOL    HW117180   3.932   1.635   4.951  1.0991  0.6961 -1.9165
 1906SOL    HW217181   3.991   1.534   5.022  3.3969 -1.4420  0.0993
 1907SOL     OW17182   3.087   0.212  17.592  0.7830  0.0167  0.2497
 1907SOL    HW117183   3.004   0.260  17.590  0.5970 -0.2373  2.0050
 1907SOL    HW217184   3.086   0.168  17.507  2.2002  2.0579 -0.8199
 1908SOL     OW17185   2.889   4.515  14.395 -0.2450 -0.1731 -0.2499
 1908SOL    HW117186   2.878   4.437  14.450 -0.2334 -0.1489 -0.2134
 1908SOL    HW217187   2.974   4.543  14.429 -0.2214  0.9644 -1.2320
 1909SOL     OW17188   3.093   0.879   4.303 -0.2469  0.3163 -0.3173
 1909SOL    HW117189   3.009   0.834   4.316  0.6992 -1.2076  0.6454
 1909SOL    HW217190   3.068   0.963   4.342  0.6620 -0.2846  1.5956
 1910SOL     OW17191   1.617   1.403   3.560  0.6572 -0.2182 -0.2367
 1910SOL    HW117192   1.653   1.319   3.590  0.8166 -0.9784 -2.6173
 1910SOL    HW217193   1.673   1.424   3.486 -0.2348 -1.4337 -1.2578
 1911SOL     OW17194   2.400   0.822  12.256 -0.5630  0.2200 -0.0590
 1911SOL    HW117195   2.440   0.735  12.247 -1.1682  0.1020 -1.5474
 1911SOL    HW217196   2.314   0.804  12.218  0.2394 -0.8410 -1.3794
 1912SOL     OW17197   1.193   0.346   4.571  0.3223  0.1297 -0.3987
 1912SOL    HW117198   1.128   0.348   4.641  0.2539 -0.9004 -0.4298
 1912SOL    HW217199   1.153   0.283   4.510 -0.2165 -1.2589  1.3819
 1913SOL     OW17200   3.934   3.879  16.413  0.1182  0.2791  0.9691
 1913SOL    HW117201   3.971   3.921  16.490 -1.6216  1.0167  1.4189
 1913SOL    HW217202   3.948   3.941  16.341 -0.6993 -0.2336  0.3676
 1914SOL     OW17203   3.520   3.105   3.734  0.2582  0.1070 -0.1470
 1914SOL    HW117204   3.433   3.069   3.751  0.8376 -1.4685 -0.5121
 1914SOL    HW217205   3.507   3.191   3.694 -1.5564 -0.6480 -1.1798
 1915SOL     OW17206   2.559   2.621  11.865  0.3771  0.1221 -0.1702
 1915SOL    HW117207   2.649   2.642  11.840  0.2128 -0.8011 -1.4910
 1915SOL    HW217208   2.518   2.704  11.892 -2.5005 -1.2587 -0.3296
 1916SOL     OW17209   2.062   1.634   7.293  0.2751  0.2530  0.1138
 1916SOL    HW117210   2.087   1.684   7.370  0.3950 -0.7996  0.7554
 1916SOL    HW217211   2.144   1.590   7.271 -1.0060 -0.9321 -2.3109
 1917SOL     OW17212   3.055   3.314   5.933  0.8705  0.2974  0.0422
 1917SOL    HW117213   3.145   3.293   5.959  0.8270 -0.2074 -0.2192
 1917SOL    HW217214   3.024   3.246   5.873  0.8943  0.9278 -0.6723
 1918SOL     OW17215   0.966   1.005   6.502  0.5853 -0.6669 -0.1934
 1918SOL    HW117216   0.917   1.033   6.579  2.4419 -1.2904  1.2192
 1918SOL    HW217217   0.967   1.093   6.465  1.8629 -0.4809  0.2931
 1919SOL     OW17218   1.092   4.459   6.616 -0.0056 -0.3463 -0.9228
 1919SOL    HW117219   1.167   4.455   6.557  1.2932 -1.1450  0.7685
 1919SOL    HW217220   1.049   4.393   6.562  0.4709 -0.3672 -1.2770
 1920SOL     OW17221   4.471   2.048   0.527  0.2960  0.1174 -0.1684
 1920SOL    HW117222   4.441   2.120   0.471  0.6620  1.1406  0.9623
 1920SOL    HW217223   4.421   1.977   0.485 -1.1874  1.5098 -0.7438
 1921SOL     OW17224   1.088   2.998   7.743  0.4509  0.4568  0.2454
 1921SOL    HW117225   1.173   3.012   7.784  1.8648 -0.4807 -2.3417
 1921SOL    HW217226   1.023   3.021   7.810  0.5387  1.2296  0.0606
 1922SOL     OW17227   4.078   3.667   3.880 -0.0166  0.0158 -0.2563
 1922SOL    HW117228   4.035   3.751   3.895  2.6675  1.0013  1.8082
 1922SOL    HW217229   4.128   3.689   3.801 -0.8075  1.2513 -0.4085
 1923SOL     OW17230   3.939   0.063   4.345  0.0083 -0.1814 -0.1360
 1923SOL    HW117231   3.899   0.150   4.334  0.5188 -0.1419 -1.6633
 1923SOL    HW217232   3.979   0.058   4.258  2.0860  0.1439  0.8076
 1924SOL     OW17233   0.444   0.108   5.730 -0.1960 -0.1882  0.1810
 1924SOL    HW117234   0.445   0.138   5.821 -0.6169  1.8688 -0.4893
 1924SOL    HW217235   0.466   0.187   5.682 -0.3315  1.5393  2.9431
 1925SOL     OW17236   1.037   0.654   8.824 -0.8147 -0.0899 -0.6679
 1925SOL    HW117237   0.982   0.701   8.887  1.3298  1.8024 -0.1591
 1925SOL    HW217238   1.100   0.725   8.807 -0.7955  0.1103  0.2254
 1926SOL     OW17239   0.743   1.347   8.302 -0.1646 -0.5922  0.4988
 1926SOL    HW117240   0.653   1.356   8.273 -0.3417  1.8298  1.7815
 1926SOL    HW217241   0.778   1.285   8.238 -0.3153 -1.1108  0.9170
 1927SOL     OW17242   4.437   3.725  10.968  0.2829 -0.9500 -0.4030
 1927SOL    HW117243   4.453   3.729  11.063  1.6703 -1.0500 -0.6292
 1927SOL    HW217244   4.519   3.755  10.930 -0.8673  0.3585 -1.8183
 1928SOL     OW17245   2.077   4.627   4.037 -0.8627  0.4107 -0.1533
 1928SOL    HW117246   2.165   4.590   4.040 -0.9615  0.2823  1.0141
 1928SOL    HW217247   2.066   4.628   3.942 -0.8647 -1.1585 -0.1815
 1929SOL     OW17248   0.862   0.740   6.560 -0.2239  0.2629 -0.2380
 1929SOL    HW117249   0.933   0.742   6.624 -1.8957  0.8409  1.6053
 1929SOL    HW217250   0.875   0.830   6.529  2.3956 -0.6275 -1.6702
 1930SOL     OW17251   0.724   1.321  17.267 -0.7619 -0.5102  0.0912
 1930SOL    HW117252   0.702   1.412  17.286  1.8529 -0.2041  1.6729
 1930SOL    HW217253   0.643   1.278  17.293  0.0893 -1.8940  0.4669
 1931SOL     OW17254   2.259   2.297   2.066 -0.0170  0.7564 -0.1899
 1931SOL    HW117255   2.353   2.296   2.045 -0.1472 -0.6025 -0.7432
 1931SOL    HW217256   2.244   2.380   2.110 -1.5309  0.1960  0.3592
 1932SOL     OW17257   3.091   2.901   7.588  0.3368 -0.2963  0.6634
 1932SOL    HW117258   3.164   2.839   7.599  1.7164  1.0470 -0.8011
 1932SOL    HW217259   3.124   2.980   7.632  1.3025  1.1766 -2.6870
 1933SOL     OW17260   1.685   2.650   2.086  0.0469 -0.0006 -0.3357
 1933SOL    HW117261   1.615   2.586   2.101 -0.0311 -0.1554 -1.3126
 1933SOL    HW217262   1.733   2.599   2.021 -1.8119 -0.2468 -1.5223
 1934SOL     OW17263   2.773   0.454  10.387  0.1809 -0.3065  0.0737
 1934SOL    HW117264   2.726   0.516  10.330  1.1605 -1.1146 -1.6281
 1934SOL    HW217265   2.850   0.503  10.416  1.4123 -1.4656 -1.2241
 1935SOL     OW17266   1.713   3.487  10.208 -0.7484  0.5448 -0.3801
 1935SOL    HW117267   1.725   3.439  10.126 -1.0857 -0.1487 -0.0203
 1935SOL    HW217268   1.669   3.424  10.264  0.8853 -0.5495 -0.3298
 1936SOL     OW17269   4.578   2.160   3.737  0.5940 -0.4525 -0.0544
 1936SOL    HW117270   4.650   2.219   3.758 -0.7136  1.8856 -2.0123
 1936SOL    HW217271   4.526   2.222   3.685  0.5607  0.1658  0.7230
 1937SOL     OW17272   4.025   1.383   9.995  0.5285  0.5908  0.2274
 1937SOL    HW117273   3.977   1.389   9.912  2.3558 -5.9145 -1.2511
 1937SOL    HW217274   4.091   1.320   9.965  1.2097  0.0410  2.9416
 1938SOL     OW17275   1.855   2.983   3.516 -0.4513 -0.3406  0.1594
 1938SOL    HW117276   1.902   3.001   3.435 -5.7298  1.1673 -2.5342
 1938SOL    HW217277   1.888   2.895   3.535  4.0193  1.4939  0.9013
 1939SOL     OW17278   2.392   2.001  14.267 -0.4968 -0.6651  0.2132
 1939SOL    HW117279   2.321   2.062  14.286  0.3937  0.3962  0.1499
 1939SOL    HW217280   2.351   1.915  14.264 -2.9063  0.5428 -1.3020
 1940SOL     OW17281   1.465   2.097  15.952  0.1133  0.0944 -0.2193
 1940SOL    HW117282   1.444   2.092  15.858 -0.1626 -0.3478 -0.1354
 1940SOL    HW217283   1.397   2.042  15.992 -1.2586  0.7073 -1.6929
 1941SOL     OW17284   2.242   1.521  12.978  0.3824  0.3152  0.6858
 1941SOL    HW117285   2.249   1.617  12.972 -2.6660  0.5352  0.8039
 1941SOL    HW217286   2.297   1.486  12.908 -1.9216 -0.1551 -0.8690
 1942SOL     OW17287   1.157   2.110   4.258  0.5822 -0.3417 -0.6863
 1942SOL    HW117288   1.092   2.180   4.252  1.0874  0.2770  0.8851
 1942SOL    HW217289   1.102   2.032   4.267  0.4092 -0.2174 -0.6611
 1943SOL     OW17290   1.601   0.416   0.587  0.3222 -0.5885  0.0706
 1943SOL    HW117291   1.528   0.380   0.536 -0.8479  0.1853  1.1826
 1943SOL    HW217292   1.602   0.357   0.663 -1.4722 -1.2948 -0.4500
 1944SOL     OW17293   1.488   0.339  12.163 -0.0298 -0.0359  0.6402
 1944SOL    HW117294   1.524   0.308  12.245  1.6462  0.0298 -0.0663
 1944SOL    HW217295   1.565   0.384  12.130 -0.5079  0.5226  0.2715
 1945SOL     OW17296   2.057   1.723   5.679  0.2061 -0.0174  0.1800
 1945SOL    HW117297   2.032   1.788   5.745  0.6370  1.0830 -0.7330
 1945SOL    HW217298   1.975   1.679   5.660 -1.4173  2.9358  0.3291
 1946SOL     OW17299   2.224   1.082  13.530 -0.2042 -0.8056  0.2970
 1946SOL    HW117300   2.130   1.070  13.514 -0.1160 -1.9556  0.6118
 1946SOL    HW217301   2.251   1.147  13.465  1.8819 -0.9122  1.0629
 1947SOL     OW17302   3.439   3.573   8.051 -0.0983  0.6175  0.0884
 1947SOL    HW117303   3.362   3.520   8.071  1.0673 -1.3368 -0.5509
 1947SOL    HW217304   3.414   3.636   8.118  0.8244  1.9107 -0.7805
 1948SOL     OW17305   0.997   1.920   1.147 -0.3419  0.1970 -0.6718
 1948SOL    HW117306   0.964   1.832   1.165  1.2055 -0.6748 -2.0883
 1948SOL    HW217307   1.012   1.919   1.053 -1.5908 -0.5085 -0.8684
 1949SOL     OW17308   2.076   4.139   4.766 -0.0813 -0.2523 -0.6589
 1949SOL    HW117309   2.135   4.115   4.838  0.3748 -1.9714 -1.5966
 1949SOL    HW217310   2.046   4.224   4.798 -0.3061  0.1654 -1.9845
 1950SOL     OW17311   0.234   1.713   2.103  0.1515  0.2433  0.6820
 1950SOL    HW117312   0.224   1.660   2.024  0.1126 -0.5148  1.1963
 1950SOL    HW217313   0.192   1.654   2.165  1.6296 -1.3909  0.1397
 1951SOL     OW17314   4.500   4.093   5.857  0.1041 -0.2262  0.4182
 1951SOL    HW117315   4.518   4.089   5.763  1.4381  0.6861  0.6383
 1951SOL    HW217316   4.588   4.106   5.891  0.4246  1.4665 -1.0038
 1952SOL     OW17317   1.202   0.169   2.751 -0.2057 -0.3570 -0.1942
 1952SOL    HW117318   1.211   0.100   2.816 -1.0166  0.5033  0.8311
 1952SOL    HW217319   1.110   0.178   2.777 -0.1177 -0.9060  0.3029
 1953SOL     OW17320   2.541   2.310  12.140 -0.6621  0.0922  0.3328
 1953SOL    HW117321   2.542   2.377  12.209  3.2657 -1.8224  2.1127
 1953SOL    HW217322   2.473   2.258  12.182  1.8854 -3.6822 -0.2688
 1954SOL     OW17323   2.464   0.297   7.511 -0.5260  0.5083 -0.1632
 1954SOL    HW117324   2.411   0.291   7.432 -2.0905 -2.3897  1.1282
 1954SOL    HW217325   2.519   0.221   7.495 -1.9150 -1.1958  3.2591
 1955SOL     OW17326   3.610   1.306   7.143  0.3661 -0.0005 -0.2560
 1955SOL    HW117327   3.553   1.233   7.116 -0.2365 -0.0162  1.0470
 1955SOL    HW217328   3.680   1.291   7.080 -0.4156  0.2768 -1.1846
 1956SOL     OW17329   0.642   4.069  13.573  1.1608 -0.1799 -0.3754
 1956SOL    HW117330   0.701   4.144  13.572  1.0235 -0.0556  0.5608
 1956SOL    HW217331   0.630   4.044  13.665  0.9260 -1.1968 -0.6793
 1957SOL     OW17332   3.232   4.601   6.113 -1.0877  0.1570 -0.0063
 1957SOL    HW117333   3.321   4.601   6.148 -0.9068 -1.7973 -0.5014
 1957SOL    HW217334   3.239   4.587   6.019  2.9989 -0.8631  0.4469
 1958SOL     OW17335   1.563   3.590  12.938 -0.1599 -0.2704 -0.1656
 1958SOL    HW117336   1.581   3.663  12.998 -2.5699 -1.4660  2.0134
 1958SOL    HW217337   1.653   3.576  12.910 -0.0032  0.0325  0.1866
 1959SOL     OW17338   3.422   4.546  16.238  0.3162  0.3053  0.4113
 1959SOL    HW117339   3.516   4.541  16.254  0.7704  1.5760 -1.7922
 1959SOL    HW217340   3.418   4.597  16.157  1.4773  0.0005  0.1505
 1960SOL     OW17341   3.497   2.872   9.757 -0.8981  0.1484  0.2803
 1960SOL    HW117342   3.459   2.870   9.845 -2.1596  0.2287 -0.2522
 1960SOL    HW217343   3.588   2.848   9.772 -0.4540  1.3190 -0.5913
 1961SOL     OW17344   1.195   3.755   4.011  0.4150  0.3505 -0.3437
 1961SOL    HW117345   1.198   3.668   4.052 -0.4693 -0.0868 -1.2055
 1961SOL    HW217346   1.280   3.754   3.967  0.1316  0.6494 -0.9012
 1962SOL     OW17347   0.674   3.805  14.016  1.0731 -0.5108 -0.1097
 1962SOL    HW117348   0.726   3.739  14.062  0.8757  0.6133  1.6998
 1962SOL    HW217349   0.586   3.769  14.021  0.2388  1.7620  1.3369
 1963SOL     OW17350   1.348   1.944   1.111  0.0911  0.0670 -0.4210
 1963SOL    HW117351   1.369   1.983   1.027  1.1086  0.7572  0.1575
 1963SOL    HW217352   1.357   2.009   1.181  1.0747  0.6194 -1.0604
 1964SOL     OW17353   1.919   0.073   4.356 -0.0051  0.3734  0.1787
 1964SOL    HW117354   1.856   0.137   4.388  0.7858  1.1117  0.2762
 1964SOL    HW217355   1.957   0.108   4.275  0.5204  2.5074  1.3471
 1965SOL     OW17356   4.422   2.033   3.905 -0.1462 -0.4572 -0.2241
 1965SOL    HW117357   4.369   2.073   3.836  1.0462  2.0632  0.3384
 1965SOL    HW217358   4.508   2.073   3.897 -0.1077 -0.5440 -0.2531
 1966SOL     OW17359   3.177   0.388   3.893 -0.1800 -0.1198  0.0483
 1966SOL    HW117360   3.190   0.407   3.800 -1.2554  2.1806  0.3712
 1966SOL    HW217361   3.232   0.311   3.909  1.6449  1.0588 -0.5585
 1967SOL     OW17362   4.534   2.990   2.339  0.1172  0.4487 -0.0694
 1967SOL    HW117363   4.526   3.072   2.388 -0.7808 -0.8878  2.0413
 1967SOL    HW217364   4.511   3.024   2.253 -0.2558  1.7599  0.5469
 1968SOL     OW17365   2.616   3.175   8.303 -0.0516  0.0130  0.1549
 1968SOL    HW117366   2.594   3.139   8.388 -1.4386 -0.0792 -0.2465
 1968SOL    HW217367   2.677   3.110   8.266 -0.6785 -0.6540  0.2956
 1969SOL     OW17368   2.908   0.736   6.024  0.2720 -0.3193 -0.1224
 1969SOL    HW117369   2.943   0.792   5.955  1.8825 -2.2701 -0.8874
 1969SOL    HW217370   2.924   0.799   6.095 -2.0009  2.0744 -1.7476
 1970SOL     OW17371   1.952   2.945  12.507  0.1912 -0.2934 -0.0515
 1970SOL    HW117372   1.958   2.979  12.417  0.4331  1.7844  0.7520
 1970SOL    HW217373   2.042   2.951  12.538  0.5085  0.0817 -1.0293
 1971SOL     OW17374   0.865   0.655   5.113 -0.5594  0.0611  0.8264
 1971SOL    HW117375   0.928   0.583   5.107 -0.1401  0.4977 -0.0464
 1971SOL    HW217376   0.931   0.715   5.147  1.3846 -1.3168 -0.5054
 1972SOL     OW17377   3.199   4.494   7.907  0.1456  0.2363 -0.4520
 1972SOL    HW117378   3.177   4.546   7.984 -0.4956  1.6848 -1.6069
 1972SOL    HW217379   3.186   4.556   7.836 -1.6796 -1.0992 -1.2683
 1973SOL     OW17380   1.611   2.256  13.028  0.0005  0.9953  0.1987
 1973SOL    HW117381   1.697   2.215  13.027  0.3048  1.6591 -0.5688
 1973SOL    HW217382   1.563   2.213  12.957  2.0373  0.9385 -1.1395
 1974SOL     OW17383   3.202   0.890   7.664  0.7255 -0.3541 -0.0731
 1974SOL    HW117384   3.237   0.924   7.582  0.7326 -1.3462 -0.4816
 1974SOL    HW217385   3.126   0.940   7.693  1.8768  0.9620  0.6920
 1975SOL     OW17386   4.157   1.926  12.789 -0.5553  0.1524 -0.5317
 1975SOL    HW117387   4.088   1.876  12.746 -0.2031  0.5411 -1.5438
 1975SOL    HW217388   4.223   1.924  12.719 -0.6541  0.5445 -0.6376
 1976SOL     OW17389   3.989   0.363   3.283  0.1576 -0.2548 -0.2384
 1976SOL    HW117390   4.040   0.432   3.325 -0.6068  0.3794 -0.3468
 1976SOL    HW217391   3.935   0.415   3.222 -0.8793  0.4666  1.3067
 1977SOL     OW17392   4.070   2.284   8.023 -0.1529 -0.1055  0.4552
 1977SOL    HW117393   4.098   2.309   7.935  1.1656 -0.8894  0.6602
 1977SOL    HW217394   4.094   2.192   8.035 -0.3225 -0.5341 -2.5461
 1978SOL     OW17395   3.084   2.927  13.796 -0.2180  0.5703  0.1510
 1978SOL    HW117396   3.141   2.892  13.865 -0.5479 -0.3770 -0.0598
 1978SOL    HW217397   3.000   2.939  13.842 -0.0286  1.2970  0.3127
 1979SOL     OW17398   1.513   3.462   2.328 -0.0503  0.4773  0.3135
 1979SOL    HW117399   1.427   3.487   2.295 -1.0294  0.7867  3.1136
 1979SOL    HW217400   1.566   3.515   2.270  0.1305  0.2477  0.2659
 1980SOL     OW17401   2.127   2.123  13.121 -0.3823  0.3711 -0.6361
 1980SOL    HW117402   2.208   2.141  13.073 -0.1602  1.4444  0.1588
 1980SOL    HW217403   2.164   2.061  13.184 -0.3340 -0.1683 -1.1979
 1981SOL     OW17404   1.634   1.918  17.137 -0.0996  0.0083 -0.5700
 1981SOL    HW117405   1.656   1.979  17.067 -4.2862  0.2532 -1.6823
 1981SOL    HW217406   1.541   1.901  17.117 -0.2855 -0.1748  0.4601
 1982SOL     OW17407   2.840   0.510   1.769  0.0327 -0.1124  0.6550
 1982SOL    HW117408   2.796   0.564   1.703  0.4165  0.1178  0.5855
 1982SOL    HW217409   2.875   0.579   1.826 -1.4750  2.7331 -1.8744
 1983SOL     OW17410   3.320   4.331   6.609 -0.3183  0.3091 -0.2383
 1983SOL    HW117411   3.345   4.385   6.534 -1.1148 -0.1499 -0.8398
 1983SOL    HW217412   3.266   4.394   6.656 -1.3973 -0.3482 -0.5938
 1984SOL     OW17413   4.004   0.939   0.363  0.1595  0.2531  0.0692
 1984SOL    HW117414   3.910   0.937   0.380 -0.0964  1.2351 -1.2975
 1984SOL    HW217415   4.002   0.946   0.268  1.8989  3.8508  0.2891
 1985SOL     OW17416   1.793   4.114   5.151  0.7701 -0.4838 -0.5449
 1985SOL    HW117417   1.729   4.085   5.216 -0.4557 -0.5895 -1.7993
 1985SOL    HW217418   1.837   4.033   5.124  0.3266 -0.9267  0.0458
 1986SOL     OW17419   1.015   3.978  15.686 -0.2216 -0.0641  0.8765
 1986SOL    HW117420   0.941   4.034  15.710  0.6733  2.0330 -1.2624
 1986SOL    HW217421   1.086   4.008  15.742  0.8068  0.3625 -0.6626
 1987SOL     OW17422   3.456   1.667   7.694  0.3737 -0.2974  0.3504
 1987SOL    HW117423   3.542   1.701   7.719  0.0366  1.0392 -0.3133
 1987SOL    HW217424   3.393   1.691   7.761 -0.9018 -1.9254 -0.2738
 1988SOL     OW17425   1.990   2.274   8.398  0.0450 -0.1651 -0.2577
 1988SOL    HW117426   2.052   2.240   8.334 -0.5007 -0.5600 -0.5754
 1988SOL    HW217427   2.058   2.314   8.452  0.7788 -1.7342 -0.0308
 1989SOL     OW17428   0.689   3.385  12.611 -0.2383  0.4529 -0.1760
 1989SOL    HW117429   0.688   3.337  12.528  0.0023  0.6680 -0.3023
 1989SOL    HW217430   0.692   3.474  12.576  0.2267 -0.0242 -1.3470
 1990SOL     OW17431   2.490   1.733  10.829  0.2004  0.0165 -0.3474
 1990SOL    HW117432   2.556   1.719  10.761  0.2846  0.9595 -0.4678
 1990SOL    HW217433   2.509   1.651  10.873  0.1190  0.2716  0.1635
 1991SOL     OW17434   1.441   1.416   8.796 -0.2184 -0.2643 -0.0065
 1991SOL    HW117435   1.382   1.362   8.849  0.0991 -1.5198 -0.9405
 1991SOL    HW217436   1.525   1.371   8.808  0.7658  1.5563 -0.0686
 1992SOL     OW17437   3.279   1.887  15.280 -0.0096  0.6669  0.2172
 1992SOL    HW117438   3.185   1.880  15.300  0.0494  2.2021  1.0943
 1992SOL    HW217439   3.286   1.870  15.186 -1.5516  2.8693 -0.3302
 1993SOL     OW17440   4.177   1.307   8.059 -0.0014  0.4648 -0.7505
 1993SOL    HW117441   4.211   1.386   8.102 -2.2424  2.0602 -1.9271
 1993SOL    HW217442   4.160   1.331   7.968 -1.1384  0.2593 -0.5926
 1994SOL     OW17443   4.365   4.660   2.397  0.6552  0.6706  0.0909
 1994SOL    HW117444   4.401   0.026   2.398 -0.6821  1.1893  2.1000
 1994SOL    HW217445   4.386   4.637   2.306  0.3285 -0.4826  0.3116
 1995SOL     OW17446   2.888   1.503  11.953 -0.1515  0.0588 -0.2971
 1995SOL    HW117447   2.962   1.563  11.945 -2.1506  2.3383 -1.5892
 1995SOL    HW217448   2.895   1.465  12.041  0.5803  1.3899  0.2054
 1996SOL     OW17449   0.069   4.157   5.233  0.3710  0.0662  0.5763
 1996SOL    HW117450   0.071   4.101   5.155  0.1318  1.4255 -0.4030
 1996SOL    HW217451   4.699   4.181   5.230  0.1348 -1.0832 -0.9929
 1997SOL     OW17452   0.252   4.037   6.303  0.9221  0.5114 -0.4231
 1997SOL    HW117453   0.193   3.961   6.299 -1.3198  2.1394  2.1149
 1997SOL    HW217454   0.275   4.031   6.210 -0.1531 -0.6615 -0.6183
 1998SOL     OW17455   1.193   0.678   5.411 -0.5116  0.0841  0.0310
 1998SOL    HW117456   1.115   0.694   5.464 -0.0461  1.4964  0.3132
 1998SOL    HW217457   1.249   0.640   5.478  0.3431  2.5400  0.7010
 1999SOL     OW17458   4.072   3.278   3.549 -0.2510 -0.5372  0.0691
 1999SOL    HW117459   4.137   3.210   3.530  1.2831  1.6142 -2.3205
 1999SOL    HW217460   4.097   3.303   3.638 -3.2767 -1.0295  1.0486
 2000SOL     OW17461   2.655   0.841  16.200 -0.2038 -0.4611  0.2179
 2000SOL    HW117462   2.680   0.760  16.155 -1.0989 -1.7934  2.1147
 2000SOL    HW217463   2.579   0.865  16.147  0.9809  2.6008 -0.0531
 2001SOL     OW17464   2.131   4.206  13.348 -0.2482  0.2420 -0.9861
 2001SOL    HW117465   2.108   4.116  13.372  1.0983 -0.9355 -4.0872
 2001SOL    HW217466   2.070   4.258  13.400  1.1034  0.0115  0.8298
 2002SOL     OW17467   0.325   2.051   7.447 -0.1142 -0.5044 -0.0156
 2002SOL    HW117468   0.372   2.132   7.423 -1.7093  0.5503  0.4672
 2002SOL    HW217469   0.234   2.079   7.439 -0.0113  0.7434  3.1183
 2003SOL     OW17470   0.500   2.383   6.977  0.5055 -0.0496 -0.4395
 2003SOL    HW117471   0.514   2.393   6.883  0.4322  0.3404 -0.4089
 2003SOL    HW217472   0.414   2.424   6.991  1.0243  0.6512  0.6975
 2004SOL     OW17473   4.618   3.385   4.189 -0.2717 -0.1853  0.1628
 2004SOL    HW117474   4.705   3.394   4.149  0.0469 -1.0492  0.6688
 2004SOL    HW217475   4.576   3.471   4.180 -0.9785 -0.6548 -1.1200
 2005SOL     OW17476   3.659   4.710  11.351 -0.2406  0.4401 -0.1250
 2005SOL    HW117477   3.714   4.633  11.350 -2.0445 -0.8519  0.5651
 2005SOL    HW217478   3.721   0.060  11.353 -1.1610  1.2053  0.9192
 2006SOL     OW17479   1.207   4.535   4.812 -0.2035  0.2206  0.3490
 2006SOL    HW117480   1.188   4.629   4.814 -1.1822  0.0314  0.1028
 2006SOL    HW217481   1.143   4.501   4.750  1.6397 -1.6166 -0.5236
 2007SOL     OW17482   3.091   2.304  14.176  0.0860  0.1950  0.4116
 2007SOL    HW117483   3.028   2.376  14.173 -1.5095 -1.1184  1.9214
 2007SOL    HW217484   3.107   2.283  14.084  0.2138 -0.9660  0.7026
 2008SOL     OW17485   1.632   2.886   1.803 -0.4315 -0.6905  0.7118
 2008SOL    HW117486   1.652   2.834   1.726  0.9732 -1.6193  1.7129
 2008SOL    HW217487   1.538   2.872   1.808 -0.5441 -0.0204  0.5349
 2009SOL     OW17488   1.974   3.480   0.178  0.3387  0.0255  0.0189
 2009SOL    HW117489   1.951   3.387   0.186  0.6273 -0.1441 -1.1080
 2009SOL    HW217490   2.052   3.493   0.233 -0.1728  0.3967  0.6590
 2010SOL     OW17491   3.697   4.127  13.098  0.3287 -0.0329 -0.4721
 2010SOL    HW117492   3.630   4.162  13.039  0.3945  0.9743  0.0544
 2010SOL    HW217493   3.650   4.107  13.179  0.1145  1.6469 -0.1711
 2011SOL     OW17494   3.617   0.036   9.464 -0.2246  0.3259  0.1080
 2011SOL    HW117495   3.614   4.670   9.500 -1.9838  0.2948 -0.1059
 2011SOL    HW217496   3.634   0.088   9.542  1.1507 -0.5763  0.3962
 2012SOL     OW17497   1.006   4.320   6.405  0.1540 -0.1327 -0.6808
 2012SOL    HW117498   1.001   4.390   6.339 -0.8132 -0.4336 -0.9310
 2012SOL    HW217499   1.095   4.288   6.386  0.5251  0.4729  0.0409
 2013SOL     OW17500   1.804   1.854   3.888 -0.2005 -0.1429  0.1690
 2013SOL    HW117501   1.729   1.867   3.946  0.0623 -1.7723  0.8861
 2013SOL    HW217502   1.804   1.940   3.845 -0.1080 -0.7333 -0.9982
 2014SOL     OW17503   0.697   1.638  17.051 -0.2229 -0.2181 -0.0282
 2014SOL    HW117504   0.697   1.730  17.024  1.6196 -0.0710  0.4234
 2014SOL    HW217505   0.672   1.594  16.970  0.3526 -2.7971  1.1605
 2015SOL     OW17506   1.964   3.032   2.264  0.5023 -1.0763 -0.5699
 2015SOL    HW117507   1.904   3.106   2.274  0.5405 -1.2798  1.2125
 2015SOL    HW217508   1.899   2.971   2.228 -2.5589  1.5383  0.4844
 2016SOL     OW17509   3.392   2.046  14.621 -0.3816  0.0900 -0.0222
 2016SOL    HW117510   3.400   1.958  14.585  3.2911  1.3077 -2.2153
 2016SOL    HW217511   3.478   2.052  14.665  0.7950 -0.6234 -2.2267
 2017SOL     OW17512   3.634   0.172   6.634  0.4956 -0.5944 -0.0350
 2017SOL    HW117513   3.586   0.229   6.693  1.0508 -0.3629  0.1913
 2017SOL    HW217514   3.690   0.236   6.591 -2.3685  0.2505 -2.5536
 2018SOL     OW17515   3.570   2.445   5.011  0.4751  0.0145  0.4663
 2018SOL    HW117516   3.662   2.449   5.035  1.3279  0.1991 -2.8572
 2018SOL    HW217517   3.538   2.532   5.035  0.0792 -0.4207  1.5463
 2019SOL     OW17518   2.449   0.920   8.431  0.1616 -0.0483  0.3725
 2019SOL    HW117519   2.409   0.839   8.461 -1.6755  0.2526 -1.2409
 2019SOL    HW217520   2.543   0.900   8.427  0.3243  0.6749  0.6067
 2020SOL     OW17521   0.266   3.652   5.670  0.8141  0.0270 -0.2378
 2020SOL    HW117522   0.218   3.576   5.637  2.7486 -1.4147  0.2532
 2020SOL    HW217523   0.357   3.622   5.661  0.4007 -1.1740 -0.3949
 2021SOL     OW17524   1.270   3.436   5.387 -0.3672 -0.3093  0.4469
 2021SOL    HW117525   1.219   3.413   5.309  0.8504 -2.9221  0.4183
 2021SOL    HW217526   1.211   3.398   5.453  0.5040 -0.0187  1.3776
 2022SOL     OW17527   0.318   2.296   7.308  0.2616 -0.2268  0.0241
 2022SOL    HW117528   0.284   2.298   7.218  1.8667  0.7955 -0.5551
 2022SOL    HW217529   0.347   2.387   7.299  0.5667 -0.3254  0.0087
 2023SOL     OW17530   3.801   0.397   6.522 -0.1337 -0.7933  0.1495
 2023SOL    HW117531   3.872   0.373   6.582 -0.5393 -1.3455  0.4084
 2023SOL    HW217532   3.837   0.363   6.440 -1.4634 -0.0479 -0.7330
 2024SOL     OW17533   2.129   3.692   5.054 -0.4810 -0.1998 -0.0318
 2024SOL    HW117534   2.050   3.737   5.025  1.5031  2.1356 -1.8217
 2024SOL    HW217535   2.093   3.630   5.117 -0.4276 -1.7280 -1.4775
 2025SOL     OW17536   3.548   2.692  15.817  0.0609 -0.3509  0.5780
 2025SOL    HW117537   3.631   2.661  15.781 -0.2479 -1.4656  0.8131
 2025SOL    HW217538   3.499   2.615  15.789  1.1375 -1.4563  1.7384
 2026SOL     OW17539   3.119   1.933  17.285 -0.3846  0.6417  0.2181
 2026SOL    HW117540   3.205   1.891  17.294  0.0474  1.2762 -0.9131
 2026SOL    HW217541   3.068   1.865  17.329  1.4458 -2.2695 -2.1952
 2027SOL     OW17542   3.093   1.075  16.440  0.0009  0.2121  0.0231
 2027SOL    HW117543   3.071   0.990  16.403  0.8336 -0.2717  0.6265
 2027SOL    HW217544   3.069   1.140  16.374  0.2415  1.0116  0.7195
 2028SOL     OW17545   1.748   2.803   3.142  0.6198  0.5681 -0.4703
 2028SOL    HW117546   1.735   2.764   3.229  0.0007  1.4833 -0.1552
 2028SOL    HW217547   1.808   2.739   3.104 -0.2177 -1.6818  1.9874
 2029SOL     OW17548   1.230   0.901   6.999 -0.1279 -0.0752 -0.0252
 2029SOL    HW117549   1.156   0.857   7.041 -1.2410  2.2235  0.4218
 2029SOL    HW217550   1.299   0.837   7.018  0.3506  0.0219 -1.4715
 2030SOL     OW17551   0.902   0.135  13.382 -0.4168 -0.0626  0.2214
 2030SOL    HW117552   0.855   0.122  13.300  0.1970  1.3174 -0.3461
 2030SOL    HW217553   0.829   0.113  13.440  0.1742  0.5511  1.1943
 2031SOL     OW17554   3.838   2.998  13.328  0.5218 -0.3421 -0.0989
 2031SOL    HW117555   3.819   2.927  13.389 -0.5501 -0.8160 -0.9891
 2031SOL    HW217556   3.884   2.958  13.255  1.3290  0.4737 -0.0338
 2032SOL     OW17557   4.385   2.180   8.063 -0.3719 -0.1663  0.0293
 2032SOL    HW117558   4.409   2.178   8.155 -2.1251  1.1244  0.5187
 2032SOL    HW217559   4.381   2.086   8.042  0.0794  0.0624 -1.1012
 2033SOL     OW17560   3.063   2.665   0.129  0.1699  0.5558 -0.6085
 2033SOL    HW117561   3.032   2.577   0.150 -1.7532  1.5568  0.7709
 2033SOL    HW217562   2.991   2.700   0.077  0.6037  2.0134 -0.2356
 2034SOL     OW17563   1.452   2.696   6.311  0.0490  0.1869  0.6119
 2034SOL    HW117564   1.492   2.722   6.394  0.5423 -2.2063  1.1321
 2034SOL    HW217565   1.465   2.601   6.316  1.5971  0.3066 -0.9608
 2035SOL     OW17566   3.918   4.717   7.708  0.4887 -0.1632 -0.3986
 2035SOL    HW117567   3.857   0.024   7.775 -0.4578  0.8612 -1.7162
 2035SOL    HW217568   3.980   4.668   7.763 -0.0626 -0.4163 -0.0084
 2036SOL     OW17569   1.878   4.363   7.735  0.2499 -0.1238 -0.3831
 2036SOL    HW117570   1.961   4.331   7.699  0.4047  1.5610 -1.5129
 2036SOL    HW217571   1.828   4.371   7.654  0.5786 -2.7197 -0.8438
 2037SOL     OW17572   1.083   1.032  15.118 -0.0188 -0.0082 -0.4241
 2037SOL    HW117573   1.138   1.046  15.042  1.7509  1.8711  1.1897
 2037SOL    HW217574   0.991   1.036  15.091 -0.5665  2.3686  1.7765
 2038SOL     OW17575   0.213   4.529   6.299  0.6023  0.2886  0.3766
 2038SOL    HW117576   0.245   4.604   6.349  0.0693 -0.3343  1.6532
 2038SOL    HW217577   0.289   4.528   6.241 -0.2932  2.9171 -0.8436
 2039SOL     OW17578   3.172   2.708   4.950 -0.0983  0.1228 -0.0437
 2039SOL    HW117579   3.161   2.804   4.951 -0.0310  0.1604 -1.6338
 2039SOL    HW217580   3.234   2.703   4.877 -0.0525 -0.0036  0.0050
 2040SOL     OW17581   0.670   2.334   6.019  0.4413 -0.0518 -0.6456
 2040SOL    HW117582   0.666   2.338   5.924  0.1532 -0.4941 -0.6539
 2040SOL    HW217583   0.579   2.359   6.036 -0.1029 -0.7430 -2.5926
 2041SOL     OW17584   0.126   3.448   4.003  0.3437 -0.6280 -0.0811
 2041SOL    HW117585   0.165   3.362   3.986  0.1700 -0.8098  0.4540
 2041SOL    HW217586   0.071   3.465   3.926 -2.0111  0.0004  1.7593
 2042SOL     OW17587   3.879   2.852   3.047  0.3120  0.6225  0.3480
 2042SOL    HW117588   3.844   2.875   3.132 -0.8834  1.8748 -0.4829
 2042SOL    HW217589   3.952   2.795   3.070  0.8471  0.4420 -1.8104
 2043SOL     OW17590   0.546   2.878  14.907  0.0588 -0.3485  0.0782
 2043SOL    HW117591   0.502   2.861  14.990 -0.1978  0.1052  0.0365
 2043SOL    HW217592   0.490   2.865  14.830 -1.4270  1.4853  0.8495
 2044SOL     OW17593   4.599   2.059   4.837  0.0094 -0.5127  0.5646
 2044SOL    HW117594   4.505   2.044   4.827 -0.0442  0.6499 -0.6287
 2044SOL    HW217595   4.614   2.102   4.753 -0.6446  0.0871  0.7470
 2045SOL     OW17596   1.123   4.302   2.462 -0.6556 -0.3261 -0.2033
 2045SOL    HW117597   1.033   4.319   2.433 -1.3862  0.9097  2.7915
 2045SOL    HW217598   1.174   4.314   2.382  0.5044  3.3109  1.0822
 2046SOL     OW17599   0.649   3.504   8.984 -0.3924 -0.6798 -0.2509
 2046SOL    HW117600   0.664   3.461   9.068 -2.9494 -0.4411  0.3252
 2046SOL    HW217601   0.577   3.565   8.994  0.8727  1.1263 -2.0773
 2047SOL     OW17602   4.152   2.736  11.637  0.2881 -0.2967 -0.2541
 2047SOL    HW117603   4.196   2.821  11.636  1.0889 -0.7049 -0.2084
 2047SOL    HW217604   4.123   2.750  11.727  1.4003 -2.8856  0.5202
 2048SOL     OW17605   0.440   0.141   7.008 -0.3973  0.3405 -0.2096
 2048SOL    HW117606   0.519   0.099   7.042 -1.4169 -0.5375  1.0936
 2048SOL    HW217607   0.396   0.059   6.984 -0.8538  0.3991  0.4306
 2049SOL     OW17608   4.404   2.083   2.955 -0.1541  0.2574 -0.3239
 2049SOL    HW117609   4.408   2.102   2.861  0.3654 -0.7482 -0.5026
 2049SOL    HW217610   4.478   2.023   2.970 -0.8498 -0.7435 -0.8777
 2050SOL     OW17611   3.499   4.605  14.648 -0.3557  0.4232 -0.3320
 2050SOL    HW117612   3.574   4.635  14.597  1.1864  0.8392  2.1844
 2050SOL    HW217613   3.462   4.541  14.588  1.0944 -0.9667  0.2436
 2051SOL     OW17614   0.652   4.707   6.265 -0.1861 -0.3852  0.3078
 2051SOL    HW117615   0.590   4.703   6.338 -0.2596  0.6973  0.3016
 2051SOL    HW217616   0.695   0.068   6.283 -0.4343  0.0458 -1.1265
 2052SOL     OW17617   4.067   4.637  13.122  0.1526 -0.4268 -0.6532
 2052SOL    HW117618   4.035   0.004  13.132  0.2184 -0.5164  0.4198
 2052SOL    HW217619   4.159   4.648  13.148  0.1933  2.1927 -1.9160
 2053SOL     OW17620   1.995   3.360   4.994 -0.0243  0.6215  0.2114
 2053SOL    HW117621   1.906   3.329   4.977  0.1136  0.3287  0.0034
 2053SOL    HW217622   2.042   3.337   4.913 -1.0739  3.1108 -1.1008
 2054SOL     OW17623   3.326   0.457   2.985 -0.0918  0.6275  0.1970
 2054SOL    HW117624   3.407   0.454   3.036 -0.0029 -2.4811 -0.1358
 2054SOL    HW217625   3.297   0.547   2.997  0.8825  0.5542  3.1402
 2055SOL     OW17626   0.483   1.366   8.962 -0.1340 -0.2195 -0.8686
 2055SOL    HW117627   0.445   1.406   9.040 -2.5163  0.0623 -2.1378
 2055SOL    HW217628   0.404   1.321   8.931 -1.9594  2.8364 -0.7359
 2056SOL     OW17629   0.444   3.504   0.629  0.2614 -0.5467  0.6400
 2056SOL    HW117630   0.351   3.497   0.608  0.1573  2.9850 -0.0307
 2056SOL    HW217631   0.475   3.417   0.603  1.0179 -0.1001  0.0598
 2057SOL     OW17632   0.599   3.246   6.378 -0.1240  0.3131 -0.1441
 2057SOL    HW117633   0.519   3.291   6.402 -0.7248 -0.1578 -1.2677
 2057SOL    HW217634   0.663   3.317   6.365  2.1945 -1.7071  0.1079
 2058SOL     OW17635   1.966   1.669   6.122  0.4624  0.0184 -0.6480
 2058SOL    HW117636   1.889   1.722   6.102 -0.7793 -1.1569  1.0350
 2058SOL    HW217637   1.967   1.617   6.041 -2.5007 -1.3232  0.1940
 2059SOL     OW17638   3.256   0.502   8.349  0.0424  0.4895  0.3927
 2059SOL    HW117639   3.229   0.411   8.338 -2.1193  0.9201  2.2194
 2059SOL    HW217640   3.309   0.523   8.272  1.4663  0.9571  1.4770
 2060SOL     OW17641   2.533   0.925   3.570  0.2830 -0.2862 -0.2855
 2060SOL    HW117642   2.473   0.864   3.526  0.3902 -0.5306 -0.0890
 2060SOL    HW217643   2.482   0.960   3.643  0.9961 -1.4370  0.7585
 2061SOL     OW17644   1.615   1.325   5.086 -0.1518  0.1759  0.0951
 2061SOL    HW117645   1.703   1.289   5.086 -0.4141 -0.4842 -0.0629
 2061SOL    HW217646   1.624   1.419   5.100 -2.3578  0.3787  0.2072
 2062SOL     OW17647   0.330   3.169   2.647  0.3120  0.0319  0.1180
 2062SOL    HW117648   0.398   3.101   2.638 -0.4674 -0.4776 -2.0839
 2062SOL    HW217649   0.371   3.227   2.710  1.3498 -0.8330  0.2463
 2063SOL     OW17650   3.383   1.314   6.924  0.1073  0.3700  0.2968
 2063SOL    HW117651   3.366   1.408   6.939  1.4138  0.6846 -0.2022
 2063SOL    HW217652   3.330   1.307   6.845  0.8801 -0.8800 -0.1084
 2064SOL     OW17653   1.497   2.647   3.250 -0.2758 -0.0626  0.0660
 2064SOL    HW117654   1.462   2.698   3.324 -2.1729 -0.8532 -0.2843
 2064SOL    HW217655   1.579   2.611   3.283 -0.5615 -1.2024 -0.4742
 2065SOL     OW17656   3.035   1.606   2.010 -0.0843 -0.5272 -0.0815
 2065SOL    HW117657   3.024   1.682   1.953 -0.9969 -1.4175 -1.0995
 2065SOL    HW217658   3.130   1.600   2.001 -0.0606 -2.1395  1.1883
 2066SOL     OW17659   2.450   2.489  10.298 -0.0091  0.3090  0.3851
 2066SOL    HW117660   2.515   2.554  10.270  1.2046 -1.3312 -0.6165
 2066SOL    HW217661   2.387   2.537  10.351  0.8910  0.1542  1.5876
 2067SOL     OW17662   3.964   1.433   6.736 -0.1076 -0.0818 -0.0830
 2067SOL    HW117663   3.885   1.477   6.768  0.3337  0.2237  0.6020
 2067SOL    HW217664   3.986   1.490   6.663  3.0379 -1.0905  0.0923
 2068SOL     OW17665   0.489   3.184   4.375 -0.5847  0.4745 -0.2605
 2068SOL    HW117666   0.495   3.100   4.329  0.5434 -0.4590  1.5743
 2068SOL    HW217667   0.573   3.183   4.421  0.1011  2.1089 -1.5007
 2069SOL     OW17668   3.669   2.540   9.515 -0.4012  0.4791  0.3177
 2069SOL    HW117669   3.604   2.540   9.586 -0.8642 -1.1295 -0.1132
 2069SOL    HW217670   3.627   2.612   9.467  0.8615  0.3761 -0.9452
 2070SOL     OW17671   0.716   3.891   9.013 -0.3846 -0.3599 -0.7968
 2070SOL    HW117672   0.780   3.821   9.022 -0.2820 -0.4931 -2.5086
 2070SOL    HW217673   0.662   3.857   8.941 -0.6354  2.4378 -1.9581
 2071SOL     OW17674   1.570   1.254   7.545 -0.1101 -0.3684  0.8554
 2071SOL    HW117675   1.514   1.321   7.583 -1.1257  0.6789 -2.5027
 2071SOL    HW217676   1.571   1.293   7.457  1.2577  0.1905  1.1196
 2072SOL     OW17677   2.105   3.984   8.047  0.0850 -0.5546 -0.0669
 2072SOL    HW117678   2.080   4.034   7.969  2.3737 -0.8296 -0.9704
 2072SOL    HW217679   2.128   3.899   8.010 -0.9229  0.4022 -2.8911
 2073SOL     OW17680   3.852   1.374   2.086 -0.4385 -0.1863  0.3475
 2073SOL    HW117681   3.798   1.316   2.139  0.5648 -1.6121 -0.2017
 2073SOL    HW217682   3.820   1.463   2.102  1.1634  0.6696 -1.2186
 2074SOL     OW17683   1.196   1.310   0.815  0.0841  0.0009 -0.3155
 2074SOL    HW117684   1.240   1.393   0.832 -1.6814  0.7272  0.6937
 2074SOL    HW217685   1.267   1.254   0.846  0.7225  0.8971 -0.1483
 2075SOL     OW17686   0.857   3.382  15.560 -0.4838 -0.0191 -0.3055
 2075SOL    HW117687   0.793   3.442  15.599 -0.9287 -0.5367 -0.2463
 2075SOL    HW217688   0.897   3.441  15.497 -0.5629 -0.3005 -0.6181
 2076SOL     OW17689   1.194   3.224   8.646  0.1176  0.0155 -0.0573
 2076SOL    HW117690   1.165   3.233   8.736 -0.2696 -0.3155 -0.1485
 2076SOL    HW217691   1.290   3.221   8.654  0.1022  0.3148  0.2259
 2077SOL     OW17692   3.983   0.667   9.303  0.7578  0.1727 -0.2125
 2077SOL    HW117693   3.974   0.760   9.283 -0.6671 -0.3965 -2.2882
 2077SOL    HW217694   3.933   0.635   9.227 -0.6467 -1.7187  1.5161
 2078SOL     OW17695   1.765   3.472   6.684  0.3599  0.2593 -0.2727
 2078SOL    HW117696   1.761   3.463   6.589  0.3106 -2.3638 -0.0021
 2078SOL    HW217697   1.742   3.387   6.719 -1.5275 -0.2333 -2.6740
 2079SOL     OW17698   1.273   1.742   1.323 -0.0078 -0.4856 -0.2939
 2079SOL    HW117699   1.187   1.778   1.303  0.0916 -0.2241 -0.2574
 2079SOL    HW217700   1.291   1.712   1.233 -1.4458 -0.1384 -0.6919
 2080SOL     OW17701   3.588   2.865   8.469 -0.1750  0.4019  0.5375
 2080SOL    HW117702   3.538   2.946   8.484  0.1702  0.6334  0.4443
 2080SOL    HW217703   3.646   2.854   8.545  1.7568  0.1253 -0.9621
 2081SOL     OW17704   1.707   4.167   6.893 -0.4738 -0.6327 -0.1600
 2081SOL    HW117705   1.798   4.149   6.917  0.0191  0.9263 -0.8845
 2081SOL    HW217706   1.708   4.146   6.799 -3.6642 -0.8368 -0.1514
 2082SOL     OW17707   2.991   4.272   8.152  0.4721  0.0744  0.5073
 2082SOL    HW117708   3.087   4.274   8.147  0.4563 -0.4345 -0.0260
 2082SOL    HW217709   2.962   4.310   8.069  2.0239 -0.3714 -0.2421
 2083SOL     OW17710   4.455   2.219   8.593  0.8249  0.0718 -0.2394
 2083SOL    HW117711   4.365   2.187   8.591  1.0579 -0.5309 -1.4839
 2083SOL    HW217712   4.443   2.314   8.587 -1.6814 -0.2970 -0.9893
 2084SOL     OW17713   2.988   3.343  11.138 -0.3477 -0.3899 -0.2826
 2084SOL    HW117714   2.991   3.425  11.089 -3.7350 -0.9879 -1.4328
 2084SOL    HW217715   3.050   3.373  11.205  0.3809  1.2212 -1.6848
 2085SOL     OW17716   0.149   3.316   0.684 -0.2321 -0.0499 -0.3918
 2085SOL    HW117717   0.190   3.234   0.712  1.4727  0.4737 -1.4079
 2085SOL    HW217718   0.168   3.370   0.760  0.1451 -1.5568  0.5799
 2086SOL     OW17719   3.066   0.444   3.370  0.0699 -0.1374 -0.3702
 2086SOL    HW117720   3.059   0.467   3.463 -0.8111 -0.0174 -0.4655
 2086SOL    HW217721   3.130   0.374   3.381  1.3095  1.2506  1.2878
 2087SOL     OW17722   3.794   0.983   2.971 -0.2455  0.2879  0.2089
 2087SOL    HW117723   3.769   1.069   2.938  0.5920  0.7471  0.8002
 2087SOL    HW217724   3.795   0.922   2.897 -0.5097 -0.3578  0.7374
 2088SOL     OW17725   0.047   1.781   8.931  0.0116 -0.4026  0.1193
 2088SOL    HW117726   0.073   1.699   8.974  0.3046 -0.0400  0.6263
 2088SOL    HW217727   0.018   1.829   9.008  1.0560 -1.0186  0.9059
 2089SOL     OW17728   0.489   1.044   3.419  0.5034 -0.0825 -0.1564
 2089SOL    HW117729   0.396   1.056   3.399  0.2955 -0.4019  0.6087
 2089SOL    HW217730   0.487   0.948   3.417 -0.5520 -0.0466 -0.9396
 2090SOL     OW17731   2.219   0.743   7.997  0.3315  0.0513 -0.3333
 2090SOL    HW117732   2.143   0.688   8.013  1.9829 -1.9183  0.6836
 2090SOL    HW217733   2.231   0.780   8.085  1.5611  0.5619 -0.7065
 2091SOL     OW17734   0.885   2.826   8.327  0.0096 -0.0822 -0.0663
 2091SOL    HW117735   0.847   2.846   8.412 -2.0397 -1.7641 -0.6009
 2091SOL    HW217736   0.977   2.853   8.333  0.1920 -0.4980 -0.9602
 2092SOL     OW17737   4.684   0.745   8.479 -0.5286 -0.1671 -0.3201
 2092SOL    HW117738   4.600   0.769   8.518  0.1784  2.4799 -0.4088
 2092SOL    HW217739   0.026   0.802   8.520  1.3742 -0.7580 -2.5008
 2093SOL     OW17740   4.362   1.176   9.135 -0.3400 -0.4146  0.2885
 2093SOL    HW117741   4.401   1.196   9.050 -3.3138  0.1288 -0.9689
 2093SOL    HW217742   4.410   1.236   9.192 -2.0024 -0.0961  1.3627
 2094SOL     OW17743   3.541   4.593   9.911 -1.0027  0.6695  0.8963
 2094SOL    HW117744   3.573   4.683   9.907 -0.0084  0.2040 -1.4760
 2094SOL    HW217745   3.592   4.551   9.980 -0.3225  1.5053  0.8974
 2095SOL     OW17746   1.411   2.324   6.112 -0.1101 -0.0949  0.2043
 2095SOL    HW117747   1.493   2.333   6.065  0.5784 -0.9948  1.2039
 2095SOL    HW217748   1.379   2.242   6.073 -0.4458  0.7458 -1.2641
 2096SOL     OW17749   3.030   1.950   3.818 -0.2432  0.1294  0.0735
 2096SOL    HW117750   3.095   1.910   3.760 -0.1975 -0.3504  0.4548
 2096SOL    HW217751   2.947   1.932   3.773  0.3969  2.4570 -2.0285
 2097SOL     OW17752   0.022   2.405  12.903  0.1515  0.1038 -0.3090
 2097SOL    HW117753   4.714   2.348  12.833 -0.7387  1.0416 -0.6795
 2097SOL    HW217754   0.023   2.338  12.971  0.3036 -0.3398 -0.7527
 2098SOL     OW17755   1.417   4.581   2.339  0.0742 -0.1624  0.0426
 2098SOL    HW117756   1.336   4.626   2.363 -0.9834 -2.1163  0.1604
 2098SOL    HW217757   1.396   4.524   2.265 -1.3280 -0.7540  0.8823
 2099SOL     OW17758   3.265   4.512   5.573  0.3334 -0.0415  0.3671
 2099SOL    HW117759   3.227   4.599   5.557  0.2451  0.0761  1.2538
 2099SOL    HW217760   3.201   4.466   5.518 -1.4017  0.8066  1.6715
 2100SOL     OW17761   1.875   0.892   1.330 -0.2587 -0.2458 -0.3777
 2100SOL    HW117762   1.876   0.981   1.294  0.4723 -0.3928 -0.7171
 2100SOL    HW217763   1.848   0.911   1.420  1.5321  0.9826 -0.1026
 2101SOL     OW17764   4.004   2.703   7.150 -0.0524  0.1551  0.0623
 2101SOL    HW117765   4.098   2.684   7.151 -0.4031 -1.4458  1.2522
 2101SOL    HW217766   3.969   2.625   7.107  1.1357 -0.4214  0.1381
 2102SOL     OW17767   1.981   2.373   3.584  0.3756 -0.1549  0.1669
 2102SOL    HW117768   1.956   2.358   3.675  0.7437 -1.7628  0.0030
 2102SOL    HW217769   2.053   2.311   3.576 -0.3316 -0.8539 -0.7176
 2103SOL     OW17770   1.606   4.706   6.062 -0.3339  0.4720 -0.2649
 2103SOL    HW117771   1.588   4.668   5.977  1.3982 -0.6391 -0.1380
 2103SOL    HW217772   1.521   0.014   6.094 -0.5675 -0.0703 -0.3693
 2104SOL     OW17773   0.420   3.168   2.087  0.0069  0.0250  0.0937
 2104SOL    HW117774   0.384   3.206   2.167  0.3435 -1.1706  0.8169
 2104SOL    HW217775   0.508   3.163   2.124  0.5421  1.0807 -1.0671
 2105SOL     OW17776   4.697   3.781  14.388 -0.0609  0.2374  0.7635
 2105SOL    HW117777   0.031   3.810  14.316 -0.0526  0.7306  0.9673
 2105SOL    HW217778   0.026   3.805  14.464 -0.9316  0.7659  1.1899
 2106SOL     OW17779   2.652   3.816  12.191  0.4225 -0.6528  0.0189
 2106SOL    HW117780   2.658   3.905  12.155  1.0496 -0.1119  1.4571
 2106SOL    HW217781   2.597   3.771  12.127  0.6356  1.5173 -1.7056
 2107SOL     OW17782   1.335   0.124   2.513  0.0663 -0.1882 -0.2472
 2107SOL    HW117783   1.288   0.173   2.581  0.2181 -0.6028  0.1516
 2107SOL    HW217784   1.397   0.070   2.562  0.0559  0.6363  0.6705
 2108SOL     OW17785   2.494   4.270   4.556  0.0491 -0.1959  0.6062
 2108SOL    HW117786   2.428   4.310   4.612  1.6846  2.2083  0.8207
 2108SOL    HW217787   2.567   4.317   4.596 -1.6244  1.9380  1.1452
 2109SOL     OW17788   3.797   0.764   6.116 -0.6866 -0.2706 -0.0652
 2109SOL    HW117789   3.753   0.839   6.077 -0.5616 -0.0135  0.2915
 2109SOL    HW217790   3.861   0.803   6.176 -1.0763 -1.4084  1.0969
 2110SOL     OW17791   1.007   0.900   1.500  0.0019  0.5768 -0.4814
 2110SOL    HW117792   0.941   0.877   1.435 -0.2925 -0.6275  0.2474
 2110SOL    HW217793   0.955   0.908   1.580 -0.0985  0.6056 -0.5499
 2111SOL     OW17794   3.959   1.940   3.143 -0.0176  0.1104  0.4817
 2111SOL    HW117795   3.961   2.032   3.169 -2.2916  0.7642 -1.6699
 2111SOL    HW217796   4.008   1.941   3.061 -2.3564 -1.3586 -0.9188
 2112SOL     OW17797   1.053   2.178   1.295  0.0528  0.0099  0.7673
 2112SOL    HW117798   1.026   2.101   1.245 -0.9740  0.5121  0.5626
 2112SOL    HW217799   1.007   2.256   1.263 -0.8709 -0.0320  2.0078
 2113SOL     OW17800   1.832   1.896   2.525 -0.1953  0.4215  0.1848
 2113SOL    HW117801   1.904   1.909   2.586 -0.3323  1.7918  0.0577
 2113SOL    HW217802   1.774   1.842   2.577  1.6556 -0.5087  1.2894
 2114SOL     OW17803   0.289   1.539   0.265  0.7335 -0.5276 -0.2549
 2114SOL    HW117804   0.381   1.525   0.244  0.0970 -1.7328 -2.3379
 2114SOL    HW217805   0.235   1.494   0.199 -0.5758  1.4927 -0.5687
 2115SOL     OW17806   4.417   1.003   7.370  0.2715  0.1759  0.0680
 2115SOL    HW117807   4.341   0.955   7.402 -0.3196  1.5338  0.7019
 2115SOL    HW217808   4.425   1.078   7.428  0.0804 -1.1953  1.8579
 2116SOL     OW17809   0.595   3.777   1.817 -0.2577 -0.6846  0.8338
 2116SOL    HW117810   0.616   3.687   1.789  2.0938  0.7582 -2.0691
 2116SOL    HW217811   0.641   3.817   1.743  0.3582 -0.7541  1.1827
 2117SOL     OW17812   1.615   2.355   0.833  0.2424  0.2457 -0.2315
 2117SOL    HW117813   1.588   2.436   0.790 -0.2716  0.9398  1.4303
 2117SOL    HW217814   1.577   2.379   0.917  0.7870  1.1806 -0.2603
 2118SOL     OW17815   4.516   0.210   8.057  0.5665 -0.2267  0.7862
 2118SOL    HW117816   4.563   0.210   7.974  0.6053 -2.1974  0.8184
 2118SOL    HW217817   4.546   0.291   8.098 -2.6726  0.9528  0.8020
 2119SOL     OW17818   0.982   2.222  10.080 -0.3925 -0.2070 -0.1167
 2119SOL    HW117819   0.905   2.189  10.124 -0.4403 -0.0531 -0.0833
 2119SOL    HW217820   0.987   2.312  10.114  3.3233 -0.8640  1.0276
 2120SOL     OW17821   1.782   2.638  15.742  0.1251 -0.0604  0.0923
 2120SOL    HW117822   1.779   2.687  15.660  0.8173  1.2268  0.8202
 2120SOL    HW217823   1.690   2.641  15.768  0.1147  0.8300 -0.0614
 2121SOL     OW17824   4.000   2.185   4.091 -0.4023 -0.1614  0.3474
 2121SOL    HW117825   3.977   2.231   4.011  0.0069 -0.3717  0.1059
 2121SOL    HW217826   3.922   2.199   4.144  0.8810 -0.7216  2.4178
 2122SOL     OW17827   2.866   2.637  14.806  0.5381 -0.1335 -0.0644
 2122SOL    HW117828   2.955   2.672  14.802  0.0107  1.1400 -0.8166
 2122SOL    HW217829   2.880   2.548  14.776 -1.0393 -0.2471 -0.4879
 2123SOL     OW17830   1.361   4.496   9.299  0.0499 -0.5937 -0.0362
 2123SOL    HW117831   1.325   4.423   9.249 -1.0697  0.6190 -1.0042
 2123SOL    HW217832   1.331   4.568   9.244 -1.3660 -1.1155  0.0451
 2124SOL     OW17833   1.362   3.173   0.359  0.4022 -0.5590  0.7508
 2124SOL    HW117834   1.313   3.096   0.387 -1.9806  1.1377  1.1991
 2124SOL    HW217835   1.443   3.161   0.409  0.8955  1.9120  0.5546
 2125SOL     OW17836   1.626   1.970  13.156 -0.0912 -0.0357  0.8292
 2125SOL    HW117837   1.634   2.065  13.155  1.1209 -0.1386  2.1346
 2125SOL    HW217838   1.716   1.945  13.135 -0.4234 -0.8396  0.3633
 2126SOL     OW17839   3.587   4.121   3.606  0.0375  0.5397  0.5024
 2126SOL    HW117840   3.513   4.086   3.556  1.4482 -1.5137 -0.1174
 2126SOL    HW217841   3.618   4.047   3.657  0.3462 -0.5761 -1.3244
 2127SOL     OW17842   2.270   3.836   5.673 -0.4259 -0.1535  0.0464
 2127SOL    HW117843   2.274   3.746   5.705  0.6023  0.2892  1.1702
 2127SOL    HW217844   2.244   3.812   5.584 -0.0848 -1.4988  0.3125
 2128SOL     OW17845   1.395   3.650   3.774  0.2924  0.3287  0.2550
 2128SOL    HW117846   1.382   3.557   3.754  2.3759  0.1725 -0.3892
 2128SOL    HW217847   1.488   3.656   3.794  0.3278  0.4595  0.0464
 2129SOL     OW17848   1.016   1.032   4.183 -0.1731 -0.4240  0.7146
 2129SOL    HW117849   1.078   0.960   4.193  0.4279 -0.0334 -0.2114
 2129SOL    HW217850   0.980   1.001   4.100  1.8209  1.5029 -0.8460
 2130SOL     OW17851   1.768   2.037   0.173  0.0299  0.2969  0.1699
 2130SOL    HW117852   1.801   2.053   0.261 -0.9702 -0.2134  0.6430
 2130SOL    HW217853   1.819   1.959   0.152  1.2405  1.2957 -0.5847
 2131SOL     OW17854   2.884   2.928   3.784  0.3220  0.2651  0.3763
 2131SOL    HW117855   2.943   2.952   3.856 -0.0062 -1.6544  1.3001
 2131SOL    HW217856   2.892   2.833   3.791  0.1489  0.0924 -1.9653
 2132SOL     OW17857   1.005   3.770   3.827 -0.0273  0.1743 -0.2987
 2132SOL    HW117858   1.065   3.761   3.900 -0.4231  1.0125  0.1356
 2132SOL    HW217859   0.980   3.680   3.805 -1.4390  0.1231  1.5599
 2133SOL     OW17860   1.522   4.165   1.732 -0.0059 -0.1582  0.0045
 2133SOL    HW117861   1.566   4.246   1.755  1.5015 -0.6919 -0.9524
 2133SOL    HW217862   1.438   4.202   1.705 -0.7793 -1.8902  0.0406
 2134SOL     OW17863   4.450   0.824  14.800 -0.3248 -0.3330 -0.8357
 2134SOL    HW117864   4.390   0.849  14.730 -0.5996 -0.1934 -0.5475
 2134SOL    HW217865   4.400   0.846  14.878 -1.2314 -0.0397 -1.4986
 2135SOL     OW17866   3.644   3.764   5.652 -0.4458  0.2451  0.2294
 2135SOL    HW117867   3.698   3.688   5.631 -1.1361  0.1768 -1.3287
 2135SOL    HW217868   3.569   3.752   5.593 -0.3274 -1.5240  0.4511
 2136SOL     OW17869   1.113   2.588   9.986  0.1729  0.7967  0.0686
 2136SOL    HW117870   1.147   2.650  10.052  0.5024 -0.1015  0.7403
 2136SOL    HW217871   1.158   2.507  10.011  1.3314  1.7643  1.1284
 2137SOL     OW17872   4.107   0.071   3.817  0.3186 -0.4360 -0.4779
 2137SOL    HW117873   4.133   0.018   3.742  0.9567 -1.4859  0.4960
 2137SOL    HW217874   4.061   0.142   3.771  1.3840  0.1120 -0.6896
 2138SOL     OW17875   2.787   0.100   2.740  0.2179  0.3790 -0.0395
 2138SOL    HW117876   2.715   0.161   2.760 -0.2767 -0.2987  0.2551
 2138SOL    HW217877   2.847   0.169   2.713 -0.7278  0.8544 -0.9321
 2139SOL     OW17878   4.311   2.079   3.236 -0.1709 -0.3106 -0.1246
 2139SOL    HW117879   4.231   2.037   3.270 -0.0761  1.0567  1.7787
 2139SOL    HW217880   4.297   2.069   3.142 -0.0929  1.0008 -0.2628
 2140SOL     OW17881   2.266   2.846  10.629 -0.1886  0.8415  0.4358
 2140SOL    HW117882   2.177   2.878  10.643 -1.5633 -1.7224 -2.2730
 2140SOL    HW217883   2.309   2.909  10.686  1.3353  0.3801 -0.2116
 2141SOL     OW17884   4.081   4.307   2.515 -0.3737  0.1804 -0.4337
 2141SOL    HW117885   4.135   4.367   2.463  1.0291  1.0063  1.9457
 2141SOL    HW217886   4.143   4.249   2.559 -2.5263 -0.2962  1.9770
 2142SOL     OW17887   0.102   2.320   3.859 -0.6293  0.0929 -0.5829
 2142SOL    HW117888   0.076   2.239   3.902  2.9911  0.3400  2.1603
 2142SOL    HW217889   0.051   2.385   3.908  0.3360 -1.5002  2.5670
 2143SOL     OW17890   1.847   3.845   0.672  0.5820  0.0844  0.2452
 2143SOL    HW117891   1.797   3.778   0.719  0.5536 -1.9800 -2.7343
 2143SOL    HW217892   1.809   3.844   0.585 -1.0873  2.2743  0.9618
 2144SOL     OW17893   4.461   1.419   0.649  0.1931  0.2661 -0.4143
 2144SOL    HW117894   4.429   1.504   0.618  0.7876  1.0542  1.0883
 2144SOL    HW217895   4.477   1.439   0.742 -1.1131  0.5655 -0.2535
 2145SOL     OW17896   0.699   4.464   8.569  0.1071  0.5931  0.1710
 2145SOL    HW117897   0.734   4.494   8.486  0.3724 -1.2405 -0.3826
 2145SOL    HW217898   0.630   4.403   8.541  2.4478 -0.6847 -2.7477
 2146SOL     OW17899   3.282   1.661   5.416  0.2128  0.3340 -0.5390
 2146SOL    HW117900   3.215   1.728   5.430 -0.4840 -0.5606  0.4248
 2146SOL    HW217901   3.306   1.637   5.505 -1.2191 -1.0927 -0.5303
 2147SOL     OW17902   1.841   0.369   4.435  0.1835 -0.3787  0.1714
 2147SOL    HW117903   1.784   0.444   4.418  0.5990  0.0128  0.4905
 2147SOL    HW217904   1.810   0.338   4.520  0.5431 -1.1776  0.0151
 2148SOL     OW17905   2.105   1.469   1.707 -0.0870 -0.2413  0.4779
 2148SOL    HW117906   2.103   1.451   1.801 -0.2628 -0.3488  0.4537
 2148SOL    HW217907   2.049   1.402   1.668 -0.0219 -0.7079  1.1771
 2149SOL     OW17908   0.705   4.279  15.609 -0.3069 -0.3586 -0.1773
 2149SOL    HW117909   0.698   4.190  15.573 -0.1960  0.0104 -1.0882
 2149SOL    HW217910   0.688   4.338  15.536  0.2213  0.4053  0.3186
 2150SOL     OW17911   2.652   2.146   7.969  0.2292 -0.8002  0.1357
 2150SOL    HW117912   2.607   2.075   7.924 -0.2372 -0.3329 -0.1443
 2150SOL    HW217913   2.594   2.159   8.044  0.8701  0.2804  0.4462
 2151SOL     OW17914   3.801   4.594   4.439 -0.3423  0.0940 -0.4559
 2151SOL    HW117915   3.718   4.643   4.443 -2.2046 -3.1381  0.5943
 2151SOL    HW217916   3.854   4.654   4.387  1.5796 -1.7791 -0.6552
 2152SOL     OW17917   4.544   4.495  16.624 -0.2121  0.2435  0.7740
 2152SOL    HW117918   4.560   4.401  16.621 -0.0178  0.2803  0.6612
 2152SOL    HW217919   4.492   4.499  16.544  3.5104  1.8425 -1.5382
 2153SOL     OW17920   3.267   3.659   0.257 -0.4141  0.8060 -0.0163
 2153SOL    HW117921   3.283   3.600   0.184  0.9665  2.1623 -0.8134
 2153SOL    HW217922   3.210   3.612   0.318  0.9932  0.4374  1.0388
 2154SOL     OW17923   0.540   1.472   2.646 -0.1279 -0.9150 -0.1306
 2154SOL    HW117924   0.483   1.511   2.713  0.0733  0.0394 -0.5204
 2154SOL    HW217925   0.518   1.522   2.568 -1.0775 -2.2996 -0.7626
 2155SOL     OW17926   1.470   3.247  12.945  0.6740  0.0361 -0.2345
 2155SOL    HW117927   1.451   3.315  12.880  2.7924  1.5559  0.7222
 2155SOL    HW217928   1.490   3.298  13.024  3.5722 -0.5811 -0.5650
 2156SOL     OW17929   1.352   1.052   7.279  0.1943  0.0599  0.3543
 2156SOL    HW117930   1.447   1.050   7.289  0.2279 -0.2959 -0.0393
 2156SOL    HW217931   1.321   1.015   7.361  0.2304  1.5290  1.0346
 2157SOL     OW17932   2.725   3.237   5.752 -0.2940  0.1571  0.3721
 2157SOL    HW117933   2.751   3.242   5.660 -2.4050  0.9136 -0.1901
 2157SOL    HW217934   2.803   3.195   5.790  1.2227  1.3834 -1.3636
 2158SOL     OW17935   3.673   3.736  13.438  0.7276 -0.4295  1.0556
 2158SOL    HW117936   3.697   3.823  13.471  1.7371  0.0365 -0.9417
 2158SOL    HW217937   3.751   3.690  13.469  1.5714  0.6511  0.5208
 2159SOL     OW17938   4.453   4.156   5.156 -0.3543 -0.0058  0.0533
 2159SOL    HW117939   4.401   4.186   5.082  0.4456  2.4340  0.4579
 2159SOL    HW217940   4.472   4.238   5.202 -0.8576  0.1521 -0.0288
 2160SOL     OW17941   1.477   3.022  12.775 -0.0362  0.0582  0.1364
 2160SOL    HW117942   1.511   3.106  12.806  2.3636 -1.1950  0.9277
 2160SOL    HW217943   1.477   3.041  12.681 -0.9723 -2.1122 -0.3084
 2161SOL     OW17944   1.623   2.711   1.583 -0.1479 -0.5907 -0.1212
 2161SOL    HW117945   1.638   2.764   1.504 -0.5732 -1.8842 -1.0742
 2161SOL    HW217946   1.569   2.640   1.549 -0.3008  0.1651 -1.4946
 2162SOL     OW17947   4.107   1.704   7.511  0.0442  0.3836  0.1070
 2162SOL    HW117948   4.100   1.747   7.426  4.2079 -0.0822 -0.4575
 2162SOL    HW217949   4.047   1.630   7.497 -0.3782  0.7491 -0.0129
 2163SOL     OW17950   3.800   0.165   6.051 -0.3000 -0.2349 -0.0392
 2163SOL    HW117951   3.889   0.135   6.071  0.4712  1.5650 -0.7045
 2163SOL    HW217952   3.816   0.257   6.027 -1.0321 -0.0983 -0.0037
 2164SOL     OW17953   2.274   1.726  13.361  0.1427 -0.6534  0.4499
 2164SOL    HW117954   2.200   1.666  13.351  0.0486 -0.2642 -1.2726
 2164SOL    HW217955   2.349   1.671  13.338 -0.0113 -1.3478  1.6158
 2165SOL     OW17956   1.506   3.354   2.611 -0.6016  0.3318  0.0374
 2165SOL    HW117957   1.544   3.423   2.666  1.7558 -1.2928  0.4871
 2165SOL    HW217958   1.514   3.384   2.520  0.8646  0.2057  0.1166
 2166SOL     OW17959   3.960   0.795  14.637 -0.3002  0.0597  0.4845
 2166SOL    HW117960   3.882   0.777  14.689 -1.0394 -0.7649 -0.8887
 2166SOL    HW217961   3.952   0.743  14.557 -1.1714  0.5692  0.2360
 2167SOL     OW17962   2.843   2.908   5.751  0.2811 -0.5692  0.1914
 2167SOL    HW117963   2.779   2.889   5.820  0.2466 -1.3264 -0.0457
 2167SOL    HW217964   2.793   2.900   5.670 -1.0197 -1.1529  1.0415
 2168SOL     OW17965   0.815   0.329  12.718 -0.5527  0.4182 -0.3369
 2168SOL    HW117966   0.847   0.245  12.686  0.9049  1.5332 -1.8369
 2168SOL    HW217967   0.832   0.387  12.643 -0.4600  0.2195 -0.4709
 2169SOL     OW17968   3.528   2.678   6.028  0.2803  0.0554  0.1405
 2169SOL    HW117969   3.556   2.654   6.117  0.8250  0.5808  0.1141
 2169SOL    HW217970   3.436   2.654   6.017  0.0654  0.2916  1.3759
 2170SOL     OW17971   3.433   2.417  14.711  0.3438  0.3417 -0.0340
 2170SOL    HW117972   3.363   2.434  14.774 -2.0883  0.4047 -2.7362
 2170SOL    HW217973   3.500   2.382  14.770  2.2165  0.6457 -1.9980
 2171SOL     OW17974   4.585   0.658   6.657 -0.2044  0.0906 -0.0395
 2171SOL    HW117975   4.505   0.610   6.675 -0.7569  1.2144  0.4597
 2171SOL    HW217976   4.552   0.736   6.614 -0.6805  0.6895  1.4171
 2172SOL     OW17977   2.157   4.197   8.304 -0.8839 -0.1385 -0.0551
 2172SOL    HW117978   2.111   4.232   8.227 -1.5718  1.9201  1.2793
 2172SOL    HW217979   2.240   4.181   8.260 -1.1884  0.2920 -0.7853
 2173SOL     OW17980   1.556   3.298   7.063  0.2847 -0.3297  0.0581
 2173SOL    HW117981   1.620   3.228   7.076  0.7844 -0.0715 -1.0232
 2173SOL    HW217982   1.510   3.290   7.146 -0.8017  1.7244 -0.3204
 2174SOL     OW17983   1.996   1.730   1.641 -0.0808 -0.3933  0.3248
 2174SOL    HW117984   1.996   1.641   1.675  1.3330  0.0073  1.3602
 2174SOL    HW217985   2.056   1.717   1.567 -0.6575  3.1502 -0.7803
 2175SOL     OW17986   1.998   3.010  16.459 -0.2631  0.0688 -0.2778
 2175SOL    HW117987   2.080   3.058  16.449 -1.0085  1.8914  2.5218
 2175SOL    HW217988   1.994   2.963  16.376  2.8878  0.3484 -0.6069
 2176SOL     OW17989   3.678   0.636  14.446  0.4012 -0.2681  0.1386
 2176SOL    HW117990   3.643   0.725  14.446  1.0866  0.0049  2.4261
 2176SOL    HW217991   3.768   0.648  14.415  0.4969  0.6192  0.7523
 2177SOL     OW17992   0.333   4.195  14.676  0.3882  0.4514  0.5390
 2177SOL    HW117993   0.397   4.123  14.676  0.0702  0.1838 -1.5958
 2177SOL    HW217994   0.380   4.269  14.714  1.3725 -0.6386  1.4840
 2178SOL     OW17995   3.244   2.668   5.957 -0.2273  0.1483  0.2222
 2178SOL    HW117996   3.209   2.698   6.041  0.3438  0.9610  0.1730
 2178SOL    HW217997   3.236   2.573   5.963 -1.7785  0.2864  0.2008
 2179SOL     OW17998   0.788   4.599   5.805 -0.5567 -0.1713 -0.4380
 2179SOL    HW117999   0.729   4.530   5.775 -1.0597 -0.4645  1.2437
 2179SOL    HW218000   0.744   4.645   5.876  0.2224  0.2008 -0.1977
 2180SOL     OW18001   3.999   0.089   0.786  0.0609 -0.5589 -0.6867
 2180SOL    HW118002   3.919   0.140   0.778  0.4447  0.2400  0.4070
 2180SOL    HW218003   4.002   0.051   0.699  0.2147  0.0868 -0.9600
 2181SOL     OW18004   0.054   2.527   9.976 -0.0709  0.5720  0.1453
 2181SOL    HW118005   4.696   2.577   9.989 -1.3010 -1.6455  1.1319
 2181SOL    HW218006   0.116   2.595   9.952  0.2259  0.4883  0.6674
 2182SOL     OW18007   0.470   3.809   6.658 -0.0008  0.0210 -0.2874
 2182SOL    HW118008   0.459   3.750   6.583  2.7275  1.4409 -1.7985
 2182SOL    HW218009   0.545   3.774   6.705 -1.6422 -0.5041  1.9483
 2183SOL     OW18010   2.985   3.877  11.221 -0.1709  0.6603 -0.0206
 2183SOL    HW118011   3.078   3.871  11.200  0.3909  3.4804  1.6627
 2183SOL    HW218012   2.960   3.944  11.158 -0.6823  1.9265  1.5262
 2184SOL     OW18013   0.470   4.062  16.035  0.3069  0.4250 -0.0480
 2184SOL    HW118014   0.491   4.046  15.943  0.3879  3.0701 -0.4876
 2184SOL    HW218015   0.543   4.116  16.064 -0.1211  1.9191 -1.7224
 2185SOL     OW18016   4.350   2.799   4.905 -0.3742  0.2000  0.2842
 2185SOL    HW118017   4.401   2.879   4.915  2.1528 -1.3445 -0.4049
 2185SOL    HW218018   4.292   2.827   4.834  1.4045 -0.7014 -1.5224
 2186SOL     OW18019   0.976   1.993   4.981 -0.6631 -0.1015  0.3675
 2186SOL    HW118020   1.010   1.939   5.053  0.1009  0.4600  0.4261
 2186SOL    HW218021   0.907   2.033   5.035 -2.5877 -0.8368 -1.5678
 2187SOL     OW18022   1.309   4.324  11.105  0.1350 -0.7282 -0.8222
 2187SOL    HW118023   1.382   4.282  11.059  1.6918  0.0923  0.9349
 2187SOL    HW218024   1.359   4.368  11.173 -1.7118 -2.3673  1.5803
 2188SOL     OW18025   3.225   1.149   4.680 -0.4918  0.6494 -0.3243
 2188SOL    HW118026   3.176   1.102   4.748  1.2560  2.0722  1.9375
 2188SOL    HW218027   3.300   1.185   4.726 -0.3311 -0.7595  0.5233
 2189SOL     OW18028   3.143   4.046   2.481  0.0138  0.1427 -0.1541
 2189SOL    HW118029   3.212   4.108   2.457  0.1594 -0.3035 -0.8913
 2189SOL    HW218030   3.081   4.115   2.502 -0.4008 -0.1005 -0.6002
 2190SOL     OW18031   0.816   0.920   1.672 -0.1723  0.2060  0.3084
 2190SOL    HW118032   0.746   0.925   1.606  1.3790  0.6253 -1.3055
 2190SOL    HW218033   0.796   0.833   1.707 -0.7664  1.6160  3.4727
 2191SOL     OW18034   2.304   1.492   7.281  0.1148  0.3325 -0.0840
 2191SOL    HW118035   2.328   1.460   7.369 -0.9634  0.4952  0.2673
 2191SOL    HW218036   2.373   1.555   7.262  0.3100 -0.1813 -1.0698
 2192SOL     OW18037   3.425   3.429   7.488 -0.2705 -0.4537 -0.1489
 2192SOL    HW118038   3.402   3.429   7.396 -1.1929 -1.3692  0.0790
 2192SOL    HW218039   3.439   3.523   7.493  0.1824 -0.4772 -1.1504
 2193SOL     OW18040   1.606   0.940   7.396 -0.2245 -0.2502 -0.0988
 2193SOL    HW118041   1.627   0.849   7.417 -0.1116  0.1864  1.6462
 2193SOL    HW218042   1.589   0.963   7.487  2.0062  2.7025 -0.4528
 2194SOL     OW18043   0.995   1.828   3.479  0.3409 -0.3033  0.3915
 2194SOL    HW118044   1.065   1.876   3.435  0.3141  0.4930  1.2336
 2194SOL    HW218045   0.946   1.802   3.401  3.8055 -2.1705 -1.1312
 2195SOL     OW18046   3.086   0.707  15.695 -0.0480 -0.1684 -0.0846
 2195SOL    HW118047   3.176   0.680  15.710  0.4796  1.6252  0.0349
 2195SOL    HW218048   3.088   0.730  15.602 -1.8626  1.1234  0.1787
 2196SOL     OW18049   4.497   4.398   5.885 -0.2898 -1.4060  0.2347
 2196SOL    HW118050   4.502   4.412   5.979 -3.8956  1.0695  0.0474
 2196SOL    HW218051   4.461   4.310   5.885 -0.5741 -1.2778  1.6517
 2197SOL     OW18052   0.873   0.952   5.110 -0.1732 -0.7608  0.2817
 2197SOL    HW118053   0.809   0.902   5.160 -1.5770  2.7472  1.9268
 2197SOL    HW218054   0.951   0.917   5.154 -0.0138  0.7316  1.1653
 2198SOL     OW18055   1.628   0.027   2.338  0.3742 -0.1001  0.1917
 2198SOL    HW118056   1.637   0.037   2.244 -1.8136  0.8389  0.1044
 2198SOL    HW218057   1.553   4.691   2.345 -1.6456  2.3723 -0.9943
 2199SOL     OW18058   3.802   3.476   2.537  0.0724 -0.3804  0.0673
 2199SOL    HW118059   3.714   3.451   2.508  0.4731  0.2309 -1.6794
 2199SOL    HW218060   3.822   3.526   2.458  1.0381  0.2779  0.7314
 2200SOL     OW18061   0.003   1.635  16.628  0.3326  0.2139  0.1724
 2200SOL    HW118062   0.055   1.572  16.577 -1.7384 -0.5700 -0.9773
 2200SOL    HW218063   4.708   1.701  16.561  1.7732 -0.9014 -1.3256
 2201SOL     OW18064   1.745   2.479   6.771  0.4619 -0.5784  0.2383
 2201SOL    HW118065   1.773   2.419   6.703  0.7751  0.5481 -0.6286
 2201SOL    HW218066   1.831   2.499   6.807  0.0285  0.0706  0.9172
 2202SOL     OW18067   2.987   4.483   2.945 -0.1724  0.5750  0.2433
 2202SOL    HW118068   3.004   4.403   2.896  1.5531  0.3460  1.2303
 2202SOL    HW218069   2.900   4.503   2.911 -0.7363 -1.3236  0.6125
 2203SOL     OW18070   0.455   0.492   0.687 -0.4103 -0.4774 -0.7928
 2203SOL    HW118071   0.485   0.582   0.679 -0.5665 -0.2468  1.3819
 2203SOL    HW218072   0.534   0.453   0.725  0.0798 -1.6031 -2.9489
 2204SOL     OW18073   3.324   2.575   8.476 -0.5071 -0.5920  0.1292
 2204SOL    HW118074   3.358   2.650   8.524 -0.4806 -0.8559  0.5155
 2204SOL    HW218075   3.328   2.616   8.390 -1.0009  1.0872  0.9096
 2205SOL     OW18076   3.610   0.588  12.073 -0.2669  0.1537  0.0559
 2205SOL    HW118077   3.530   0.565  12.027  0.0465  1.5156 -1.1435
 2205SOL    HW218078   3.669   0.525  12.031 -0.6566  0.0005 -0.2606
 2206SOL     OW18079   3.633   0.125   3.043 -0.0265  0.5289  0.0746
 2206SOL    HW118080   3.585   0.069   2.982  3.5528 -1.4977 -0.8898
 2206SOL    HW218081   3.585   0.122   3.126  0.9101 -0.9501  0.5651
 2207SOL     OW18082   1.158   1.117   4.772 -0.3980  0.1266  0.0771
 2207SOL    HW118083   1.151   1.116   4.867 -0.8605 -2.7141  0.0280
 2207SOL    HW218084   1.178   1.025   4.751 -0.8874 -0.2798  1.4207
 2208SOL     OW18085   3.403   1.253   6.408  0.5215  0.5524 -0.3108
 2208SOL    HW118086   3.450   1.324   6.364 -0.3327  0.9745 -0.5411
 2208SOL    HW218087   3.316   1.284   6.386 -0.2594 -1.5886 -0.1890
 2209SOL     OW18088   2.862   2.671  13.725 -0.0574  0.6327 -0.2661
 2209SOL    HW118089   2.836   2.592  13.677  0.2662  0.0188  0.5630
 2209SOL    HW218090   2.951   2.676  13.691  0.7036 -1.7262  1.3967
 2210SOL     OW18091   3.786   0.040   3.655 -0.3155 -0.4643 -0.1011
 2210SOL    HW118092   3.792   4.707   3.577  1.3242 -0.2840 -0.0979
 2210SOL    HW218093   3.842   0.108   3.617 -0.3378  0.2402  1.1116
 2211SOL     OW18094   4.210   3.230  11.796 -0.4962  0.3164  0.4135
 2211SOL    HW118095   4.164   3.212  11.878 -1.2858 -0.3827 -0.1813
 2211SOL    HW218096   4.299   3.252  11.824  0.0949 -0.7433 -0.6488
 2212SOL     OW18097   4.228   1.601  15.415 -0.8043 -0.5750  0.1555
 2212SOL    HW118098   4.150   1.575  15.365  1.3224 -0.8237 -3.0297
 2212SOL    HW218099   4.289   1.618  15.344  0.4538 -0.5675  1.2336
 2213SOL     OW18100   4.396   1.916   1.472 -0.1970  0.7150  0.5133
 2213SOL    HW118101   4.400   1.824   1.496 -2.4628  0.3839 -0.3791
 2213SOL    HW218102   4.331   1.942   1.537 -1.3485  1.3240 -0.8679
 2214SOL     OW18103   4.286   1.492  15.668 -0.7149  0.3013  0.3953
 2214SOL    HW118104   4.266   1.544  15.590 -2.9712 -0.5633  0.3989
 2214SOL    HW218105   4.277   1.554  15.740  0.2609 -0.6369  1.3155
 2215SOL     OW18106   4.641   2.840  13.443 -0.0492  0.3745 -0.0539
 2215SOL    HW118107   4.614   2.855  13.353  1.3979 -0.8488 -0.6703
 2215SOL    HW218108   4.557   2.819  13.485  0.1072 -2.8371 -1.4165
 2216SOL     OW18109   3.104   4.674  10.748  0.3261  0.9731 -0.2926
 2216SOL    HW118110   3.139   4.589  10.721 -0.6780 -0.4858  2.9880
 2216SOL    HW218111   3.097   4.666  10.844  1.2704  1.2998 -0.1980
 2217SOL     OW18112   2.984   0.674   2.931 -0.1227 -0.6291 -0.4891
 2217SOL    HW118113   3.033   0.623   2.866  1.8312  0.9213 -0.2314
 2217SOL    HW218114   2.922   0.604   2.952 -0.0128  1.1162  5.6302
 2218SOL     OW18115   3.596   2.328   1.181  0.5480 -0.0643 -0.3906
 2218SOL    HW118116   3.663   2.384   1.220 -0.7944  0.3175  1.3716
 2218SOL    HW218117   3.590   2.379   1.101  1.4088 -1.9511 -1.6592
 2219SOL     OW18118   4.459   3.763   3.303  0.2554 -0.1618  0.5385
 2219SOL    HW118119   4.457   3.822   3.379 -0.5011  0.2625  0.1842
 2219SOL    HW218120   4.386   3.708   3.330  0.4314 -0.9811 -0.7041
 2220SOL     OW18121   4.634   3.719   5.305 -0.4924  0.0571 -0.1581
 2220SOL    HW118122   4.632   3.756   5.393  1.2748  0.5830 -0.3312
 2220SOL    HW218123   4.565   3.773   5.266  0.4791  1.2238 -0.2890
 2221SOL     OW18124   4.530   3.943   3.758  0.4525 -0.6398 -0.0555
 2221SOL    HW118125   4.588   4.006   3.802 -0.7714  0.3255  0.1881
 2221SOL    HW218126   4.560   3.857   3.788 -0.7062 -0.6370  1.0933
 2222SOL     OW18127   3.814   1.562   4.503  0.0236 -0.1848 -0.0132
 2222SOL    HW118128   3.797   1.635   4.444 -0.1871 -0.5496 -0.3979
 2222SOL    HW218129   3.855   1.499   4.444  0.6401  0.9863 -0.8224
 2223SOL     OW18130   3.884   1.038   7.619  0.1757  0.5982 -0.0015
 2223SOL    HW118131   3.917   1.004   7.536 -1.3259  2.0276 -1.1485
 2223SOL    HW218132   3.832   0.962   7.647 -0.5889  0.3035 -2.2830
 2224SOL     OW18133   0.148   1.967  17.256  0.2948 -0.2012 -0.0701
 2224SOL    HW118134   0.130   1.924  17.340  0.6972  0.1048  0.1703
 2224SOL    HW218135   0.224   1.919  17.224  1.4096  1.3399  0.2669
 2225SOL     OW18136   0.734   2.847   8.564  0.0795 -0.2893 -0.0472
 2225SOL    HW118137   0.652   2.883   8.528  0.3269  0.3114 -0.0153
 2225SOL    HW218138   0.709   2.834   8.655 -1.5056 -3.0789 -0.8826
 2226SOL     OW18139   4.170   1.327   1.041  0.1753 -0.1191 -0.8146
 2226SOL    HW118140   4.206   1.292   1.122  0.6686  0.6536 -0.7083
 2226SOL    HW218141   4.099   1.263   1.034 -1.6622  1.5693  2.2510
 2227SOL     OW18142   1.259   3.424   2.433  0.4831 -0.6947 -0.0227
 2227SOL    HW118143   1.182   3.479   2.447  0.8538 -0.0499 -0.4906
 2227SOL    HW218144   1.301   3.422   2.519  2.2054  0.0864 -0.8461
 2228SOL     OW18145   1.175   3.372   2.166  0.6999  0.6291  0.1045
 2228SOL    HW118146   1.143   3.457   2.136  1.1278  0.8232  0.1910
 2228SOL    HW218147   1.186   3.384   2.260  2.5925  0.0557 -0.0377
 2229SOL     OW18148   4.058   0.699   7.517  0.2413  0.0761 -0.2849
 2229SOL    HW118149   4.042   0.715   7.610 -0.6696 -0.8207 -0.2811
 2229SOL    HW218150   4.131   0.638   7.529  0.8999  0.8647 -0.2741
 2230SOL     OW18151   1.526   3.169   4.422  0.3372 -0.0525 -0.0975
 2230SOL    HW118152   1.619   3.156   4.401  0.4250 -1.0310  0.9377
 2230SOL    HW218153   1.495   3.089   4.464 -0.0652 -1.7159 -3.5979
 2231SOL     OW18154   3.756   3.291   7.098  0.2081 -0.6236  1.2354
 2231SOL    HW118155   3.704   3.266   7.021  1.1190  1.2534  0.0252
 2231SOL    HW218156   3.709   3.258   7.175 -1.1201 -1.4758  0.0798
 2232SOL     OW18157   3.070   2.439   4.204  0.0753 -0.0485  0.2278
 2232SOL    HW118158   3.058   2.469   4.294 -0.3087 -0.5254  0.3354
 2232SOL    HW218159   3.165   2.436   4.209  0.0330 -1.7198 -0.1733
 2233SOL     OW18160   2.366   0.345   4.654 -0.5206 -0.3244  0.0358
 2233SOL    HW118161   2.274   0.363   4.674  0.2484  1.0450  2.2916
 2233SOL    HW218162   2.404   0.433   4.658 -3.0762  0.7581  0.2679
 2234SOL     OW18163   4.273   1.864   0.168 -0.1464 -0.3421  0.2287
 2234SOL    HW118164   4.288   1.842   0.077  0.3494  0.4973  0.1138
 2234SOL    HW218165   4.178   1.873   0.174 -0.0547 -1.4831  3.7294
 2235SOL     OW18166   2.769   1.026   7.383 -0.6605 -0.2200 -0.2401
 2235SOL    HW118167   2.817   0.982   7.313 -2.0711  0.0898 -1.3966
 2235SOL    HW218168   2.750   0.947   7.434 -2.4138  1.3444  1.5291
 2236SOL     OW18169   4.381   1.977  12.208 -0.3770  0.0783 -0.0067
 2236SOL    HW118170   4.464   1.935  12.227  0.1504  1.1139 -0.0415
 2236SOL    HW218171   4.403   2.053  12.155 -1.3586 -0.5093 -1.2661
 2237SOL     OW18172   3.181   0.620   0.620 -0.0502  0.4965  0.6482
 2237SOL    HW118173   3.098   0.612   0.665 -0.6697 -0.0535 -0.5951
 2237SOL    HW218174   3.241   0.616   0.694  0.4148 -0.4822  0.2228
 2238SOL     OW18175   2.582   1.392   2.670  0.2429  0.2481  0.2423
 2238SOL    HW118176   2.516   1.461   2.668 -0.9467 -0.9102 -0.3127
 2238SOL    HW218177   2.600   1.377   2.577 -0.1624 -1.2809  0.4082
 2239SOL     OW18178   1.825   3.213   6.069  0.1742 -0.1354  0.2422
 2239SOL    HW118179   1.877   3.191   6.147 -1.0476 -1.5218  0.6822
 2239SOL    HW218180   1.845   3.145   6.004 -0.0312  0.2881 -0.2590
 2240SOL     OW18181   0.863   3.879   1.909 -0.2992 -0.2126  0.3589
 2240SOL    HW118182   0.839   3.787   1.915  3.2024 -1.1828 -1.1426
 2240SOL    HW218183   0.808   3.927   1.971  1.5171 -0.9389  2.5429
 2241SOL     OW18184   2.280   3.345   7.177  0.3606  0.0190  0.0707
 2241SOL    HW118185   2.215   3.376   7.241 -0.1436  0.2928 -0.5677
 2241SOL    HW218186   2.236   3.272   7.133  2.2792 -0.5766 -0.8512
 2242SOL     OW18187   3.122   3.641   2.049  0.1965 -0.0659 -0.3833
 2242SOL    HW118188   3.052   3.706   2.051  1.8490  1.6658 -0.0422
 2242SOL    HW218189   3.192   3.691   2.089 -1.2285  1.1697  0.5640
 2243SOL     OW18190   2.294   4.257   3.618  0.4398 -0.6182 -0.0187
 2243SOL    HW118191   2.371   4.283   3.670 -1.2657  2.8767  0.8011
 2243SOL    HW218192   2.331   4.196   3.555  0.8477 -1.6846  1.2356
 2244SOL     OW18193   2.142   1.876   6.001  0.4816  0.2890  0.1160
 2244SOL    HW118194   2.178   1.801   6.049  0.9857  1.7614  1.9973
 2244SOL    HW218195   2.183   1.947   6.049  0.0155  0.3621  0.4046
 2245SOL     OW18196   2.550   0.732   3.168 -0.0879 -0.1290  0.3350
 2245SOL    HW118197   2.574   0.737   3.075  1.7739  3.7949  1.0359
 2245SOL    HW218198   2.567   0.820   3.202 -0.0926  0.1811 -0.4527
 2246SOL     OW18199   2.333   3.922  12.211 -0.0234  0.0970 -0.4481
 2246SOL    HW118200   2.360   3.851  12.153  0.7009 -1.6634  2.0619
 2246SOL    HW218201   2.283   3.877  12.279 -1.3135 -0.9330 -2.0486
 2247SOL     OW18202   1.285   2.447  12.513 -0.5433  0.2139 -0.7927
 2247SOL    HW118203   1.208   2.495  12.545 -0.7889 -0.8109  0.1625
 2247SOL    HW218204   1.264   2.426  12.422  0.5195 -1.5332 -0.6301
 2248SOL     OW18205   0.004   1.860  16.461 -0.6189 -0.0832  0.0000
 2248SOL    HW118206   4.634   1.879  16.444 -0.9191 -0.5407  1.1296
 2248SOL    HW218207   0.039   1.941  16.498 -0.3998 -0.5143  0.7215
 2249SOL     OW18208   4.135   1.071  13.741  0.0002 -0.2953  0.0386
 2249SOL    HW118209   4.206   1.094  13.802  1.1648 -2.2069 -0.6078
 2249SOL    HW218210   4.099   0.997  13.791 -0.8408  0.5928  0.7562
 2250SOL     OW18211   1.895   2.330  13.562  0.1131  0.0561  0.2712
 2250SOL    HW118212   1.840   2.360  13.490 -0.2571  3.2561  1.8903
 2250SOL    HW218213   1.838   2.261  13.596 -0.6249  0.4867 -0.0881
 2251SOL     OW18214   1.328   1.164   3.001  0.0157  0.2876 -0.0925
 2251SOL    HW118215   1.265   1.100   3.035  0.7942 -0.3928  0.0722
 2251SOL    HW218216   1.381   1.120   2.935 -2.6503 -1.1132 -1.3224
 2252SOL     OW18217   2.428   0.134   2.864 -0.2164  0.2453  0.2162
 2252SOL    HW118218   2.508   0.100   2.905  1.4326  3.5373 -0.1977
 2252SOL    HW218219   2.421   0.092   2.778  1.1673 -1.7395  1.0661
 2253SOL     OW18220   2.493   0.139   5.253  0.1701  0.1819  0.2906
 2253SOL    HW118221   2.524   0.087   5.327  0.1441 -0.9319 -0.4739
 2253SOL    HW218222   2.399   0.146   5.265  0.2137 -0.0637  0.7613
 2254SOL     OW18223   3.861   3.087   9.722  0.3439 -0.4055 -0.1784
 2254SOL    HW118224   3.788   3.130   9.678 -1.1576 -2.5032  0.2765
 2254SOL    HW218225   3.931   3.148   9.699 -1.1786  1.8971  1.2327
 2255SOL     OW18226   4.684   4.371   4.545  0.4839  0.3109 -0.7268
 2255SOL    HW118227   4.600   4.347   4.506 -0.0626  0.9676  0.0332
 2255SOL    HW218228   4.663   4.459   4.577 -1.1155 -0.7516  1.2000
 2256SOL     OW18229   2.280   1.804   2.742  0.1285  0.2571  0.3796
 2256SOL    HW118230   2.332   1.727   2.721  0.1797  0.6677 -1.0268
 2256SOL    HW218231   2.271   1.847   2.657 -1.1353 -0.8262 -0.0377
 2257SOL     OW18232   4.410   0.860   6.579 -0.4212 -0.4601 -0.3458
 2257SOL    HW118233   4.413   0.865   6.483  0.2931  1.1596 -0.2461
 2257SOL    HW218234   4.320   0.828   6.589 -0.8896  1.1438  0.4834
 2258SOL     OW18235   3.663   4.706   7.473 -0.1984  0.1869  0.5801
 2258SOL    HW118236   3.756   4.704   7.450 -0.6573 -0.8171 -1.1498
 2258SOL    HW218237   3.665   0.018   7.562 -4.1262  2.9347 -0.4382
 2259SOL     OW18238   4.136   1.818   4.794 -0.1947  0.6952  0.0685
 2259SOL    HW118239   4.134   1.756   4.721  0.7855  1.6749 -0.7928
 2259SOL    HW218240   4.103   1.764   4.866  2.9214 -1.0222  0.2214
 2260SOL     OW18241   1.954   3.726   3.594 -0.5276 -0.3495  0.2085
 2260SOL    HW118242   2.003   3.797   3.553  2.3842 -2.0418  0.7859
 2260SOL    HW218243   1.979   3.733   3.686  0.1894  0.1371 -0.0255
 2261SOL     OW18244   1.269   0.581   0.743 -0.3529 -0.4912 -0.0023
 2261SOL    HW118245   1.337   0.615   0.802  2.4137 -4.1419 -1.0597
 2261SOL    HW218246   1.252   0.499   0.789  1.3807  0.5701  2.5339
 2262SOL     OW18247   3.278   1.381   1.217  0.0018 -0.7066  0.0642
 2262SOL    HW118248   3.329   1.460   1.233  0.1082 -0.4940 -1.3598
 2262SOL    HW218249   3.321   1.353   1.136 -2.3833 -0.0125 -1.4449
 2263SOL     OW18250   3.176   3.565   1.766  0.0499 -0.4999  0.9410
 2263SOL    HW118251   3.130   3.571   1.850  2.3714 -1.2039  2.2724
 2263SOL    HW218252   3.268   3.558   1.793  0.9848  0.6768 -1.8885
 2264SOL     OW18253   3.605   0.579   7.081 -0.0540  0.2973 -0.0387
 2264SOL    HW118254   3.632   0.535   7.162 -0.9519  1.5680  0.9628
 2264SOL    HW218255   3.640   0.665   7.102  0.2945  0.3902 -0.9965
 2265SOL     OW18256   3.095   1.182  17.437 -0.1370  0.0572 -0.4417
 2265SOL    HW118257   3.019   1.123  17.437 -1.2645  1.4855 -0.6305
 2265SOL    HW218258   3.072   1.233  17.359  0.4317  1.8411  0.5506
 2266SOL     OW18259   4.200   3.647  10.895  0.7099 -0.4282  0.0737
 2266SOL    HW118260   4.282   3.693  10.909  1.6159 -1.9337 -0.2890
 2266SOL    HW218261   4.151   3.654  10.977  2.9088  2.4314  1.1208
 2267SOL     OW18262   0.060   3.904  17.219 -0.6988 -0.1748 -0.0068
 2267SOL    HW118263   0.046   3.865  17.305  0.0315 -1.5993 -0.5393
 2267SOL    HW218264   0.050   3.996  17.243 -1.1504  0.1472 -1.3828
 2268SOL     OW18265   2.747   2.937   3.094 -0.3383 -0.1966 -0.1789
 2268SOL    HW118266   2.812   2.869   3.107 -1.4271 -0.9755  1.1020
 2268SOL    HW218267   2.777   2.997   3.163 -0.1765 -0.9022  0.3570
 2269SOL     OW18268   3.332   1.402   5.576 -0.3960  0.7578 -0.2412
 2269SOL    HW118269   3.242   1.435   5.578 -1.0993 -1.2303  1.4035
 2269SOL    HW218270   3.345   1.391   5.482 -0.1356  1.7221 -0.3275
 2270SOL     OW18271   1.674   0.757   5.776 -0.1534  0.0894 -0.1657
 2270SOL    HW118272   1.617   0.822   5.735  0.2492  0.0945 -0.7041
 2270SOL    HW218273   1.669   0.792   5.866  2.1062  1.5696 -0.6054
 2271SOL     OW18274   4.273   0.802   2.066  0.1581  0.1079  0.4957
 2271SOL    HW118275   4.359   0.796   2.107 -0.0682  0.1298  0.9723
 2271SOL    HW218276   4.299   0.827   1.977 -0.0975 -0.1047  0.3621
 2272SOL     OW18277   0.920   1.746  12.298  0.7352  0.1109  0.3805
 2272SOL    HW118278   1.001   1.742  12.246 -0.9732  0.1840 -2.2713
 2272SOL    HW218279   0.872   1.820  12.260 -0.1779 -0.1062  1.1067
 2273SOL     OW18280   0.358   4.585   0.085  0.5219 -0.0671  0.6917
 2273SOL    HW118281   0.363   4.645   0.159  0.3730  1.3271 -0.4202
 2273SOL    HW218282   0.271   4.606   0.051  0.2252 -0.3042  1.2971
 2274SOL     OW18283   1.547   1.199   8.349 -0.2168 -0.3946  0.1470
 2274SOL    HW118284   1.481   1.159   8.405 -0.2671 -0.2987  0.1559
 2274SOL    HW218285   1.586   1.252   8.418 -0.1935 -1.7825  1.2079
 2275SOL     OW18286   3.964   0.088   3.274  0.5844 -0.1375  0.0614
 2275SOL    HW118287   3.960   0.183   3.274 -2.9630 -0.2749 -0.3247
 2275SOL    HW218288   4.056   0.065   3.284  0.9261  1.7700  1.2714
 2276SOL     OW18289   0.217   0.333   0.144  0.3043  0.1319 -0.3201
 2276SOL    HW118290   0.184   0.409   0.095  1.4992  1.7646  1.4028
 2276SOL    HW218291   0.186   0.345   0.234 -0.1875 -2.0102 -0.2069
 2277SOL     OW18292   2.878   0.808   4.776  0.3004 -0.4265 -0.3131
 2277SOL    HW118293   2.955   0.814   4.833 -0.1205 -2.0746  0.4353
 2277SOL    HW218294   2.895   0.729   4.725 -3.8653 -0.6714 -1.2747
 2278SOL     OW18295   3.858   4.591   3.861  0.3465 -0.1526  0.4639
 2278SOL    HW118296   3.780   4.606   3.914  0.2344  0.1703  0.2070
 2278SOL    HW218297   3.837   4.624   3.773  0.0341 -0.0709  0.5686
 2279SOL     OW18298   4.613   3.600  12.081  0.6125  0.1312 -0.4417
 2279SOL    HW118299   4.648   3.562  12.162 -0.4730 -1.4041 -0.7025
 2279SOL    HW218300   4.637   3.692  12.092  1.0638 -0.1058  0.5872
 2280SOL     OW18301   2.035   1.503  15.179  0.5718 -0.0180  0.3604
 2280SOL    HW118302   1.990   1.545  15.106 -0.9998  0.3739  1.5596
 2280SOL    HW218303   2.106   1.454  15.137  1.4905  1.6692 -0.0374
 2281SOL     OW18304   4.608   0.402   8.829 -0.6905 -0.0357 -0.0791
 2281SOL    HW118305   4.551   0.338   8.871  0.3933 -2.0085 -1.6326
 2281SOL    HW218306   4.579   0.481   8.874 -1.0992  0.0472 -0.4900
 2282SOL     OW18307   4.225   4.693   5.538 -0.4277  0.7070  0.7409
 2282SOL    HW118308   4.190   4.607   5.513 -0.6602  0.0517  3.3121
 2282SOL    HW218309   4.286   4.682   5.611  0.4843 -0.2866 -0.1698
 2283SOL     OW18310   1.210   2.138  10.947 -0.0370 -0.2055 -0.4740
 2283SOL    HW118311   1.221   2.073  11.016  0.0286  1.4792  1.1216
 2283SOL    HW218312   1.247   2.083  10.879 -3.0742 -0.9376 -1.5253
 2284SOL     OW18313   1.928   3.129   2.768  0.7631  0.0315 -0.0804
 2284SOL    HW118314   1.837   3.100   2.778  1.1933 -1.4582 -0.5526
 2284SOL    HW218315   1.948   3.090   2.683 -0.7298 -1.5407  0.3045
 2285SOL     OW18316   4.253   1.305   3.098  0.0326  0.1538  0.6233
 2285SOL    HW118317   4.226   1.385   3.053  0.4282  0.1245  0.3304
 2285SOL    HW218318   4.287   1.349   3.177 -1.1592 -0.5787  1.5375
 2286SOL     OW18319   1.160   0.988  14.835 -0.0053 -0.1165 -0.4754
 2286SOL    HW118320   1.175   1.028  14.750  1.4523 -0.5050 -0.4005
 2286SOL    HW218321   1.069   0.960  14.826 -0.2553  0.0273  1.5978
 2287SOL     OW18322   2.014   3.924   5.418  0.1662 -0.1185  0.3208
 2287SOL    HW118323   2.048   4.010   5.393  0.2203 -0.5689 -1.1186
 2287SOL    HW218324   1.924   3.917   5.387  0.1714 -0.8766  0.4671
 2288SOL     OW18325   1.960   4.559   6.982  0.2114  0.1473  0.1906
 2288SOL    HW118326   2.040   4.516   7.013  0.8067 -0.0384 -1.6229
 2288SOL    HW218327   1.978   4.542   6.890  0.8534 -1.2734  0.5815
 2289SOL     OW18328   4.507   1.229   5.627  0.1638  0.3224 -0.0623
 2289SOL    HW118329   4.521   1.183   5.544 -2.1420  1.9586 -1.3694
 2289SOL    HW218330   4.537   1.164   5.691 -0.2245  2.4950  2.3467
 2290SOL     OW18331   0.767   2.878  14.575  0.5477 -0.0373  0.5010
 2290SOL    HW118332   0.690   2.924  14.541 -0.1205 -0.5594  1.3080
 2290SOL    HW218333   0.793   2.942  14.641 -0.7061  0.6019  0.3753
 2291SOL     OW18334   3.707   2.912   6.573  0.1458  0.2524 -0.2975
 2291SOL    HW118335   3.677   2.998   6.603  1.8169  0.3160  1.1891
 2291SOL    HW218336   3.802   2.923   6.564  0.4508 -0.1786  2.2658
 2292SOL     OW18337   4.416   2.841   2.683 -0.2380 -0.2976 -0.5495
 2292SOL    HW118338   4.464   2.809   2.607  0.4506  1.4424 -0.8573
 2292SOL    HW218339   4.458   2.791   2.753  2.3591  1.0462 -1.1553
 2293SOL     OW18340   0.214   1.963  14.183  0.1328  0.5305  0.1404
 2293SOL    HW118341   0.251   2.030  14.125 -0.3598 -1.8268 -2.8534
 2293SOL    HW218342   0.201   2.013  14.264 -1.3817 -0.3074  0.4201
 2294SOL     OW18343   0.237   0.820   1.775  0.2836 -0.2818  0.1792
 2294SOL    HW118344   0.285   0.883   1.829  1.1175 -1.0832  0.3703
 2294SOL    HW218345   0.143   0.839   1.770  0.5329  1.5618  2.4137
 2295SOL     OW18346   0.445   0.152   4.464 -0.2463  0.0461 -0.2087
 2295SOL    HW118347   0.427   0.241   4.494 -0.7318  0.1352 -0.7760
 2295SOL    HW218348   0.413   0.158   4.374 -1.7420 -0.2441  0.2990
 2296SOL     OW18349   1.683   4.617   4.532 -0.0995  0.1529 -0.6206
 2296SOL    HW118350   1.610   4.654   4.581 -1.1161 -0.3047 -1.7920
 2296SOL    HW218351   1.692   4.671   4.454  0.9856  0.8857  0.0030
 2297SOL     OW18352   2.775   1.045   5.020  0.0709  0.0500 -0.0014
 2297SOL    HW118353   2.864   1.010   5.025  0.3355  0.8329  0.6482
 2297SOL    HW218354   2.722   0.965   5.030  1.5866 -0.9082  0.5042
 2298SOL     OW18355   2.971   4.243   1.643  0.2194 -0.0121  0.4324
 2298SOL    HW118356   3.023   4.257   1.723  3.5869  0.7847 -1.8821
 2298SOL    HW218357   2.887   4.226   1.684  0.7712 -1.0287  1.1614
 2299SOL     OW18358   1.098   1.863   1.668 -0.3707  0.4124 -0.1371
 2299SOL    HW118359   1.041   1.820   1.605  0.9612 -0.9888 -0.4162
 2299SOL    HW218360   1.041   1.928   1.708 -1.6304 -1.9873  2.0175
 2300SOL     OW18361   4.316   3.769   2.693 -0.0765  0.3287 -0.1613
 2300SOL    HW118362   4.352   3.771   2.604 -1.9528 -2.4350 -0.9738
 2300SOL    HW218363   4.391   3.736   2.741  1.4308  2.1100 -1.2908
 2301SOL     OW18364   2.945   2.541   5.797 -0.4278  0.0017  0.0883
 2301SOL    HW118365   2.913   2.568   5.883  0.4351  0.0678  0.3878
 2301SOL    HW218366   2.874   2.485   5.766 -0.8827  0.0004  1.1328
 2302SOL     OW18367   0.895   3.967   2.529  0.8131  0.1395  0.1683
 2302SOL    HW118368   0.834   3.959   2.602  0.9767  0.5707  0.3536
 2302SOL    HW218369   0.822   3.982   2.469  2.1324 -0.2788 -1.5086
 2303SOL     OW18370   4.646   0.461   3.993  0.3132  0.2172 -0.4239
 2303SOL    HW118371   4.617   0.480   3.904  3.0989 -0.0951 -1.4051
 2303SOL    HW218372   4.634   0.546   4.035  2.6794  0.8411 -0.9987
 2304SOL     OW18373   2.348   1.494   8.589  0.0263  0.0173 -0.1679
 2304SOL    HW118374   2.440   1.499   8.565  0.1885 -3.1252 -0.1580
 2304SOL    HW218375   2.318   1.428   8.527 -0.7751 -0.0519  0.2885
 2305SOL     OW18376   4.172   1.639   5.638  0.3694  0.9511 -0.1893
 2305SOL    HW118377   4.182   1.732   5.659  0.2908  0.8146  0.4491
 2305SOL    HW218378   4.117   1.649   5.561 -0.9130 -0.8942  0.4951
 2306SOL     OW18379   2.608   1.516   7.699 -0.1458  0.3096  0.1767
 2306SOL    HW118380   2.534   1.457   7.691  0.2616  0.1340 -2.2708
 2306SOL    HW218381   2.680   1.457   7.722 -0.6853 -1.6678 -3.2730
 2307SOL     OW18382   2.314   2.682  14.111 -0.3534 -0.2993  0.6476
 2307SOL    HW118383   2.222   2.672  14.088 -0.7632  0.3823  1.9492
 2307SOL    HW218384   2.322   2.769  14.071  0.5254 -0.4406  0.5196
 2308SOL     OW18385   1.132   3.349  12.819 -0.0647 -0.3916 -0.5442
 2308SOL    HW118386   1.223   3.378  12.809  0.5742 -1.2659  2.5834
 2308SOL    HW218387   1.097   3.391  12.741 -0.4806 -1.6466 -1.0230
 2309SOL     OW18388   2.209   2.242   3.558 -0.1654  0.0796  0.6601
 2309SOL    HW118389   2.203   2.147   3.548 -1.9627  0.3260 -0.5096
 2309SOL    HW218390   2.303   2.261   3.566  0.0051 -1.0967  1.3991
 2310SOL     OW18391   4.021   4.158   6.146 -0.0109 -0.3549  0.6219
 2310SOL    HW118392   3.991   4.237   6.190  1.6660  0.2700  0.6390
 2310SOL    HW218393   4.114   4.164   6.168  0.1590 -0.2328 -0.1602
 2311SOL     OW18394   2.611   3.313   3.219 -0.6476 -0.0710 -0.3984
 2311SOL    HW118395   2.549   3.311   3.292 -1.8417 -2.8705 -1.4649
 2311SOL    HW218396   2.674   3.243   3.236  1.5541  1.8426 -0.6352
 2312SOL     OW18397   3.695   3.340   4.514 -0.0022  0.7340  0.0609
 2312SOL    HW118398   3.762   3.406   4.497 -0.0394  0.8602  0.4216
 2312SOL    HW218399   3.638   3.367   4.442 -0.3328 -0.1514 -0.0096
 2313SOL     OW18400   0.052   2.003   4.013  0.0290  0.1120 -0.4815
 2313SOL    HW118401   4.699   2.030   4.065  0.4006 -2.6477  1.4689
 2313SOL    HW218402   0.089   1.947   4.081 -0.4032  0.2249 -0.1484
 2314SOL     OW18403   3.705   1.422   9.507  0.2914  0.2295 -0.3651
 2314SOL    HW118404   3.674   1.333   9.521 -1.9586  0.9441 -0.7470
 2314SOL    HW218405   3.621   1.468   9.516  1.2349  1.5577  1.5784
 2315SOL     OW18406   1.233   4.128   0.118 -0.0052 -0.3005 -0.6295
 2315SOL    HW118407   1.199   4.045   0.083  0.3650  0.0542 -1.8550
 2315SOL    HW218408   1.253   4.183   0.042 -3.9832  0.4632 -1.1165
 2316SOL     OW18409   3.738   1.361   9.244  0.3126  0.5384 -0.6308
 2316SOL    HW118410   3.718   1.388   9.334  0.8702 -2.8441  0.4826
 2316SOL    HW218411   3.657   1.388   9.200 -1.0336  0.6715  1.9401
 2317SOL     OW18412   0.510   2.934   4.255  1.1810  0.9003  0.4001
 2317SOL    HW118413   0.537   2.984   4.178  2.1854  0.1986  0.3015
 2317SOL    HW218414   0.586   2.877   4.258 -0.9682 -2.1160 -1.8610
 2318SOL     OW18415   3.088   2.647   2.669  0.1494  0.2531 -0.1351
 2318SOL    HW118416   3.160   2.592   2.700 -1.1814 -2.7759 -2.4509
 2318SOL    HW218417   3.046   2.681   2.748  1.7189 -0.0504  0.8315
 2319SOL     OW18418   4.297   4.092   2.260  0.7566  0.4636 -0.3060
 2319SOL    HW118419   4.379   4.120   2.299  0.4958  2.1902 -1.0200
 2319SOL    HW218420   4.265   4.178   2.234  0.4675  0.5276  0.2552
 2320SOL     OW18421   3.655   3.300   2.406 -0.4934 -0.5417 -0.2102
 2320SOL    HW118422   3.715   3.250   2.350  0.0771  2.7739 -2.5601
 2320SOL    HW218423   3.631   3.228   2.463 -2.4670 -0.2876 -0.7166
 2321SOL     OW18424   4.368   0.190   7.351 -0.0003  0.0339 -0.1314
 2321SOL    HW118425   4.360   0.214   7.443  1.9308 -0.1669  0.1064
 2321SOL    HW218426   4.324   0.265   7.312 -0.7798 -0.9855 -1.2140
 2322SOL     OW18427   2.290   4.361  12.673  0.9202 -0.0958 -0.1893
 2322SOL    HW118428   2.230   4.286  12.675  2.9475 -1.7496 -0.8280
 2322SOL    HW218429   2.373   4.313  12.679  1.1417  0.1456 -1.3701
 2323SOL     OW18430   1.037   0.112   6.248  0.0016  0.2662 -0.7308
 2323SOL    HW118431   0.967   0.178   6.249 -0.2704 -0.0861  2.1852
 2323SOL    HW218432   1.047   0.106   6.153 -1.1498 -3.1885 -0.6284
 2324SOL     OW18433   3.198   0.615   5.493 -0.7494  0.5470  0.3407
 2324SOL    HW118434   3.261   0.580   5.555 -0.6617 -1.9439 -1.1598
 2324SOL    HW218435   3.119   0.561   5.500 -0.8306  0.8563  1.9102
 2325SOL     OW18436   1.392   2.227  15.478 -0.3555  0.5060 -0.0433
 2325SOL    HW118437   1.308   2.252  15.439 -1.5594 -1.7942  1.1338
 2325SOL    HW218438   1.420   2.312  15.511  0.3613 -0.3853  1.6148
 2326SOL     OW18439   1.885   0.905   8.190 -0.3339 -0.3314  0.0785
 2326SOL    HW118440   1.791   0.912   8.208 -0.0348 -1.5196  2.2274
 2326SOL    HW218441   1.882   0.971   8.122 -0.1938 -0.1671  0.2299
 2327SOL     OW18442   1.081   2.946   8.045 -0.0039 -0.0158  0.0291
 2327SOL    HW118443   1.071   2.925   8.138 -0.0912  2.2491  0.5210
 2327SOL    HW218444   1.127   2.867   8.015  0.1276  0.0366  0.0953
 2328SOL     OW18445   0.332   2.727   4.795 -0.6826  0.0537 -0.0030
 2328SOL    HW118446   0.361   2.808   4.754 -0.8386 -0.5307 -1.2774
 2328SOL    HW218447   0.253   2.767   4.831 -0.4233 -0.6530  1.3652
 2329SOL     OW18448   3.405   0.623   7.496  0.0957  0.0880 -0.0055
 2329SOL    HW118449   3.461   0.694   7.463 -0.6700 -0.5619 -2.6962
 2329SOL    HW218450   3.392   0.630   7.590 -2.3455  1.3445 -0.4167
 2330SOL     OW18451   4.426   4.397   2.683 -0.4788 -0.2378 -0.6963
 2330SOL    HW118452   4.384   4.355   2.608 -0.4532 -0.4638 -0.5862
 2330SOL    HW218453   4.374   4.347   2.746 -0.0471 -0.5683 -0.5985
 2331SOL     OW18454   2.460   4.359   3.841  0.9389  0.2634 -0.4061
 2331SOL    HW118455   2.549   4.353   3.876  0.7592  0.2748  0.0522
 2331SOL    HW218456   2.419   4.401   3.917  0.0158 -0.4285 -0.5253
 2332SOL     OW18457   4.115   2.640   7.747  0.4012  0.1365  0.0103
 2332SOL    HW118458   4.201   2.668   7.778 -0.1571  0.4833  1.2647
 2332SOL    HW218459   4.076   2.726   7.736 -0.2037 -0.0004  1.0120
 2333SOL     OW18460   0.295   2.690   6.360  0.2388  0.0096  0.3667
 2333SOL    HW118461   0.368   2.719   6.415  0.6605 -0.3314 -0.0104
 2333SOL    HW218462   0.231   2.649   6.419  0.5056 -0.6966  0.1609
 2334SOL     OW18463   2.762   3.175   3.795  0.0413  0.2173  0.2846
 2334SOL    HW118464   2.740   3.163   3.887 -0.4081 -1.4720 -0.0340
 2334SOL    HW218465   2.841   3.120   3.787 -0.1341  0.1373 -0.8678
 2335SOL     OW18466   2.988   0.598  10.471  0.3257  0.1769 -0.6757
 2335SOL    HW118467   2.967   0.556  10.554 -1.3413  0.3203 -1.0245
 2335SOL    HW218468   3.078   0.626  10.485  1.0278 -2.7346  0.7070
 2336SOL     OW18469   4.212   0.540   5.304 -0.1929  0.5488  0.2725
 2336SOL    HW118470   4.253   0.627   5.309  0.5797  0.1438  0.8952
 2336SOL    HW218471   4.203   0.512   5.213 -0.6917 -2.1570  1.1632
 2337SOL     OW18472   0.747   3.631   2.482 -0.2717  0.5225  0.1743
 2337SOL    HW118473   0.743   3.687   2.405 -0.1810 -0.0993 -0.2873
 2337SOL    HW218474   0.724   3.694   2.550 -0.1901  0.4474  0.2721
 2338SOL     OW18475   0.362   1.773  16.206  0.4603 -0.7300 -0.0488
 2338SOL    HW118476   0.273   1.751  16.179  0.6416 -2.5000  0.7993
 2338SOL    HW218477   0.365   1.711  16.279  0.9232 -0.4651  0.1564
 2339SOL     OW18478   2.670   1.501  15.193  0.3704 -0.2376 -0.6373
 2339SOL    HW118479   2.751   1.460  15.164  2.0677  3.8149 -1.5285
 2339SOL    HW218480   2.638   1.426  15.243  0.7659  0.2739  0.3898
 2340SOL     OW18481   4.182   0.423   7.466  0.0002  0.1063  0.5798
 2340SOL    HW118482   4.238   0.438   7.543 -0.6047 -0.0184  1.0462
 2340SOL    HW218483   4.126   0.354   7.500  0.2940 -0.7204 -0.6335
 2341SOL     OW18484   2.728   1.324   2.888  0.0679 -0.0048 -0.1278
 2341SOL    HW118485   2.671   1.359   2.820  1.1791  0.0472 -1.0197
 2341SOL    HW218486   2.815   1.333   2.849 -0.3795 -1.3089 -1.4256
 2342SOL     OW18487   0.047   3.907  16.031 -0.4601 -0.0395  0.6763
 2342SOL    HW118488   4.705   3.883  15.965  0.2817  0.1549 -0.1297
 2342SOL    HW218489   0.029   3.996  16.060  3.1607  0.2357  2.0994
 2343SOL     OW18490   1.580   3.245  11.850 -0.1169  0.6116 -0.0233
 2343SOL    HW118491   1.526   3.276  11.923  0.4646  0.1734  0.5894
 2343SOL    HW218492   1.663   3.240  11.897  0.4258 -1.6217 -1.2087
 2344SOL     OW18493   1.295   1.208   3.827  0.3863  0.1339  0.1714
 2344SOL    HW118494   1.339   1.271   3.884 -0.8548  0.7704  0.4199
 2344SOL    HW218495   1.313   1.234   3.736  0.1680  0.5153  0.2338
 2345SOL     OW18496   2.584   3.784   6.194 -0.3622  0.4809 -0.1343
 2345SOL    HW118497   2.528   3.735   6.134 -1.3828  1.3081  0.1506
 2345SOL    HW218498   2.554   3.867   6.159  0.7791  0.4310 -1.2477
 2346SOL     OW18499   1.788   2.762   6.894 -0.1486  0.1574  0.0548
 2346SOL    HW118500   1.860   2.772   6.956  0.1065 -0.3416 -0.1620
 2346SOL    HW218501   1.838   2.767   6.812 -1.1091  1.1045 -0.4822
 2347SOL     OW18502   1.256   1.896  15.184 -0.4865  0.4010  0.1085
 2347SOL    HW118503   1.247   1.964  15.118 -0.6870 -0.6755 -0.9631
 2347SOL    HW218504   1.164   1.894  15.211 -0.0701 -1.3714  1.4185
 2348SOL     OW18505   1.906   2.594  12.698 -0.2813  0.1256 -0.0191
 2348SOL    HW118506   1.861   2.613  12.780 -0.3752 -1.2619  0.2452
 2348SOL    HW218507   1.849   2.650  12.645 -0.4369 -1.6751 -1.7303
 2349SOL     OW18508   3.939   3.010   7.247 -0.5900  0.4413 -0.5740
 2349SOL    HW118509   3.968   3.081   7.303 -1.8123  0.8573 -0.4694
 2349SOL    HW218510   3.974   2.943   7.306  1.6770  1.3810 -0.8688
 2350SOL     OW18511   2.663   2.397   7.878 -0.4961 -0.5922 -0.3384
 2350SOL    HW118512   2.573   2.423   7.860 -0.4125 -0.1976 -0.1827
 2350SOL    HW218513   2.657   2.315   7.928  0.8439 -1.7508 -2.0617
 2351SOL     OW18514   2.422   2.088  11.811 -0.4606  0.9748  0.1525
 2351SOL    HW118515   2.467   2.171  11.828  2.0663 -0.4306  0.2375
 2351SOL    HW218516   2.484   2.038  11.863 -0.9169 -1.1724 -1.3973
 2352SOL     OW18517   1.983   4.553  12.306  0.0664 -0.2483 -0.9484
 2352SOL    HW118518   2.041   4.477  12.318 -3.0331 -2.0077  2.8623
 2352SOL    HW218519   1.908   4.507  12.343  1.7669 -1.6152  0.8363
 2353SOL     OW18520   0.283   2.522   3.814  0.6388  0.3470 -0.1306
 2353SOL    HW118521   0.249   2.444   3.857  1.4037 -0.5896 -1.2049
 2353SOL    HW218522   0.296   2.581   3.888  1.2982  0.7398 -0.5508
 2354SOL     OW18523   0.343   4.330   2.388 -0.0926 -0.5423  0.6893
 2354SOL    HW118524   0.391   4.259   2.432 -1.9866 -3.1064 -1.3452
 2354SOL    HW218525   0.357   4.300   2.298 -0.7890  1.4219 -0.0761
 2355SOL     OW18526   0.539   3.937  12.656  0.2711  0.1240  0.1915
 2355SOL    HW118527   0.610   3.881  12.686  0.1526 -1.3878 -2.3344
 2355SOL    HW218528   0.580   3.968  12.575 -0.4493 -1.1308 -0.6610
 2356SOL     OW18529   4.327   0.558   8.255 -0.8040 -0.5421  0.6589
 2356SOL    HW118530   4.313   0.463   8.244 -0.9936 -0.4256 -0.0999
 2356SOL    HW218531   4.358   0.570   8.344 -0.8565 -0.3257  0.6479
 2357SOL     OW18532   0.327   3.848   7.020 -0.2299 -0.2905  0.2304
 2357SOL    HW118533   0.334   3.857   6.925 -0.9372 -0.4379  0.1647
 2357SOL    HW218534   0.238   3.815   7.031 -1.1654  1.6340 -1.4722
 2358SOL     OW18535   4.403   0.097  15.064  0.5095  0.6046 -0.5443
 2358SOL    HW118536   4.483   0.044  15.076  0.3619  0.4239 -0.3557
 2358SOL    HW218537   4.370   0.096  15.154 -0.3495  2.6675 -0.8417
 2359SOL     OW18538   0.500   3.828   2.348 -0.0300 -0.6564  0.5897
 2359SOL    HW118539   0.432   3.779   2.392  0.2438 -1.2267  0.3784
 2359SOL    HW218540   0.549   3.767   2.292 -1.1369 -0.1711 -0.9233
 2360SOL     OW18541   4.271   3.774  16.147  0.5307 -0.1507 -0.0852
 2360SOL    HW118542   4.355   3.799  16.187 -0.1361  2.2669 -0.1690
 2360SOL    HW218543   4.256   3.846  16.085  0.3311  1.1655  1.4758
 2361SOL     OW18544   1.165   3.922   5.950 -0.2602  0.2930 -0.0852
 2361SOL    HW118545   1.128   3.858   6.011 -1.9581 -0.9785 -2.4669
 2361SOL    HW218546   1.103   3.933   5.878  3.3523  2.0345 -2.9306
 2362SOL     OW18547   2.072   1.710  17.620 -0.1040 -0.6495 -0.6537
 2362SOL    HW118548   2.131   1.670  17.555 -0.5507 -3.4439  0.6611
 2362SOL    HW218549   2.124   1.707   0.007  0.7325  0.4031 -1.1562
 2363SOL     OW18550   2.978   3.149   5.741 -0.3282 -0.0140 -0.4783
 2363SOL    HW118551   3.015   3.151   5.653 -0.1679  0.5523 -0.3973
 2363SOL    HW218552   2.959   3.055   5.750  1.1646 -0.2630  0.1796
 2364SOL     OW18553   3.719   1.067  15.917 -0.3948  0.2266 -0.0048
 2364SOL    HW118554   3.636   1.101  15.882 -1.0301  1.0790  2.3467
 2364SOL    HW218555   3.777   1.056  15.841 -0.4942  0.4529 -0.1129
 2365SOL     OW18556   4.246   2.659   6.508 -0.1475  0.4252  0.6449
 2365SOL    HW118557   4.270   2.728   6.446 -0.9933 -1.9922 -2.3735
 2365SOL    HW218558   4.212   2.714   6.578 -1.5737  2.0213 -1.3126
 2366SOL     OW18559   2.956   4.084   6.253 -0.2367  0.3760  0.7818
 2366SOL    HW118560   3.008   4.108   6.177 -2.8592  0.9205 -0.8568
 2366SOL    HW218561   2.870   4.097   6.213 -0.7527 -3.2590  0.7058
 2367SOL     OW18562   1.975   0.866   7.177  0.2187 -0.6115  0.0262
 2367SOL    HW118563   1.966   0.957   7.204  0.6697  0.0804 -2.1226
 2367SOL    HW218564   2.024   0.833   7.252 -0.1145  1.1199  1.0020
 2368SOL     OW18565   3.583   2.703   7.883  0.4470 -0.7676 -0.5742
 2368SOL    HW118566   3.517   2.634   7.878 -1.0244  0.3800  2.7973
 2368SOL    HW218567   3.630   2.695   7.801  0.6004 -1.8902 -0.3804
 2369SOL     OW18568   3.542   1.801   2.595  0.0756 -0.1481  0.6409
 2369SOL    HW118569   3.539   1.868   2.663 -1.2838  0.3637  0.0708
 2369SOL    HW218570   3.626   1.819   2.553  0.7212 -3.3069  0.5534
 2370SOL     OW18571   2.662   4.083   7.134 -0.3999 -0.4516  0.4286
 2370SOL    HW118572   2.684   4.099   7.043  0.7993  0.2137  0.8469
 2370SOL    HW218573   2.744   4.101   7.179  0.9975 -3.0708 -1.0600
 2371SOL     OW18574   2.296   0.045   7.127  0.6688  0.0236  0.5031
 2371SOL    HW118575   2.212   0.037   7.083  1.5175 -0.1305 -1.0755
 2371SOL    HW218576   2.339   4.687   7.100  0.5494  0.9569 -2.4710
 2372SOL     OW18577   3.340   0.968  16.396  0.6420  0.0150 -0.0123
 2372SOL    HW118578   3.254   1.002  16.422  0.1596 -1.8738  0.8643
 2372SOL    HW218579   3.325   0.975  16.302  2.2816 -0.7109 -0.3134
 2373SOL     OW18580   2.004   4.368   2.516  0.8004 -0.6100 -0.0765
 2373SOL    HW118581   2.079   4.360   2.457  0.3803  0.0389 -0.7052
 2373SOL    HW218582   1.931   4.371   2.455  0.1834 -2.5462  0.5454
 2374SOL     OW18583   2.700   2.252   3.079 -0.4321 -0.3365 -0.0630
 2374SOL    HW118584   2.756   2.178   3.054 -0.2661 -0.6214  1.1575
 2374SOL    HW218585   2.614   2.211   3.093 -0.5845 -0.1202 -0.3844
 2375SOL     OW18586   3.820   3.949   8.851 -0.2924  0.2250 -0.1595
 2375SOL    HW118587   3.888   4.017   8.855  0.9923 -0.9074 -2.6079
 2375SOL    HW218588   3.855   3.878   8.797 -2.7785 -1.2754  0.2219
 2376SOL     OW18589   0.240   3.973   2.354 -0.3987 -0.0013  0.3328
 2376SOL    HW118590   0.325   3.935   2.330 -0.2139 -0.4025  1.6592
 2376SOL    HW218591   0.172   3.905   2.348 -0.4655  0.0890  0.0153
 2377SOL     OW18592   4.345   1.815   0.421 -0.2397 -0.1105  0.1357
 2377SOL    HW118593   4.256   1.830   0.451 -0.9106 -2.3270 -0.7407
 2377SOL    HW218594   4.327   1.807   0.327  0.7495 -2.4204  0.1229
 2378SOL     OW18595   3.041   2.647   8.153  0.3720 -0.6491 -0.8235
 2378SOL    HW118596   2.980   2.614   8.088  0.9689 -1.9954 -0.7019
 2378SOL    HW218597   3.094   2.700   8.093 -0.5897 -0.8632 -1.8403
 2379SOL     OW18598   4.440   4.140   1.886  0.2102 -0.0817  0.5482
 2379SOL    HW118599   4.496   4.080   1.935  2.1180 -0.3449 -1.9483
 2379SOL    HW218600   4.394   4.079   1.830  0.0811 -0.1258  0.7046
 2380SOL     OW18601   4.413   2.373   2.998  0.0117  0.0637 -0.1654
 2380SOL    HW118602   4.381   2.374   2.908  0.4669 -1.5273 -0.3340
 2380SOL    HW218603   4.394   2.284   3.026  1.2227  0.3993  1.6804
 2381SOL     OW18604   3.905   3.098   8.753  0.2447 -0.3012 -0.1027
 2381SOL    HW118605   3.934   3.014   8.717  2.1131  0.7284 -0.9668
 2381SOL    HW218606   3.987   3.142   8.774  1.0893 -1.9274 -0.0249
 2382SOL     OW18607   4.525   2.099   9.014  0.1609  0.0626 -0.3825
 2382SOL    HW118608   4.504   2.014   8.976 -0.9776  1.0530 -1.9354
 2382SOL    HW218609   4.617   2.073   9.027 -0.0907  0.3752  2.0817
 2383SOL     OW18610   1.368   4.630   8.481  0.1441  0.1363  0.4573
 2383SOL    HW118611   1.458   4.615   8.454 -0.0086 -0.3457  0.2104
 2383SOL    HW218612   1.346   4.552   8.533 -0.8104 -1.0609 -1.7428
 2384SOL     OW18613   4.215   3.592   8.692 -0.1859  0.6386 -0.0096
 2384SOL    HW118614   4.139   3.535   8.702  0.6371 -0.0884  2.1365
 2384SOL    HW218615   4.220   3.610   8.785  3.5135  0.0034 -0.0703
 2385SOL     OW18616   1.070   1.604   6.829  0.3120 -0.0965  0.0867
 2385SOL    HW118617   0.979   1.635   6.824 -0.4597 -2.7377 -2.7318
 2385SOL    HW218618   1.062   1.515   6.864  0.0024  0.1112  0.5459
 2386SOL     OW18619   4.171   4.462   5.343  0.2453  0.2911  0.8027
 2386SOL    HW118620   4.218   4.409   5.407  0.5316 -0.6313 -0.1868
 2386SOL    HW218621   4.082   4.425   5.342  0.5971 -0.4868 -0.7621
 2387SOL     OW18622   1.044   2.163   8.261 -0.4296  0.2940 -0.3504
 2387SOL    HW118623   1.056   2.250   8.298  0.6931  1.1066 -2.6194
 2387SOL    HW218624   1.071   2.111   8.336  0.9033  3.8930  1.6536
 2388SOL     OW18625   1.813   2.749  13.490  0.1702 -0.2985  0.0035
 2388SOL    HW118626   1.884   2.717  13.434 -0.7734  0.8768 -1.8886
 2388SOL    HW218627   1.749   2.760  13.420 -0.8264 -0.4526  0.8952
 2389SOL     OW18628   2.361   4.226  17.165  0.1368 -0.5101 -0.3536
 2389SOL    HW118629   2.416   4.148  17.166  4.2540  2.4087  1.1351
 2389SOL    HW218630   2.278   4.200  17.126 -0.3897  0.7963 -0.0936
 2390SOL     OW18631   0.043   3.221   7.630 -0.2120 -0.3667 -0.4588
 2390SOL    HW118632   0.136   3.243   7.632 -0.7745  1.9542  2.0459
 2390SOL    HW218633   0.012   3.310   7.612  1.9968  0.6346  0.6710
 2391SOL     OW18634   1.303   2.835   7.598  0.0013  0.0236 -0.3317
 2391SOL    HW118635   1.364   2.781   7.648 -0.9090 -0.5912  0.1209
 2391SOL    HW218636   1.361   2.908   7.579  1.4000 -0.2972  2.6785
 2392SOL     OW18637   3.486   1.901   0.334 -0.3302  0.3885 -0.5050
 2392SOL    HW118638   3.502   1.889   0.427  0.8314  1.5515 -0.5489
 2392SOL    HW218639   3.418   1.834   0.324  1.3025 -1.4186  0.5820
 2393SOL     OW18640   4.243   0.308   0.570 -0.0315  0.4224 -0.0146
 2393SOL    HW118641   4.234   0.270   0.657 -1.5517 -2.0746 -1.2611
 2393SOL    HW218642   4.212   0.395   0.594 -0.7250  0.1646  0.0206
 2394SOL     OW18643   3.276   1.780   6.557  0.5851  0.2470 -0.3575
 2394SOL    HW118644   3.200   1.819   6.602  0.5823 -2.1877  1.7483
 2394SOL    HW218645   3.326   1.860   6.546  2.3282 -0.7308  0.4281
 2395SOL     OW18646   2.005   1.040   3.631 -0.8218  0.6530  0.3617
 2395SOL    HW118647   1.966   1.116   3.674 -0.9979  0.2803  0.8627
 2395SOL    HW218648   2.009   1.080   3.544  0.5642  1.6980  0.9049
 2396SOL     OW18649   2.175   0.937   5.178  0.1806 -0.0479 -0.0549
 2396SOL    HW118650   2.186   0.867   5.114  3.6276 -0.9634  1.5758
 2396SOL    HW218651   2.259   0.929   5.224  1.9335 -0.3045 -3.3222
 2397SOL     OW18652   2.305   4.197   5.825 -0.7408  0.2163  0.0453
 2397SOL    HW118653   2.339   4.255   5.894  0.4152  0.1883 -0.5075
 2397SOL    HW218654   2.344   4.233   5.746  1.3419  0.0082  0.9792
 2398SOL     OW18655   2.618   0.471   1.910  0.3943  0.1866  0.0192
 2398SOL    HW118656   2.652   0.386   1.936  1.2451  0.5599  0.1143
 2398SOL    HW218657   2.693   0.503   1.859  0.8749 -0.7887  0.1367
 2399SOL     OW18658   4.720   2.434   5.185  0.0729  0.3479  0.1527
 2399SOL    HW118659   4.635   2.473   5.165 -0.4253 -0.4467  0.7055
 2399SOL    HW218660   4.696   2.386   5.265 -2.1299  1.4777  0.1694
 2400SOL     OW18661   3.175   1.608  14.515 -0.2325  0.4435 -0.3312
 2400SOL    HW118662   3.153   1.515  14.514  1.8537 -0.0741  1.5479
 2400SOL    HW218663   3.188   1.619  14.421  0.1955 -2.1620 -0.5877
 2401SOL     OW18664   4.631   2.454   4.001 -0.1103 -0.1169  0.0869
 2401SOL    HW118665   4.543   2.438   4.037 -0.3073 -1.6876 -1.1031
 2401SOL    HW218666   4.628   2.549   4.010 -2.1911 -0.0755 -1.0545
 2402SOL     OW18667   2.958   4.555   4.707 -0.0077  0.1866  0.2788
 2402SOL    HW118668   2.932   4.520   4.792 -2.4831  0.3786 -0.4172
 2402SOL    HW218669   2.908   4.634   4.725 -1.6197 -1.1776  1.7227
 2403SOL     OW18670   2.448   4.571   3.160 -0.1824  0.5077  0.4388
 2403SOL    HW118671   2.434   4.509   3.231  0.8434 -0.5787 -0.3158
 2403SOL    HW218672   2.389   4.641   3.188  0.6260  0.8599  1.2568
 2404SOL     OW18673   1.633   2.986   3.667 -0.0457  0.0073  0.0988
 2404SOL    HW118674   1.703   2.980   3.603  0.3446  1.3718  0.4161
 2404SOL    HW218675   1.651   2.907   3.718 -0.1583 -0.8993 -1.2541
 2405SOL     OW18676   4.162   2.783   0.210  0.0670 -0.6119 -0.0943
 2405SOL    HW118677   4.193   2.698   0.241 -1.0800 -0.1721  2.3031
 2405SOL    HW218678   4.096   2.817   0.271 -0.4897  1.7833 -2.0255
 2406SOL     OW18679   1.647   4.066   3.781  0.0028  0.1275 -0.5348
 2406SOL    HW118680   1.674   4.079   3.872  0.1642 -1.4991 -0.3506
 2406SOL    HW218681   1.553   4.050   3.785  0.2507 -0.6624  2.3095
 2407SOL     OW18682   1.145   3.257  10.801 -0.2799 -0.0506 -0.3912
 2407SOL    HW118683   1.104   3.342  10.785  0.0179  0.5434  1.9022
 2407SOL    HW218684   1.081   3.196  10.763 -0.3575 -1.1155  1.4152
 2408SOL     OW18685   2.903   1.211   1.865 -0.3986  0.1127 -0.0654
 2408SOL    HW118686   2.969   1.159   1.819  1.1042  0.9591  1.0965
 2408SOL    HW218687   2.945   1.252   1.941  0.4030  0.0874 -0.4909
 2409SOL     OW18688   1.675   0.979   2.712 -0.0878  0.1935  0.1677
 2409SOL    HW118689   1.608   0.911   2.700  0.7008 -0.8540  1.6459
 2409SOL    HW218690   1.750   0.940   2.668 -1.3656 -2.8101  0.6531
 2410SOL     OW18691   1.982   4.593  17.226 -0.4488 -0.5716  0.0284
 2410SOL    HW118692   2.058   4.581  17.283 -1.3144  0.4615  1.4048
 2410SOL    HW218693   1.944   4.505  17.223 -0.5432 -0.6232  2.7486
 2411SOL     OW18694   0.783   0.802   7.888 -0.3682 -0.6344 -0.3105
 2411SOL    HW118695   0.772   0.708   7.881 -4.0891 -0.0029 -3.4935
 2411SOL    HW218696   0.813   0.831   7.801  0.2678 -2.8093 -0.7983
 2412SOL     OW18697   3.365   2.644  13.798 -0.5912 -0.0327 -0.1250
 2412SOL    HW118698   3.410   2.727  13.787 -0.9881  0.4642  2.1067
 2412SOL    HW218699   3.394   2.632  13.888 -0.1973 -0.3870 -0.2995
 2413SOL     OW18700   2.546   2.558  15.017 -0.0991 -0.2565  0.0773
 2413SOL    HW118701   2.495   2.528  14.941 -0.8049  1.8925 -0.2870
 2413SOL    HW218702   2.628   2.510  15.003  0.7832  1.3082 -0.0554
 2414SOL     OW18703   0.110   0.690   9.406 -0.6131 -0.3642 -0.5060
 2414SOL    HW118704   0.105   0.751   9.479  1.6830 -1.2722  0.3879
 2414SOL    HW218705   0.022   0.657   9.425 -1.2302  0.6061 -1.6598
 2415SOL     OW18706   4.118   3.517   4.101 -0.2978 -0.1868  0.3303
 2415SOL    HW118707   4.209   3.503   4.127 -0.1059  0.9503  0.2418
 2415SOL    HW218708   4.122   3.565   4.019 -0.4398  2.0547  1.6456
 2416SOL     OW18709   3.347   0.092   5.893 -1.2303  0.3090 -0.4704
 2416SOL    HW118710   3.330   0.164   5.832 -0.9387  0.5124 -0.3146
 2416SOL    HW218711   3.294   0.020   5.859 -2.8337  1.0677  0.3885
 2417SOL     OW18712   3.816   4.569  15.245  0.0113 -0.1774  0.2414
 2417SOL    HW118713   3.747   4.592  15.307  0.3073 -1.6315  1.0990
 2417SOL    HW218714   3.840   4.479  15.267 -0.9842 -0.8627 -1.5190
 2418SOL     OW18715   4.184   2.138   6.900  0.1685 -0.0705 -0.2016
 2418SOL    HW118716   4.129   2.201   6.855  1.9717  0.4983 -1.6109
 2418SOL    HW218717   4.132   2.069   6.942 -3.0095  1.6577 -1.3415
 2419SOL     OW18718   3.802   1.821   4.977 -0.1495  0.3269  0.1371
 2419SOL    HW118719   3.711   1.799   4.997 -1.0038  0.7292 -3.3264
 2419SOL    HW218720   3.797   1.851   4.886 -0.2103 -0.2855 -0.0663
 2420SOL     OW18721   0.355   0.870  13.468  0.0705  0.4316 -0.0760
 2420SOL    HW118722   0.284   0.934  13.479 -1.4879 -1.3412  0.1639
 2420SOL    HW218723   0.348   0.823  13.551 -0.1132  0.7586  0.0943
 2421SOL     OW18724   4.431   0.890   0.829  0.5294  0.3395 -0.3619
 2421SOL    HW118725   4.505   0.928   0.783  0.0577  1.3680 -0.2778
 2421SOL    HW218726   4.467   0.891   0.917 -0.5894  2.7415  0.0791
 2422SOL     OW18727   1.961   2.412   3.151  0.1582  0.0441  0.6876
 2422SOL    HW118728   1.965   2.496   3.104  3.3320 -0.4798  0.0457
 2422SOL    HW218729   1.973   2.444   3.240 -0.1603  2.4314 -0.1309
 2423SOL     OW18730   1.604   0.167  17.227 -0.0108  0.1361  0.1863
 2423SOL    HW118731   1.544   0.237  17.205  2.1517  2.3658  1.3751
 2423SOL    HW218732   1.592   0.168  17.322 -1.0940 -0.0965  0.0470
 2424SOL     OW18733   1.097   1.323   9.315  0.4267  0.1000  0.2013
 2424SOL    HW118734   1.170   1.318   9.253 -0.0794 -3.4160 -0.1013
 2424SOL    HW218735   1.119   1.237   9.351  0.1643 -0.3142 -0.6377
 2425SOL     OW18736   0.825   4.351   3.414 -0.4787  0.1647 -0.6373
 2425SOL    HW118737   0.757   4.413   3.385  0.1492  0.8277 -0.6856
 2425SOL    HW218738   0.779   4.270   3.393 -2.8258  1.2857  0.1658
 2426SOL     OW18739   3.764   2.258  12.101  0.0516 -0.5738  0.2746
 2426SOL    HW118740   3.834   2.294  12.155  0.8665  0.4136 -1.4237
 2426SOL    HW218741   3.697   2.323  12.125 -0.5786 -0.4471 -1.8256
 2427SOL     OW18742   4.018   1.016  15.320 -0.8390  0.2915  0.4018
 2427SOL    HW118743   4.094   1.027  15.377  0.0759 -1.3361 -0.5185
 2427SOL    HW218744   4.026   0.926  15.288  2.0908  0.2140  1.3431
 2428SOL     OW18745   1.585   1.604   8.400 -0.7980 -0.1679 -0.0470
 2428SOL    HW118746   1.671   1.642   8.382 -1.5342  0.2301 -2.7169
 2428SOL    HW218747   1.607   1.524   8.447 -1.2189  0.3692  1.0586
 2429SOL     OW18748   3.744   4.711  13.125  0.8219  0.4733 -0.1822
 2429SOL    HW118749   3.810   4.684  13.190  1.3683  1.4531 -0.3298
 2429SOL    HW218750   3.718   0.074  13.158  2.4998 -0.1390  2.7687
 2430SOL     OW18751   4.485   3.170  13.376  0.6868 -0.4524  0.5662
 2430SOL    HW118752   4.443   3.253  13.397 -0.3887 -0.4194 -1.7130
 2430SOL    HW218753   4.576   3.198  13.362  0.3341  0.4726  0.1017
 2431SOL     OW18754   3.256   0.808   2.609  0.0234  0.2129 -0.1354
 2431SOL    HW118755   3.234   0.856   2.689  0.9869  1.2538 -0.5032
 2431SOL    HW218756   3.183   0.835   2.554  0.7186 -0.8988 -1.6005
 2432SOL     OW18757   2.460   1.923   4.143 -0.1565  0.4043 -0.1663
 2432SOL    HW118758   2.510   1.985   4.197 -1.9577 -0.2495  2.2814
 2432SOL    HW218759   2.473   1.850   4.204  1.9715  1.8542  1.1380
 2433SOL     OW18760   2.614   0.086  13.608 -0.1130 -0.0454 -0.0617
 2433SOL    HW118761   2.603   0.001  13.565  0.9460 -0.6942  0.9594
 2433SOL    HW218762   2.708   0.099  13.598 -0.1339 -0.0320 -0.2396
 2434SOL     OW18763   3.853   4.041   9.761  0.2000  0.5131  0.4461
 2434SOL    HW118764   3.915   4.077   9.825  1.4801 -0.4275 -0.2538
 2434SOL    HW218765   3.781   4.041   9.824 -2.3665 -0.4861 -2.5507
 2435SOL     OW18766   0.773   0.124  17.311 -0.0711  0.0523  0.0036
 2435SOL    HW118767   0.848   0.183  17.311 -0.3073  0.3742  2.3542
 2435SOL    HW218768   0.800   0.047  17.262 -0.1218  0.9856 -1.4955
 2436SOL     OW18769   2.858   2.601   2.303  0.3344 -0.4453  0.1739
 2436SOL    HW118770   2.921   2.564   2.241  0.5201 -0.4733  0.3837
 2436SOL    HW218771   2.881   2.560   2.386 -0.8360 -1.7860 -0.1570
 2437SOL     OW18772   2.278   1.886  10.736 -0.4594 -0.4723  0.1692
 2437SOL    HW118773   2.339   1.813  10.747  1.6096  1.2653  0.3470
 2437SOL    HW218774   2.314   1.938  10.664 -0.4841  1.5793  1.6092
 2438SOL     OW18775   3.089   3.720   8.342 -0.2646 -0.2807  0.2591
 2438SOL    HW118776   3.112   3.705   8.250  2.2091 -3.3048  1.3559
 2438SOL    HW218777   2.994   3.735   8.341 -0.3506 -0.8493 -1.6992
 2439SOL     OW18778   2.510   3.966  17.113  0.2392  0.2566 -0.9293
 2439SOL    HW118779   2.573   3.895  17.110 -1.0866 -0.9138 -0.9192
 2439SOL    HW218780   2.472   3.940  17.029 -1.8350  0.6770 -0.1166
 2440SOL     OW18781   0.498   2.449   5.560  0.0320  0.7203 -0.2839
 2440SOL    HW118782   0.413   2.404   5.554  0.2045  0.2746  0.5725
 2440SOL    HW218783   0.523   2.430   5.470  0.9760 -1.8698  0.5294
 2441SOL     OW18784   0.376   1.179   8.653 -0.1625 -0.1089 -0.4334
 2441SOL    HW118785   0.356   1.222   8.570 -0.7068  1.2474  0.3957
 2441SOL    HW218786   0.373   1.087   8.628 -1.0424 -0.3632  0.5853
 2442SOL     OW18787   3.926   2.520   6.355  0.6886  0.2064 -0.0410
 2442SOL    HW118788   3.933   2.429   6.384  2.9063  0.1855 -0.6434
 2442SOL    HW218789   3.951   2.560   6.438  1.5494 -1.0370  0.3131
 2443SOL     OW18790   2.715   1.316   0.223 -0.4135 -0.5314 -0.5574
 2443SOL    HW118791   2.753   1.313   0.311  0.5417  0.7507 -0.9282
 2443SOL    HW218792   2.773   1.383   0.187 -1.7376  1.2568  0.6295
 2444SOL     OW18793   0.650   3.045  13.180 -0.1524  0.2283 -0.6209
 2444SOL    HW118794   0.599   3.089  13.111  2.2512  2.9675 -0.6416
 2444SOL    HW218795   0.701   3.116  13.218  1.2858 -0.8864 -0.4856
 2445SOL     OW18796   1.111   2.320  16.780 -0.3142 -0.3324  0.2489
 2445SOL    HW118797   1.069   2.373  16.848 -0.9396  1.3800 -1.4818
 2445SOL    HW218798   1.080   2.230  16.790 -0.2353 -0.5905 -1.9419
 2446SOL     OW18799   1.509   2.628  12.683 -0.0957  0.9267 -0.2100
 2446SOL    HW118800   1.434   2.653  12.738  0.3084  0.0205  0.7651
 2446SOL    HW218801   1.571   2.697  12.707  0.0236  0.4463  0.8632
 2447SOL     OW18802   1.864   0.288   6.638  0.1375 -0.0525  0.2216
 2447SOL    HW118803   1.856   0.319   6.548 -0.7301  0.0506  0.3306
 2447SOL    HW218804   1.824   0.201   6.648 -0.1848  0.2377  1.4134
 2448SOL     OW18805   3.308   3.672  17.606 -0.0258  0.0052 -0.3882
 2448SOL    HW118806   3.295   3.583  17.639 -0.3067 -0.4374 -1.7076
 2448SOL    HW218807   3.285   3.659  17.514  1.9789  0.5990 -0.9736
 2449SOL     OW18808   0.085   2.517   7.281  0.1884 -0.2253 -0.2776
 2449SOL    HW118809   0.124   2.481   7.201 -0.3813 -1.4475 -0.0209
 2449SOL    HW218810   0.018   2.450   7.296 -0.0944  0.3976  1.2116
 2450SOL     OW18811   4.448   2.310   4.544 -0.4195 -0.1805  0.3463
 2450SOL    HW118812   4.423   2.383   4.488  0.5292 -0.5468 -0.5463
 2450SOL    HW218813   4.416   2.332   4.632  1.2263  0.0627  0.8847
 2451SOL     OW18814   3.716   4.592  17.581 -0.4454 -0.1910  0.3496
 2451SOL    HW118815   3.630   4.633  17.575 -0.3821  0.5545  4.2506
 2451SOL    HW218816   3.752   4.679  17.596 -0.0950  0.0525 -1.8389
 2452SOL     OW18817   1.231   3.603   2.638 -0.6362  0.2130  0.7356
 2452SOL    HW118818   1.190   3.666   2.579 -1.9915  0.0598  1.5312
 2452SOL    HW218819   1.256   3.661   2.709  0.7382  0.9692 -0.3695
 2453SOL     OW18820   3.753   0.781   2.237  0.1961  0.5604 -0.5794
 2453SOL    HW118821   3.701   0.791   2.157 -0.1464 -0.2710 -0.4603
 2453SOL    HW218822   3.840   0.809   2.209  1.6395 -2.8506  0.5044
 2454SOL     OW18823   0.516   0.797   5.530 -0.0456  0.0725  0.0606
 2454SOL    HW118824   0.438   0.756   5.493 -0.1420 -0.8094  1.2436
 2454SOL    HW218825   0.522   0.756   5.617  0.1830 -0.9525 -0.4392
 2455SOL     OW18826   4.080   4.259  14.681  0.0224  0.2665  0.2706
 2455SOL    HW118827   4.044   4.172  14.660  0.0497  0.2824  0.1535
 2455SOL    HW218828   4.117   4.225  14.762 -0.4498 -0.8053  0.0441
 2456SOL     OW18829   3.403   0.161   8.792 -0.2302 -0.5969 -0.3441
 2456SOL    HW118830   3.430   0.070   8.800  0.6759 -0.3304 -0.4087
 2456SOL    HW218831   3.413   0.178   8.698 -0.5817 -2.1290 -0.6585
 2457SOL     OW18832   2.364   3.967   6.337 -0.3386 -0.0621 -0.4001
 2457SOL    HW118833   2.397   3.988   6.249 -0.7051 -0.9488 -0.7396
 2457SOL    HW218834   2.451   3.977   6.377 -0.9285 -1.5765  1.2538
 2458SOL     OW18835   3.229   0.924   5.484  0.2338 -0.4254  0.1448
 2458SOL    HW118836   3.182   0.977   5.420  2.3395  0.6359 -0.5290
 2458SOL    HW218837   3.220   0.833   5.456 -0.4591  0.0246 -1.0622
 2459SOL     OW18838   1.264   4.149   7.016  0.3145 -0.0402 -0.1417
 2459SOL    HW118839   1.286   4.224   6.960  0.6068 -0.8487 -1.1187
 2459SOL    HW218840   1.306   4.089   6.954  1.7085  0.9088 -0.1263
 2460SOL     OW18841   4.049   0.270   8.072 -0.4573  0.3143 -0.3483
 2460SOL    HW118842   4.039   0.181   8.106 -0.1827  0.6717  0.6592
 2460SOL    HW218843   4.133   0.294   8.113 -0.4038  1.4250 -1.1185
 2461SOL     OW18844   3.792   4.069   9.269 -0.2318  0.0779 -0.3604
 2461SOL    HW118845   3.723   4.093   9.331 -0.8411  1.4365 -1.5669
 2461SOL    HW218846   3.772   4.131   9.199  1.0047 -0.8715 -1.5586
 2462SOL     OW18847   1.291   4.433   2.808 -0.1141  0.1805 -0.4043
 2462SOL    HW118848   1.271   4.376   2.882  1.3681  0.3996  0.1740
 2462SOL    HW218849   1.345   4.377   2.752 -0.4288 -0.7989  0.2644
 2463SOL     OW18850   4.616   2.704  11.324 -0.4953  0.1694  0.3516
 2463SOL    HW118851   4.564   2.690  11.245  0.2845 -3.0288  0.3885
 2463SOL    HW218852   4.688   2.643  11.308  0.8222  1.0698  2.8688
 2464SOL     OW18853   3.066   1.784  14.679  0.2278  0.3397 -0.0439
 2464SOL    HW118854   3.112   1.724  14.620  0.2292  0.0267  0.2761
 2464SOL    HW218855   2.973   1.793  14.658  1.1919 -0.5876 -4.7213
 2465SOL     OW18856   1.059   1.654  14.949 -0.3888  0.1057  0.2181
 2465SOL    HW118857   1.029   1.706  15.023  0.5608  1.5197 -0.3901
 2465SOL    HW218858   1.130   1.603  14.987 -0.2499  0.9429  1.0688
 2466SOL     OW18859   4.429   4.343  14.410  0.4471 -0.0392 -0.2755
 2466SOL    HW118860   4.350   4.383  14.445  0.7369 -1.4260  1.9032
 2466SOL    HW218861   4.472   4.321  14.492  2.8575  0.8224 -1.3009
 2467SOL     OW18862   2.635   4.458   6.090 -0.1518  0.7575 -0.0336
 2467SOL    HW118863   2.662   4.531   6.035  0.9419 -0.8564 -1.6310
 2467SOL    HW218864   2.718   4.412   6.095 -0.5729 -0.3648 -2.9580
 2468SOL     OW18865   0.410   1.100   7.156 -0.6639  0.9840 -0.0659
 2468SOL    HW118866   0.354   1.055   7.093  2.7673 -0.4819 -2.0612
 2468SOL    HW218867   0.480   1.143   7.106 -1.1902  3.7574  1.5477
 2469SOL     OW18868   3.281   4.696   6.986 -0.0771  0.1652 -0.7411
 2469SOL    HW118869   3.374   4.721   6.986  0.3062 -1.2372  0.2029
 2469SOL    HW218870   3.237   0.058   6.979  0.5235  0.5167 -0.2370
 2470SOL     OW18871   0.431   4.577   1.211  0.1434 -0.2553 -0.1546
 2470SOL    HW118872   0.361   4.631   1.173  1.8131  1.0782 -1.2886
 2470SOL    HW218873   0.379   4.504   1.246  0.3494 -0.9036 -1.1878
 2471SOL     OW18874   0.275   3.174   6.132  0.4642 -0.1511 -0.4467
 2471SOL    HW118875   0.226   3.232   6.190  3.3085  1.4465  0.3744
 2471SOL    HW218876   0.279   3.100   6.193  2.1344 -0.0249 -0.4185
 2472SOL     OW18877   4.179   2.321   3.295  0.2861 -0.1432 -0.1317
 2472SOL    HW118878   4.266   2.307   3.334  0.5984  1.6263 -0.1795
 2472SOL    HW218879   4.190   2.408   3.257 -2.4879  2.1222  4.1556
 2473SOL     OW18880   2.395   1.003   3.811  0.0084  0.2617 -0.1828
 2473SOL    HW118881   2.360   1.091   3.821  1.8108  0.9707  0.0041
 2473SOL    HW218882   2.319   0.955   3.843  0.1747  0.9912  1.2795
 2474SOL     OW18883   0.002   0.703  10.085  0.0538  0.1237  0.5042
 2474SOL    HW118884   4.711   0.616  10.122 -0.8565  0.0129 -0.0917
 2474SOL    HW218885   0.058   0.686  10.010  0.2824 -1.6372  1.0882
 2475SOL     OW18886   2.065   4.310   4.053  0.3263 -0.5323 -0.5006
 2475SOL    HW118887   1.975   4.341   4.048  0.1062 -1.0583  0.1259
 2475SOL    HW218888   2.091   4.356   4.133 -1.2520  0.3635 -0.5132
 2476SOL     OW18889   2.047   0.024  14.686  0.2494 -0.0095  0.0178
 2476SOL    HW118890   1.963   0.062  14.711  0.2555 -0.1163  0.1954
 2476SOL    HW218891   2.064   4.685  14.756 -0.9472 -0.7781 -0.3848
 2477SOL     OW18892   0.007   0.512   5.147  0.0159 -0.3399  0.0661
 2477SOL    HW118893   4.665   0.527   5.078 -0.3221 -0.2680  0.3976
 2477SOL    HW218894   0.084   0.479   5.101 -1.5751 -1.2010 -2.0009
 2478SOL     OW18895   2.032   3.094   9.899  0.1445  0.1144  0.3402
 2478SOL    HW118896   2.111   3.056   9.861 -0.2264  0.5303 -0.8501
 2478SOL    HW218897   2.045   3.108   9.993  2.5155  2.3739 -0.3127
 2479SOL     OW18898   1.628   0.865   4.866  0.4098 -0.3817 -0.6862
 2479SOL    HW118899   1.663   0.897   4.949 -0.3910  1.8949 -1.2009
 2479SOL    HW218900   1.595   0.949   4.832  1.2712  0.1508 -0.2267
 2480SOL     OW18901   2.816   4.544   2.063 -0.4893  0.9478 -0.3212
 2480SOL    HW118902   2.847   4.563   1.975 -0.8236  2.6123 -0.0890
 2480SOL    HW218903   2.838   4.622   2.115 -1.0875  1.1101 -0.3046
 2481SOL     OW18904   1.745   3.964   5.394  0.3036 -0.3505 -0.0639
 2481SOL    HW118905   1.781   4.024   5.460  0.9942 -0.6100 -0.2083
 2481SOL    HW218906   1.661   4.003   5.370  1.0523  1.4420  0.2775
 2482SOL     OW18907   4.208   1.025  15.517 -0.3523 -0.2917 -0.9453
 2482SOL    HW118908   4.228   1.118  15.532  3.0490 -1.0915 -0.3379
 2482SOL    HW218909   4.284   0.995  15.466  0.0550 -0.3665 -0.3024
 2483SOL     OW18910   2.937   2.105   3.277  1.0491 -0.0701  0.2211
 2483SOL    HW118911   2.852   2.121   3.319  1.6176  1.4980  0.7953
 2483SOL    HW218912   2.980   2.189   3.297  0.9077 -0.4976  2.3329
 2484SOL     OW18913   1.690   4.563   0.527  0.6340 -0.4060 -0.1840
 2484SOL    HW118914   1.723   4.506   0.458 -0.6957  0.1712 -1.2795
 2484SOL    HW218915   1.691   4.644   0.477  0.3234 -0.2563  0.0481
 2485SOL     OW18916   1.264   0.604   8.170  0.0471 -0.5271  0.6431
 2485SOL    HW118917   1.193   0.585   8.231 -2.7530  0.3920 -2.2943
 2485SOL    HW218918   1.330   0.636   8.231 -1.0209  1.8502  0.5326
 2486SOL     OW18919   3.081   0.296   4.140 -0.1180  0.0514  0.0680
 2486SOL    HW118920   3.170   0.302   4.175  0.7593  2.5171 -2.5308
 2486SOL    HW218921   3.093   0.375   4.087  0.5319  0.5403  0.9424
 2487SOL     OW18922   3.322   2.726   0.273 -0.1422 -0.2899 -0.2374
 2487SOL    HW118923   3.338   2.634   0.296  2.1352  0.2423  0.2971
 2487SOL    HW218924   3.239   2.721   0.226  0.5132 -1.1835 -1.3020
 2488SOL     OW18925   2.827   1.916   3.648 -0.1851 -0.6027 -0.0827
 2488SOL    HW118926   2.825   1.839   3.592 -3.9073 -2.2470  2.3341
 2488SOL    HW218927   2.737   1.922   3.681 -0.5165 -0.3313 -1.0486
 2489SOL     OW18928   3.010   1.763   8.378  0.0071 -0.3942  0.5002
 2489SOL    HW118929   2.955   1.784   8.454 -1.8701  0.6908 -1.1672
 2489SOL    HW218930   3.060   1.844   8.391 -2.2961  1.1901 -0.4366
 2490SOL     OW18931   3.552   1.147   6.640  0.1815  0.3516  0.2780
 2490SOL    HW118932   3.628   1.117   6.590 -0.0265 -0.9888  0.7762
 2490SOL    HW218933   3.499   1.189   6.572  1.8461  1.4855 -0.3373
 2491SOL     OW18934   1.254   1.228   1.544  0.5438  0.2248 -0.3376
 2491SOL    HW118935   1.249   1.289   1.470 -0.6041  0.0755 -0.3865
 2491SOL    HW218936   1.162   1.218   1.569  0.7759 -0.5759  0.2033
 2492SOL     OW18937   4.547   4.409  10.691 -0.1776 -0.2869  0.0675
 2492SOL    HW118938   4.617   4.437  10.749  0.1031 -1.3325  0.2430
 2492SOL    HW218939   4.603   4.396  10.614 -0.1964 -1.1363  0.1901
 2493SOL     OW18940   2.439   3.604   4.413 -0.2842 -0.8453 -0.2987
 2493SOL    HW118941   2.473   3.611   4.324 -1.0664  0.1040 -0.5303
 2493SOL    HW218942   2.365   3.664   4.400 -0.0905 -0.1933  1.5660
 2494SOL     OW18943   0.811   4.385  11.268  0.7133  0.1839 -0.1700
 2494SOL    HW118944   0.775   4.363  11.182  0.5949 -1.4590  0.3146
 2494SOL    HW218945   0.888   4.328  11.260 -0.2520 -1.3825  1.8789
 2495SOL     OW18946   0.108   2.557   4.555 -0.6214 -0.3389 -0.4816
 2495SOL    HW118947   0.106   2.652   4.560  0.5018 -0.4881  3.3296
 2495SOL    HW218948   0.107   2.552   4.651 -2.6616 -0.9422 -0.5359
 2496SOL     OW18949   3.922   1.761  12.343  0.0210 -0.5133  0.3222
 2496SOL    HW118950   3.850   1.800  12.293 -0.3574  0.5240  1.6618
 2496SOL    HW218951   3.995   1.763  12.280  1.0503 -0.5705  1.5173
 2497SOL     OW18952   4.654   2.967   6.698  0.4052  0.8111 -0.3356
 2497SOL    HW118953   0.020   2.953   6.667  0.4598  1.4802 -0.4742
 2497SOL    HW218954   4.603   2.994   6.622  0.1144 -0.5941 -0.6394
 2498SOL     OW18955   1.386   2.277   8.221  0.3499  0.4416  0.0119
 2498SOL    HW118956   1.395   2.183   8.206 -0.7750 -0.0517  2.3602
 2498SOL    HW218957   1.476   2.286   8.252 -0.2417 -0.3271  1.9228
 2499SOL     OW18958   3.772   3.352   1.276  0.5497 -0.3119 -0.0276
 2499SOL    HW118959   3.766   3.393   1.362 -1.2753  0.6387 -0.5961
 2499SOL    HW218960   3.720   3.414   1.225  0.4061  0.1915  0.7309
 2500SOL     OW18961   4.609   4.452   6.136  0.1614 -0.7290 -0.7680
 2500SOL    HW118962   4.650   4.387   6.193  1.0921  1.6599  1.2963
 2500SOL    HW218963   4.680   4.468   6.075 -1.3962 -0.9800 -2.6659
 2501SOL     OW18964   0.150   2.952  15.303 -0.3802 -0.4997 -0.0443
 2501SOL    HW118965   0.101   2.889  15.356  0.1392 -1.3191 -0.5412
 2501SOL    HW218966   0.072   2.984  15.257 -0.4083 -0.7912 -0.1952
 2502SOL     OW18967   0.063   3.176   7.069  0.3075  0.0751  0.3438
 2502SOL    HW118968   0.037   3.239   7.137  2.9390  0.3706  1.0689
 2502SOL    HW218969   0.146   3.153   7.110  1.1346  0.0216 -1.3558
 2503SOL     OW18970   4.557   1.623   2.455 -0.1606  0.5343  0.1727
 2503SOL    HW118971   4.482   1.602   2.511 -1.2458  0.4642 -1.3020
 2503SOL    HW218972   4.519   1.684   2.391 -2.4610 -0.4517  0.6174
 2504SOL     OW18973   0.842   1.557  14.790 -0.2905 -0.1726  0.6554
 2504SOL    HW118974   0.861   1.463  14.786 -0.9666 -0.2657 -0.3095
 2504SOL    HW218975   0.911   1.586  14.850  1.2705 -1.4758 -0.5215
 2505SOL     OW18976   3.849   4.426   7.589  0.3966  0.0827  0.1188
 2505SOL    HW118977   3.928   4.374   7.576 -0.2361 -1.5956  2.9374
 2505SOL    HW218978   3.878   4.471   7.668 -0.0414  1.5316 -0.5535
 2506SOL     OW18979   2.418   3.679   2.232  0.5551 -0.0796 -0.1648
 2506SOL    HW118980   2.507   3.705   2.256  0.7721 -0.9400 -0.0187
 2506SOL    HW218981   2.402   3.748   2.168  1.7265 -0.8902 -1.3526
 2507SOL     OW18982   2.436   3.949  17.452  0.1953 -0.0178 -0.0634
 2507SOL    HW118983   2.345   3.973  17.467  0.6528  0.7887  1.4630
 2507SOL    HW218984   2.433   3.925  17.359  0.7327 -2.9721  0.6836
 2508SOL     OW18985   0.029   4.574   6.877 -0.2191  0.3845  0.0563
 2508SOL    HW118986   0.038   4.642   6.943  0.6954 -0.8132  1.1648
 2508SOL    HW218987   4.665   4.580   6.837  0.1465 -1.8548 -1.1086
 2509SOL     OW18988   2.498   1.423   0.515  0.3054  0.2467 -0.2947
 2509SOL    HW118989   2.469   1.400   0.603  0.3322 -0.7266 -0.5292
 2509SOL    HW218990   2.472   1.515   0.513 -0.3062  0.1405  2.8797
 2510SOL     OW18991   2.172   4.387   1.270 -0.6115  0.5088  0.5839
 2510SOL    HW118992   2.240   4.431   1.218 -1.7065  1.9724  0.3780
 2510SOL    HW218993   2.120   4.339   1.206  1.5460 -1.0347 -0.0106
 2511SOL     OW18994   1.849   4.582   8.766 -0.0621  0.4074 -0.4735
 2511SOL    HW118995   1.853   4.516   8.698 -0.1026  0.4302 -0.4985
 2511SOL    HW218996   1.929   4.574   8.817 -0.0748 -0.6479 -0.6330
 2512SOL     OW18997   3.662   2.796  11.414 -0.1729  0.5846  0.2110
 2512SOL    HW118998   3.615   2.814  11.495  1.0400 -2.0594  1.4727
 2512SOL    HW218999   3.730   2.733  11.435 -1.5922 -0.8855  0.3691
 2513SOL     OW19000   1.995   0.328  17.649  0.0938 -0.4114  0.2187
 2513SOL    HW119001   2.087   0.341  17.627 -0.2561  0.5892 -0.6240
 2513SOL    HW219002   1.953   0.291  17.571  2.1786  2.1930 -2.1298
 2514SOL     OW19003   3.169   0.390  14.482 -0.3586 -0.3414 -0.4263
 2514SOL    HW119004   3.261   0.396  14.510  0.4522  1.1640 -3.3584
 2514SOL    HW219005   3.153   0.484  14.488 -0.5586 -0.4332  0.4237
 2515SOL     OW19006   1.871   2.084   1.823 -0.2264  0.2968  0.5238
 2515SOL    HW119007   1.877   2.164   1.772 -0.4262 -0.0583 -0.0459
 2515SOL    HW219008   1.834   2.021   1.761  1.1795 -0.2431  0.2191
 2516SOL     OW19009   4.274   3.442   5.891  0.1284  0.2863 -0.1170
 2516SOL    HW119010   4.319   3.415   5.811 -0.5773 -1.0640 -0.0430
 2516SOL    HW219011   4.218   3.514   5.863  0.0344 -1.1724 -3.6927
 2517SOL     OW19012   4.252   0.334   6.704  0.2688  0.1205 -0.1692
 2517SOL    HW119013   4.327   0.307   6.651  1.2634  0.8181  0.8513
 2517SOL    HW219014   4.268   0.305   6.794 -1.9776  1.3289  0.6070
 2518SOL     OW19015   2.463   2.166   3.183  0.1092 -0.4952  0.5957
 2518SOL    HW119016   2.470   2.206   3.270  1.3909  0.3603  0.1103
 2518SOL    HW219017   2.386   2.111   3.197  0.3384 -0.6068  1.4404
 2519SOL     OW19018   4.442   4.270   3.967 -0.0716 -0.0767  0.0153
 2519SOL    HW119019   4.511   4.223   3.920 -0.3515 -0.3026 -0.1775
 2519SOL    HW219020   4.500   4.336   4.003 -0.0299 -0.5110  0.7558
 2520SOL     OW19021   3.102   3.621  10.064  0.0899 -0.3160 -0.0916
 2520SOL    HW119022   3.059   3.599  10.146  0.0310  0.4386  0.0778
 2520SOL    HW219023   3.091   3.716  10.069  0.7466 -0.3427  1.9037
 2521SOL     OW19024   3.320   0.614   5.874  0.3747  0.3870  0.1761
 2521SOL    HW119025   3.371   0.669   5.932  1.5011 -3.1149  2.5112
 2521SOL    HW219026   3.247   0.604   5.935  0.0500 -1.3877 -0.4873
 2522SOL     OW19027   2.097   1.381  15.683 -0.1655 -0.5318  0.1941
 2522SOL    HW119028   2.010   1.357  15.650 -1.3420  0.0834  2.8200
 2522SOL    HW219029   2.101   1.476  15.696 -3.1371 -0.3857 -0.0143
 2523SOL     OW19030   1.881   3.614   3.898  0.4620  0.4480  0.1101
 2523SOL    HW119031   1.915   3.701   3.915  0.7317  0.6436 -1.4146
 2523SOL    HW219032   1.913   3.570   3.977 -1.0066  1.1904  1.1134
 2524SOL     OW19033   1.157   3.033   5.635  0.8540 -0.5890 -0.1377
 2524SOL    HW119034   1.164   3.050   5.729 -0.4863  3.7870 -0.8617
 2524SOL    HW219035   1.079   2.977   5.639  1.2916 -1.1587  0.4322
 2525SOL     OW19036   2.445   4.193  12.306 -0.2117 -0.3835 -0.0344
 2525SOL    HW119037   2.405   4.152  12.383 -0.5470  1.1699  0.6133
 2525SOL    HW219038   2.471   4.280  12.335 -0.7283 -0.6863  1.3686
 2526SOL     OW19039   2.331   2.716   5.945  0.3513  0.6334  0.0516
 2526SOL    HW119040   2.318   2.739   6.037  0.8931 -2.0734  0.8005
 2526SOL    HW219041   2.366   2.628   5.960 -0.4340  0.1456 -0.9222
 2527SOL     OW19042   3.448   2.686   7.044  0.1433 -0.4907 -0.2218
 2527SOL    HW119043   3.374   2.646   6.999  0.9079 -1.0977 -0.9283
 2527SOL    HW219044   3.518   2.634   7.006  0.3173 -0.2586 -0.2189
 2528SOL     OW19045   3.762   1.526   2.379 -0.1396  0.4810 -0.2700
 2528SOL    HW119046   3.760   1.502   2.286 -2.2024 -0.1690 -0.0685
 2528SOL    HW219047   3.728   1.447   2.421  0.6826 -0.5530 -1.5482
 2529SOL     OW19048   1.445   1.082   4.770  0.0231  0.2531  0.1298
 2529SOL    HW119049   1.419   1.002   4.816 -1.0254 -0.0233 -0.9747
 2529SOL    HW219050   1.359   1.122   4.761 -0.4004 -0.5591  0.5703
 2530SOL     OW19051   2.057   2.100   3.943  0.5537  0.6331 -0.0568
 2530SOL    HW119052   1.987   2.121   4.004 -1.1342 -1.1927 -1.3847
 2530SOL    HW219053   2.019   2.050   3.871  0.8893 -0.5552  0.6072
 2531SOL     OW19054   3.940   4.214   5.558  0.9012  0.1467 -0.3047
 2531SOL    HW119055   3.927   4.122   5.583  0.2187 -0.0492 -1.3714
 2531SOL    HW219056   4.010   4.250   5.612  1.0363  0.6977 -0.8484
 2532SOL     OW19057   1.597   4.005   6.087  0.2016  0.1711 -0.4946
 2532SOL    HW119058   1.566   3.935   6.030 -0.2764 -1.5437  1.8478
 2532SOL    HW219059   1.650   3.958   6.151 -1.0911  1.2904  1.4252
 2533SOL     OW19060   2.213   1.996  13.360 -0.3869  0.2460 -0.3568
 2533SOL    HW119061   2.205   1.908  13.323  3.1891 -0.3128  0.1411
 2533SOL    HW219062   2.251   1.973  13.445 -2.3281 -1.0561  0.1500
 2534SOL     OW19063   1.618   3.782  15.261  0.7039  0.2149  0.2251
 2534SOL    HW119064   1.566   3.835  15.202  0.8304 -1.2662 -1.2216
 2534SOL    HW219065   1.675   3.851  15.296  3.4298 -0.9208 -1.9437
 2535SOL     OW19066   2.981   4.615   6.395 -0.4855 -0.1996 -0.6778
 2535SOL    HW119067   2.942   4.675   6.459 -2.5975 -2.7280  0.4131
 2535SOL    HW219068   3.075   4.629   6.405 -0.3924 -2.0170  0.9916
 2536SOL     OW19069   4.147   2.591   2.846 -0.1439  0.0205  0.5365
 2536SOL    HW119070   4.121   2.632   2.764 -2.2547 -0.6687  0.8801
 2536SOL    HW219071   4.204   2.520   2.816  0.1612  0.6510 -0.3476
 2537SOL     OW19072   1.832   2.098   3.743 -0.1173 -0.1992  0.2883
 2537SOL    HW119073   1.817   2.185   3.781  0.5993 -0.0600  0.2631
 2537SOL    HW219074   1.808   2.110   3.651 -0.2244 -0.8156  0.2338
 2538SOL     OW19075   0.767   2.132   4.659 -0.2149 -0.0506 -0.3518
 2538SOL    HW119076   0.704   2.112   4.728 -1.6929  1.5610 -1.2523
 2538SOL    HW219077   0.810   2.212   4.688  3.1506 -1.7108 -0.7273
 2539SOL     OW19078   0.175   2.901   5.338  0.0571  0.1101  0.6936
 2539SOL    HW119079   0.252   2.846   5.356  0.9697  0.4165 -2.2715
 2539SOL    HW219080   0.193   2.959   5.264 -0.4161 -0.8469 -0.1928
 2540SOL     OW19081   0.329   0.300   7.349  0.5231 -0.4275  1.1847
 2540SOL    HW119082   0.320   0.223   7.293  2.0379 -0.5937  1.1479
 2540SOL    HW219083   0.249   0.297   7.401 -0.2112 -1.1849  0.0106
 2541SOL     OW19084   1.576   1.493   0.949 -0.0547  0.2821 -0.0887
 2541SOL    HW119085   1.602   1.435   1.021  1.5016  0.5810 -0.4087
 2541SOL    HW219086   1.666   1.504   0.917  0.2964  0.4167  0.9384
 2542SOL     OW19087   2.980   2.587  16.838  0.1293  0.5607  0.5782
 2542SOL    HW119088   2.980   2.677  16.871  1.3518  1.1467 -1.0332
 2542SOL    HW219089   3.072   2.562  16.844 -0.4034 -1.3503  0.9193
 2543SOL     OW19090   3.714   1.346  10.310 -0.5917  0.4320 -0.2648
 2543SOL    HW119091   3.754   1.358  10.397 -0.6631 -1.1238 -0.0207
 2543SOL    HW219092   3.626   1.373  10.334 -0.9798 -0.9937 -0.1102
 2544SOL     OW19093   0.090   1.678   3.753 -0.2902 -0.0725  0.1740
 2544SOL    HW119094   0.029   1.752   3.760 -0.0178  0.1382  0.3418
 2544SOL    HW219095   0.028   1.609   3.729  0.0842  0.4263 -2.1509
 2545SOL     OW19096   0.713   3.318   8.481  0.5596  0.1112  0.4487
 2545SOL    HW119097   0.715   3.273   8.565 -0.0799  2.1761  1.5561
 2545SOL    HW219098   0.753   3.403   8.498 -0.5323  0.8220 -0.5084
 2546SOL     OW19099   0.443   0.493   3.471 -0.1411 -0.0415  0.6670
 2546SOL    HW119100   0.460   0.496   3.565 -1.2438 -1.0111  0.9148
 2546SOL    HW219101   0.527   0.523   3.439  0.0364  0.1524  1.3292
 2547SOL     OW19102   0.140   0.475   9.669 -0.1789 -0.3121  0.1501
 2547SOL    HW119103   0.101   0.533   9.734  1.0654 -1.0974  1.6143
 2547SOL    HW219104   0.197   0.422   9.725 -1.7749  0.1166  2.2081
 2548SOL     OW19105   3.933   0.109   5.784 -0.3718 -0.2228 -0.5008
 2548SOL    HW119106   3.891   0.098   5.699  0.1313  1.0917 -0.9155
 2548SOL    HW219107   3.860   0.101   5.846  0.0580 -2.0297 -0.2393
 2549SOL     OW19108   3.406   3.056   7.337  0.2526 -0.4504  0.0997
 2549SOL    HW119109   3.332   3.113   7.313 -0.8843 -1.9911 -0.0615
 2549SOL    HW219110   3.435   3.024   7.251  0.3807 -0.9007  0.3130
 2550SOL     OW19111   3.877   0.100   0.439 -0.2683 -0.4878 -0.1345
 2550SOL    HW119112   3.870   0.193   0.415  1.4909 -0.3511 -0.1048
 2550SOL    HW219113   3.835   0.063   0.361  1.0183  1.1149 -1.5892
 2551SOL     OW19114   3.181   3.177   7.255 -0.0366 -0.0066 -0.1191
 2551SOL    HW119115   3.178   3.254   7.198 -0.4465 -0.2682 -0.4616
 2551SOL    HW219116   3.105   3.189   7.312 -0.2098 -2.5676  0.1773
 2552SOL     OW19117   0.697   0.687  11.793  0.0856  0.1118 -0.5336
 2552SOL    HW119118   0.662   0.735  11.867  0.2292 -0.0700 -0.3473
 2552SOL    HW219119   0.700   0.597  11.826  0.8411 -0.7980 -3.0623
 2553SOL     OW19120   0.416   3.186   1.662  0.0293  0.3898 -0.5632
 2553SOL    HW119121   0.359   3.185   1.739  1.0301 -1.7221  0.1654
 2553SOL    HW219122   0.409   3.276   1.631 -2.8653  1.4973  3.3106
 2554SOL     OW19123   3.143   4.210   6.069 -0.2734  0.1465 -0.1912
 2554SOL    HW119124   3.224   4.163   6.051 -0.4390 -1.4765  3.3589
 2554SOL    HW219125   3.139   4.266   5.991 -1.8357  1.1697  0.6212
 2555SOL     OW19126   3.439   1.699  15.458  0.3984 -0.0618 -0.8223
 2555SOL    HW119127   3.381   1.771  15.431  0.0445  0.0951  0.3750
 2555SOL    HW219128   3.433   1.643  15.381 -1.0938 -0.8667 -0.1234
 2556SOL     OW19129   2.296   4.401   7.380  0.4480  0.5671  0.0615
 2556SOL    HW119130   2.239   4.399   7.303 -1.8843  2.9150  1.7426
 2556SOL    HW219131   2.333   4.317   7.353 -0.7073 -0.1490  0.7655
 2557SOL     OW19132   4.582   3.071   7.796  0.0223 -0.3386  0.9757
 2557SOL    HW119133   4.646   3.001   7.806  1.7854  1.1870  0.3937
 2557SOL    HW219134   4.636   3.130   7.743  0.8048 -0.5432  1.5446
 2558SOL     OW19135   2.571   2.640   3.733 -0.3818 -0.0660 -0.8459
 2558SOL    HW119136   2.506   2.574   3.759  1.0168 -1.0460  0.1416
 2558SOL    HW219137   2.579   2.696   3.810 -0.3352  0.3353 -1.1423
 2559SOL     OW19138   1.326   1.300   3.582 -0.7447 -0.0192  0.0525
 2559SOL    HW119139   1.417   1.296   3.554 -0.7064  1.6214 -0.0661
 2559SOL    HW219140   1.282   1.331   3.503  1.0063 -1.0127 -1.3208
 2560SOL     OW19141   4.300   4.311  10.733 -0.2018 -0.1091  0.0108
 2560SOL    HW119142   4.394   4.328  10.729 -0.5797  2.4282  1.9152
 2560SOL    HW219143   4.291   4.302  10.828 -2.3606 -1.0732 -0.2781
 2561SOL     OW19144   3.349   0.144  16.505  0.3184 -0.3730 -0.2926
 2561SOL    HW119145   3.312   0.075  16.451 -0.6538 -2.0005  2.4787
 2561SOL    HW219146   3.295   0.135  16.583  1.1801  0.7669  0.4411
 2562SOL     OW19147   4.054   4.408   5.913  0.6312 -0.0574 -0.3812
 2562SOL    HW119148   3.965   4.407   5.947  0.6825  0.8961 -0.2256
 2562SOL    HW219149   4.079   4.500   5.923 -1.8698  0.3151  2.2414
 2563SOL     OW19150   2.081   3.045   8.842  0.7423  0.1128 -0.0638
 2563SOL    HW119151   1.990   3.055   8.815  0.8936 -1.7800 -1.2466
 2563SOL    HW219152   2.132   3.064   8.763  1.1404 -0.3537  0.0803
 2564SOL     OW19153   0.725   3.140   2.549  0.3418 -0.3364  0.8105
 2564SOL    HW119154   0.692   3.226   2.522  2.0322 -0.4008 -1.3294
 2564SOL    HW219155   0.649   3.091   2.581  0.9840 -2.0013 -0.2060
 2565SOL     OW19156   3.661   0.723   7.450 -0.1905 -0.4091  0.0137
 2565SOL    HW119157   3.668   0.630   7.431 -1.5915 -0.3257 -0.9344
 2565SOL    HW219158   3.703   0.762   7.374 -1.3460 -1.0985 -0.9791
 2566SOL     OW19159   2.252   0.700  12.054 -0.0305  0.3780 -0.3808
 2566SOL    HW119160   2.189   0.634  12.025 -0.4730  0.4640  0.3728
 2566SOL    HW219161   2.327   0.681  11.998  0.5841  2.1252 -0.1487
 2567SOL     OW19162   0.583   3.648  12.497  0.1430 -0.6195 -0.4690
 2567SOL    HW119163   0.606   3.722  12.441 -1.1915  0.5803  0.6027
 2567SOL    HW219164   0.569   3.691  12.581 -0.7793 -1.0818 -0.3888
 2568SOL     OW19165   3.964   2.314   3.843 -0.8140 -0.2279 -0.0319
 2568SOL    HW119166   4.052   2.321   3.806 -0.2741  0.7137  1.4547
 2568SOL    HW219167   3.937   2.403   3.824  0.1504 -0.0478 -0.5833
 2569SOL     OW19168   0.416   3.230   3.714  0.0533  0.1111  0.1948
 2569SOL    HW119169   0.429   3.322   3.688  0.0927 -0.2852 -1.1981
 2569SOL    HW219170   0.427   3.185   3.630 -0.7808 -1.6860  1.0653
 2570SOL     OW19171   4.362   0.609  17.454  0.0961  0.4180  0.4137
 2570SOL    HW119172   4.293   0.560  17.498 -1.5875  1.8371 -0.6118
 2570SOL    HW219173   4.356   0.561  17.371 -2.6946 -0.7811  1.3200
 2571SOL     OW19174   0.480   1.811   2.073 -0.1170 -0.6031  0.3867
 2571SOL    HW119175   0.521   1.731   2.104 -2.7789 -1.4812  1.6556
 2571SOL    HW219176   0.389   1.784   2.086  0.2173 -1.6252  0.5481
 2572SOL     OW19177   0.658   0.331   8.532  0.1004 -0.0277  0.0777
 2572SOL    HW119178   0.716   0.257   8.514 -0.4733 -0.5676  0.4298
 2572SOL    HW219179   0.609   0.292   8.605  0.9104 -0.9012  0.1573
 2573SOL     OW19180   3.995   1.344   9.417 -0.2871 -0.1160  0.0079
 2573SOL    HW119181   3.941   1.403   9.365  1.4077 -0.2357 -1.8854
 2573SOL    HW219182   4.007   1.278   9.350  0.0277  1.4343 -1.4637
 2574SOL     OW19183   4.400   0.212   2.463  0.9382  0.0830 -0.1397
 2574SOL    HW119184   4.435   0.285   2.410  2.0245 -0.0973  0.3255
 2574SOL    HW219185   4.330   0.259   2.508  0.3198 -1.9312  0.9738
 2575SOL     OW19186   3.770   0.500   7.332  0.0720  0.1013 -0.0049
 2575SOL    HW119187   3.844   0.549   7.297 -0.2594 -1.4203 -2.8386
 2575SOL    HW219188   3.788   0.409   7.309  0.4238  0.0640  0.4232
 2576SOL     OW19189   2.867   0.872   7.701  0.0887 -0.3594 -0.3351
 2576SOL    HW119190   2.871   0.945   7.763  0.0026  0.3394 -1.1461
 2576SOL    HW219191   2.903   0.800   7.753 -0.2974 -0.6660 -0.4936
 2577SOL     OW19192   0.254   0.551  16.652 -0.3250  0.1712  0.0328
 2577SOL    HW119193   0.281   0.625  16.597 -2.1608 -0.3497 -1.5825
 2577SOL    HW219194   0.336   0.516  16.687  1.0778  0.9203 -2.4760
 2578SOL     OW19195   2.143   4.409   5.436 -0.6911  0.2023 -0.3130
 2578SOL    HW119196   2.221   4.368   5.474 -0.4035  1.7503  0.7816
 2578SOL    HW219197   2.116   4.352   5.365 -2.5338 -1.0442  1.3851
 2579SOL     OW19198   0.891   0.587   2.331  0.3365  0.0572  0.2462
 2579SOL    HW119199   0.980   0.555   2.349  0.8485  1.1026 -0.3768
 2579SOL    HW219200   0.916   0.658   2.271  3.6928 -1.2531  0.0805
 2580SOL     OW19201   2.111   3.026   2.009 -0.2772  0.0619 -0.2165
 2580SOL    HW119202   2.018   3.044   2.000 -0.0392  1.1141 -0.5132
 2580SOL    HW219203   2.131   3.026   1.915 -0.8246 -1.0390 -0.3284
 2581SOL     OW19204   1.034   4.374  14.297 -0.2723 -0.5573 -0.6951
 2581SOL    HW119205   1.010   4.389  14.205  1.0782  1.1930 -0.7626
 2581SOL    HW219206   0.947   4.371  14.336  0.1484 -0.8393  0.1993
 2582SOL     OW19207   1.482   0.267   8.209 -0.1208 -0.0384 -0.2673
 2582SOL    HW119208   1.565   0.219   8.202 -0.2183 -0.0058 -1.6818
 2582SOL    HW219209   1.512   0.354   8.181  0.9199  0.1248  1.3846
 2583SOL     OW19210   2.763   0.471   7.133 -0.0978  0.1181 -0.1783
 2583SOL    HW119211   2.668   0.460   7.133 -0.1725  0.7460 -0.1522
 2583SOL    HW219212   2.758   0.541   7.199 -2.7706  1.2490 -1.5784
 2584SOL     OW19213   3.668   3.972   2.289 -0.7917 -0.1122 -0.8533
 2584SOL    HW119214   3.665   3.991   2.383 -1.0319 -1.1834 -0.6450
 2584SOL    HW219215   3.708   3.886   2.294  0.1290  0.3563 -0.2565
 2585SOL     OW19216   3.212   0.475   9.737 -0.2128 -0.2515 -0.6528
 2585SOL    HW119217   3.284   0.430   9.782  0.3013  2.0521  0.8421
 2585SOL    HW219218   3.152   0.405   9.712  1.2550 -1.3244 -1.1402
 2586SOL     OW19219   1.939   4.157   2.653  0.2993 -0.0494 -0.3149
 2586SOL    HW119220   1.873   4.125   2.592 -0.4691  0.1513  0.4086
 2586SOL    HW219221   1.935   4.244   2.613  1.4929  0.3616  0.4571
 2587SOL     OW19222   1.138   0.040  10.561 -0.5174 -0.5489  0.1251
 2587SOL    HW119223   1.097   0.048  10.647  0.4467 -0.2593  0.5654
 2587SOL    HW219224   1.181   4.678  10.574  0.3801 -0.0051  0.7512
 2588SOL     OW19225   2.668   2.630  12.194 -0.0357 -0.1503  0.4245
 2588SOL    HW119226   2.708   2.679  12.266  1.5582  1.1937 -1.3779
 2588SOL    HW219227   2.705   2.679  12.120  0.0585  0.6332  0.9936
 2589SOL     OW19228   1.923   0.931   9.372 -0.1035  0.3701 -0.0598
 2589SOL    HW119229   1.941   0.922   9.279 -3.1438  0.1962 -0.6433
 2589SOL    HW219230   1.987   0.871   9.409  0.0079  0.6433  0.1949
 2590SOL     OW19231   2.125   2.784   8.011  0.0677 -0.0379  0.3164
 2590SOL    HW119232   2.170   2.867   8.026 -2.2263  0.8579  2.1928
 2590SOL    HW219233   2.107   2.779   7.917 -0.9630  1.1210  0.4601
 2591SOL     OW19234   3.944   0.412   1.025  0.8617  0.0326  0.2399
 2591SOL    HW119235   4.037   0.418   1.046  0.7418  0.0904  0.7720
 2591SOL    HW219236   3.924   0.325   1.058 -2.9310  0.8520  0.1214
 2592SOL     OW19237   0.859   2.527   2.193 -0.1909  0.0068  0.2947
 2592SOL    HW119238   0.835   2.515   2.285  2.5977 -2.0876  0.7365
 2592SOL    HW219239   0.941   2.576   2.204 -0.1537  0.1477 -0.6058
 2593SOL     OW19240   3.191   0.947  13.409 -0.1066  0.2397  0.0339
 2593SOL    HW119241   3.244   1.025  13.424 -0.1089  0.4745 -1.1603
 2593SOL    HW219242   3.268   0.896  13.386  1.4348  2.4044  0.3970
 2594SOL     OW19243   0.902   2.555   3.399 -0.0491 -0.0632 -0.5851
 2594SOL    HW119244   0.856   2.481   3.361  0.9329 -1.4169  0.8110
 2594SOL    HW219245   0.993   2.526   3.386 -0.1676 -1.5866  1.7701
 2595SOL     OW19246   0.811   2.970  12.039  0.0496  0.3285  0.2459
 2595SOL    HW119247   0.756   2.954  11.962  1.2912 -1.6306 -0.2294
 2595SOL    HW219248   0.795   3.064  12.052  0.8056  0.6138 -0.8186
 2596SOL     OW19249   4.185   1.273   3.543  0.0401 -0.0850 -0.0335
 2596SOL    HW119250   4.179   1.230   3.457 -3.3596 -0.7862  0.5522
 2596SOL    HW219251   4.136   1.354   3.531 -0.2157 -0.0760  1.0803
 2597SOL     OW19252   1.706   1.650   4.689 -0.3110 -0.6494  0.0769
 2597SOL    HW119253   1.646   1.594   4.738 -1.0224 -1.1419 -1.3858
 2597SOL    HW219254   1.653   1.690   4.620  1.5119 -0.7161 -1.3457
 2598SOL     OW19255   1.212   1.710   8.141  0.6013 -0.4209 -0.0004
 2598SOL    HW119256   1.216   1.615   8.149  3.0002 -0.2502  0.8520
 2598SOL    HW219257   1.302   1.742   8.146  0.2239  0.4277  1.4655
 2599SOL     OW19258   1.643   4.607   1.795  0.1708 -0.5030 -0.1999
 2599SOL    HW119259   1.637   4.529   1.739 -0.1617  0.8667 -2.0685
 2599SOL    HW219260   1.681   4.674   1.739 -2.4530 -0.3345 -1.7495
 2600SOL     OW19261   2.908   0.307   2.272 -0.5945 -0.3136 -0.1105
 2600SOL    HW119262   2.895   0.216   2.297 -2.6894 -0.3445 -1.3509
 2600SOL    HW219263   2.892   0.304   2.177 -0.6636 -4.0603  0.0495
 2601SOL     OW19264   3.614   3.024   5.240  0.0693  0.3226 -0.3051
 2601SOL    HW119265   3.637   2.958   5.306 -0.4068 -1.3813 -1.8271
 2601SOL    HW219266   3.529   3.056   5.269  0.6762  1.4252  0.2260
 2602SOL     OW19267   1.791   1.595   3.790  0.0447  0.1141 -0.1259
 2602SOL    HW119268   1.816   1.682   3.820  1.7174 -0.6407  0.7014
 2602SOL    HW219269   1.705   1.604   3.749  0.6305 -0.7043 -1.5320
 2603SOL     OW19270   3.843   0.996   1.864 -0.1070 -0.1182 -0.0175
 2603SOL    HW119271   3.885   0.919   1.824 -0.1521 -0.0465 -0.2014
 2603SOL    HW219272   3.856   1.065   1.800  1.7143  0.8351  1.3678
 2604SOL     OW19273   2.474   4.053   3.002  0.0132  0.5363  0.0503
 2604SOL    HW119274   2.526   4.132   2.990  1.3291  0.1520  3.1063
 2604SOL    HW219275   2.402   4.061   2.940 -0.5093  1.1658  0.7460
 2605SOL     OW19276   1.555   2.586   3.817 -0.1813 -0.5263 -0.5480
 2605SOL    HW119277   1.545   2.621   3.906 -0.9945 -1.8510 -0.1187
 2605SOL    HW219278   1.480   2.531   3.795  0.5878 -0.5317 -3.1187
 2606SOL     OW19279   2.821   1.054  16.864 -0.1739 -0.5550 -0.2113
 2606SOL    HW119280   2.891   1.111  16.898  0.0561 -1.4330  0.7886
 2606SOL    HW219281   2.864   0.984  16.816 -0.1354  0.4034 -1.5520
 2607SOL     OW19282   3.725   0.415  15.961 -0.2674  0.1437  0.7743
 2607SOL    HW119283   3.666   0.397  16.034  0.8841 -0.5337  1.5325
 2607SOL    HW219284   3.724   0.326  15.925  2.4006 -0.2251  1.6424
 2608SOL     OW19285   1.660   0.532   2.980 -0.5303 -0.0374 -0.0654
 2608SOL    HW119286   1.597   0.603   2.967  0.3241  1.2276  2.5903
 2608SOL    HW219287   1.637   0.466   2.915 -0.4412 -0.1202 -0.0133
 2609SOL     OW19288   1.979   3.120  15.942  0.0954  0.3345  0.2045
 2609SOL    HW119289   1.934   3.037  15.959  1.9300 -0.3464  1.6778
 2609SOL    HW219290   2.053   3.093  15.888 -0.2891  0.5767 -0.4474
 2610SOL     OW19291   3.868   1.229  16.413  0.0192  0.3081 -0.7093
 2610SOL    HW119292   3.842   1.178  16.335  0.4540 -0.2451 -0.4887
 2610SOL    HW219293   3.786   1.232  16.462 -0.4412 -1.8713 -1.3242
 2611SOL     OW19294   3.763   4.381   8.789  0.1362  0.5290  0.2583
 2611SOL    HW119295   3.717   4.357   8.870  0.9192  0.0698  0.5734
 2611SOL    HW219296   3.726   4.322   8.724 -1.8165 -1.2799  2.9760
 2612SOL     OW19297   2.481   0.241   5.897  0.5017  0.4113 -0.3973
 2612SOL    HW119298   2.471   0.310   5.962 -0.4281  1.3499 -1.5419
 2612SOL    HW219299   2.432   0.276   5.822 -2.3644 -1.4126  0.5956
 2613SOL     OW19300   2.276   3.710  15.333  0.0389 -0.2064 -0.4620
 2613SOL    HW119301   2.190   3.674  15.355  1.0723 -2.5014 -0.1567
 2613SOL    HW219302   2.290   3.770  15.407  0.1546  0.7615 -1.2571
 2614SOL     OW19303   3.494   0.780   3.295 -0.3825 -0.3540  0.2454
 2614SOL    HW119304   3.488   0.742   3.207  0.9844  1.2396 -0.5402
 2614SOL    HW219305   3.562   0.846   3.288  1.3982 -2.2890 -0.6185
 2615SOL     OW19306   2.943   0.346   2.794  0.6138 -0.0294  0.0347
 2615SOL    HW119307   2.981   0.289   2.861 -0.9816  0.2035  1.1642
 2615SOL    HW219308   3.019   0.350   2.737  0.3034  0.8346 -0.3316
 2616SOL     OW19309   0.009   2.633   2.774 -0.3156 -0.3827  0.5282
 2616SOL    HW119310   0.092   2.664   2.737 -0.7540  1.5806  1.1782
 2616SOL    HW219311   4.696   2.567   2.715  1.6199 -0.9133 -0.0649
 2617SOL     OW19312   2.436   1.758  11.466 -0.1005  0.4640 -0.8554
 2617SOL    HW119313   2.360   1.787  11.516 -0.4284  1.4684 -1.9205
 2617SOL    HW219314   2.478   1.842  11.448  3.7859 -1.3335 -0.2550
 2618SOL     OW19315   3.190   2.000   8.770  0.2372 -0.1878  0.2902
 2618SOL    HW119316   3.127   1.969   8.835 -0.0126 -0.7024 -0.1995
 2618SOL    HW219317   3.253   2.043   8.828  1.1185 -0.4345 -0.4897
 2619SOL     OW19318   4.265   0.501   6.076 -0.1364  0.1054  0.7391
 2619SOL    HW119319   4.279   0.450   6.156  1.8166  2.9712  2.2188
 2619SOL    HW219320   4.284   0.435   6.009  0.2867 -0.5011  1.4644
 2620SOL     OW19321   0.282   1.140   6.246 -0.9894 -0.1504 -0.4019
 2620SOL    HW119322   0.198   1.174   6.216 -1.6984 -1.3815  0.2241
 2620SOL    HW219323   0.286   1.056   6.201  1.0757 -0.6609  0.7162
 2621SOL     OW19324   3.354   1.181  13.458 -0.2582 -0.2738 -0.3782
 2621SOL    HW119325   3.412   1.256  13.445 -1.6260  0.7272 -0.8216
 2621SOL    HW219326   3.333   1.195  13.551  0.4092 -0.6430 -0.1733
 2622SOL     OW19327   2.894   0.295   8.300  0.9272 -0.4405 -0.3575
 2622SOL    HW119328   2.861   0.261   8.217  0.8635 -0.5611 -0.2822
 2622SOL    HW219329   2.907   0.389   8.285  1.2979 -0.6385 -1.2701
 2623SOL     OW19330   4.171   1.527   6.143 -0.1153 -0.5466  0.0112
 2623SOL    HW119331   4.181   1.433   6.156 -1.9837 -0.6003  1.1207
 2623SOL    HW219332   4.202   1.528   6.053 -2.3381 -1.8197 -0.7733
 2624SOL     OW19333   2.743   1.385   6.980  0.1426  0.0363  0.0666
 2624SOL    HW119334   2.657   1.427   6.966  1.8100  2.8969 -1.5586
 2624SOL    HW219335   2.714   1.314   7.037  0.8957  0.8453  1.4522
 2625SOL     OW19336   2.198   2.486   7.277  0.5912  0.3184 -0.5725
 2625SOL    HW119337   2.113   2.443   7.265  1.2885 -2.0019  2.8862
 2625SOL    HW219338   2.255   2.455   7.207  1.6051 -0.7948  0.7497
 2626SOL     OW19339   2.353   0.106   4.201 -0.4410  0.6145 -0.0943
 2626SOL    HW119340   2.337   0.146   4.115 -0.2355 -1.4863 -1.1157
 2626SOL    HW219341   2.347   0.182   4.259 -0.5804  1.1006 -0.7489
 2627SOL     OW19342   0.285   2.939  17.370  0.2008  0.2606 -0.3853
 2627SOL    HW119343   0.191   2.939  17.358  0.2299 -2.4078 -0.5495
 2627SOL    HW219344   0.298   2.854  17.412  0.2629 -0.2202 -1.3744
 2628SOL     OW19345   0.335   2.938   3.915 -0.3285 -0.0032 -0.2390
 2628SOL    HW119346   0.279   2.924   3.839  0.1004 -3.3812  0.0811
 2628SOL    HW219347   0.374   2.852   3.930 -3.0199 -1.1877 -0.1338
 2629SOL     OW19348   1.576   3.833   6.647  0.4599 -0.5123  0.0189
 2629SOL    HW119349   1.649   3.787   6.687  0.0135  0.5182  1.9775
 2629SOL    HW219350   1.624   3.914   6.633  1.1419 -0.7352  1.1091
 2630SOL     OW19351   0.758   0.973   4.360 -0.2694 -0.1027 -0.3096
 2630SOL    HW119352   0.785   1.064   4.355 -1.7463  0.4385  1.5466
 2630SOL    HW219353   0.835   0.943   4.409  0.0406  1.7428  0.3183
 2631SOL     OW19354   4.479   1.968   4.414 -0.3933 -0.3851 -0.0241
 2631SOL    HW119355   4.466   1.955   4.508 -0.3874 -1.2375 -0.1389
 2631SOL    HW219356   4.557   1.913   4.408  0.1855  0.5056 -0.6277
 2632SOL     OW19357   4.107   2.276  17.168  0.4864  0.1104  0.1345
 2632SOL    HW119358   4.042   2.344  17.186 -1.9002 -1.7375 -1.5351
 2632SOL    HW219359   4.189   2.323  17.182 -0.1637  0.7031  1.9609
 2633SOL     OW19360   4.670   1.109  15.321  0.1469 -0.5883  0.2041
 2633SOL    HW119361   4.692   1.028  15.275 -0.1654 -2.1897  2.8596
 2633SOL    HW219362   0.015   1.165  15.283  1.0087 -1.1030  1.0022
 2634SOL     OW19363   1.534   3.472   5.344  0.4782  0.6936  0.0308
 2634SOL    HW119364   1.543   3.563   5.316 -0.2231 -0.4908 -4.0177
 2634SOL    HW219365   1.441   3.452   5.349  0.1542  1.5302 -2.5800
 2635SOL     OW19366   3.408   3.036   6.474 -0.2406  0.8171  0.0267
 2635SOL    HW119367   3.450   3.064   6.556  0.1826  0.8638 -0.2045
 2635SOL    HW219368   3.398   3.124   6.438  0.2081  0.4834 -0.9215
 2636SOL     OW19369   3.617   1.121  14.953  0.1545  0.0555  0.3787
 2636SOL    HW119370   3.709   1.112  14.978  0.5350 -1.5939 -1.6167
 2636SOL    HW219371   3.585   1.111  15.042  2.5599  2.0754  1.4875
 2637SOL     OW19372   2.039   2.438   7.872 -0.4107 -0.5447  0.1195
 2637SOL    HW119373   1.968   2.430   7.935  0.5347  1.9421  1.5148
 2637SOL    HW219374   2.050   2.532   7.852  0.2658 -0.5737  0.3553
 2638SOL     OW19375   4.118   3.301   2.914  0.0371 -0.5689  0.4026
 2638SOL    HW119376   4.037   3.347   2.893  1.1971  0.8313 -0.8836
 2638SOL    HW219377   4.171   3.312   2.836  3.1012 -1.0537  2.4140
 2639SOL     OW19378   1.918   1.333  17.491  0.0789  0.0498 -0.2611
 2639SOL    HW119379   1.880   1.405  17.442 -1.4066 -1.3808 -1.2191
 2639SOL    HW219380   1.973   1.368  17.561 -1.3311  2.6095 -0.4658
 2640SOL     OW19381   2.548   3.601   8.609 -0.0103  0.2248 -0.4218
 2640SOL    HW119382   2.585   3.618   8.522  1.5276 -3.1293 -0.4075
 2640SOL    HW219383   2.498   3.681   8.625 -0.5328 -0.4788  1.5549
 2641SOL     OW19384   1.369   0.201   6.343  0.4684  0.3429  0.0673
 2641SOL    HW119385   1.428   0.145   6.394 -1.0603 -1.9856 -0.7110
 2641SOL    HW219386   1.367   0.156   6.259  1.6546  0.4182 -0.0075
 2642SOL     OW19387   2.572   2.400  16.937 -0.1845 -0.0173 -0.6735
 2642SOL    HW119388   2.607   2.479  16.978 -0.3254 -0.9460  1.2243
 2642SOL    HW219389   2.644   2.337  16.943 -0.6466 -0.4025  0.9180
 2643SOL     OW19390   4.704   0.867   5.599  0.3097  0.1112  0.0612
 2643SOL    HW119391   4.677   0.948   5.555  1.2034 -1.1315 -2.8277
 2643SOL    HW219392   4.659   0.813   5.534 -0.4976  0.9964 -0.1137
 2644SOL     OW19393   2.858   0.887  16.595 -0.0810 -0.1075  0.2742
 2644SOL    HW119394   2.853   0.980  16.573 -0.7825 -0.0247  0.7993
 2644SOL    HW219395   2.917   0.849  16.529  1.2736  2.0599  0.2289
 2645SOL     OW19396   0.890   3.335   7.274  0.8304  0.0741  0.5128
 2645SOL    HW119397   0.899   3.413   7.218  0.8690 -0.6191 -0.4583
 2645SOL    HW219398   0.796   3.319   7.268  1.3576 -3.2569  1.7398
 2646SOL     OW19399   4.380   4.072  12.182 -0.0570 -0.4704  0.1491
 2646SOL    HW119400   4.378   4.167  12.174  2.9335 -0.5156 -1.3320
 2646SOL    HW219401   4.334   4.058  12.265  1.7462  1.5075  1.4983
 2647SOL     OW19402   4.187   3.196   8.088  0.1791 -0.3425 -0.0278
 2647SOL    HW119403   4.158   3.255   8.019 -2.2692 -0.5081  0.8438
 2647SOL    HW219404   4.277   3.195   8.057 -0.1539  0.3977 -1.0418
 2648SOL     OW19405   4.551   2.432   8.312 -0.3120 -0.0356 -0.2371
 2648SOL    HW119406   4.561   2.479   8.396  0.8704  0.6243 -0.7363
 2648SOL    HW219407   4.482   2.481   8.269  0.0838  0.3067 -0.4847
 2649SOL     OW19408   4.668   3.827   5.980 -0.1164  0.0096  0.6579
 2649SOL    HW119409   0.026   3.828   5.928  0.7979 -0.8750  2.0781
 2649SOL    HW219410   4.609   3.774   5.927  0.3066  0.3882 -0.1975
 2650SOL     OW19411   0.110   2.942   7.833  0.3852  0.3058 -0.4049
 2650SOL    HW119412   0.145   2.955   7.921  0.5290 -1.6498 -0.1663
 2650SOL    HW219413   0.176   2.985   7.779 -1.7882  1.6930 -1.9370
 2651SOL     OW19414   0.044   0.028   7.107  0.4879  0.3898  0.4338
 2651SOL    HW119415   4.686   0.065   7.143  0.4579 -0.6273  1.4106
 2651SOL    HW219416   0.100   0.103   7.090  1.0306 -0.4566 -1.4710
 2652SOL     OW19417   3.812   3.582   4.469  0.1105 -0.7265  0.4140
 2652SOL    HW119418   3.806   3.603   4.376 -0.2395 -2.6413 -0.0017
 2652SOL    HW219419   3.906   3.585   4.485  0.2795  0.7237 -0.8934
 2653SOL     OW19420   0.367   0.767   2.734  0.2435 -0.0597 -0.6870
 2653SOL    HW119421   0.412   0.702   2.788 -1.9693 -1.2978 -0.3528
 2653SOL    HW219422   0.329   0.717   2.662 -0.3344 -0.2292 -0.2610
 2654SOL     OW19423   0.029   0.852   9.612 -0.2784 -0.2599 -0.2967
 2654SOL    HW119424   0.030   0.941   9.578  2.4932 -0.6032 -1.1371
 2654SOL    HW219425   4.661   0.837   9.587 -0.2290 -1.3153  0.1555
 2655SOL     OW19426   0.868   0.040   4.337 -0.4712 -0.1374  0.6288
 2655SOL    HW119427   0.958   0.047   4.369 -0.5617  2.2140  0.3491
 2655SOL    HW219428   0.874   0.060   4.244 -3.8646  0.8862  0.6373
 2656SOL     OW19429   0.485   4.706   9.014  0.2960  0.1409  0.0023
 2656SOL    HW119430   0.530   0.007   8.933  0.6958 -1.1216 -0.1392
 2656SOL    HW219431   0.525   0.036   9.082 -1.4514  1.6817 -0.1608
 2657SOL     OW19432   2.220   0.873   6.765  0.1039 -1.0931  0.1171
 2657SOL    HW119433   2.168   0.893   6.687 -0.1036 -2.1824 -0.0310
 2657SOL    HW219434   2.151   0.847   6.826  0.7583 -1.0426  0.8888
 2658SOL     OW19435   1.851   0.771   0.163 -0.4199  0.5030 -0.2948
 2658SOL    HW119436   1.846   0.852   0.112  0.1188  0.5833 -0.2217
 2658SOL    HW219437   1.883   0.802   0.248 -1.0097  2.3103 -0.7410
 2659SOL     OW19438   3.011   2.208   6.635  0.4505  0.0838  0.0342
 2659SOL    HW119439   3.081   2.185   6.697  1.7152 -2.0339 -2.1748
 2659SOL    HW219440   2.943   2.143   6.655 -0.2544  0.5179 -0.9868
 2660SOL     OW19441   2.519   1.345  13.075  0.4680 -0.4115  0.8931
 2660SOL    HW119442   2.481   1.370  12.991 -0.0770 -0.7012  1.0598
 2660SOL    HW219443   2.502   1.251  13.076 -2.1677  0.0632 -1.3544
 2661SOL     OW19444   0.797   0.910   8.895 -0.2100  0.2933 -0.1490
 2661SOL    HW119445   0.739   0.834   8.889 -1.4545  1.3147 -1.0768
 2661SOL    HW219446   0.726   0.970   8.919  0.3783  1.5208 -1.3954
 2662SOL     OW19447   2.258   3.583   5.791  0.0048  0.7523  0.4812
 2662SOL    HW119448   2.225   3.590   5.881 -0.4207 -0.0163  0.3863
 2662SOL    HW219449   2.258   3.489   5.775  1.5727  0.6693  1.0027
 2663SOL     OW19450   4.573   4.665   2.693 -0.1265  0.2144 -0.4685
 2663SOL    HW119451   4.567   4.661   2.597  0.1705  0.8042 -0.5169
 2663SOL    HW219452   4.531   4.584   2.721  0.5697 -0.4167 -1.2265
 2664SOL     OW19453   1.029   3.314  12.235  0.3593 -0.4215  0.5051
 2664SOL    HW119454   1.008   3.400  12.200 -2.8829 -1.2998  0.3476
 2664SOL    HW219455   1.094   3.286  12.170  0.6133  1.5103 -0.0586
 2665SOL     OW19456   1.381   4.589  10.203  0.2580 -0.0736  0.1375
 2665SOL    HW119457   1.467   4.630  10.215 -0.2044  0.8015  0.4395
 2665SOL    HW219458   1.382   4.574  10.108  0.0992  1.7839 -0.1662
 2666SOL     OW19459   1.519   4.495   2.008 -0.8624  0.1138  0.0784
 2666SOL    HW119460   1.435   4.542   2.003 -1.4854 -0.8408  1.5587
 2666SOL    HW219461   1.557   4.528   1.927  1.2722 -0.6553  0.7768
 2667SOL     OW19462   3.857   2.449   7.630  0.3041  0.1376  0.1964
 2667SOL    HW119463   3.834   2.439   7.537  0.1591  0.5988  0.1835
 2667SOL    HW219464   3.834   2.541   7.644 -1.4296  0.0599 -2.1010
 2668SOL     OW19465   0.274   2.289   5.503 -0.0068 -0.3663 -0.4165
 2668SOL    HW119466   0.239   2.259   5.419  1.3787 -0.5478 -0.9276
 2668SOL    HW219467   0.252   2.213   5.557  2.4235  0.0372  1.1769
 2669SOL     OW19468   1.238   2.375   9.681 -0.0165  0.6577  0.3848
 2669SOL    HW119469   1.254   2.297   9.628  1.2933 -0.2858  2.1262
 2669SOL    HW219470   1.318   2.427   9.677  1.1334 -1.2190 -0.6851
 2670SOL     OW19471   1.205   0.048   6.796 -0.1348 -0.6280 -0.0853
 2670SOL    HW119472   1.130   0.051   6.737 -0.4646 -2.2147  0.2465
 2670SOL    HW219473   1.198   4.687   6.841  2.5983 -1.7713 -1.8216
 2671SOL     OW19474   2.135   3.043   4.572  0.0944 -0.1348  0.5030
 2671SOL    HW119475   2.068   2.977   4.561  0.2356 -0.3139  0.7170
 2671SOL    HW219476   2.208   2.998   4.614 -0.2410 -0.4485  0.7489
 2672SOL     OW19477   4.561   0.666  10.682 -0.4109 -0.1288 -0.0043
 2672SOL    HW119478   4.587   0.594  10.738 -2.1030 -1.4451 -0.9079
 2672SOL    HW219479   4.465   0.670  10.676 -0.5624 -1.6911  1.3516
 2673SOL     OW19480   0.624   2.637   6.114 -0.5583 -0.3852  0.4478
 2673SOL    HW119481   0.550   2.595   6.071  0.3276 -1.4788 -0.0278
 2673SOL    HW219482   0.671   2.678   6.042 -0.5062  0.4792  0.9735
 2674SOL     OW19483   0.253   1.383   4.142 -0.4719 -0.3845 -0.7258
 2674SOL    HW119484   0.249   1.427   4.057  0.7423 -0.1082 -0.6456
 2674SOL    HW219485   0.314   1.314   4.116  1.4818  1.3223 -0.6365
 2675SOL     OW19486   4.181   2.964  14.530 -0.0747  0.4077  0.1066
 2675SOL    HW119487   4.220   3.038  14.484  1.8753 -0.2226  0.7423
 2675SOL    HW219488   4.253   2.915  14.568 -0.1956  1.9987  2.3692
 2676SOL     OW19489   3.223   4.630   0.360 -0.5694 -0.0475 -0.4224
 2676SOL    HW119490   3.171   4.689   0.306  0.2496  0.9167 -0.1657
 2676SOL    HW219491   3.254   4.693   0.425 -2.1354  0.5537 -0.2695
 2677SOL     OW19492   3.767   4.038   0.187  0.2815 -0.1872  0.5290
 2677SOL    HW119493   3.694   4.017   0.129  0.7937 -0.1548 -0.1386
 2677SOL    HW219494   3.733   4.028   0.275  1.6722  1.2830  1.2351
 2678SOL     OW19495   1.345   1.538   0.845 -0.2943  0.4339  0.2090
 2678SOL    HW119496   1.352   1.633   0.835  1.8004  0.3957  1.3561
 2678SOL    HW219497   1.424   1.528   0.897  1.1214  0.4770 -1.9565
 2679SOL     OW19498   2.891   0.821   3.422 -0.2882 -0.4002  0.6412
 2679SOL    HW119499   2.920   0.805   3.332  0.1101 -0.5552  0.7949
 2679SOL    HW219500   2.861   0.912   3.418 -1.6052 -0.8145  1.1447
 2680SOL     OW19501   2.010   0.290  10.708  0.1359  0.2277  0.7066
 2680SOL    HW119502   2.080   0.351  10.732  0.3179  0.7697 -1.2715
 2680SOL    HW219503   2.041   0.210  10.751 -2.0106 -0.8195  0.3176
 2681SOL     OW19504   0.986   2.733  13.946 -0.0605  0.1530 -0.1093
 2681SOL    HW119505   1.034   2.716  13.865  1.1575  0.2137  0.6085
 2681SOL    HW219506   0.896   2.749  13.918  0.1023 -1.2126 -1.4214
 2682SOL     OW19507   1.461   4.552   5.006 -0.4273  0.6869  0.3648
 2682SOL    HW119508   1.407   4.619   4.964 -0.9613  0.3954  0.5869
 2682SOL    HW219509   1.548   4.567   4.970  0.1315 -1.0596  0.9924
 2683SOL     OW19510   0.351   0.544   7.457 -0.3719  0.6445  0.4213
 2683SOL    HW119511   0.352   0.453   7.427 -2.3558  0.6255  0.3907
 2683SOL    HW219512   0.264   0.578   7.436 -1.2733 -2.4719 -0.9809
 2684SOL     OW19513   1.865   3.838   7.753 -0.0541  0.2592 -0.7833
 2684SOL    HW119514   1.846   3.810   7.842  1.6586 -2.6185 -1.3534
 2684SOL    HW219515   1.778   3.833   7.713  0.0121  0.1249 -0.9095
 2685SOL     OW19516   3.135   4.664   7.721  0.2478 -0.1240  0.0276
 2685SOL    HW119517   3.079   0.015   7.746  1.6868  1.4653 -1.4493
 2685SOL    HW219518   3.201   4.709   7.668 -0.5615 -3.3714 -3.7726
 2686SOL     OW19519   2.961   3.401   7.241  0.8040 -0.1997 -0.6351
 2686SOL    HW119520   2.880   3.452   7.235  0.9310  0.1255  0.3991
 2686SOL    HW219521   2.994   3.412   7.152  1.6394 -1.8763 -0.5307
 2687SOL     OW19522   0.006   3.525   7.711  0.2808 -0.9304  0.3003
 2687SOL    HW119523   4.719   3.611   7.670  2.7436 -0.2068  1.2259
 2687SOL    HW219524   4.638   3.496   7.721  0.0415 -0.9928 -1.9971
 2688SOL     OW19525   0.322   3.149  13.598 -0.4620 -0.4934  0.3686
 2688SOL    HW119526   0.264   3.175  13.526 -0.8715 -2.0236  0.1552
 2688SOL    HW219527   0.306   3.055  13.599 -0.5123 -0.4833  0.5943
 2689SOL     OW19528   4.702   2.307   6.942  0.0496 -0.6559 -0.2519
 2689SOL    HW119529   4.609   2.297   6.961  0.5251 -3.7905  0.4524
 2689SOL    HW219530   4.721   2.216   6.965  0.8266 -1.1457 -2.9003
 2690SOL     OW19531   2.438   4.371  11.370  0.4798  0.0364 -0.1992
 2690SOL    HW119532   2.440   4.467  11.374  1.1409  0.0670 -1.2847
 2690SOL    HW219533   2.346   4.355  11.350  0.4567  0.3985 -0.3835
 2691SOL     OW19534   2.758   4.353  14.813 -0.1003  0.3727  0.3859
 2691SOL    HW119535   2.710   4.388  14.888 -1.1134 -2.4355  1.0647
 2691SOL    HW219536   2.813   4.294  14.865  2.9405  2.2223 -0.7071
 2692SOL     OW19537   2.690   3.712  14.707 -0.2913  0.3717 -0.2121
 2692SOL    HW119538   2.654   3.799  14.724  0.1223  0.4548  0.2505
 2692SOL    HW219539   2.746   3.724  14.631  0.7455  0.2281  0.5290
 2693SOL     OW19540   0.841   4.309   2.418  0.0330  0.1402 -0.2482
 2693SOL    HW119541   0.785   4.382   2.442  1.6437  1.3857 -0.2774
 2693SOL    HW219542   0.781   4.240   2.388 -0.6371  1.8279 -2.7561
 2694SOL     OW19543   2.047   0.579   1.836 -0.3596  0.8581  0.2654
 2694SOL    HW119544   1.990   0.503   1.828 -2.2899  2.1063  2.2398
 2694SOL    HW219545   2.086   0.584   1.749  0.0024 -0.2390  0.3630
 2695SOL     OW19546   0.829   3.910  10.968  0.6272  0.0733  0.0331
 2695SOL    HW119547   0.789   3.830  10.935  1.1122  1.1797 -3.2592
 2695SOL    HW219548   0.775   3.969  10.915  0.9410 -0.7344 -1.1895
 2696SOL     OW19549   3.782   0.234   4.754  0.3488  0.4115 -0.2348
 2696SOL    HW119550   3.719   0.284   4.806  1.2095 -0.3553  1.5284
 2696SOL    HW219551   3.761   0.146   4.784 -0.4920  0.1099 -1.7165
 2697SOL     OW19552   3.376   2.265   3.585  0.4201  0.4645  0.1353
 2697SOL    HW119553   3.357   2.189   3.530 -1.3785  0.0939  1.2568
 2697SOL    HW219554   3.440   2.311   3.531  0.3020  1.3979  0.7870
 2698SOL     OW19555   1.806   1.138   8.014 -0.0778 -0.0658  1.2409
 2698SOL    HW119556   1.900   1.151   8.006 -0.0257 -0.6115  0.9902
 2698SOL    HW219557   1.789   1.103   7.926 -1.4131  0.8415  1.1326
 2699SOL     OW19558   4.452   2.520   1.717 -0.2369  0.0579  0.0766
 2699SOL    HW119559   4.412   2.529   1.803  0.3514  2.7078  0.0761
 2699SOL    HW219560   4.505   2.599   1.704  1.7291 -1.3755 -0.5894
 2700SOL     OW19561   2.987   4.654  17.285 -0.0671  0.4013 -0.1995
 2700SOL    HW119562   3.062   4.657  17.226  0.2045  2.5825  0.2418
 2700SOL    HW219563   2.965   0.024  17.297 -1.2273  0.3648 -2.0963
 2701SOL     OW19564   3.342   2.404  10.037  0.0828 -0.2461 -0.2104
 2701SOL    HW119565   3.392   2.415  10.118 -1.6257  1.7967  0.5658
 2701SOL    HW219566   3.396   2.349   9.981  0.1668 -0.6455  0.2607
 2702SOL     OW19567   4.622   1.573  16.908 -0.3198 -0.9326  0.1668
 2702SOL    HW119568   4.624   1.588  16.813  0.4181  0.1838  0.3673
 2702SOL    HW219569   4.672   1.647  16.941 -1.0704 -1.2325  1.9549
 2703SOL     OW19570   2.177   4.389  10.399 -0.2619  0.0259  0.5487
 2703SOL    HW119571   2.117   4.430  10.337  2.7545 -0.2940 -2.6328
 2703SOL    HW219572   2.138   4.411  10.483 -1.4816 -5.0259  1.2884
 2704SOL     OW19573   3.013   2.966   4.724 -0.0765  0.0257  0.1363
 2704SOL    HW119574   3.078   3.035   4.741  1.2487 -0.8398 -1.3527
 2704SOL    HW219575   2.957   2.970   4.801 -1.8671  0.3837 -1.1867
 2705SOL     OW19576   1.655   1.089   0.798  0.4890 -0.3392  0.9061
 2705SOL    HW119577   1.726   1.152   0.780 -1.0717  0.8387 -1.2018
 2705SOL    HW219578   1.705   1.011   0.773 -0.0416 -0.3324 -0.2119
 2706SOL     OW19579   2.372   1.435   6.204 -0.2927 -0.1727  0.1042
 2706SOL    HW119580   2.340   1.398   6.121  2.8009  0.5780 -1.4095
 2706SOL    HW219581   2.331   1.382   6.272  2.4700  0.5298  2.2860
 2707SOL     OW19582   3.738   3.196   9.493 -0.3416  0.2630  0.4404
 2707SOL    HW119583   3.659   3.146   9.512 -0.2315 -0.1830 -0.2596
 2707SOL    HW219584   3.760   3.176   9.402 -0.4873  1.0174  0.2429
 2708SOL     OW19585   2.091   2.767   3.631 -0.1276 -0.2524 -0.5463
 2708SOL    HW119586   2.073   2.677   3.660 -0.3574  0.3704  1.2640
 2708SOL    HW219587   2.053   2.768   3.543  0.1245  0.0580 -0.6527
 2709SOL     OW19588   4.233   1.434   4.644 -0.1876  0.2990  0.4918
 2709SOL    HW119589   4.170   1.499   4.613  0.3521 -0.5681 -2.3824
 2709SOL    HW219590   4.276   1.477   4.719 -0.3903  1.2427  0.0721
 2710SOL     OW19591   0.728   3.533  14.081  0.0275  0.4000 -0.4252
 2710SOL    HW119592   0.787   3.513  14.009 -2.1468 -1.0781 -1.7982
 2710SOL    HW219593   0.641   3.505  14.053  1.0531 -0.2269 -2.9522
 2711SOL     OW19594   3.982   2.631   4.766 -0.4393 -0.6259 -0.3508
 2711SOL    HW119595   3.938   2.626   4.682  2.9411  1.2670 -2.2356
 2711SOL    HW219596   3.905   2.631   4.823 -0.4954 -1.7699 -0.4384
 2712SOL     OW19597   1.999   2.017   5.129 -0.0760 -0.3872  0.0349
 2712SOL    HW119598   1.983   1.984   5.217 -0.7362  1.6630  0.7065
 2712SOL    HW219599   1.965   2.106   5.145  4.2855  1.1736  0.5976
 2713SOL     OW19600   1.441   3.637  10.228  0.1975  0.0238  0.2691
 2713SOL    HW119601   1.456   3.671  10.140  1.1484 -1.6115 -0.2110
 2713SOL    HW219602   1.527   3.644  10.270 -0.8515  0.9076  2.2195
 2714SOL     OW19603   2.151   3.327   5.742 -0.0095  0.5809 -0.0047
 2714SOL    HW119604   2.161   3.274   5.821  1.9234  2.0380  0.7318
 2714SOL    HW219605   2.063   3.292   5.727  0.6264 -0.3496 -1.6298
 2715SOL     OW19606   2.408   4.012   6.772  0.0992 -0.4068  0.8779
 2715SOL    HW119607   2.482   4.073   6.769  1.4806 -2.0803  1.2853
 2715SOL    HW219608   2.334   4.073   6.762  1.2322  0.4703 -2.1653
 2716SOL     OW19609   2.478   2.645   9.437  0.2758  0.1159  0.0397
 2716SOL    HW119610   2.542   2.658   9.507  1.7895  2.1476 -1.6899
 2716SOL    HW219611   2.408   2.710   9.440 -0.7499 -0.9319 -1.4725
 2717SOL     OW19612   0.335   1.618   8.460 -0.2809 -0.4921 -0.4560
 2717SOL    HW119613   0.309   1.625   8.551  2.7964 -2.0764  0.5607
 2717SOL    HW219614   0.430   1.616   8.471 -0.3880  0.9114  0.6532
 2718SOL     OW19615   0.220   3.638   4.821 -0.2179 -0.6524 -0.7419
 2718SOL    HW119616   0.168   3.709   4.784 -2.8237 -1.2736  1.7660
 2718SOL    HW219617   0.217   3.676   4.909  2.3671  0.4055 -1.1011
 2719SOL     OW19618   4.696   0.122   7.626 -0.1880 -0.3012  0.3605
 2719SOL    HW119619   4.691   0.034   7.664  1.6661 -0.3484  0.4821
 2719SOL    HW219620   0.055   0.147   7.667  0.1717 -0.3399 -0.3326
 2720SOL     OW19621   1.091   3.128   6.402  0.3860  0.2260 -0.1672
 2720SOL    HW119622   1.008   3.178   6.401  0.3053  0.1383  1.3513
 2720SOL    HW219623   1.057   3.052   6.355  0.4637  0.2456 -0.2548
 2721SOL     OW19624   2.284   3.733   2.704 -0.3506  0.0674 -0.0618
 2721SOL    HW119625   2.222   3.660   2.711  1.7469 -1.7125  0.2355
 2721SOL    HW219626   2.234   3.814   2.711  1.3368  1.1755 -0.9563
 2722SOL     OW19627   3.032   1.982   9.461  0.1582 -0.4553 -0.1599
 2722SOL    HW119628   3.007   2.074   9.448  1.0900 -0.0139  1.1416
 2722SOL    HW219629   2.969   1.936   9.406 -1.4893  0.1059  1.2701
 2723SOL     OW19630   3.087   1.383   8.113 -0.3189 -0.1061  0.3742
 2723SOL    HW119631   3.043   1.466   8.133 -1.0450 -0.2296 -0.6613
 2723SOL    HW219632   3.113   1.401   8.022  0.9389  0.6654  0.8989
 2724SOL     OW19633   0.208   0.641   8.154  0.0788 -0.7536 -0.0454
 2724SOL    HW119634   0.244   0.677   8.235 -1.1981  1.0019 -0.2732
 2724SOL    HW219635   0.242   0.553   8.172  0.6383 -0.4845  0.2149
 2725SOL     OW19636   3.554   2.488   7.427 -0.2024 -0.1240 -0.8846
 2725SOL    HW119637   3.649   2.497   7.417 -0.1079  1.2744  1.2662
 2725SOL    HW219638   3.528   2.539   7.351 -0.7568  0.8376 -0.0469
 2726SOL     OW19639   1.457   1.569   2.052  0.7066  0.0728 -0.4415
 2726SOL    HW119640   1.423   1.657   2.069  0.5042 -0.1111  0.1045
 2726SOL    HW219641   1.389   1.527   2.000 -2.0057  1.3810  2.0498
 2727SOL     OW19642   2.322   4.605  12.547  0.6866  0.0323  0.5321
 2727SOL    HW119643   2.301   4.650  12.629 -1.0358  0.0563  0.0910
 2727SOL    HW219644   2.285   4.517  12.558  0.1536  0.2036  0.1336
 2728SOL     OW19645   3.384   4.446   0.573 -0.1582 -0.2341  0.0484
 2728SOL    HW119646   3.368   4.540   0.587  1.3825 -0.1341  1.1079
 2728SOL    HW219647   3.340   4.411   0.651 -0.3457  1.5313  0.7469
 2729SOL     OW19648   1.746   1.001  13.624  1.7939  0.6410  0.4762
 2729SOL    HW119649   1.670   0.955  13.590  1.7975  1.2438 -0.3347
 2729SOL    HW219650   1.808   0.971  13.558 -0.1712 -1.3811 -0.4467
 2730SOL     OW19651   0.142   1.103   7.616 -0.0873 -0.1168  0.4288
 2730SOL    HW119652   0.218   1.061   7.576 -1.4521 -0.2108 -2.0177
 2730SOL    HW219653   0.167   1.195   7.611  0.0993 -0.2646 -1.4157
 2731SOL     OW19654   1.971   4.163   8.491  0.5842  0.0172 -0.3886
 2731SOL    HW119655   2.039   4.100   8.518 -0.2409 -0.4963  0.4947
 2731SOL    HW219656   2.015   4.193   8.412 -1.1769  1.4213 -0.8288
 2732SOL     OW19657   4.536   4.064   2.806  0.3348 -0.2840  0.3251
 2732SOL    HW119658   4.487   4.123   2.864  2.4609  2.8981 -1.1575
 2732SOL    HW219659   4.615   4.115   2.787  0.1500  0.0927  0.5590
 2733SOL     OW19660   3.740   2.944   3.274  0.2986  0.0896  0.6195
 2733SOL    HW119661   3.666   2.921   3.331  0.6494  0.2311  1.1361
 2733SOL    HW219662   3.811   2.947   3.337  1.0975 -1.3177 -0.2162
 2734SOL     OW19663   3.403   3.581   6.610 -0.0683  0.6315 -0.5125
 2734SOL    HW119664   3.364   3.616   6.690  0.1420  1.7374 -0.9002
 2734SOL    HW219665   3.367   3.636   6.540 -3.3134  1.6743  2.0286
 2735SOL     OW19666   3.086   1.281   3.528 -0.0826 -0.1367 -0.4128
 2735SOL    HW119667   3.060   1.346   3.464 -0.8669  0.2457  0.3105
 2735SOL    HW219668   3.090   1.204   3.470  1.5727  0.6104 -1.2831
 2736SOL     OW19669   0.886   0.388   5.678 -0.3915  0.1716  0.0817
 2736SOL    HW119670   0.924   0.312   5.724  0.2593 -1.4128 -3.1110
 2736SOL    HW219671   0.852   0.439   5.752 -0.4387  0.2542  0.0022
 2737SOL     OW19672   4.442   3.310  12.734  0.1803  0.7837 -0.0111
 2737SOL    HW119673   4.434   3.395  12.778  1.1200  1.6078 -1.4231
 2737SOL    HW219674   4.415   3.240  12.793  2.4366  0.2146  0.3742
 2738SOL     OW19675   0.192   3.566   1.892  0.1336  0.3394  0.0773
 2738SOL    HW119676   0.272   3.514   1.885  0.3249  1.0405 -2.9192
 2738SOL    HW219677   0.136   3.526   1.825 -2.3614  0.4980  2.0956
 2739SOL     OW19678   3.876   1.822  13.879  0.1947 -0.2175 -0.5448
 2739SOL    HW119679   3.925   1.887  13.829  0.2260  0.7572  0.7612
 2739SOL    HW219680   3.820   1.870  13.940 -0.5897 -1.7203 -0.0755
 2740SOL     OW19681   0.109   4.547   2.870  0.1054  0.3309 -0.1369
 2740SOL    HW119682   0.080   4.533   2.960  1.3246  0.3208  0.2583
 2740SOL    HW219683   0.071   4.635   2.859  2.6848  1.5766  0.9013
 2741SOL     OW19684   0.503   3.538   0.325 -0.1699  0.1067 -0.3414
 2741SOL    HW119685   0.470   3.557   0.237 -2.5002 -2.1319  0.0503
 2741SOL    HW219686   0.440   3.470   0.349  0.7376 -0.3208  0.8558
 2742SOL     OW19687   1.151   0.110  12.959 -0.4664 -0.3766  0.1741
 2742SOL    HW119688   1.170   0.017  12.944 -0.0165 -0.4950  1.4610
 2742SOL    HW219689   1.108   0.103  13.044 -1.0905  1.2295 -0.0126
 2743SOL     OW19690   1.468   0.654   9.704  0.1762  0.6562 -0.2751
 2743SOL    HW119691   1.487   0.564   9.729 -0.5783  0.5650 -0.0111
 2743SOL    HW219692   1.401   0.657   9.635 -1.1392 -2.1053  0.8928
 2744SOL     OW19693   2.534   1.242   4.375 -0.1496  0.4603  0.1489
 2744SOL    HW119694   2.513   1.150   4.355  0.2360  0.0838  1.4692
 2744SOL    HW219695   2.462   1.290   4.335  2.0703  3.6310 -0.0352
 2745SOL     OW19696   0.964   2.470   4.622  0.0523  0.3383 -0.0843
 2745SOL    HW119697   1.016   2.392   4.639  0.9867  0.9761 -0.0275
 2745SOL    HW219698   1.011   2.551   4.645 -0.4081  0.2123  1.3187
 2746SOL     OW19699   4.218   1.695  16.638  0.1680 -0.1321  0.3452
 2746SOL    HW119700   4.305   1.733  16.627  0.7457 -1.3254  0.7741
 2746SOL    HW219701   4.258   1.644  16.708 -0.5442 -1.0535  0.0944
 2747SOL     OW19702   4.008   2.881   8.598  0.4974  0.2718 -0.2577
 2747SOL    HW119703   3.983   2.810   8.538  2.1543 -1.7531  1.4258
 2747SOL    HW219704   4.057   2.833   8.666 -0.0260  0.7471  0.4513
 2748SOL     OW19705   3.425   1.995  12.269  0.0589  0.3438 -0.3617
 2748SOL    HW119706   3.394   2.079  12.235  0.2607  0.3042 -0.6478
 2748SOL    HW219707   3.416   2.009  12.363  2.1013 -2.3914  0.2532
 2749SOL     OW19708   3.152   1.063   6.391  0.0445  0.0841  0.2026
 2749SOL    HW119709   3.135   1.029   6.479 -0.2794 -0.5629 -0.1153
 2749SOL    HW219710   3.143   1.157   6.408  0.0823  0.1715 -0.2689
 2750SOL     OW19711   3.893   2.663  15.976 -0.2730  0.7331 -0.6493
 2750SOL    HW119712   3.976   2.682  15.931  0.9157 -1.9787  0.3552
 2750SOL    HW219713   3.926   2.586  16.023  4.0508  2.1545 -1.3295
 2751SOL     OW19714   1.809   4.297   8.246 -0.1749  0.0332 -0.3801
 2751SOL    HW119715   1.829   4.364   8.312 -0.2728 -2.5819  2.3167
 2751SOL    HW219716   1.886   4.307   8.190 -0.1758 -0.8013 -0.5277
 2752SOL     OW19717   1.333   0.168   8.446 -0.5009  0.3004  0.5295
 2752SOL    HW119718   1.349   0.075   8.462  2.0250  0.7255  0.5389
 2752SOL    HW219719   1.370   0.179   8.358 -2.1389 -0.0276 -0.2101
 2753SOL     OW19720   2.146   2.691   7.494 -0.0782  0.7245 -0.3740
 2753SOL    HW119721   2.227   2.673   7.542 -0.0041  0.0873 -0.7383
 2753SOL    HW219722   2.172   2.639   7.418  0.6497  0.0522  0.3337
 2754SOL     OW19723   1.149   1.885   2.887  0.0720  0.9670 -0.3120
 2754SOL    HW119724   1.064   1.847   2.864  0.7365 -1.1973  0.8118
 2754SOL    HW219725   1.199   1.882   2.806  2.4619  3.0896  1.0645
 2755SOL     OW19726   1.953   3.027   8.043 -0.2800 -0.2962  0.3781
 2755SOL    HW119727   1.955   2.935   8.015  1.2735 -0.4056  0.8815
 2755SOL    HW219728   2.045   3.051   8.030 -0.1253 -0.0171  2.0004
 2756SOL     OW19729   1.396   3.111  16.526 -0.0063 -0.8374  0.6360
 2756SOL    HW119730   1.338   3.062  16.467 -0.3704  1.1202 -0.6247
 2756SOL    HW219731   1.445   3.161  16.461 -0.9651  0.3714  0.8349
 2757SOL     OW19732   4.019   2.875  14.344  0.3483 -0.2037  0.2367
 2757SOL    HW119733   4.066   2.894  14.426 -1.6210 -0.6719  1.4605
 2757SOL    HW219734   4.014   2.963  14.307 -2.4846  0.0091  1.1595
 2758SOL     OW19735   3.751   4.325  13.458  0.3351 -0.2480 -0.4231
 2758SOL    HW119736   3.666   4.361  13.485  1.4609  1.9191  0.2320
 2758SOL    HW219737   3.727   4.238  13.426  1.1111 -0.4587 -0.4206
 2759SOL     OW19738   3.066   2.151  14.402  0.3779 -0.4142 -0.3194
 2759SOL    HW119739   3.150   2.188  14.427  1.3212 -3.7517  1.4946
 2759SOL    HW219740   3.055   2.193  14.317 -0.7966 -0.5498 -0.2374
 2760SOL     OW19741   2.299   1.357   5.954 -0.1006 -0.6715  0.1370
 2760SOL    HW119742   2.232   1.291   5.975 -0.7788  0.7650  2.5670
 2760SOL    HW219743   2.269   1.383   5.867 -0.4160  0.3124  0.5431
 2761SOL     OW19744   3.916   2.424   9.165  0.6171 -0.0041 -0.4795
 2761SOL    HW119745   3.914   2.346   9.221 -0.7421 -0.8421 -1.6898
 2761SOL    HW219746   3.947   2.483   9.233  0.2708 -0.2508 -0.1026
 2762SOL     OW19747   0.868   3.668   8.977 -0.2613 -0.3623 -0.0718
 2762SOL    HW119748   0.925   3.638   8.906 -1.0339  0.5545 -1.0747
 2762SOL    HW219749   0.797   3.606   8.961 -0.5762  0.7146 -2.8230
 2763SOL     OW19750   1.567   4.572   8.850  0.4481  0.3815 -0.2099
 2763SOL    HW119751   1.641   4.619   8.888 -0.6111  2.0023 -0.1793
 2763SOL    HW219752   1.613   4.520   8.784  1.5562  1.1067 -0.0101
 2764SOL     OW19753   2.082   3.014  10.727  0.3041 -0.2977 -0.1011
 2764SOL    HW119754   2.110   3.066  10.802  0.2299  0.1440 -0.3792
 2764SOL    HW219755   1.989   3.015  10.746 -0.0510  0.6234 -1.8628
 2765SOL     OW19756   3.845   2.809   2.534  0.4469 -0.2903  0.9841
 2765SOL    HW119757   3.830   2.766   2.618  0.0059 -0.5681  0.7621
 2765SOL    HW219758   3.899   2.888   2.541 -0.3485  0.1387  2.2861
 2766SOL     OW19759   0.864   4.712  10.255  0.1203 -0.0792 -0.0068
 2766SOL    HW119760   0.839   4.682  10.168 -0.5837 -1.5618  0.7024
 2766SOL    HW219761   0.959   4.698  10.259  0.1751  0.5099  0.6820
 2767SOL     OW19762   2.214   0.143   6.783  0.3586  0.1277  0.5358
 2767SOL    HW119763   2.232   0.053   6.757 -0.2470  0.2278 -0.2290
 2767SOL    HW219764   2.129   0.131   6.824  0.3660 -2.3369 -0.1956
 2768SOL     OW19765   3.880   2.458   2.573  0.0407  0.1941  0.0194
 2768SOL    HW119766   3.863   2.422   2.485 -0.8255  0.9589 -0.1292
 2768SOL    HW219767   3.898   2.548   2.546  1.2714  0.2433  1.0382
 2769SOL     OW19768   0.966   4.582   9.364  0.5396  0.2623 -0.4243
 2769SOL    HW119769   0.996   4.552   9.278  1.5643 -1.4015  0.4940
 2769SOL    HW219770   1.017   4.661   9.381  2.5335 -0.8126 -1.4022
 2770SOL     OW19771   0.027   3.433   3.524  0.3005  0.3810 -0.3807
 2770SOL    HW119772   4.700   3.386   3.456 -1.2308  0.4478  0.6961
 2770SOL    HW219773   0.118   3.418   3.502  0.1643  0.0952 -0.7503
 2771SOL     OW19774   4.193   3.484  10.678 -0.4305  0.1804 -0.0164
 2771SOL    HW119775   4.177   3.532  10.759  1.2177  2.4791 -1.0498
 2771SOL    HW219776   4.277   3.527  10.663  0.6619 -2.3146 -1.0564
 2772SOL     OW19777   1.948   3.309   4.479 -0.0912  0.0532  0.5865
 2772SOL    HW119778   1.873   3.363   4.506 -0.7556  0.0140 -1.2310
 2772SOL    HW219779   1.990   3.370   4.419 -0.2185 -1.0209 -0.5827
 2773SOL     OW19780   0.257   2.088   2.368 -0.4530 -0.1972 -0.1159
 2773SOL    HW119781   0.250   2.170   2.319 -0.6781  0.6019  1.2395
 2773SOL    HW219782   0.224   2.022   2.307 -0.6585  0.5358 -0.7964
 2774SOL     OW19783   1.842   3.962   2.221  0.0529 -0.2913  0.1815
 2774SOL    HW119784   1.821   3.869   2.232  0.0823 -0.2506  0.5808
 2774SOL    HW219785   1.872   3.975   2.131 -0.1504 -1.4993 -0.0607
 2775SOL     OW19786   1.617   3.259   4.713 -0.5051  0.1533  0.5514
 2775SOL    HW119787   1.532   3.271   4.756  0.2117 -0.1460  2.0140
 2775SOL    HW219788   1.631   3.341   4.665  2.4209 -0.6056  0.1262
 2776SOL     OW19789   3.802   0.313   8.216 -0.1182  0.6337 -0.0840
 2776SOL    HW119790   3.759   0.230   8.196 -0.4589  1.1960 -1.7025
 2776SOL    HW219791   3.880   0.305   8.162  1.0638  0.7482  1.6118
 2777SOL     OW19792   3.751   0.503   6.028 -0.7734  0.3583 -0.1202
 2777SOL    HW119793   3.772   0.581   6.079  2.1712 -0.1944 -0.4527
 2777SOL    HW219794   3.763   0.538   5.939 -0.8513  0.8248  0.0567
 2778SOL     OW19795   0.899   3.449  14.313 -0.0556  0.1117  0.1090
 2778SOL    HW119796   0.889   3.481  14.223  2.1316 -0.0351 -0.1761
 2778SOL    HW219797   0.822   3.395  14.327 -1.7253  2.5630  0.3964
 2779SOL     OW19798   2.115   3.541   8.201 -0.4281  0.0151  0.5052
 2779SOL    HW119799   2.058   3.587   8.263 -1.1725 -0.0390 -0.1371
 2779SOL    HW219800   2.100   3.448   8.216 -0.4347 -0.3053 -1.5606
 2780SOL     OW19801   3.625   3.201   1.551  0.2206 -0.1288 -0.5640
 2780SOL    HW119802   3.614   3.191   1.457 -0.2356  1.8961 -0.7308
 2780SOL    HW219803   3.643   3.294   1.564 -1.8493  0.0129  1.3163
 2781SOL     OW19804   0.620   0.677   3.939 -0.3352  0.4034 -0.1981
 2781SOL    HW119805   0.674   0.742   3.983  1.0112 -3.2461  3.5098
 2781SOL    HW219806   0.569   0.646   4.014  0.7644  0.0532  0.3909
 2782SOL     OW19807   1.071   0.238  14.141  0.3849  0.1305  0.2232
 2782SOL    HW119808   1.092   0.280  14.225 -0.5385 -0.3204  0.6831
 2782SOL    HW219809   0.977   0.255  14.143  0.0252 -1.8746  0.5120
 2783SOL     OW19810   0.122   1.306   7.950  0.0413 -0.4599  0.1192
 2783SOL    HW119811   0.105   1.309   8.044  1.4383  2.8740  0.2516
 2783SOL    HW219812   0.115   1.211   7.934  1.3302 -0.0951 -2.5786
 2784SOL     OW19813   0.434   3.409  12.410  0.5972  0.1739 -0.1252
 2784SOL    HW119814   0.467   3.477  12.467 -1.3660  0.1709  1.0174
 2784SOL    HW219815   0.505   3.379  12.353  1.0047 -1.2758  1.1495
 2785SOL     OW19816   2.966   4.118  17.272 -0.3151 -0.4666 -0.1870
 2785SOL    HW119817   3.014   4.196  17.301  0.2242 -0.9619  0.2583
 2785SOL    HW219818   2.880   4.151  17.245  0.0754 -0.2921 -1.2157
 2786SOL     OW19819   3.469   1.072   5.821 -0.0176 -0.8966 -0.1131
 2786SOL    HW119820   3.395   1.130   5.837 -0.2306 -1.1927 -0.0261
 2786SOL    HW219821   3.475   1.077   5.725  0.0268  0.6881 -0.0351
 2787SOL     OW19822   3.496   3.912   3.032 -0.0024  0.4627 -0.1968
 2787SOL    HW119823   3.404   3.925   3.009  0.4756 -0.1781 -2.4891
 2787SOL    HW219824   3.523   3.997   3.067  0.1928 -0.4781  1.9291
 2788SOL     OW19825   2.582   4.579  13.487 -0.3566  0.8417  0.3405
 2788SOL    HW119826   2.592   4.498  13.536  1.5792 -1.3649 -3.7059
 2788SOL    HW219827   2.644   4.559  13.417 -1.4594  0.2016 -0.4534
 2789SOL     OW19828   4.261   4.605   4.285  0.0993 -0.7129  0.3603
 2789SOL    HW119829   4.232   4.663   4.214  0.1504  0.1485  1.0367
 2789SOL    HW219830   4.190   4.541   4.289  0.2344 -0.7806  1.8354
 2790SOL     OW19831   2.254   1.455  13.609  0.4026 -0.0390  0.2428
 2790SOL    HW119832   2.172   1.416  13.639  1.2198 -1.1956  0.9659
 2790SOL    HW219833   2.233   1.548  13.607 -0.5741 -0.2605  0.3889
 2791SOL     OW19834   1.295   3.523   7.579  0.7779 -0.3899  0.0518
 2791SOL    HW119835   1.314   3.615   7.559  2.0186 -0.8704 -0.9676
 2791SOL    HW219836   1.387   3.500   7.587  0.2295 -1.6891  2.6684
 2792SOL     OW19837   2.811   1.577   5.427  0.3927  0.1386  0.0825
 2792SOL    HW119838   2.775   1.602   5.342  1.8214  1.1798 -0.2046
 2792SOL    HW219839   2.742   1.613   5.483 -1.6842 -0.7304 -1.9408
 2793SOL     OW19840   1.314   0.760   3.962  0.0528  0.4875  0.0583
 2793SOL    HW119841   1.227   0.722   3.954  1.2136 -1.7528 -1.5288
 2793SOL    HW219842   1.319   0.804   3.878 -0.1348  1.8501  0.7514
 2794SOL     OW19843   4.308   3.830   6.611  0.1335  0.4102  0.2064
 2794SOL    HW119844   4.290   3.737   6.602 -2.8212  0.8365  1.9167
 2794SOL    HW219845   4.228   3.859   6.653  0.2878 -2.2616  2.3301
 2795SOL     OW19846   4.033   4.359  13.201 -0.2370  0.0345 -0.1863
 2795SOL    HW119847   4.032   4.438  13.147 -0.7993 -0.3411 -0.7216
 2795SOL    HW219848   4.032   4.291  13.134 -0.4380 -0.8292  0.6943
 2796SOL     OW19849   2.639   2.461   3.252  0.1438  0.2179  0.8017
 2796SOL    HW119850   2.726   2.492   3.277  0.3136  1.0670 -0.8221
 2796SOL    HW219851   2.669   2.375   3.221 -2.0107 -0.1243 -0.3327
 2797SOL     OW19852   3.417   0.503   5.653 -0.4936  0.3008  0.0753
 2797SOL    HW119853   3.394   0.551   5.733  2.8215  2.1543 -0.0485
 2797SOL    HW219854   3.490   0.451   5.689 -1.8708  0.7806  3.5987
 2798SOL     OW19855   3.344   4.572   4.308 -0.3760  0.0383 -0.5233
 2798SOL    HW119856   3.327   4.666   4.298 -1.4752 -0.3116 -2.0115
 2798SOL    HW219857   3.267   4.535   4.351 -1.2473  0.3709 -1.7997
 2799SOL     OW19858   0.669   3.858   2.664  0.4076  0.0562 -0.4073
 2799SOL    HW119859   0.659   3.917   2.739 -1.3044 -0.5151 -0.1858
 2799SOL    HW219860   0.583   3.817   2.673  0.0533  0.7375 -0.6727
 2800SOL     OW19861   2.253   0.352   9.784  0.1640 -0.1269 -0.1932
 2800SOL    HW119862   2.332   0.368   9.835  0.6676 -0.0390 -1.0151
 2800SOL    HW219863   2.231   0.259   9.790  0.6810 -0.1619  1.1797
 2801SOL     OW19864   3.763   2.146  12.408 -0.0948 -0.3928 -0.4148
 2801SOL    HW119865   3.809   2.230  12.407 -3.4305  1.4487 -0.4780
 2801SOL    HW219866   3.786   2.110  12.322 -1.3050 -0.4068 -0.7369
 2802SOL     OW19867   2.883   0.399   3.844  0.5011 -0.0428 -0.7092
 2802SOL    HW119868   2.965   0.396   3.894  0.2027  2.9455 -0.0159
 2802SOL    HW219869   2.831   0.450   3.906  1.1441  0.6948 -0.7673
 2803SOL     OW19870   4.025   3.706  17.311  0.1526 -0.7254 -0.6339
 2803SOL    HW119871   3.943   3.719  17.263  1.4845  0.5490 -2.5548
 2803SOL    HW219872   4.045   3.616  17.284 -1.2272 -1.0039 -0.7479
 2804SOL     OW19873   2.190   4.332   3.218 -0.2617  0.0743  0.5981
 2804SOL    HW119874   2.176   4.238   3.224 -0.4411  0.1677  1.5288
 2804SOL    HW219875   2.285   4.331   3.230 -0.1547  0.4548 -0.1768
 2805SOL     OW19876   2.945   2.091  10.151 -0.2378 -0.0313  0.2385
 2805SOL    HW119877   3.039   2.075  10.154 -0.0180  1.3344  0.6689
 2805SOL    HW219878   2.943   2.179  10.115 -0.5891  0.1850  0.7813
 2806SOL     OW19879   4.541   3.286   9.529 -0.1403 -0.2428 -0.6739
 2806SOL    HW119880   4.620   3.340   9.533 -0.8475  0.6572  0.9520
 2806SOL    HW219881   4.497   3.314   9.609  1.2779 -0.8415  0.3211
 2807SOL     OW19882   0.417   2.784   5.655  0.0789 -0.3577 -0.4710
 2807SOL    HW119883   0.401   2.806   5.563  0.4980 -0.4373 -0.5619
 2807SOL    HW219884   0.373   2.699   5.650  1.1809 -0.8777 -1.3375
 2808SOL     OW19885   4.062   0.683  10.519  0.3024  0.3902  0.6198
 2808SOL    HW119886   3.974   0.668  10.484  0.7242  2.4337 -1.2725
 2808SOL    HW219887   4.103   0.602  10.489  0.8252  0.9048 -0.0412
 2809SOL     OW19888   1.201   4.621   6.253 -0.4198  0.0283 -0.3432
 2809SOL    HW119889   1.147   4.698   6.272 -0.6261  0.2254 -1.6940
 2809SOL    HW219890   1.139   4.552   6.233  0.3389 -0.9945  0.8487
 2810SOL     OW19891   3.371   2.461   3.063 -0.4358 -0.1103 -0.6842
 2810SOL    HW119892   3.298   2.522   3.062  0.7894  1.3569 -0.5986
 2810SOL    HW219893   3.330   2.376   3.048  2.6703 -1.9047  0.9056
 2811SOL     OW19894   2.175   0.533   3.800  0.2599  0.0919  0.1787
 2811SOL    HW119895   2.106   0.579   3.751  1.2830  2.3048  0.7948
 2811SOL    HW219896   2.148   0.545   3.891  0.8583 -0.2875  0.4038
 2812SOL     OW19897   2.663   1.540   1.969 -0.4447 -0.9776  0.3516
 2812SOL    HW119898   2.703   1.617   2.009 -0.9560 -0.1678 -0.6727
 2812SOL    HW219899   2.658   1.574   1.879 -0.0961  0.2269  0.7902
 2813SOL     OW19900   2.588   3.079   8.561  0.1139 -0.3034  0.0374
 2813SOL    HW119901   2.596   3.155   8.620  1.1400 -1.6512  1.6161
 2813SOL    HW219902   2.620   3.002   8.606  0.6749  0.1694  0.4507
 2814SOL     OW19903   3.320   0.801  15.942  0.2408  0.2873  0.6966
 2814SOL    HW119904   3.403   0.781  15.984  0.0876  0.7522  1.2147
 2814SOL    HW219905   3.305   0.715  15.901 -0.8731  0.5194  0.5987
 2815SOL     OW19906   3.015   2.308   5.261  0.5309  0.0371 -0.4386
 2815SOL    HW119907   2.979   2.287   5.347 -2.5691 -1.0404 -1.9941
 2815SOL    HW219908   2.934   2.305   5.210 -1.3786 -0.5115  2.5953
 2816SOL     OW19909   1.261   3.055   1.717  0.5003  0.4421  0.3593
 2816SOL    HW119910   1.304   3.130   1.675 -0.8214  0.6818 -0.5749
 2816SOL    HW219911   1.206   3.096   1.784 -0.0400  0.9691 -0.4024
 2817SOL     OW19912   3.860   0.638   3.451  0.0156 -0.4465 -0.0352
 2817SOL    HW119913   3.955   0.632   3.442 -0.1592 -2.5620 -0.3797
 2817SOL    HW219914   3.848   0.707   3.386  0.1914  1.9064  2.4323
 2818SOL     OW19915   2.682   4.581   5.212 -0.5293  0.1339 -0.4763
 2818SOL    HW119916   2.769   4.559   5.247  0.6442  0.5140 -3.1892
 2818SOL    HW219917   2.628   4.518   5.260  1.2920  1.1467  2.9001
 2819SOL     OW19918   3.645   0.704   3.047  0.1916 -0.2490  0.1749
 2819SOL    HW119919   3.631   0.663   2.962 -1.1957  0.4117  0.0843
 2819SOL    HW219920   3.717   0.765   3.029 -0.5933  0.2241 -1.3873
 2820SOL     OW19921   0.342   1.783   6.474  0.0557  0.2111  0.1871
 2820SOL    HW119922   0.288   1.787   6.553  2.1882 -0.2486  1.6388
 2820SOL    HW219923   0.408   1.848   6.495 -0.5765  0.0459  2.6580
 2821SOL     OW19924   0.030   3.724   8.717 -0.2808 -0.2303  0.1387
 2821SOL    HW119925   0.022   3.658   8.649  1.3818  2.1110 -2.3299
 2821SOL    HW219926   4.659   3.744   8.718  0.2162  2.3576 -2.5440
 2822SOL     OW19927   0.977   0.324   6.894  0.0050 -0.0884 -0.0828
 2822SOL    HW119928   1.044   0.352   6.831 -2.2582 -0.9901 -2.8910
 2822SOL    HW219929   1.018   0.257   6.950 -0.6423 -2.0564 -1.9880
 2823SOL     OW19930   3.306   1.970   9.549  0.5182  0.2811 -0.5691
 2823SOL    HW119931   3.219   1.964   9.511  0.1545 -0.2956  0.3509
 2823SOL    HW219932   3.355   1.956   9.468  1.9352  2.9496 -0.1714
 2824SOL     OW19933   0.944   0.236   9.620  0.2397  0.0682  0.2743
 2824SOL    HW119934   0.986   0.285   9.691 -2.3479 -0.9003  2.4762
 2824SOL    HW219935   0.921   0.158   9.671 -4.1985  1.4255  0.3556
 2825SOL     OW19936   0.104   1.190   9.156  0.0731  0.3038 -0.7299
 2825SOL    HW119937   0.115   1.283   9.175  0.1211  0.4259 -1.3477
 2825SOL    HW219938   0.163   1.181   9.081 -0.6161 -1.4217 -1.0561
 2826SOL     OW19939   3.084   1.659   9.377 -0.1140  0.5339  0.3450
 2826SOL    HW119940   3.153   1.599   9.403  0.8094  2.4080  2.2441
 2826SOL    HW219941   3.032   1.627   9.450  0.8685  1.4295  1.4258
 2827SOL     OW19942   0.378   1.099   8.254  0.3256 -0.2566 -0.4803
 2827SOL    HW119943   0.440   1.044   8.302 -1.8981 -1.2340  1.2602
 2827SOL    HW219944   0.437   1.173   8.239 -0.2419  0.5858  1.5322
 2828SOL     OW19945   1.971   0.945  11.499  0.4084  0.2995 -0.0127
 2828SOL    HW119946   1.963   0.941  11.594 -1.6882  1.2600 -0.1603
 2828SOL    HW219947   1.967   1.039  11.481  0.4213 -0.2903 -3.1882
 2829SOL     OW19948   3.054   3.798  11.486 -0.1093  0.1883 -0.1469
 2829SOL    HW119949   3.005   3.716  11.482  0.3347 -0.1337  0.9425
 2829SOL    HW219950   3.044   3.834  11.398  0.4700 -1.9323 -1.0636
 2830SOL     OW19951   4.617   4.024  17.004 -0.0243 -0.1925  0.5577
 2830SOL    HW119952   4.662   3.977  16.934 -2.0527 -1.6846  0.2618
 2830SOL    HW219953   4.674   3.978  17.066  0.1624  1.0882  1.3281
 2831SOL     OW19954   2.731   1.851   1.877  0.5549  0.3050  0.5830
 2831SOL    HW119955   2.656   1.825   1.824  1.1139 -0.7785  0.3243
 2831SOL    HW219956   2.684   1.859   1.960 -1.8548 -1.7393 -0.5589
 2832SOL     OW19957   1.089   3.023   8.935 -0.0191  0.3709 -0.3889
 2832SOL    HW119958   1.179   2.992   8.946 -0.0871 -0.5680 -2.5712
 2832SOL    HW219959   1.103   3.118   8.936 -0.2993  0.3913  1.4155
 2833SOL     OW19960   2.487   2.915   8.108  0.0254  0.4208  0.3113
 2833SOL    HW119961   2.580   2.895   8.100  0.3560  2.0540 -0.0691
 2833SOL    HW219962   2.449   2.829   8.124  0.6238  0.0385 -0.3424
 2834SOL     OW19963   3.308   3.203   5.924 -0.4683 -0.3276  0.7276
 2834SOL    HW119964   3.380   3.200   5.861 -1.1170  2.1284 -0.1325
 2834SOL    HW219965   3.291   3.109   5.928 -3.4238  0.1666 -0.4521
 2835SOL     OW19966   4.109   0.031   1.046  0.9723 -0.0777 -0.2461
 2835SOL    HW119967   4.028   0.070   1.080 -0.3394 -1.4700 -1.7450
 2835SOL    HW219968   4.075   0.014   0.958 -2.0586  3.8457  0.1602
 2836SOL     OW19969   2.373   2.199  13.313 -0.4977 -0.0992 -0.3134
 2836SOL    HW119970   2.431   2.179  13.240 -1.3135 -2.5070 -0.3062
 2836SOL    HW219971   2.306   2.130  13.319  0.6865 -1.1470  0.7567
 2837SOL     OW19972   1.599   2.285   5.897 -0.3922  0.8616 -0.2672
 2837SOL    HW119973   1.666   2.301   5.830  1.5277 -3.1728  0.7029
 2837SOL    HW219974   1.654   2.275   5.975 -1.8556 -0.2463  0.6187
 2838SOL     OW19975   2.322   1.901   1.575  0.2618 -0.0596  0.0760
 2838SOL    HW119976   2.254   1.845   1.537  0.5137  0.2372 -0.7948
 2838SOL    HW219977   2.323   1.986   1.531  1.4077  0.6713  1.5187
 2839SOL     OW19978   4.598   0.862   8.237 -0.1972  0.1081  0.2936
 2839SOL    HW119979   4.637   0.801   8.299 -1.7144  1.1804  2.2888
 2839SOL    HW219980   4.531   0.907   8.288  0.9115  1.2749  0.7358
 2840SOL     OW19981   1.061   2.474  14.600  0.0997 -0.1151 -0.1257
 2840SOL    HW119982   1.021   2.560  14.599  0.8865  0.2605  1.0179
 2840SOL    HW219983   1.040   2.445  14.511  2.1464  0.7216 -0.8838
 2841SOL     OW19984   0.202   0.192   1.293 -0.7247  0.2468  0.2755
 2841SOL    HW119985   0.281   0.173   1.243 -0.3950 -3.0032  2.0596
 2841SOL    HW219986   0.213   0.119   1.354 -1.6972 -1.8145 -2.0699
 2842SOL     OW19987   0.892   0.017  12.794 -0.0430 -0.1966 -0.1203
 2842SOL    HW119988   0.813   0.052  12.834  0.0233 -0.6494  0.4090
 2842SOL    HW219989   0.917   4.676  12.860  1.4810  0.4312 -0.0957
 2843SOL     OW19990   0.994   3.122   8.507 -0.3712  0.0239 -0.2149
 2843SOL    HW119991   1.070   3.165   8.547 -0.4033  0.9988 -1.2112
 2843SOL    HW219992   0.924   3.122   8.572  0.9994  0.7069  1.2670
 2844SOL     OW19993   2.766   2.392   8.639 -0.3599  0.3385 -0.0014
 2844SOL    HW119994   2.685   2.353   8.608 -0.2570  1.5563 -1.7741
 2844SOL    HW219995   2.777   2.464   8.576 -0.7440 -1.2141 -1.8302
 2845SOL     OW19996   0.713   0.859   2.601  0.8023  0.1084 -0.4743
 2845SOL    HW119997   0.709   0.763   2.603 -0.2872  0.1565  0.2319
 2845SOL    HW219998   0.795   0.876   2.555  0.8317  2.0192  0.2791
 2846SOL     OW19999   3.097   2.074   7.365 -0.3949  1.1103 -0.7997
 2846SOL    HW120000   3.188   2.048   7.346 -0.0825  1.2655  0.5284
 2846SOL    HW220001   3.056   2.000   7.320 -1.9945  1.4546  0.1062
 2847SOL     OW20002   3.696   1.865  12.229 -0.4054 -0.2923  0.2362
 2847SOL    HW120003   3.685   1.865  12.134  0.1687  2.4289  0.1780
 2847SOL    HW220004   3.621   1.912  12.266  0.7241  1.2137  0.6162
 2848SOL     OW20005   1.774   2.772   3.775 -0.7396  0.3595 -0.4429
 2848SOL    HW120006   1.850   2.780   3.833 -1.2151  0.9398  0.0973
 2848SOL    HW220007   1.743   2.687   3.806 -0.1794 -0.1438 -1.2746
 2849SOL     OW20008   4.077   1.674   3.211 -0.3767 -0.8229 -0.5913
 2849SOL    HW120009   4.006   1.713   3.160 -0.1667  3.1972  2.2527
 2849SOL    HW220010   4.149   1.691   3.150 -0.2512 -0.0963 -0.2393
 2850SOL     OW20011   2.707   0.788   3.746  0.2183  0.2401  0.0254
 2850SOL    HW120012   2.669   0.842   3.677  0.1079 -1.4569 -1.2522
 2850SOL    HW220013   2.634   0.751   3.796 -0.4775 -0.1578 -1.2819
 2851SOL     OW20014   2.275   2.585   4.485  0.0099  0.2181  0.0912
 2851SOL    HW120015   2.316   2.506   4.518  3.2028  1.3421 -1.1466
 2851SOL    HW220016   2.193   2.547   4.453  0.9381 -0.3544 -1.6233
 2852SOL     OW20017   1.132   3.856   9.647 -0.5567 -0.6674 -0.3093
 2852SOL    HW120018   1.142   3.894   9.735 -1.3702 -0.3571 -0.3476
 2852SOL    HW220019   1.158   3.765   9.661 -0.1726 -0.5860 -0.4935
 2853SOL     OW20020   2.840   4.571  13.744  0.1623  0.0420 -0.4213
 2853SOL    HW120021   2.827   4.638  13.677  1.3296 -1.4990 -2.1958
 2853SOL    HW220022   2.929   4.537  13.733  1.0308  2.0627  0.3336
 2854SOL     OW20023   0.886   3.793   6.295  0.6128 -0.4387  0.4435
 2854SOL    HW120024   0.815   3.838   6.251  2.0072  0.1880 -1.1779
 2854SOL    HW220025   0.932   3.752   6.222 -1.6313 -1.5340 -0.3642
 2855SOL     OW20026   2.051   4.558  13.304  0.3386 -0.8808 -0.2443
 2855SOL    HW120027   2.139   4.591  13.320  0.2577 -1.0867  0.6451
 2855SOL    HW220028   2.043   4.497  13.377 -0.6667  1.8624  1.9351
 2856SOL     OW20029   2.125   4.298   1.565  0.1255 -0.2387 -0.3610
 2856SOL    HW120030   2.045   4.350   1.564  0.6825  0.5990 -1.9488
 2856SOL    HW220031   2.165   4.297   1.478  1.7925 -0.4299  0.4004
 2857SOL     OW20032   1.348   0.243   7.878 -0.4108  0.1823  0.2806
 2857SOL    HW120033   1.308   0.329   7.886 -0.5279  0.2633 -1.1605
 2857SOL    HW220034   1.354   0.223   7.972 -0.9322  2.1613  0.7184
 2858SOL     OW20035   1.521   3.762   5.327  0.0504  0.0968 -0.3426
 2858SOL    HW120036   1.568   3.818   5.265 -0.0332 -2.4695 -2.7236
 2858SOL    HW220037   1.432   3.789   5.305  1.1704  3.3889 -0.8572
 2859SOL     OW20038   2.328   3.040   7.636 -0.2501 -0.7224  0.3390
 2859SOL    HW120039   2.283   2.984   7.573  0.2954 -1.2190  0.3852
 2859SOL    HW220040   2.409   2.989   7.648 -0.4332 -0.5838  2.1994
 2860SOL     OW20041   2.860   4.063   0.982  0.9738 -0.3853 -0.4872
 2860SOL    HW120042   2.808   4.102   1.053  2.5175  0.8043  0.0014
 2860SOL    HW220043   2.932   4.018   1.026  0.4435  0.5323  1.3137
 2861SOL     OW20044   0.644   4.038   9.712  0.4704  0.4627 -0.1996
 2861SOL    HW120045   0.634   3.952   9.671 -0.7753  1.0422 -1.1217
 2861SOL    HW220046   0.615   4.096   9.641  1.8815  1.8850  0.4049
 2862SOL     OW20047   3.767   4.226  15.260 -0.2676  0.2339  0.0523
 2862SOL    HW120048   3.741   4.206  15.170  2.2323  0.6890 -0.7728
 2862SOL    HW220049   3.857   4.194  15.264  0.2861  1.9028  1.0527
 2863SOL     OW20050   4.323   0.930   1.297 -0.0451 -0.7154 -0.0662
 2863SOL    HW120051   4.388   0.925   1.226  2.3231  0.1273  2.0227
 2863SOL    HW220052   4.335   0.849   1.345 -0.4660 -2.1471 -2.3928
 2864SOL     OW20053   3.347   3.462   7.203  0.1287 -0.1077 -0.0341
 2864SOL    HW120054   3.360   3.445   7.110  1.7349 -1.3790  0.4253
 2864SOL    HW220055   3.312   3.551   7.207 -0.6508 -0.3679 -1.1453
 2865SOL     OW20056   3.352   0.162   4.845  0.1539 -0.3609  0.6541
 2865SOL    HW120057   3.369   0.083   4.794  2.8145  0.4651  0.2330
 2865SOL    HW220058   3.257   0.162   4.841  0.2084  1.5973 -0.8237
 2866SOL     OW20059   1.705   3.300   3.125 -0.2861  0.5726 -0.0176
 2866SOL    HW120060   1.693   3.207   3.104  0.4836  0.6629 -0.8433
 2866SOL    HW220061   1.777   3.300   3.187 -0.3253 -1.7658  0.0079
 2867SOL     OW20062   0.293   4.266   7.066 -0.2163 -0.1225 -0.2669
 2867SOL    HW120063   0.387   4.286   7.069  0.3952 -2.7897 -1.7988
 2867SOL    HW220064   0.278   4.275   6.972  0.0238 -0.7975 -0.3699
 2868SOL     OW20065   3.702   2.554   8.775 -0.4199 -0.0540 -0.0128
 2868SOL    HW120066   3.612   2.531   8.798 -0.6908  1.2586  0.2511
 2868SOL    HW220067   3.741   2.489   8.834 -0.0311 -1.5404 -1.8935
 2869SOL     OW20068   2.502   1.089   4.813 -0.0356 -0.0198 -0.0850
 2869SOL    HW120069   2.420   1.075   4.765 -1.0045 -2.0899  2.1891
 2869SOL    HW220070   2.509   1.011   4.868 -0.0193 -0.5185 -0.8021
 2870SOL     OW20071   1.615   1.535   2.263  0.1891  0.5246  0.7077
 2870SOL    HW120072   1.617   1.630   2.278 -0.1606  0.6472 -0.0004
 2870SOL    HW220073   1.554   1.532   2.189 -0.5357  1.0522  1.2858
 2871SOL     OW20074   1.477   2.686  15.849 -0.3144 -0.6110 -0.8287
 2871SOL    HW120075   1.490   2.643  15.934 -0.8934 -3.4487 -2.1735
 2871SOL    HW220076   1.437   2.768  15.879  0.6099 -0.3680 -0.2724
 2872SOL     OW20077   1.151   2.507   1.753  0.2095  0.3036 -0.2423
 2872SOL    HW120078   1.112   2.573   1.810 -0.8565 -1.6427  1.2940
 2872SOL    HW220079   1.100   2.522   1.673 -0.8731  1.4906  0.6814
 2873SOL     OW20080   3.548   0.561   1.743 -0.2771 -0.4047 -0.0736
 2873SOL    HW120081   3.521   0.534   1.831  1.5970  1.3194  1.0141
 2873SOL    HW220082   3.532   0.479   1.696 -2.3453  0.4543 -0.8401
 2874SOL     OW20083   1.650   3.544   2.771 -0.1867 -0.2557 -0.0267
 2874SOL    HW120084   1.723   3.569   2.827  0.1911  2.4367 -1.6918
 2874SOL    HW220085   1.585   3.530   2.840 -0.4568  1.8425  0.1415
 2875SOL     OW20086   4.622   0.963  10.662  0.0159 -0.3988  0.3941
 2875SOL    HW120087   4.605   0.876  10.697  0.3640 -0.1447  1.1894
 2875SOL    HW220088   4.656   1.007  10.740 -0.9591  0.6975  0.1976
 2876SOL     OW20089   1.849   1.764   7.533  0.6904  0.0824 -0.0835
 2876SOL    HW120090   1.783   1.813   7.582  3.9751  1.1876  3.2107
 2876SOL    HW220091   1.831   1.796   7.445 -1.2108 -2.9254 -0.8152
 2877SOL     OW20092   0.170   1.829   4.189  0.2570 -0.1462  0.2606
 2877SOL    HW120093   0.124   1.846   4.271  1.4289  1.5222  0.5820
 2877SOL    HW220094   0.265   1.829   4.206 -0.0243 -0.3398  1.7949
 2878SOL     OW20095   1.719   1.271   6.172  0.5521 -0.6018 -0.3753
 2878SOL    HW120096   1.627   1.262   6.199  0.4996  0.3384 -0.2217
 2878SOL    HW220097   1.707   1.321   6.091  1.4621 -0.2919 -0.3166
 2879SOL     OW20098   2.143   3.190  11.348 -0.0438 -0.3230  0.2507
 2879SOL    HW120099   2.108   3.251  11.283  0.1897 -0.6013 -0.1315
 2879SOL    HW220100   2.067   3.132  11.355  2.0262 -3.0878 -0.3726
 2880SOL     OW20101   1.803   0.711   2.730  0.4444 -0.4850 -0.0331
 2880SOL    HW120102   1.884   0.682   2.688 -0.3559  0.3946 -2.1671
 2880SOL    HW220103   1.795   0.649   2.803 -0.5942 -0.7579 -0.3789
 2881SOL     OW20104   0.817   3.484   6.010 -0.6131 -0.1659  0.0617
 2881SOL    HW120105   0.785   3.498   5.921  1.2005  0.7568 -0.4423
 2881SOL    HW220106   0.898   3.435   6.000 -0.4023  0.1912  0.0143
 2882SOL     OW20107   0.882   2.090   2.241 -0.5782 -0.1783 -0.0307
 2882SOL    HW120108   0.791   2.062   2.250 -0.4500 -0.6259 -0.1666
 2882SOL    HW220109   0.930   2.012   2.215 -1.1552  0.4243 -2.9058
 2883SOL     OW20110   4.182   1.736   8.130 -0.7021  0.3010 -0.3211
 2883SOL    HW120111   4.262   1.690   8.108  0.8009  1.0835  3.5454
 2883SOL    HW220112   4.111   1.672   8.123 -1.0454  0.6938 -0.4746
 2884SOL     OW20113   3.665   0.765   8.280  0.1103  0.1083  0.2641
 2884SOL    HW120114   3.728   0.831   8.252  0.4028  0.5623  1.9843
 2884SOL    HW220115   3.661   0.715   8.199 -1.0587 -1.3087  1.1735
 2885SOL     OW20116   2.018   4.524  11.876  0.6045 -0.7945  0.3349
 2885SOL    HW120117   2.006   4.584  11.804 -0.8945  0.3460  1.5472
 2885SOL    HW220118   2.036   4.580  11.952 -1.7476 -0.2387  0.4729
 2886SOL     OW20119   0.976   0.904  13.447  0.3266  0.0847  0.2487
 2886SOL    HW120120   0.956   0.936  13.535  1.5443  2.9805 -0.5346
 2886SOL    HW220121   0.982   0.988  13.401  0.0327  0.2918  0.5835
 2887SOL     OW20122   0.742   2.560   6.631 -0.2164 -0.1086 -0.3272
 2887SOL    HW120123   0.819   2.596   6.586  0.6748  0.2435  1.5014
 2887SOL    HW220124   0.777   2.489   6.685 -2.1563  0.4581  1.6364
 2888SOL     OW20125   4.519   0.214   2.722 -0.2411 -0.5318 -0.1220
 2888SOL    HW120126   4.525   0.251   2.634 -0.4171 -2.6661 -1.0177
 2888SOL    HW220127   4.514   0.120   2.705 -1.1947 -0.4240 -0.4606
 2889SOL     OW20128   1.246   1.081  16.991  0.4495  0.1823 -0.0067
 2889SOL    HW120129   1.170   1.023  16.983  0.2415  0.5406 -0.6775
 2889SOL    HW220130   1.247   1.095  17.085 -1.6172  1.2271 -0.1526
 2890SOL     OW20131   3.687   1.130  13.193  0.1342  0.2683  0.1468
 2890SOL    HW120132   3.650   1.083  13.267 -0.0237  1.4316  0.7937
 2890SOL    HW220133   3.717   1.056  13.139 -2.1383  0.7129 -1.7339
 2891SOL     OW20134   3.826   0.592   9.061  0.3146 -0.2543 -0.0240
 2891SOL    HW120135   3.757   0.611   8.998  0.6714  2.0966  0.2728
 2891SOL    HW220136   3.880   0.530   9.013  0.1745 -0.2364 -0.2049
 2892SOL     OW20137   2.083   1.694   0.224 -0.3675  0.3017  0.1765
 2892SOL    HW120138   2.042   1.686   0.310 -0.2058  0.7789  0.2955
 2892SOL    HW220139   2.014   1.740   0.176  1.0211  1.3277 -0.8095
 2893SOL     OW20140   2.566   1.373  15.411  0.6837  0.2191  0.2878
 2893SOL    HW120141   2.527   1.308  15.468  1.1850  1.6978  2.3197
 2893SOL    HW220142   2.486   1.425  15.417  0.6090 -0.0524  1.5837
 2894SOL     OW20143   2.974   3.583   5.868 -0.0323 -0.2170 -0.5709
 2894SOL    HW120144   2.880   3.562   5.871  0.0633 -0.4626  0.8297
 2894SOL    HW220145   3.013   3.500   5.896  1.1709  0.4571 -0.2515
 2895SOL     OW20146   4.188   1.878   9.152  0.0003 -0.5011 -0.3562
 2895SOL    HW120147   4.249   1.875   9.079 -0.6689  1.8434 -1.0062
 2895SOL    HW220148   4.221   1.956   9.197  1.3655 -1.7780  0.8731
 2896SOL     OW20149   2.332   0.680   1.538 -0.2613  0.1860  0.2662
 2896SOL    HW120150   2.357   0.718   1.623 -0.1852 -1.6662  1.0689
 2896SOL    HW220151   2.399   0.719   1.483 -0.9224  0.0349 -0.6336
 2897SOL     OW20152   3.300   2.326   8.615 -0.1339 -0.3766 -0.2962
 2897SOL    HW120153   3.331   2.397   8.558 -1.0290 -0.8257 -1.3479
 2897SOL    HW220154   3.219   2.301   8.571  0.7477  0.0433 -2.1523
 2898SOL     OW20155   2.733   1.215   4.812 -0.4688  0.5614  0.3636
 2898SOL    HW120156   2.648   1.174   4.795 -0.5203  0.3351  1.1701
 2898SOL    HW220157   2.753   1.156   4.885  1.1251  0.0946 -0.4601
 2899SOL     OW20158   2.795   3.195  16.631 -0.6450  0.4679  0.2259
 2899SOL    HW120159   2.867   3.136  16.653  0.0507  1.5638  0.9272
 2899SOL    HW220160   2.805   3.259  16.702  1.1036  0.1567  0.2775
 2900SOL     OW20161   4.030   0.240  15.232  0.5387 -0.1029  0.2433
 2900SOL    HW120162   4.108   0.184  15.230 -0.4337 -1.3916 -1.7196
 2900SOL    HW220163   3.974   0.191  15.173 -0.7208  2.5162 -0.7415
 2901SOL     OW20164   3.264   2.721  11.711  0.5806 -0.3653  0.7413
 2901SOL    HW120165   3.181   2.768  11.703  0.4611 -1.0139 -1.9975
 2901SOL    HW220166   3.239   2.646  11.657  1.8479 -1.3549  1.5355
 2902SOL     OW20167   3.075   3.631   4.628  0.8559 -0.4810  0.3905
 2902SOL    HW120168   3.067   3.612   4.534  2.2543 -0.5447  0.2909
 2902SOL    HW220169   3.027   3.714   4.630 -0.4537 -1.2095 -1.1043
 2903SOL     OW20170   0.081   1.871   9.840  0.4098  0.2205 -0.1696
 2903SOL    HW120171   4.715   1.837   9.824  0.6313 -0.4325  0.0009
 2903SOL    HW220172   0.139   1.810   9.796 -0.2963 -1.2875  0.9973
 2904SOL     OW20173   1.966   0.533  12.866 -0.2573  0.7992  0.3691
 2904SOL    HW120174   2.043   0.559  12.917  1.2852  2.3092 -2.7125
 2904SOL    HW220175   1.908   0.513  12.939  1.0567 -0.2499  1.1324
 2905SOL     OW20176   0.963   3.084   4.302 -0.0013 -0.1118 -0.0586
 2905SOL    HW120177   0.909   3.145   4.252 -0.5420 -0.7905 -0.3021
 2905SOL    HW220178   0.933   3.114   4.388 -1.2115  2.1850 -1.2865
 2906SOL     OW20179   1.725   1.321   7.045  0.0363 -0.0903 -0.0125
 2906SOL    HW120180   1.697   1.242   7.090  0.0458  1.0504  1.9889
 2906SOL    HW220181   1.666   1.377   7.096 -0.8319 -3.2607  2.4185
 2907SOL     OW20182   4.063   0.923   3.456  0.4309 -0.0702 -0.1993
 2907SOL    HW120183   4.101   0.988   3.397  0.1249  0.7851  0.5518
 2907SOL    HW220184   4.136   0.866   3.482  0.9821  0.0166 -1.5182
 2908SOL     OW20185   2.546   2.128   0.197  0.0144 -0.2152 -0.4065
 2908SOL    HW120186   2.494   2.202   0.164  0.2630  0.0683 -0.1687
 2908SOL    HW220187   2.531   2.064   0.128 -0.0931  1.9703 -2.4304
 2909SOL     OW20188   1.192   4.226   2.959  0.0417 -0.1603 -0.2493
 2909SOL    HW120189   1.208   4.134   2.980  1.2774 -0.0300 -0.6547
 2909SOL    HW220190   1.134   4.207   2.885  0.7066 -0.0691 -0.7973
 2910SOL     OW20191   2.676   1.680  10.618 -0.2875 -0.5571 -0.5532
 2910SOL    HW120192   2.763   1.640  10.614  0.3151  0.4888  1.7846
 2910SOL    HW220193   2.690   1.763  10.572 -1.6837 -0.6183 -1.0998
 2911SOL     OW20194   1.022   2.359  10.470 -0.0685 -0.2537  0.5785
 2911SOL    HW120195   1.035   2.267  10.492 -0.2982 -0.6003 -0.7543
 2911SOL    HW220196   0.959   2.383  10.539 -1.1481  0.2080 -0.5657
 2912SOL     OW20197   2.484   0.862   0.513 -0.0719  0.2191  0.0103
 2912SOL    HW120198   2.465   0.774   0.478 -2.5179  0.6932  0.1579
 2912SOL    HW220199   2.484   0.848   0.608  2.0974  0.7778  0.0852
 2913SOL     OW20200   0.164   3.409  15.382 -0.1882 -0.7513 -0.1207
 2913SOL    HW120201   0.148   3.352  15.307  0.7294  1.3351 -1.9064
 2913SOL    HW220202   0.215   3.349  15.436  0.4749 -1.6651 -1.7583
 2914SOL     OW20203   2.199   2.047   4.470  0.5303 -0.2086 -0.5403
 2914SOL    HW120204   2.196   2.013   4.381  0.3739  0.8917 -0.9566
 2914SOL    HW220205   2.146   2.127   4.466 -1.6673 -1.7628 -2.3585
 2915SOL     OW20206   1.334   1.044  13.471  0.7341 -0.5207  0.6031
 2915SOL    HW120207   1.330   1.124  13.522 -0.7077  0.7818 -1.5481
 2915SOL    HW220208   1.239   1.028  13.474  0.7854 -0.9840 -0.1497
 2916SOL     OW20209   3.998   4.686  17.089  0.1945  0.1678  0.4198
 2916SOL    HW120210   4.024   4.623  17.156  0.4225 -2.5582 -2.2425
 2916SOL    HW220211   4.039   0.043  17.123  1.6301  0.8268 -2.9012
 2917SOL     OW20212   3.640   0.076  12.224  0.1133 -0.4210 -0.3600
 2917SOL    HW120213   3.582   0.110  12.292  1.9606  0.7988  0.6145
 2917SOL    HW220214   3.576   0.059  12.155 -0.7861 -0.6621  0.5362
 2918SOL     OW20215   2.873   3.584  12.942  0.0663 -0.4253  0.4252
 2918SOL    HW120216   2.894   3.666  12.988  2.5489 -0.7295 -0.1710
 2918SOL    HW220217   2.780   3.592  12.922 -0.2572  1.3059  2.5785
 2919SOL     OW20218   3.223   4.648  16.401 -0.3017 -0.8979 -0.0274
 2919SOL    HW120219   3.301   4.620  16.353  0.2635 -1.5945  1.2860
 2919SOL    HW220220   3.192   4.568  16.443 -0.7471 -2.0367 -2.5658
 2920SOL     OW20221   3.115   0.485   2.145  0.2594  0.2378 -0.0604
 2920SOL    HW120222   3.052   0.463   2.076 -0.3263 -0.1948  0.6228
 2920SOL    HW220223   3.066   0.465   2.224 -0.9825  0.4668 -0.7736
 2921SOL     OW20224   0.251   2.029   1.747 -0.2511 -0.3657 -0.0588
 2921SOL    HW120225   0.338   1.998   1.771 -0.1326 -0.5639 -0.7618
 2921SOL    HW220226   0.218   1.950   1.704  1.7901 -0.8967 -0.6235
 2922SOL     OW20227   4.418   3.124   2.093  0.1171 -0.0597 -0.3746
 2922SOL    HW120228   4.406   3.211   2.131 -2.5243 -1.4776  2.0376
 2922SOL    HW220229   4.427   3.150   2.001  0.1669  0.5323 -0.1997
 2923SOL     OW20230   4.291   1.251   6.549  0.0128  0.2832  0.4888
 2923SOL    HW120231   4.240   1.181   6.508  1.3810 -1.0812  1.1077
 2923SOL    HW220232   4.242   1.328   6.521  1.1213  0.0655 -2.0752
 2924SOL     OW20233   1.933   2.657   2.987 -0.1458 -0.1894 -0.4241
 2924SOL    HW120234   2.028   2.664   2.975 -0.1510  0.0407 -0.3274
 2924SOL    HW220235   1.897   2.682   2.902  0.1394 -2.1631 -1.1292
 2925SOL     OW20236   3.159   1.693   8.952 -0.0164  0.0617  0.0124
 2925SOL    HW120237   3.182   1.755   9.022 -0.7632  1.4346 -0.9704
 2925SOL    HW220238   3.170   1.611   9.000 -0.9805 -2.3774 -3.9318
 2926SOL     OW20239   3.020   2.160  11.168 -0.6650  0.0392  0.3014
 2926SOL    HW120240   2.941   2.160  11.223  0.0645  1.6647  1.3420
 2926SOL    HW220241   3.030   2.252  11.145  1.1632 -0.7105 -1.8823
 2927SOL     OW20242   0.010   1.151   3.610  0.3296 -0.2153 -0.2983
 2927SOL    HW120243   0.074   1.165   3.541  2.2676 -2.1025  1.1627
 2927SOL    HW220244   0.063   1.155   3.689 -0.5054  3.3890  0.1072
 2928SOL     OW20245   0.766   3.509   6.292  0.0147  0.4275  0.3178
 2928SOL    HW120246   0.800   3.595   6.315  0.8996 -0.0455  0.7871
 2928SOL    HW220247   0.788   3.499   6.199  1.7694 -0.7607  0.8582
 2929SOL     OW20248   4.066   2.349   6.789  0.6588 -0.5329  0.2108
 2929SOL    HW120249   4.142   2.405   6.773  0.6037 -0.4631  0.1909
 2929SOL    HW220250   4.036   2.336   6.699 -1.2692 -0.0969  0.7776
 2930SOL     OW20251   0.609   1.086   8.973 -0.0322  0.0710  0.1286
 2930SOL    HW120252   0.627   1.180   8.964  1.3776  0.0691  3.0604
 2930SOL    HW220253   0.546   1.099   9.044  0.2675  2.0530  0.0483
 2931SOL     OW20254   1.098   1.533   8.904  0.0463 -0.0785  0.2461
 2931SOL    HW120255   1.115   1.530   8.810 -2.5407  0.4369 -0.2473
 2931SOL    HW220256   1.075   1.626   8.903 -0.3079 -0.1879 -0.9801
 2932SOL     OW20257   0.563   4.459   3.673 -0.1352 -0.4023  0.0939
 2932SOL    HW120258   0.546   4.433   3.763 -1.6669  1.6633  0.4113
 2932SOL    HW220259   0.657   4.446   3.676 -0.0677 -0.0112 -0.2974
 2933SOL     OW20260   3.795   3.017   1.365 -0.1836 -0.4721 -0.3285
 2933SOL    HW120261   3.834   3.020   1.452  0.9083 -0.2783 -0.8191
 2933SOL    HW220262   3.777   3.111   1.363 -0.9685 -0.5822  2.3084
 2934SOL     OW20263   0.907   4.082   1.745  0.3691  0.0125  0.1749
 2934SOL    HW120264   0.875   4.152   1.802  0.0009  0.7563 -0.9158
 2934SOL    HW220265   0.893   4.004   1.797 -0.6885  0.5273  0.6599
 2935SOL     OW20266   3.686   0.906   9.291 -0.3006  0.1978 -0.0022
 2935SOL    HW120267   3.713   0.911   9.383 -0.4802  0.8552  0.0130
 2935SOL    HW220268   3.724   0.986   9.255 -0.9739  0.1495 -0.8136
 2936SOL     OW20269   4.386   2.112  12.814 -0.1938  0.1534  0.1411
 2936SOL    HW120270   4.409   2.076  12.728 -0.7750  1.9411 -0.7410
 2936SOL    HW220271   4.432   2.195  12.800  0.4589  0.2241  2.7110
 2937SOL     OW20272   0.394   0.181   5.985 -0.4840 -0.2022  0.3756
 2937SOL    HW120273   0.301   0.188   5.961 -0.5854 -3.1432 -0.0490
 2937SOL    HW220274   0.389   0.145   6.073  2.6774 -0.3631  0.4946
 2938SOL     OW20275   3.663   4.580  11.682 -0.0419 -0.4590  0.7243
 2938SOL    HW120276   3.730   4.648  11.678 -0.5380 -0.0663 -1.1647
 2938SOL    HW220277   3.658   4.593  11.776 -1.2547 -0.2850  0.6328
 2939SOL     OW20278   2.207   3.089   7.918  0.0054 -0.4337  0.3428
 2939SOL    HW120279   2.243   3.107   7.831  0.3819 -0.9928  0.3835
 2939SOL    HW220280   2.217   3.173   7.962  1.3076 -0.8042  0.7627
 2940SOL     OW20281   3.807   4.381   6.679  0.1273 -0.0636 -0.0957
 2940SOL    HW120282   3.846   4.328   6.609  1.5598 -0.0607  0.6912
 2940SOL    HW220283   3.856   4.464   6.675  0.7738 -0.3252  2.7272
 2941SOL     OW20284   1.919   3.026   4.830  0.6272 -0.6491 -0.0820
 2941SOL    HW120285   1.964   3.106   4.803 -0.3606  0.2604  0.9657
 2941SOL    HW220286   1.857   3.013   4.759 -0.7360 -3.0130  1.5557
 2942SOL     OW20287   4.454   1.790  13.361 -0.0266 -0.6917 -0.4324
 2942SOL    HW120288   4.519   1.731  13.399 -0.8014 -0.7150  0.8450
 2942SOL    HW220289   4.383   1.735  13.329 -0.4355  0.7607 -1.9980
 2943SOL     OW20290   1.080   2.470   4.039 -0.2818  0.3395 -0.4032
 2943SOL    HW120291   1.127   2.550   4.016 -0.0511  0.4844  0.6096
 2943SOL    HW220292   1.133   2.435   4.111  2.0238  3.1497 -0.7377
 2944SOL     OW20293   2.307   3.707   6.306 -0.1879 -0.6671 -0.4897
 2944SOL    HW120294   2.363   3.783   6.290  2.0801 -2.2679 -0.3349
 2944SOL    HW220295   2.368   3.634   6.292 -2.2046 -2.7433  1.4926
 2945SOL     OW20296   4.705   3.154  16.577  0.2960 -0.3060 -0.2130
 2945SOL    HW120297   4.643   3.218  16.543 -0.6420 -0.8347  0.4923
 2945SOL    HW220298   4.716   3.191  16.664  0.5210  0.9266 -0.7594
 2946SOL     OW20299   3.650   0.202   9.665  0.1172 -0.3320 -0.0108
 2946SOL    HW120300   3.560   0.225   9.685 -0.7115 -2.1381 -1.6983
 2946SOL    HW220301   3.682   0.151   9.739  1.9663  1.5846  0.5154
 2947SOL     OW20302   4.083   0.030  13.500 -0.6482  0.2834 -0.1719
 2947SOL    HW120303   4.109   0.001  13.588  1.0296  2.1546 -0.0665
 2947SOL    HW220304   4.028   4.679  13.474  0.5068 -0.6286 -0.0250
 2948SOL     OW20305   0.997   2.068   2.603 -0.1252 -0.0846 -0.1264
 2948SOL    HW120306   0.936   2.141   2.598  0.2027  0.1507 -0.6860
 2948SOL    HW220307   1.077   2.119   2.613  0.5481 -1.0860 -0.3201
 2949SOL     OW20308   3.081   0.670   6.777 -0.2368 -0.5300 -0.3034
 2949SOL    HW120309   3.155   0.681   6.836 -0.2238 -1.9683 -0.0689
 2949SOL    HW220310   3.035   0.610   6.835  0.3176 -0.1784  0.4913
 2950SOL     OW20311   0.457   3.915   8.429  0.0881 -0.0782  0.2100
 2950SOL    HW120312   0.467   3.841   8.370  0.4570 -0.3667  0.6350
 2950SOL    HW220313   0.545   3.933   8.463  0.0104  2.1714 -0.7413
 2951SOL     OW20314   1.708   2.173   6.134 -0.1561  0.3443 -0.0176
 2951SOL    HW120315   1.779   2.135   6.186  2.3355 -0.0846 -3.6948
 2951SOL    HW220316   1.641   2.110   6.161 -1.2231  0.3694 -2.6128
 2952SOL     OW20317   2.325   1.428   4.868  0.2986 -0.3945  0.0448
 2952SOL    HW120318   2.238   1.422   4.827 -0.5947 -0.0900  1.8802
 2952SOL    HW220319   2.288   1.438   4.956  1.0189  0.3159  0.2694
 2953SOL     OW20320   4.304   2.203   8.903 -0.2998  0.2041 -0.0467
 2953SOL    HW120321   4.388   2.163   8.925 -0.5626 -1.4631 -2.1532
 2953SOL    HW220322   4.332   2.295   8.897 -1.6351  0.6193  0.1687
 2954SOL     OW20323   4.590   2.490  13.524  0.4090  0.0998  0.0387
 2954SOL    HW120324   4.551   2.555  13.584 -0.0124 -0.7355  0.6680
 2954SOL    HW220325   4.507   2.456  13.491  0.7467  0.1019 -0.8142
 2955SOL     OW20326   0.309   4.290   8.271  0.0459  1.1531 -0.7618
 2955SOL    HW120327   0.338   4.378   8.247  3.0967  0.2831 -0.2554
 2955SOL    HW220328   0.213   4.298   8.277  0.1697  1.0752  1.3956
 2956SOL     OW20329   4.036   0.197  16.929 -0.4841 -0.2326  0.0897
 2956SOL    HW120330   4.067   0.140  16.859  1.4063  1.4493 -0.4330
 2956SOL    HW220331   4.094   0.169  17.000 -0.3151  0.7718  0.3480
 2957SOL     OW20332   2.281   3.468  16.164 -0.6651 -0.2548  0.6949
 2957SOL    HW120333   2.283   3.474  16.068  0.8713  1.1841  0.8250
 2957SOL    HW220334   2.374   3.453  16.180 -0.5726 -0.2279  0.1714
 2958SOL     OW20335   4.691   4.162   3.839  0.6238  0.1520 -0.0619
 2958SOL    HW120336   4.714   4.159   3.932  0.6796 -1.6852 -0.1319
 2958SOL    HW220337   4.688   4.257   3.827  0.9131  0.0331 -1.1427
 2959SOL     OW20338   3.357   4.438   2.153  0.3455 -0.5073 -0.4480
 2959SOL    HW120339   3.449   4.414   2.162  0.5783  0.8089  0.6627
 2959SOL    HW220340   3.365   4.518   2.206  1.8824 -0.6510 -0.4676
 2960SOL     OW20341   1.152   4.056   0.752 -0.8911  0.5018  0.1102
 2960SOL    HW120342   1.086   4.107   0.799  0.9182  1.9928  1.0309
 2960SOL    HW220343   1.152   4.101   0.668  2.5533  0.2480 -0.0306
 2961SOL     OW20344   1.130   0.751   9.242 -0.3562 -0.0339  0.2444
 2961SOL    HW120345   1.103   0.810   9.171  1.2602 -0.7646 -0.9657
 2961SOL    HW220346   1.223   0.773   9.238 -0.7183  1.3898 -0.4783
 2962SOL     OW20347   0.268   0.542   0.881  0.5444  0.1904 -0.4910
 2962SOL    HW120348   0.306   0.496   0.806  1.1747  0.3148 -0.2504
 2962SOL    HW220349   0.267   0.636   0.860  0.4239  0.4152  0.5278
 2963SOL     OW20350   1.211   1.735   5.255  0.1905  0.0721 -0.8855
 2963SOL    HW120351   1.279   1.800   5.240  0.6569  0.2201  1.9553
 2963SOL    HW220352   1.243   1.677   5.323  1.0626  1.6512  0.0458
 2964SOL     OW20353   0.700   3.808  15.706 -0.0411 -0.7712  0.6230
 2964SOL    HW120354   0.794   3.795  15.696 -0.0076 -1.1376  1.3776
 2964SOL    HW220355   0.670   3.725  15.670  1.2224 -0.3881 -1.2901
 2965SOL     OW20356   1.117   3.246   0.763  0.4537  0.0216  0.3042
 2965SOL    HW120357   1.133   3.210   0.850 -3.3564 -0.8407  0.6413
 2965SOL    HW220358   1.196   3.299   0.750  0.0127  1.2041  2.3867
 2966SOL     OW20359   1.817   2.062   2.328  0.2244 -0.4323 -0.3280
 2966SOL    HW120360   1.841   2.002   2.398  0.1478  0.9671  0.8971
 2966SOL    HW220361   1.839   2.146   2.369  0.9861 -0.8707  0.1575
 2967SOL     OW20362   2.135   4.375  11.608  0.9807 -0.1167 -0.1636
 2967SOL    HW120363   2.042   4.383  11.632  0.5157 -2.8016 -1.0186
 2967SOL    HW220364   2.131   4.294  11.557  0.5149 -0.3520  0.2386
 2968SOL     OW20365   0.202   2.061   6.496 -0.1408  0.2817  0.3130
 2968SOL    HW120366   0.137   2.012   6.546  0.5125 -2.8562 -1.8789
 2968SOL    HW220367   0.230   1.999   6.429  0.1482  2.2723 -1.4210
 2969SOL     OW20368   2.032   0.518   4.018 -0.0914  0.2436 -0.0511
 2969SOL    HW120369   1.941   0.498   3.995  0.3549  0.6095 -2.0785
 2969SOL    HW220370   2.040   0.462   4.095 -0.8420  0.2340  0.0265
 2970SOL     OW20371   2.483   1.452   2.151 -0.0077  0.6897 -0.1943
 2970SOL    HW120372   2.540   1.493   2.086  1.2452  1.1143  1.1848
 2970SOL    HW220373   2.406   1.494   2.113 -2.1750 -2.7246  0.3547
 2971SOL     OW20374   0.004   3.493   3.773  0.5454 -0.3414 -0.1014
 2971SOL    HW120375   0.018   3.474   3.681  1.1023  1.3275 -0.3681
 2971SOL    HW220376   4.709   3.587   3.765 -3.4883 -1.0425  0.8720
 2972SOL     OW20377   0.047   2.948   3.788  0.3346 -0.1792 -0.1475
 2972SOL    HW120378   0.067   2.872   3.732  2.7347  0.1730  0.2456
 2972SOL    HW220379   0.064   3.021   3.728 -1.1034 -0.5758 -1.0447
 2973SOL     OW20380   2.914   0.868   3.147  0.6383  0.2611  0.0669
 2973SOL    HW120381   2.945   0.793   3.096  3.3478  0.8095  0.8865
 2973SOL    HW220382   2.831   0.890   3.106  1.0285  2.3612  0.4343
 2974SOL     OW20383   2.430   0.842   7.843 -0.3389  0.3799 -0.0489
 2974SOL    HW120384   2.491   0.895   7.894  1.4359 -0.6960 -1.0472
 2974SOL    HW220385   2.376   0.808   7.914 -2.4923  2.6456 -0.5992
 2975SOL     OW20386   4.411   0.229   8.922 -0.4840  0.1264  0.5397
 2975SOL    HW120387   4.385   0.268   9.005  1.8874 -0.4049  1.5307
 2975SOL    HW220388   4.446   0.142   8.942 -1.2712 -0.4175 -0.4719
 2976SOL     OW20389   2.161   0.551   0.691  0.2357  0.3113 -0.0174
 2976SOL    HW120390   2.089   0.509   0.642  0.6781 -1.7205  1.0699
 2976SOL    HW220391   2.116   0.616   0.746 -0.7301 -0.5290  0.1979
 2977SOL     OW20392   2.956   1.362   5.513  0.0107 -0.0782  0.3943
 2977SOL    HW120393   2.895   1.421   5.468  2.5692  1.4970 -0.9930
 2977SOL    HW220394   3.035   1.366   5.459  1.0733 -0.4892  1.9166
 2978SOL     OW20395   0.944   0.928   3.936  0.6058  0.6966  0.1311
 2978SOL    HW120396   0.919   0.954   3.847  1.0003 -2.0277 -0.7841
 2978SOL    HW220397   1.006   0.856   3.922  1.3301  0.9602  1.9765
 2979SOL     OW20398   0.663   0.037   8.402  0.0347 -0.3217 -0.3048
 2979SOL    HW120399   0.733   4.694   8.398  0.1865 -0.1221 -0.8191
 2979SOL    HW220400   0.612   0.003   8.476 -0.2924  1.4195  0.2611
 2980SOL     OW20401   2.444   4.551   5.771  0.0431 -0.3093  0.6398
 2980SOL    HW120402   2.489   4.599   5.841 -0.6078 -0.3036  1.0565
 2980SOL    HW220403   2.356   4.547   5.807 -0.0482  2.2568  0.7105
 2981SOL     OW20404   2.737   2.153   8.873  0.6058 -0.1879 -0.2428
 2981SOL    HW120405   2.771   2.104   8.948  0.4755  0.8091  0.4717
 2981SOL    HW220406   2.754   2.244   8.896  0.0070 -0.5630  1.6862
 2982SOL     OW20407   4.554   4.196   2.314 -0.8460  0.6179 -0.4679
 2982SOL    HW120408   4.613   4.188   2.238  0.5152  2.0334  0.4480
 2982SOL    HW220409   4.614   4.226   2.382  0.2502 -1.2422 -0.6083
 2983SOL     OW20410   1.744   2.830  15.544  0.2226  0.0321 -0.5204
 2983SOL    HW120411   1.779   2.799  15.460  0.2424  0.3935 -0.6449
 2983SOL    HW220412   1.686   2.902  15.520  0.8231  1.0249  1.0229
 2984SOL     OW20413   4.547   2.619   3.317 -0.4696 -0.0620  0.3220
 2984SOL    HW120414   4.625   2.592   3.366  0.8659  1.1685 -1.1074
 2984SOL    HW220415   4.571   2.706   3.287  1.3685 -0.4933  0.5396
 2985SOL     OW20416   0.113   4.544   0.973  0.1060  0.3590 -0.2935
 2985SOL    HW120417   0.101   4.638   0.983 -2.3350  0.0171 -0.1678
 2985SOL    HW220418   0.032   4.514   1.013  0.8682 -1.8529 -0.4014
 2986SOL     OW20419   0.230   1.999   3.530  0.3052  0.6140 -0.2864
 2986SOL    HW120420   0.307   2.052   3.509  1.9730 -0.8169  2.1929
 2986SOL    HW220421   0.210   2.008   3.623 -1.9380  1.9052 -0.8924
 2987SOL     OW20422   0.794   1.955   8.389  0.1581 -0.1396 -0.4015
 2987SOL    HW120423   0.715   1.923   8.432 -0.4176  0.6886 -0.8404
 2987SOL    HW220424   0.758   1.975   8.302  1.8921  0.0313 -1.0785
 2988SOL     OW20425   2.994   1.739  10.620 -0.2587  0.7664  0.0304
 2988SOL    HW120426   3.038   1.718  10.702 -0.9655 -1.5143 -0.1906
 2988SOL    HW220427   2.972   1.652  10.588 -1.6384  1.7330 -1.7153
 2989SOL     OW20428   4.010   1.992  13.701  0.2305 -0.5206 -0.2871
 2989SOL    HW120429   4.100   1.963  13.717 -0.2428 -2.4504 -1.1253
 2989SOL    HW220430   4.016   2.046  13.622 -1.7258 -0.3160 -0.2817
 2990SOL     OW20431   0.150   3.032   3.041 -0.3510 -0.5194  0.6246
 2990SOL    HW120432   0.170   3.015   2.949 -0.0990  0.2616  0.5358
 2990SOL    HW220433   0.058   3.005   3.037 -1.1439  2.6352 -2.3336
 2991SOL     OW20434   2.741   3.555   6.098 -0.0322  0.4999  0.5132
 2991SOL    HW120435   2.673   3.612   6.136  0.4058  0.7247  0.9640
 2991SOL    HW220436   2.725   3.554   6.004 -1.1029  0.9717  0.6870
 2992SOL     OW20437   1.957   4.692   5.758 -0.1028  0.2534  0.1837
 2992SOL    HW120438   1.868   4.716   5.785  0.1612  1.0138  0.3501
 2992SOL    HW220439   1.925   4.651   5.677  0.8939  0.7261 -0.4416
 2993SOL     OW20440   1.107   4.080   1.572 -0.0024  0.0353 -0.3181
 2993SOL    HW120441   1.158   4.010   1.614 -0.0930 -0.2606 -0.6997
 2993SOL    HW220442   1.023   4.087   1.617  0.1898 -0.0733  0.0618
 2994SOL     OW20443   0.345   3.210   3.041  0.3498  0.2740 -0.0650
 2994SOL    HW120444   0.269   3.153   3.036  0.4499  0.1856 -0.5528
 2994SOL    HW220445   0.384   3.183   3.124 -0.2250 -1.2024 -0.2744
 2995SOL     OW20446   1.907   1.406   1.040 -0.1124 -0.2150 -0.2298
 2995SOL    HW120447   1.857   1.444   0.968  1.3029  0.1137 -1.0401
 2995SOL    HW220448   1.940   1.323   1.005  3.7687  1.3370 -0.2708
 2996SOL     OW20449   2.214   0.354   8.155  0.5643  0.1227 -0.1449
 2996SOL    HW120450   2.143   0.385   8.099  0.0205  0.7596  0.9017
 2996SOL    HW220451   2.284   0.356   8.091 -1.3192 -0.5171 -2.2086
 2997SOL     OW20452   4.293   2.483   8.526  0.5439 -0.3699  0.2894
 2997SOL    HW120453   4.224   2.451   8.469  0.2841  1.0668 -0.1805
 2997SOL    HW220454   4.275   2.577   8.526 -0.1359 -0.5004 -1.1892
 2998SOL     OW20455   0.467   3.975   1.945 -0.3760  0.8071 -0.1821
 2998SOL    HW120456   0.392   3.935   1.989 -0.0643  1.4094  0.9236
 2998SOL    HW220457   0.512   3.899   1.908 -0.0486  0.7542  0.3070
 2999SOL     OW20458   3.599   0.193   3.809 -0.4400  0.6105  0.1829
 2999SOL    HW120459   3.649   0.267   3.844  1.5094 -0.0150 -1.2876
 2999SOL    HW220460   3.663   0.144   3.757 -0.7163  0.3530  0.0853
 3000SOL     OW20461   4.022   0.305   2.474  0.1033 -0.3488  0.5138
 3000SOL    HW120462   3.999   0.217   2.447  1.2339 -0.7032  0.7046
 3000SOL    HW220463   4.108   0.290   2.514  0.7529  1.2288 -0.2777
 3001SOL     OW20464   2.050   4.387   3.564  0.2199 -0.0364  0.3339
 3001SOL    HW120465   2.139   4.354   3.574 -0.2824 -1.0514  1.4308
 3001SOL    HW220466   1.995   4.308   3.562 -0.4086  0.4194 -0.5918
 3002SOL     OW20467   1.285   2.918  17.235  0.6011 -0.6463 -0.0149
 3002SOL    HW120468   1.325   2.994  17.277  1.0675  0.8073 -3.0677
 3002SOL    HW220469   1.302   2.945  17.145 -0.6678 -1.0972 -0.3833
 3003SOL     OW20470   3.766   1.921   9.680  0.2334 -0.3442  0.3999
 3003SOL    HW120471   3.760   1.826   9.666  0.0061  0.2739 -3.6804
 3003SOL    HW220472   3.762   1.941   9.587 -0.2608 -1.2331  0.2230
 3004SOL     OW20473   2.187   3.000   4.931  0.0781  0.0016 -0.0421
 3004SOL    HW120474   2.103   3.002   4.885  0.7644 -1.6626 -1.3507
 3004SOL    HW220475   2.226   3.087   4.921 -2.2956  1.0282 -0.5632
 3005SOL     OW20476   4.660   3.015   1.551 -0.2486 -0.1997  0.2310
 3005SOL    HW120477   4.639   3.104   1.522 -2.4015 -1.2324 -1.3807
 3005SOL    HW220478   4.574   2.974   1.537  0.0884  0.1206 -2.8151
 3006SOL     OW20479   2.729   4.335  13.639  0.1873 -0.7885 -0.2554
 3006SOL    HW120480   2.779   4.290  13.571  0.7343  0.1037 -0.4434
 3006SOL    HW220481   2.784   4.411  13.656 -0.2411 -0.7556  0.9766
 3007SOL     OW20482   0.772   1.968   7.471  0.0327 -0.1233 -0.5807
 3007SOL    HW120483   0.791   2.058   7.498  1.8006 -0.8807  0.6461
 3007SOL    HW220484   0.688   1.962   7.516  1.2352  0.5706  1.7527
 3008SOL     OW20485   2.590   0.743   6.468 -0.1149 -0.4985  0.0327
 3008SOL    HW120486   2.624   0.831   6.484  0.6126 -1.0997  1.8396
 3008SOL    HW220487   2.634   0.719   6.386 -2.7103 -1.3213 -1.0975
 3009SOL     OW20488   1.896   1.305  12.829  0.7086 -0.1425  0.1211
 3009SOL    HW120489   1.961   1.240  12.855 -0.0021 -0.5992  0.7447
 3009SOL    HW220490   1.817   1.251  12.826  1.4103 -1.0989 -1.1766
 3010SOL     OW20491   3.929   3.894   8.383 -0.2308 -0.5242 -0.0718
 3010SOL    HW120492   4.009   3.856   8.418  1.1842 -0.7143 -3.5113
 3010SOL    HW220493   3.880   3.814   8.362 -1.0009  0.0736 -0.5409
 3011SOL     OW20494   0.814   4.190   8.213 -0.0334  0.0692 -0.0491
 3011SOL    HW120495   0.783   4.100   8.202 -0.0200 -0.0432  0.8500
 3011SOL    HW220496   0.823   4.196   8.308  0.7680  1.6951 -0.2305
 3012SOL     OW20497   0.188   3.393  16.057  0.1722  0.3586 -0.2830
 3012SOL    HW120498   0.247   3.402  16.132 -1.5930  0.9929  1.0225
 3012SOL    HW220499   0.176   3.299  16.074 -2.1701  0.4799 -1.2543
 3013SOL     OW20500   4.217   1.495   9.035 -0.0168  0.1405 -0.4716
 3013SOL    HW120501   4.122   1.505   9.029 -0.2021 -2.0268 -1.1591
 3013SOL    HW220502   4.231   1.511   9.129 -1.2380  0.2537 -0.3163
 3014SOL     OW20503   2.635   1.586   1.689 -0.3060 -0.2195  0.1912
 3014SOL    HW120504   2.542   1.567   1.700 -0.2596  0.6085  2.0210
 3014SOL    HW220505   2.638   1.620   1.599  2.3285 -1.6685 -0.2863
 3015SOL     OW20506   1.551   3.503   4.982  0.5648  0.4796  0.0959
 3015SOL    HW120507   1.456   3.506   4.970  0.6430  0.6585 -0.5097
 3015SOL    HW220508   1.558   3.430   5.043 -1.3589 -2.0771 -2.7324
 3016SOL     OW20509   4.114   4.248   8.506 -0.0090 -0.1040 -0.0685
 3016SOL    HW120510   4.042   4.203   8.549  0.0504  1.1539  1.3755
 3016SOL    HW220511   4.171   4.179   8.474 -2.6024 -1.5726 -1.4484
 3017SOL     OW20512   1.538   2.408   2.133  0.1537  0.1719 -0.5663
 3017SOL    HW120513   1.568   2.390   2.222 -1.1297 -0.7259 -0.3242
 3017SOL    HW220514   1.547   2.332   2.077 -0.2360  0.1252 -0.5650
 3018SOL     OW20515   1.658   3.984   1.588 -0.2652 -0.8595  0.1550
 3018SOL    HW120516   1.699   3.956   1.670 -1.0414 -1.2419  0.4226
 3018SOL    HW220517   1.604   4.052   1.629 -0.9743 -1.5063  0.3136
 3019SOL     OW20518   3.205   2.412   5.897  0.0241  0.4330  0.0427
 3019SOL    HW120519   3.155   2.374   5.824 -2.1248  1.6696  0.8534
 3019SOL    HW220520   3.142   2.392   5.966  1.9153 -2.4515  0.9444
 3020SOL     OW20521   1.029   2.620   1.529 -0.4117  0.8753  0.5390
 3020SOL    HW120522   0.953   2.641   1.583 -2.4005 -0.4795 -1.6978
 3020SOL    HW220523   1.022   2.675   1.451 -0.7887 -2.1717 -1.5932
 3021SOL     OW20524   1.840   2.961  10.827 -0.7972 -0.1701 -0.6328
 3021SOL    HW120525   1.840   2.921  10.914 -0.9539 -1.0232 -1.0252
 3021SOL    HW220526   1.790   2.903  10.770 -1.9907  1.4090 -1.1795
 3022SOL     OW20527   1.971   0.126   6.981  0.0562 -1.1295  0.0015
 3022SOL    HW120528   1.956   0.034   7.005 -1.3435 -0.7951  0.3760
 3022SOL    HW220529   1.900   0.136   6.917 -0.7938 -0.2098  1.1033
 3023SOL     OW20530   1.057   0.551   6.536 -0.3583  0.1820  0.2443
 3023SOL    HW120531   0.969   0.586   6.526 -0.0448  1.0129  0.3720
 3023SOL    HW220532   1.052   0.458   6.516  0.2875  0.3314 -0.6143
 3024SOL     OW20533   2.347   0.089  13.212  0.3496  1.0195  0.5222
 3024SOL    HW120534   2.282   0.047  13.269 -1.8184  2.7374 -0.6838
 3024SOL    HW220535   2.336   0.183  13.219  2.2475  1.2618  0.0885
 3025SOL     OW20536   4.307   0.423   3.815  0.0659 -0.1946  0.3321
 3025SOL    HW120537   4.265   0.370   3.884  2.0313 -1.5455  0.5157
 3025SOL    HW220538   4.305   0.364   3.740  1.0116 -0.6113  0.6314
 3026SOL     OW20539   4.256   2.536   5.590  0.1025  0.1551 -0.7927
 3026SOL    HW120540   4.289   2.450   5.618 -1.0582 -0.3454 -0.9365
 3026SOL    HW220541   4.309   2.566   5.516  0.8276 -1.1753 -0.8132
 3027SOL     OW20542   3.268   1.808   5.678 -0.3131  0.1995  0.0419
 3027SOL    HW120543   3.259   1.890   5.727  0.4923  0.4990 -0.3201
 3027SOL    HW220544   3.298   1.842   5.594 -2.1155  0.1877 -0.6140
 3028SOL     OW20545   1.403   1.960   8.679 -0.3071  0.1197 -0.5484
 3028SOL    HW120546   1.478   1.967   8.620  0.5103 -0.5968  0.4143
 3028SOL    HW220547   1.446   1.911   8.749 -1.7851  0.1865  0.4041
 3029SOL     OW20548   0.248   2.936   7.199  0.4611  0.7422  0.3811
 3029SOL    HW120549   0.264   2.904   7.111 -1.2919  0.9328 -0.0065
 3029SOL    HW220550   0.305   2.879   7.250  0.1550  1.3627  1.4188
 3030SOL     OW20551   3.509   2.211  12.772  0.1020  0.0690  0.2134
 3030SOL    HW120552   3.460   2.173  12.699  2.2267  1.1341 -1.7998
 3030SOL    HW220553   3.597   2.185  12.743  0.5579 -0.2299  1.9097
 3031SOL     OW20554   4.030   2.526   4.317 -0.1080  0.7618  0.1715
 3031SOL    HW120555   3.999   2.440   4.288  1.5187 -0.0466  0.8153
 3031SOL    HW220556   3.974   2.584   4.264 -1.9789 -0.8130  0.4016
 3032SOL     OW20557   4.573   4.600  17.333 -0.7052 -0.0855  0.1791
 3032SOL    HW120558   4.565   4.617  17.239  0.4934  0.8607  0.2510
 3032SOL    HW220559   4.509   4.656  17.378 -1.5755 -0.6850 -0.2928
 3033SOL     OW20560   0.902   1.165   4.772 -0.2735  0.0447 -0.1166
 3033SOL    HW120561   0.996   1.148   4.771  0.0843  1.8991  0.8083
 3033SOL    HW220562   0.894   1.232   4.705  0.5946 -0.9695 -1.2193
 3034SOL     OW20563   1.419   2.043  15.699  0.1943  0.2051 -0.3799
 3034SOL    HW120564   1.403   2.125  15.653 -2.2309  0.7214  1.3781
 3034SOL    HW220565   1.357   1.986  15.654 -1.4970  1.3035  0.5413
 3035SOL     OW20566   0.499   4.681  10.810  0.9611  0.7362 -0.0580
 3035SOL    HW120567   0.439   4.611  10.836  2.1882 -0.4064 -0.3425
 3035SOL    HW220568   0.577   4.628  10.823 -0.5993 -1.4051  0.4643
 3036SOL     OW20569   2.936   4.493   6.788  0.0706  0.0200  0.1706
 3036SOL    HW120570   3.017   4.538   6.762 -0.9937  1.8026 -0.1137
 3036SOL    HW220571   2.920   4.533   6.873 -0.4226 -0.9311  0.5191
 3037SOL     OW20572   3.412   0.390   5.197 -0.1125 -0.2368  0.0458
 3037SOL    HW120573   3.460   0.415   5.276  0.0083 -0.3519  0.0086
 3037SOL    HW220574   3.362   0.315   5.228 -1.7243  1.6226  1.9033
 3038SOL     OW20575   0.292   1.013   2.422  0.5285 -0.4405 -0.4192
 3038SOL    HW120576   0.292   1.084   2.486 -2.7140  2.5403 -3.7164
 3038SOL    HW220577   0.238   1.058   2.357  0.4800 -0.6543 -0.5296
 3039SOL     OW20578   3.242   1.562   3.449 -0.4003  0.1669  0.8666
 3039SOL    HW120579   3.147   1.559   3.459 -0.5940 -0.9919 -1.3421
 3039SOL    HW220580   3.263   1.654   3.465  0.3009  0.1165  0.2602
 3040SOL     OW20581   2.281   1.921   8.207  0.3814  0.0572 -0.4902
 3040SOL    HW120582   2.247   1.872   8.132  2.5022  0.1968 -1.5201
 3040SOL    HW220583   2.368   1.882   8.209  1.3402  2.2029 -0.0153
 3041SOL     OW20584   1.722   3.727   5.893  0.1092 -0.2011  0.2169
 3041SOL    HW120585   1.794   3.768   5.941 -1.0369  1.5111  0.4925
 3041SOL    HW220586   1.778   3.682   5.830  0.9495  0.6295  0.3691
 3042SOL     OW20587   0.328   1.729   3.631 -0.2852 -0.3718 -0.3032
 3042SOL    HW120588   0.243   1.709   3.670 -0.6338  1.2124 -0.2434
 3042SOL    HW220589   0.331   1.824   3.617 -0.4888 -0.0237  2.0094
 3043SOL     OW20590   4.241   0.604   6.338  0.3601 -0.4222  0.1961
 3043SOL    HW120591   4.154   0.639   6.320  1.3647  2.1691  0.3510
 3043SOL    HW220592   4.291   0.639   6.264  0.0658 -0.7192 -0.1448
 3044SOL     OW20593   0.869   0.429   9.422  0.0420 -0.1506  0.0024
 3044SOL    HW120594   0.777   0.442   9.447  0.3766 -1.1195  1.7210
 3044SOL    HW220595   0.894   0.344   9.457 -1.4004 -0.9288 -0.8227
 3045SOL     OW20596   3.955   2.619   6.654 -0.1572  0.1029 -0.3077
 3045SOL    HW120597   3.889   2.668   6.703 -0.0146 -0.7135  0.7083
 3045SOL    HW220598   3.976   2.567   6.732 -1.4245 -0.5272 -0.4010
 3046SOL     OW20599   2.761   3.227  17.220  0.6259 -0.3283  0.1669
 3046SOL    HW120600   2.776   3.147  17.269  1.5104  0.3541  1.0043
 3046SOL    HW220601   2.752   3.190  17.132  1.0921  0.3509 -0.1658
 3047SOL     OW20602   2.631   4.176  16.895 -0.0233 -0.3347 -0.3781
 3047SOL    HW120603   2.700   4.192  16.960 -0.1387  2.2321 -0.9158
 3047SOL    HW220604   2.559   4.225  16.935  0.3690 -0.6575  0.7291
 3048SOL     OW20605   3.298   2.349   5.298 -0.2509 -0.0039 -0.0129
 3048SOL    HW120606   3.208   2.379   5.290 -0.9927 -1.8004  1.5967
 3048SOL    HW220607   3.287   2.267   5.250 -1.3466 -2.2767  4.1375
 3049SOL     OW20608   2.850   4.315   8.839 -0.2947 -0.3506 -0.3988
 3049SOL    HW120609   2.931   4.362   8.862 -1.6304  1.2071  1.1691
 3049SOL    HW220610   2.796   4.383   8.799  0.2724 -0.3233 -1.1148
 3050SOL     OW20611   3.606   2.985   6.039  0.1587 -0.4062  0.0983
 3050SOL    HW120612   3.621   2.933   6.118 -0.2789  0.2151  0.5861
 3050SOL    HW220613   3.513   2.963   6.035 -0.1926  0.9798  0.7334
 3051SOL     OW20614   3.490   1.554   1.502 -0.0763  0.2038  0.1009
 3051SOL    HW120615   3.518   1.471   1.541  2.1778  1.6160  1.4990
 3051SOL    HW220616   3.566   1.561   1.445 -0.6260  0.0257 -0.6448
 3052SOL     OW20617   0.743   3.586   5.499  0.4306  0.0458 -0.1245
 3052SOL    HW120618   0.674   3.623   5.554  0.1166  0.1167 -0.5646
 3052SOL    HW220619   0.700   3.515   5.452  0.0857 -1.0713  1.8960
 3053SOL     OW20620   4.020   3.616  16.450  0.2751 -0.3107 -0.8090
 3053SOL    HW120621   4.072   3.610  16.530  1.0279  1.4065 -1.1786
 3053SOL    HW220622   3.990   3.707  16.448  1.7899  0.1707 -1.1720
 3054SOL     OW20623   1.621   3.983   0.186  0.3835  0.4224  0.1761
 3054SOL    HW120624   1.703   3.993   0.137  0.3696  2.2051  0.5283
 3054SOL    HW220625   1.556   3.946   0.125 -1.3125  1.2630  1.4737
 3055SOL     OW20626   4.057   1.581  11.903  0.1894  0.1670 -0.9778
 3055SOL    HW120627   3.969   1.604  11.934 -1.6598 -1.5083 -4.9086
 3055SOL    HW220628   4.087   1.662  11.863  0.5727  0.2870 -0.4444
 3056SOL     OW20629   0.567   1.536   2.161  0.0658  0.0318 -0.4150
 3056SOL    HW120630   0.599   1.454   2.199 -3.1161 -1.6463 -1.3338
 3056SOL    HW220631   0.557   1.516   2.068  1.3234  1.1951 -0.8082
 3057SOL     OW20632   1.572   2.799  12.874 -0.3386 -0.5802 -0.0193
 3057SOL    HW120633   1.530   2.800  12.959  1.5401 -4.0032  0.9526
 3057SOL    HW220634   1.563   2.892  12.850  0.5232 -0.7014 -0.8337
 3058SOL     OW20635   0.735   3.970  13.822 -0.2274  0.0565 -0.2991
 3058SOL    HW120636   0.805   4.019  13.865  2.3087 -3.2893 -0.6939
 3058SOL    HW220637   0.701   3.924  13.898 -2.4062  0.3692 -1.0692
 3059SOL     OW20638   0.729   1.807   6.391  0.0489  0.7890  0.2386
 3059SOL    HW120639   0.689   1.890   6.415 -1.2784 -0.1252  1.2178
 3059SOL    HW220640   0.745   1.809   6.297  2.4128  0.5832  0.6365
 3060SOL     OW20641   3.296   2.967   3.777  0.6179  0.0521  0.2852
 3060SOL    HW120642   3.222   2.990   3.721 -0.1684  1.6547  1.9826
 3060SOL    HW220643   3.249   2.964   3.860  2.0377 -0.3565  1.0769
 3061SOL     OW20644   2.285   3.806  10.742  0.1866  0.4176  0.3687
 3061SOL    HW120645   2.288   3.857  10.823  0.5489  0.5192  0.2918
 3061SOL    HW220646   2.199   3.765  10.738 -0.0255  0.7872  1.2218
 3062SOL     OW20647   1.544   4.351   6.161 -0.3704 -0.6704 -0.2769
 3062SOL    HW120648   1.524   4.405   6.238 -1.6124  3.5351 -3.5629
 3062SOL    HW220649   1.460   4.324   6.126 -1.2933  2.0673 -0.1624
 3063SOL     OW20650   3.762   3.496   7.309  0.0732  0.6463 -0.0183
 3063SOL    HW120651   3.783   3.405   7.331 -0.9716  0.3940 -0.0664
 3063SOL    HW220652   3.712   3.489   7.227  0.7273 -1.7496 -0.2415
 3064SOL     OW20653   1.725   0.213  10.245  0.4084 -0.0155 -0.6420
 3064SOL    HW120654   1.781   0.274  10.197  0.1919 -0.0847 -0.9844
 3064SOL    HW220655   1.652   0.188  10.188  0.9873  0.1551 -1.4641
 3065SOL     OW20656   2.939   3.258   4.577  0.0309 -0.3225 -0.3806
 3065SOL    HW120657   2.952   3.175   4.532 -1.4659 -0.5721 -0.3508
 3065SOL    HW220658   3.028   3.287   4.598  0.2817 -1.5207  0.2089
 3066SOL     OW20659   1.971   3.509   1.935 -0.0993  0.6092 -1.0983
 3066SOL    HW120660   2.006   3.431   1.893 -1.0048  1.4121 -3.3406
 3066SOL    HW220661   2.023   3.506   2.015  0.1240  0.7487 -1.2402
 3067SOL     OW20662   3.335   2.102   3.365  0.0424 -0.3126  0.5984
 3067SOL    HW120663   3.421   2.114   3.325 -0.1228 -0.9449  0.0328
 3067SOL    HW220664   3.362   2.022   3.409  0.9009 -0.6315 -0.4787
 3068SOL     OW20665   0.590   3.651   7.291  0.4418 -0.0880 -0.0319
 3068SOL    HW120666   0.555   3.563   7.294  1.0879 -0.3472 -0.1000
 3068SOL    HW220667   0.512   3.702   7.313  1.6093  0.4982  2.7669
 3069SOL     OW20668   4.535   1.762   7.490  0.5794  0.4057  0.3453
 3069SOL    HW120669   4.530   1.667   7.493 -0.6746  0.4795  0.5354
 3069SOL    HW220670   4.600   1.772   7.421  1.1185 -1.6322  0.5568
 3070SOL     OW20671   0.923   0.735  16.342 -0.1426  0.0850  0.4482
 3070SOL    HW120672   0.983   0.706  16.410 -0.2437 -3.2311 -0.8771
 3070SOL    HW220673   0.969   0.811  16.308 -1.2808  0.0534 -1.1659
 3071SOL     OW20674   2.758   1.857   9.349 -0.3814  0.3473 -0.2654
 3071SOL    HW120675   2.708   1.937   9.369 -0.7483 -0.0115  0.2387
 3071SOL    HW220676   2.696   1.810   9.293 -0.4423  1.5660 -1.2174
 3072SOL     OW20677   0.000   4.159   6.057 -0.2787  0.1244  0.0146
 3072SOL    HW120678   0.036   4.192   6.140 -0.8275 -0.1101  0.3412
 3072SOL    HW220679   4.655   4.106   6.098  0.2235 -0.6507 -0.1668
 3073SOL     OW20680   0.526   3.062  14.449  0.0655 -0.5236 -0.4020
 3073SOL    HW120681   0.450   3.120  14.445  0.9648  0.7984  1.4532
 3073SOL    HW220682   0.499   2.981  14.406  2.6470  0.3567 -3.7203
 3074SOL     OW20683   0.205   1.199   3.419 -0.2131  0.6585 -0.6358
 3074SOL    HW120684   0.214   1.226   3.327  0.5987 -1.2285 -1.1207
 3074SOL    HW220685   0.232   1.285   3.451 -0.0031  1.1316 -2.0736
 3075SOL     OW20686   1.087   1.349   3.085 -0.5743 -0.7734  0.1775
 3075SOL    HW120687   1.180   1.361   3.064 -0.3599  1.5513  2.4197
 3075SOL    HW220688   1.053   1.438   3.084  1.3302 -0.0167  1.8314
 3076SOL     OW20689   3.897   2.411   6.998 -0.0112  0.3310 -0.1015
 3076SOL    HW120690   3.943   2.370   6.926  0.3431 -0.6977  0.7102
 3076SOL    HW220691   3.922   2.371   7.081  1.4760 -1.7822 -1.5805
 3077SOL     OW20692   2.073   2.370   6.321 -0.3669 -0.0150 -0.1236
 3077SOL    HW120693   2.073   2.441   6.385 -0.8852 -0.9600  0.9264
 3077SOL    HW220694   1.991   2.392   6.277 -0.9044 -1.9656 -0.0974
 3078SOL     OW20695   0.660   3.961  11.292 -0.2540 -0.5950 -0.8559
 3078SOL    HW120696   0.655   3.866  11.288  1.9434 -0.8330  2.4259
 3078SOL    HW220697   0.753   3.978  11.275 -0.5082 -0.3750 -2.0288
 3079SOL     OW20698   2.180   2.056   5.566  0.3671  0.0101  0.3635
 3079SOL    HW120699   2.224   2.029   5.646  0.4293 -0.4527  0.1715
 3079SOL    HW220700   2.095   2.089   5.595 -0.1966 -1.6875  0.5847
 3080SOL     OW20701   1.316   3.314  16.801  0.1915 -0.3668 -0.0571
 3080SOL    HW120702   1.411   3.310  16.790  0.0741 -0.5136 -0.9963
 3080SOL    HW220703   1.296   3.389  16.746  1.5881  0.2865  0.3111
 3081SOL     OW20704   2.977   2.265   9.508  0.2152  0.4608  0.0421
 3081SOL    HW120705   3.004   2.357   9.503  0.1331  0.5271  0.8234
 3081SOL    HW220706   2.941   2.248   9.595 -0.0466 -1.9057 -0.5331
 3082SOL     OW20707   1.817   4.133   2.421 -0.6326  0.6337  0.1802
 3082SOL    HW120708   1.835   4.065   2.357  1.5472  0.7496  0.6409
 3082SOL    HW220709   1.724   4.153   2.415 -0.8594  0.0763  1.7817
 3083SOL     OW20710   1.773   3.567   3.001  0.2502 -0.2182 -0.3704
 3083SOL    HW120711   1.710   3.516   3.054  1.4246 -3.1543 -1.8300
 3083SOL    HW220712   1.833   3.495   2.984  0.9829 -0.0494  1.4690
 3084SOL     OW20713   0.238   1.020  16.500 -0.1591 -0.0915 -0.2132
 3084SOL    HW120714   0.319   1.071  16.504  0.6573 -1.4118  0.1885
 3084SOL    HW220715   0.273   0.932  16.482 -0.4622  0.0087 -1.2614
 3085SOL     OW20716   0.108   1.032   7.901 -0.1731 -0.0856  0.1144
 3085SOL    HW120717   0.133   0.940   7.908 -0.0635 -0.1080 -0.5659
 3085SOL    HW220718   0.110   1.031   7.806  1.4061 -1.0077  0.1673
 3086SOL     OW20719   4.671   4.181   0.903 -0.0249 -0.3729 -0.3038
 3086SOL    HW120720   0.016   4.156   0.967 -0.8346 -0.7998  0.3860
 3086SOL    HW220721   4.598   4.126   0.930 -0.3892  0.3493  0.1734
 3087SOL     OW20722   2.565   4.496   2.595 -0.3579 -0.1462  0.6451
 3087SOL    HW120723   2.616   4.453   2.526 -1.2288 -1.7201  0.9706
 3087SOL    HW220724   2.629   4.505   2.666  0.6333 -1.7399 -0.0370
 3088SOL     OW20725   3.105   3.639   2.397 -0.0013 -1.1321 -0.3635
 3088SOL    HW120726   3.065   3.718   2.361  0.1940 -1.1997 -0.7319
 3088SOL    HW220727   3.197   3.657   2.380  0.3167 -0.4657  2.1461
 3089SOL     OW20728   1.334   1.928   4.141 -0.0444 -0.0014 -0.3245
 3089SOL    HW120729   1.290   1.955   4.060 -0.6251 -2.5165 -0.8497
 3089SOL    HW220730   1.286   1.984   4.202  1.5233  0.1886  0.7391
 3090SOL     OW20731   3.970   2.205   5.783 -0.4690  0.1834  0.5108
 3090SOL    HW120732   4.054   2.246   5.803 -1.0189  1.5172  0.0728
 3090SOL    HW220733   3.936   2.263   5.715  0.2195 -1.7718 -1.5140
 3091SOL     OW20734   4.301   2.537   3.183  0.0916 -0.2429 -0.1344
 3091SOL    HW120735   4.346   2.476   3.125  1.1612  1.0327 -0.6547
 3091SOL    HW220736   4.377   2.575   3.227  0.4660 -0.4118 -0.6384
 3092SOL     OW20737   2.215   0.719   6.334  0.2469 -0.6702 -0.1764
 3092SOL    HW120738   2.183   0.630   6.321 -1.1637 -0.5588  2.6119
 3092SOL    HW220739   2.260   0.719   6.419 -0.4735 -1.2070  0.1943
 3093SOL     OW20740   2.249   3.716  14.929  0.7879 -0.1838 -0.1250
 3093SOL    HW120741   2.225   3.644  14.871  0.7541  0.6041 -1.1032
 3093SOL    HW220742   2.175   3.707  14.989  1.4074 -1.4707  0.4465
 3094SOL     OW20743   1.594   1.566  15.355  0.1908  0.6316 -0.4364
 3094SOL    HW120744   1.543   1.646  15.342  1.2129  1.1388 -1.3964
 3094SOL    HW220745   1.606   1.562  15.450 -0.9188  3.6998 -0.1740
 3095SOL     OW20746   4.041   3.324   7.110  0.2810 -0.1976  0.0259
 3095SOL    HW120747   4.017   3.253   7.170 -0.3545 -1.0739 -1.2734
 3095SOL    HW220748   3.963   3.331   7.055  0.0494  2.6988  0.7013
 3096SOL     OW20749   4.691   2.405   3.003  0.3897  0.0860  0.2228
 3096SOL    HW120750   4.595   2.411   3.006  0.3435  0.2406 -1.6904
 3096SOL    HW220751   4.719   2.441   2.919 -0.3676 -1.4897 -0.7090
 3097SOL     OW20752   1.434   4.075   2.750  0.8141 -0.0102  0.5099
 3097SOL    HW120753   1.453   4.166   2.728  0.7579  0.6027  2.9582
 3097SOL    HW220754   1.376   4.046   2.680  2.1431 -1.2435 -0.0700
 3098SOL     OW20755   0.661   0.486   3.756  0.3014  0.1403  0.1572
 3098SOL    HW120756   0.713   0.531   3.690  0.1625  1.3480  0.8671
 3098SOL    HW220757   0.659   0.558   3.820  2.0035 -0.4373  0.8543
 3099SOL     OW20758   1.880   2.665  15.241 -0.0488 -0.3109 -0.7446
 3099SOL    HW120759   1.880   2.629  15.152  1.1691  0.2048 -0.9380
 3099SOL    HW220760   1.903   2.757  15.227  3.1475 -1.0685 -0.2909
 3100SOL     OW20761   1.372   2.715   3.016 -0.6128 -0.1379 -0.3463
 3100SOL    HW120762   1.419   2.691   3.096 -2.3459 -0.6091  0.5227
 3100SOL    HW220763   1.289   2.669   3.030 -1.3816  1.1514 -0.6658
 3101SOL     OW20764   1.847   0.143  13.366  0.5240  0.4304  0.4211
 3101SOL    HW120765   1.940   0.140  13.387  0.8172  1.7128 -0.7221
 3101SOL    HW220766   1.812   0.122  13.453  0.4680  0.7667  0.4799
 3102SOL     OW20767   3.118   1.098  14.829  0.0771 -0.1460  0.4928
 3102SOL    HW120768   3.104   1.192  14.836  2.0911  0.1686  0.2919
 3102SOL    HW220769   3.188   1.095  14.764  0.8788 -0.5525  1.3697
 3103SOL     OW20770   3.960   0.407   6.271 -0.0761 -0.0697  0.1796
 3103SOL    HW120771   3.969   0.501   6.287 -0.1299 -0.0870  0.3116
 3103SOL    HW220772   3.944   0.390   6.179  2.0643  1.2161 -0.4503
 3104SOL     OW20773   3.171   1.485  17.393  0.1352  0.2898 -0.0695
 3104SOL    HW120774   3.083   1.452  17.378  0.3970  0.1636 -1.3338
 3104SOL    HW220775   3.161   1.578  17.413 -1.2056  0.2812 -0.7378
 3105SOL     OW20776   1.477   1.777  10.588  0.0529 -0.5537 -0.6750
 3105SOL    HW120777   1.513   1.697  10.628  0.7494  0.8828  1.5719
 3105SOL    HW220778   1.536   1.780  10.512 -0.7212 -0.0622 -1.2507
 3106SOL     OW20779   0.993   0.500   1.535 -0.0037  0.1937  0.4053
 3106SOL    HW120780   0.983   0.500   1.630  1.0907 -0.6227  0.5229
 3106SOL    HW220781   1.077   0.546   1.527 -0.2239  0.5644  0.2232
 3107SOL     OW20782   3.549   3.020   5.671 -0.4419  0.5113  0.0595
 3107SOL    HW120783   3.584   2.935   5.698 -0.4577 -1.1654 -5.1959
 3107SOL    HW220784   3.478   2.987   5.616  0.3536  1.3579 -1.4711
 3108SOL     OW20785   0.000   2.965   4.128  0.5285  0.5228 -0.0134
 3108SOL    HW120786   0.090   2.989   4.153  0.4253 -0.4482  1.3038
 3108SOL    HW220787   4.685   3.047   4.098 -1.2574  0.1829  1.3611
 3109SOL     OW20788   4.029   2.752   9.832  0.2496  0.2217 -0.6452
 3109SOL    HW120789   4.091   2.810   9.875 -1.4629  0.8399  1.0043
 3109SOL    HW220790   4.072   2.669   9.811 -2.2738 -1.1279 -0.5426
 3110SOL     OW20791   0.480   0.730  10.094 -0.0330  0.4822  0.2344
 3110SOL    HW120792   0.430   0.721  10.175 -1.1702  0.2828 -0.4771
 3110SOL    HW220793   0.562   0.756  10.134  1.0262  1.5967 -2.6537
 3111SOL     OW20794   4.639   1.118   3.904 -0.4383 -0.2054 -0.2285
 3111SOL    HW120795   4.688   1.167   3.838 -0.2449  1.0533  0.8260
 3111SOL    HW220796   4.577   1.071   3.848 -0.3060 -1.4986  0.7171
 3112SOL     OW20797   0.077   1.791  16.865  0.1331 -0.3772 -0.2696
 3112SOL    HW120798   0.032   1.875  16.851  0.9102  0.0533 -0.1426
 3112SOL    HW220799   0.057   1.746  16.783  0.2234  0.0138 -0.5092
 3113SOL     OW20800   0.993   3.789   5.625  0.0555 -0.1201 -0.3874
 3113SOL    HW120801   0.977   3.849   5.552 -1.3992  0.0547  0.0756
 3113SOL    HW220802   1.075   3.752   5.592 -0.3830 -1.4067 -0.0296
 3114SOL     OW20803   0.182   3.836   6.550  0.2486 -0.0087 -0.5368
 3114SOL    HW120804   0.166   3.909   6.492 -1.2764 -0.5924 -0.8504
 3114SOL    HW220805   0.191   3.880   6.635 -0.9143 -2.9995  1.1279
 3115SOL     OW20806   3.807   2.700   5.514 -0.0547 -0.5662  0.0216
 3115SOL    HW120807   3.849   2.737   5.436  0.8635  0.8882  1.2157
 3115SOL    HW220808   3.874   2.640   5.547  1.2642  0.0491 -1.5292
 3116SOL     OW20809   2.121   1.613   2.995 -0.3058 -0.1139 -0.4484
 3116SOL    HW120810   2.099   1.643   3.083 -0.5464 -0.6017 -0.3432
 3116SOL    HW220811   2.213   1.585   2.997 -0.0812  0.6910  0.6426
 3117SOL     OW20812   0.404   3.830  11.059 -0.2064  0.0487 -0.5212
 3117SOL    HW120813   0.407   3.909  11.113  0.6055 -0.2167 -0.1824
 3117SOL    HW220814   0.320   3.833  11.012 -1.3656  1.2329  1.5992
 3118SOL     OW20815   0.017   2.375   6.684 -0.3463 -0.5105  0.2155
 3118SOL    HW120816   0.097   2.323   6.672  0.2893  0.7512 -1.1412
 3118SOL    HW220817   4.723   2.347   6.773 -0.6630 -2.2904 -0.4055
 3119SOL     OW20818   1.841   2.913  16.638  0.4133 -0.4012  0.4596
 3119SOL    HW120819   1.910   2.951  16.585 -0.8733  0.0917 -0.8714
 3119SOL    HW220820   1.816   2.838  16.583  0.7234 -0.7158  0.7503
 3120SOL     OW20821   2.399   1.295   8.854 -0.0678  0.4216 -0.0635
 3120SOL    HW120822   2.468   1.260   8.798  0.8084 -1.9267  2.4774
 3120SOL    HW220823   2.322   1.252   8.817 -0.2101  1.3267 -0.8035
 3121SOL     OW20824   2.503   1.043   9.165 -0.1401 -0.3003  0.2714
 3121SOL    HW120825   2.570   1.025   9.099 -0.3601 -1.4348  0.3603
 3121SOL    HW220826   2.463   0.956   9.165  1.2549 -0.9338 -1.8555
 3122SOL     OW20827   3.423   1.717   5.193  0.7001 -0.1216 -0.3890
 3122SOL    HW120828   3.347   1.766   5.162 -0.7222 -1.8353  0.3581
 3122SOL    HW220829   3.380   1.693   5.275  1.4857  1.6483  0.5468
 3123SOL     OW20830   1.338   3.477   1.015  0.0455  0.4277 -0.2706
 3123SOL    HW120831   1.392   3.554   0.996  0.6921  0.0262 -0.0406
 3123SOL    HW220832   1.252   3.513   0.994 -0.0067  0.8648  0.6967
 3124SOL     OW20833   2.479   3.475   0.693 -0.0310 -0.0672  0.0845
 3124SOL    HW120834   2.513   3.480   0.604  0.8299  0.1434  0.4321
 3124SOL    HW220835   2.486   3.564   0.727 -0.9147  0.6615 -1.6353
 3125SOL     OW20836   3.735   1.206   2.257 -0.7562  0.2160 -0.2502
 3125SOL    HW120837   3.683   1.244   2.328 -0.4439 -0.9560  0.6055
 3125SOL    HW220838   3.791   1.142   2.301  0.0123  1.5974  0.7841
 3126SOL     OW20839   4.169   3.114  16.934 -0.1142  0.3085  0.2377
 3126SOL    HW120840   4.220   3.191  16.961  1.3232 -0.9144  1.0294
 3126SOL    HW220841   4.243   3.069  16.893 -0.3689 -1.7024  1.9768
 3127SOL     OW20842   2.098   4.636   3.112  0.3578 -0.3216 -0.5093
 3127SOL    HW120843   2.078   4.553   3.069 -0.2249  0.0233 -0.9008
 3127SOL    HW220844   2.138   4.602   3.191 -0.1860  0.2581  0.0184
 3128SOL     OW20845   0.567   3.592   5.036  0.1612  0.0005 -0.1342
 3128SOL    HW120846   0.581   3.632   5.122 -0.0577 -0.0242 -0.0885
 3128SOL    HW220847   0.545   3.503   5.066  1.2289  0.3366  1.6377
 3129SOL     OW20848   3.837   2.032   4.411  0.0719 -0.2467  0.6676
 3129SOL    HW120849   3.925   2.035   4.376  0.5445  2.6429  2.0693
 3129SOL    HW220850   3.852   2.061   4.501  1.4804 -0.9264  0.6507
 3130SOL     OW20851   0.631   1.684  10.633  0.2879  0.3354  0.1653
 3130SOL    HW120852   0.593   1.737  10.563 -1.5584  4.1487  4.1267
 3130SOL    HW220853   0.590   1.725  10.709 -0.0099 -2.9270  1.7500
 3131SOL     OW20854   0.703   2.113   7.819  0.4219  0.1574 -0.6004
 3131SOL    HW120855   0.731   2.023   7.838 -0.2574 -0.3246 -1.9625
 3131SOL    HW220856   0.778   2.147   7.868 -0.7178 -0.8191  1.8702
 3132SOL     OW20857   0.430   4.535   6.655 -0.4317  0.6709  0.2769
 3132SOL    HW120858   0.498   4.470   6.640  0.7407  1.3426  2.7311
 3132SOL    HW220859   0.355   4.481   6.630 -0.6911  1.3289 -0.3851
 3133SOL     OW20860   1.875   3.867   5.078 -0.3457  0.8155 -0.4473
 3133SOL    HW120861   1.788   3.828   5.080 -0.9557  2.3230  2.4305
 3133SOL    HW220862   1.898   3.876   4.985  0.9681 -0.3200 -0.2268
 3134SOL     OW20863   3.525   4.123   4.712 -0.4098  0.1354 -0.5147
 3134SOL    HW120864   3.465   4.095   4.643  1.3873 -2.0016 -1.2089
 3134SOL    HW220865   3.553   4.037   4.744  0.9610  0.5840 -0.5060
 3135SOL     OW20866   1.467   4.534   3.386  0.0917 -0.0517 -0.0984
 3135SOL    HW120867   1.457   4.600   3.454  1.5464  0.1443 -0.0628
 3135SOL    HW220868   1.383   4.536   3.341  0.7898  2.4972 -1.2704
 3136SOL     OW20869   1.186   1.422  12.480  0.3301 -0.0916 -0.9715
 3136SOL    HW120870   1.278   1.397  12.479  0.1600 -0.7177 -1.0530
 3136SOL    HW220871   1.175   1.467  12.397  0.5155  0.8113 -0.5081
 3137SOL     OW20872   3.952   4.189   5.043 -0.5902 -0.2211  0.8121
 3137SOL    HW120873   3.991   4.271   5.012 -1.0743 -1.3364 -2.7624
 3137SOL    HW220874   3.951   4.212   5.136  0.0362  0.0272  0.7578
 3138SOL     OW20875   1.723   0.364  12.039  0.2790  0.3743  0.4702
 3138SOL    HW120876   1.806   0.361  11.993 -0.3034 -2.2221 -0.3906
 3138SOL    HW220877   1.743   0.285  12.089  0.2250 -0.4859 -0.8881
 3139SOL     OW20878   0.270   2.120   9.901  0.5848 -0.4033 -0.4636
 3139SOL    HW120879   0.311   2.038   9.929  1.7549 -0.0378 -1.1109
 3139SOL    HW220880   0.179   2.097   9.884  0.8644 -0.6056 -1.6803
 3140SOL     OW20881   3.823   3.662   7.769 -0.2346  0.2498  0.2872
 3140SOL    HW120882   3.739   3.649   7.811 -0.4020  3.5371  0.9326
 3140SOL    HW220883   3.855   3.744   7.806 -2.2957  1.1024  0.1470
 3141SOL     OW20884   1.337   1.931   3.292 -0.0690 -0.0279  0.4629
 3141SOL    HW120885   1.423   1.951   3.328 -0.4359  1.7786  0.3044
 3141SOL    HW220886   1.286   1.951   3.370  0.3617 -1.8235  1.2237
 3142SOL     OW20887   4.345   0.956  15.005  0.4769 -0.2244  0.3882
 3142SOL    HW120888   4.359   1.050  14.995  0.1111 -0.0632  1.3588
 3142SOL    HW220889   4.359   0.945  15.099  0.6273  0.4524  0.4454
 3143SOL     OW20890   0.339   3.212   7.211 -0.8306  0.8872 -0.9433
 3143SOL    HW120891   0.328   3.256   7.127 -1.1440  0.1703 -1.2765
 3143SOL    HW220892   0.341   3.120   7.183 -0.0291  1.1633 -1.8068
 3144SOL     OW20893   3.267   3.725   7.190  0.5743 -0.2195 -0.1000
 3144SOL    HW120894   3.224   3.792   7.243  1.7879  1.4021 -1.1959
 3144SOL    HW220895   3.356   3.731   7.225 -0.1916  1.5737  1.5405
 3145SOL     OW20896   1.320   2.164   7.025 -0.1108 -0.7849  0.0764
 3145SOL    HW120897   1.357   2.124   6.946 -0.9633  0.2573 -0.8451
 3145SOL    HW220898   1.278   2.244   6.994  1.4068  0.7122  1.8991
 3146SOL     OW20899   2.621   1.423  11.846 -0.1753 -0.2258  0.3260
 3146SOL    HW120900   2.711   1.445  11.870 -0.0397 -1.7969  1.3099
 3146SOL    HW220901   2.603   1.344  11.897 -1.8147 -0.7145 -1.0185
 3147SOL     OW20902   2.857   4.021   4.757 -0.0925  0.2349  0.9542
 3147SOL    HW120903   2.767   4.032   4.726  0.3038  0.7218 -0.0028
 3147SOL    HW220904   2.900   3.998   4.675  0.6024 -1.5258  1.7962
 3148SOL     OW20905   4.444   4.000  12.789  0.2619 -0.1202  0.8283
 3148SOL    HW120906   4.513   4.026  12.850 -1.7322  1.5381  2.3764
 3148SOL    HW220907   4.474   3.913  12.762 -1.6538 -0.4788 -0.1294
 3149SOL     OW20908   1.550   1.821   3.510 -0.7198 -0.0902 -0.1551
 3149SOL    HW120909   1.540   1.912   3.539  2.0332  0.9479 -2.4544
 3149SOL    HW220910   1.560   1.835   3.416 -3.5255 -2.3112 -0.7696
 3150SOL     OW20911   0.550   0.054  10.103  0.0623  0.7007 -0.2997
 3150SOL    HW120912   0.561   4.685  10.129  0.1408  1.2104  1.4984
 3150SOL    HW220913   0.642   0.069  10.082 -0.2459  1.2301 -1.2570
 3151SOL     OW20914   4.368   4.572  11.048 -0.0542  0.2997  0.4232
 3151SOL    HW120915   4.286   4.542  11.008  0.8268 -1.1934 -0.2505
 3151SOL    HW220916   4.439   4.542  10.992 -0.0948  1.6220 -0.3548
 3152SOL     OW20917   4.426   0.944   4.558  0.1252  0.1641  0.1236
 3152SOL    HW120918   4.375   0.950   4.478  1.6305  1.4007 -0.7512
 3152SOL    HW220919   4.508   0.989   4.537  0.0769 -0.2661 -0.9934
 3153SOL     OW20920   3.642   1.952   5.262 -0.1937  0.0144  0.4814
 3153SOL    HW120921   3.616   2.029   5.212  0.0795  0.2297  0.6681
 3153SOL    HW220922   3.568   1.891   5.252 -0.5144  0.7747 -1.6293
 3154SOL     OW20923   3.320   1.934   5.437 -0.5140 -0.2409  0.0232
 3154SOL    HW120924   3.377   1.985   5.379  0.3204  0.3714  1.3881
 3154SOL    HW220925   3.279   2.012   5.474 -2.8122 -0.0430 -2.9701
 3155SOL     OW20926   3.200   1.833   9.196  0.1583 -0.5350  0.1386
 3155SOL    HW120927   3.251   1.877   9.265 -0.2294 -1.6028  1.1060
 3155SOL    HW220928   3.149   1.770   9.247  1.6393  0.5195  2.9577
 3156SOL     OW20929   1.372   3.922   6.278 -0.0057  0.3178 -0.3948
 3156SOL    HW120930   1.416   3.849   6.321 -1.9380  0.0317  1.0969
 3156SOL    HW220931   1.436   3.948   6.211  1.0275 -0.1267  0.4207
 3157SOL     OW20932   4.498   3.204   3.715 -0.3868 -0.2862 -0.4227
 3157SOL    HW120933   4.581   3.164   3.740  0.0351  0.7122 -0.2626
 3157SOL    HW220934   4.464   3.247   3.793  2.5384  1.7071 -0.2452
 3158SOL     OW20935   4.692   3.643   6.948  0.0047  0.1704  0.7552
 3158SOL    HW120936   0.008   3.718   6.902 -1.6241  1.7551  1.9519
 3158SOL    HW220937   4.607   3.677   6.974 -1.7499 -3.6696  0.0823
 3159SOL     OW20938   3.933   1.017   2.338 -0.5711  0.3202  0.2547
 3159SOL    HW120939   3.981   0.978   2.264 -0.7149 -0.8136  0.7561
 3159SOL    HW220940   3.915   0.946   2.399 -0.3543 -1.9317 -2.2824
 3160SOL     OW20941   4.295   0.915   8.283  0.1760  0.0724 -0.2524
 3160SOL    HW120942   4.267   0.859   8.356 -1.9286 -0.0203 -1.1517
 3160SOL    HW220943   4.282   0.995   8.334 -0.6587 -0.2612  0.0576
 3161SOL     OW20944   1.104   2.187   9.328  0.4142  0.1465  0.4612
 3161SOL    HW120945   1.069   2.227   9.248 -0.5149  0.0054  0.8012
 3161SOL    HW220946   1.071   2.097   9.323  0.9238 -0.1803  3.0588
 3162SOL     OW20947   4.396   3.838   0.891 -0.2306 -0.5292 -0.3465
 3162SOL    HW120948   4.419   3.870   0.978  0.9816 -1.8120 -0.2064
 3162SOL    HW220949   4.450   3.891   0.832 -1.4292 -0.7033 -1.6273
 3163SOL     OW20950   0.087   2.760   5.029 -0.1505  0.1489 -0.1642
 3163SOL    HW120951   0.052   2.849   5.032 -1.7861 -0.4735 -1.0269
 3163SOL    HW220952   0.106   2.748   5.123 -0.5289  2.7897  0.2336
 3164SOL     OW20953   3.659   3.831  10.086  0.7191 -0.1729  0.1836
 3164SOL    HW120954   3.579   3.793  10.051  0.6308  0.8773 -0.7728
 3164SOL    HW220955   3.678   3.904  10.027  0.2320 -0.6666 -0.5840
 3165SOL     OW20956   3.748   4.012   0.814 -0.4945 -0.4926 -0.1669
 3165SOL    HW120957   3.801   4.046   0.886 -2.2031 -2.0653  1.8430
 3165SOL    HW220958   3.758   3.917   0.828 -1.8430 -1.0438 -2.9667
 3166SOL     OW20959   4.207   3.146   5.024 -0.1724  0.0607 -0.1183
 3166SOL    HW120960   4.182   3.153   5.116 -0.5831  2.0808 -0.3880
 3166SOL    HW220961   4.121   3.140   4.983  0.8276 -2.1322 -1.8933
 3167SOL     OW20962   3.076   0.416   7.848 -0.6501  0.5575  0.0006
 3167SOL    HW120963   3.111   0.491   7.896  0.5032  0.6239 -0.9644
 3167SOL    HW220964   3.068   0.449   7.759  1.7762  0.2103 -0.3473
 3168SOL     OW20965   2.867   0.543  15.650 -0.1506 -0.4475 -0.0626
 3168SOL    HW120966   2.800   0.599  15.687 -0.4547 -0.4221 -0.6519
 3168SOL    HW220967   2.950   0.589  15.664 -0.3721  0.1580 -0.7139
 3169SOL     OW20968   3.602   4.343   6.884  0.1516 -0.3040  0.0358
 3169SOL    HW120969   3.662   4.307   6.819  0.0066  0.4425 -0.5186
 3169SOL    HW220970   3.628   4.435   6.880 -1.3641  0.1432  0.3451
 3170SOL     OW20971   0.000   0.231   4.248  0.0751 -0.1013 -0.1264
 3170SOL    HW120972   0.076   0.173   4.255 -0.6700 -0.8389  1.8413
 3170SOL    HW220973   4.707   0.267   4.335  2.3124  0.6965 -0.0399
 3171SOL     OW20974   2.784   0.164   3.329 -0.1858  0.3822 -0.0916
 3171SOL    HW120975   2.827   0.212   3.257 -2.3194  0.3309 -1.3826
 3171SOL    HW220976   2.715   0.222   3.360 -0.7740  0.6890 -1.9338
 3172SOL     OW20977   3.494   3.763   7.333  0.1899 -0.4710 -0.4979
 3172SOL    HW120978   3.586   3.747   7.352 -0.2749 -0.0821  2.0467
 3172SOL    HW220979   3.449   3.751   7.417 -1.0003 -1.5599 -1.2832
 3173SOL     OW20980   3.679   4.574  17.287  0.3159  0.1925  0.4003
 3173SOL    HW120981   3.722   4.657  17.266 -1.9496  1.3203  0.2262
 3173SOL    HW220982   3.677   4.575  17.383 -0.6888 -0.0755  0.3843
 3174SOL     OW20983   2.813   0.687   2.216  0.0292  0.3432  0.0320
 3174SOL    HW120984   2.718   0.692   2.228  0.3662  0.7149  2.5157
 3174SOL    HW220985   2.855   0.662   2.298  0.6034 -1.3819 -0.7797
 3175SOL     OW20986   3.605   2.843   5.453 -0.4051 -0.0304 -0.1831
 3175SOL    HW120987   3.519   2.803   5.462  0.4304 -1.3010  2.3278
 3175SOL    HW220988   3.674   2.786   5.488 -0.4118 -0.4524 -0.8435
 3176SOL     OW20989   1.624   4.117   1.987  0.1534 -0.1551  0.2241
 3176SOL    HW120990   1.559   4.100   1.918 -0.1175 -0.2410  0.5006
 3176SOL    HW220991   1.693   4.059   1.954  0.4626  0.1282  0.3733
 3177SOL     OW20992   2.149   1.485   3.424  0.0268 -0.8854 -0.8741
 3177SOL    HW120993   2.172   1.398   3.391  0.7480 -0.2692 -1.9773
 3177SOL    HW220994   2.222   1.541   3.401  2.4665 -2.7312  2.4028
 3178SOL     OW20995   2.764   0.232   8.058  0.7271  0.0327 -0.5723
 3178SOL    HW120996   2.675   0.222   8.093 -0.4810  1.2180 -3.2506
 3178SOL    HW220997   2.746   0.299   7.992 -1.3031 -2.0542 -2.1680
 3179SOL     OW20998   0.809   1.631   2.384 -0.0116  0.4871  1.5145
 3179SOL    HW120999   0.903   1.649   2.397  0.9275 -1.2436 -2.8437
 3179SOL    HW221000   0.785   1.689   2.457 -0.8952 -0.1830  1.7516
 3180SOL     OW21001   0.229   2.380   7.036  0.5421 -0.1357 -0.1723
 3180SOL    HW121002   0.206   2.303   6.984  1.7803  0.5442 -1.7388
 3180SOL    HW221003   0.193   2.446   6.976  0.9708 -0.8565 -1.2184
 3181SOL     OW21004   4.413   4.512  12.438  0.4148 -0.0854  0.8453
 3181SOL    HW121005   4.483   4.453  12.466  0.4016 -0.8689 -0.7253
 3181SOL    HW221006   4.407   4.566  12.516  0.5743  2.2407 -0.7504
 3182SOL     OW21007   1.534   3.591   1.488  0.8868 -0.1029 -0.1362
 3182SOL    HW121008   1.583   3.657   1.439  1.9295 -0.5417  0.3312
 3182SOL    HW221009   1.529   3.640   1.569  1.0310 -0.2736 -0.0258
 3183SOL     OW21010   4.288   1.579   4.876  0.5081  0.4372 -0.1134
 3183SOL    HW121011   4.201   1.594   4.914 -0.5094 -2.4628 -1.3161
 3183SOL    HW221012   4.300   1.510   4.941 -1.1541  0.4183  0.1825
 3184SOL     OW21013   1.516   1.933   4.504 -0.2783 -0.4265 -0.1640
 3184SOL    HW121014   1.457   2.008   4.498 -0.3941 -0.5101 -0.0766
 3184SOL    HW221015   1.451   1.864   4.515 -1.1370  0.2447 -0.9995
 3185SOL     OW21016   3.597   4.180   8.515  0.1691 -0.5779 -0.5262
 3185SOL    HW121017   3.533   4.236   8.560 -0.4245 -2.0170  0.4222
 3185SOL    HW221018   3.548   4.100   8.536  1.8987 -1.7192 -0.8900
 3186SOL     OW21019   3.696   3.789   3.178  0.1302  0.2384  0.4669
 3186SOL    HW121020   3.660   3.733   3.247 -1.0685  0.4024 -0.0266
 3186SOL    HW221021   3.621   3.799   3.119  1.4568 -3.2707 -1.8715
 3187SOL     OW21022   3.703   3.367   3.598  0.5109 -0.5298  0.2800
 3187SOL    HW121023   3.638   3.411   3.544  1.7517  1.2329  0.2290
 3187SOL    HW221024   3.723   3.431   3.666 -2.9565  0.0022  0.7848
 3188SOL     OW21025   3.062   2.525   9.418  0.0773 -0.4651  0.1534
 3188SOL    HW121026   3.142   2.566   9.451 -0.5783 -0.0527  1.2306
 3188SOL    HW221027   2.999   2.548   9.487  0.0924 -0.8693  0.3091
 3189SOL     OW21028   4.706   0.237   2.483  0.0979 -0.1620  1.2199
 3189SOL    HW121029   4.694   0.148   2.452  0.3622  0.2646 -0.0712
 3189SOL    HW221030   4.657   0.282   2.414  1.7968 -0.2929 -0.0701
 3190SOL     OW21031   3.034   1.061   6.803  0.2500  0.0161 -0.2663
 3190SOL    HW121032   3.007   1.152   6.794  1.5633  0.3704 -0.6789
 3190SOL    HW221033   2.961   1.021   6.850 -1.5566  1.0114 -2.2054
 3191SOL     OW21034   1.738   3.041   4.631  0.2773 -0.2897  0.3967
 3191SOL    HW121035   1.747   3.066   4.539  1.6658 -0.7473  0.4003
 3191SOL    HW221036   1.682   3.113   4.661  1.0713  0.1082  0.9196
 3192SOL     OW21037   2.806   1.458  15.480  0.0844 -0.1886 -0.5940
 3192SOL    HW121038   2.719   1.423  15.458 -0.5467  0.1986  1.2372
 3192SOL    HW221039   2.802   1.538  15.428 -0.2334 -1.2872 -2.2518
 3193SOL     OW21040   2.821   0.061   4.843  0.5076  0.7382 -0.6421
 3193SOL    HW121041   2.760   0.071   4.769  0.3561  1.5780 -0.3972
 3193SOL    HW221042   2.757   0.088   4.908  1.6123  1.9515 -0.0667
 3194SOL     OW21043   0.702   1.492   1.243  0.5533 -0.0269  0.2589
 3194SOL    HW121044   0.657   1.446   1.314 -0.1964  2.0576  1.1450
 3194SOL    HW221045   0.670   1.450   1.164 -1.5162  0.2912  0.9352
 3195SOL     OW21046   0.617   0.107   9.238  0.2766  0.1285  0.1791
 3195SOL    HW121047   0.618   0.099   9.333  2.9505  1.6796  0.2584
 3195SOL    HW221048   0.556   0.179   9.222 -0.9774 -1.5524 -2.5779
 3196SOL     OW21049   0.209   2.968   1.550  0.2555  0.1203  0.7109
 3196SOL    HW121050   0.230   2.977   1.643 -0.8726 -1.8024  1.1439
 3196SOL    HW221051   0.116   2.988   1.545  0.1334 -0.6981 -0.3511
 3197SOL     OW21052   4.028   3.288   1.544  0.1172 -0.0143  0.0179
 3197SOL    HW121053   4.041   3.274   1.450  1.5384 -1.5071  0.4468
 3197SOL    HW221054   4.096   3.349   1.571  2.1781 -2.4903  0.4545
 3198SOL     OW21055   0.852   2.266   6.472 -0.1588 -0.8459 -0.2592
 3198SOL    HW121056   0.870   2.284   6.564  0.6696  0.9252 -0.7773
 3198SOL    HW221057   0.826   2.345   6.426  1.1116 -0.7540 -0.8187
 3199SOL     OW21058   3.874   3.327   3.379 -0.2444 -0.2335 -0.7006
 3199SOL    HW121059   3.804   3.331   3.444 -0.5808 -1.6878 -0.9644
 3199SOL    HW221060   3.953   3.320   3.433 -1.3214 -0.6944  0.8233
 3200SOL     OW21061   3.644   4.681   6.839  0.2047 -0.4343 -0.0365
 3200SOL    HW121062   3.713   4.698   6.904 -1.2460 -0.7886  1.5960
 3200SOL    HW221063   3.666   0.026   6.775 -1.0568  0.0395  0.0363
 3201SOL     OW21064   0.249   1.538   8.229  0.2813 -0.0721  0.0260
 3201SOL    HW121065   0.219   1.451   8.254  0.2803  0.0703  0.5324
 3201SOL    HW221066   0.283   1.571   8.312 -1.4354 -1.4579  1.2835
 3202SOL     OW21067   4.516   1.147  15.532  0.4612  0.2297  0.4447
 3202SOL    HW121068   4.446   1.205  15.504  0.6209 -0.6314 -1.7513
 3202SOL    HW221069   4.572   1.144  15.454 -1.7065  1.7255 -1.1644
 3203SOL     OW21070   0.911   3.459   4.897 -0.3341  0.5733 -0.4457
 3203SOL    HW121071   0.846   3.518   4.861 -0.2286  1.3886  0.6934
 3203SOL    HW221072   0.954   3.514   4.963 -0.8865  0.0606  0.3435
 3204SOL     OW21073   1.251   3.087  12.989 -0.8410 -0.1217 -0.4229
 3204SOL    HW121074   1.323   3.146  12.966  0.0869  0.0133  2.9054
 3204SOL    HW221075   1.298   3.007  12.964  0.3533  0.4685 -0.0425
 3205SOL     OW21076   2.537   1.050  13.576 -0.0782 -0.3710  0.1121
 3205SOL    HW121077   2.444   1.036  13.594  0.2241 -3.1049 -0.5666
 3205SOL    HW221078   2.550   1.144  13.588  1.0419 -0.3893 -0.9756
 3206SOL     OW21079   2.192   1.302   5.389 -0.1554  0.8753 -0.6339
 3206SOL    HW121080   2.272   1.252   5.373 -1.1782 -0.4406 -1.5904
 3206SOL    HW221081   2.194   1.367   5.319  2.0551  1.8792  0.3550
 3207SOL     OW21082   2.519   3.939   4.402 -0.3800  0.7381  0.0627
 3207SOL    HW121083   2.474   4.018   4.372  0.1823 -0.1159 -3.0525
 3207SOL    HW221084   2.451   3.877   4.376  0.4790 -0.2937  0.2613
 3208SOL     OW21085   3.351   0.489   6.607  0.4571 -0.1637  0.1770
 3208SOL    HW121086   3.258   0.468   6.603  0.6572 -1.0635  0.1751
 3208SOL    HW221087   3.374   0.534   6.526  4.0767  0.1027  1.3413
 3209SOL     OW21088   2.546   4.332  13.831 -0.7594  0.0768  0.3580
 3209SOL    HW121089   2.599   4.406  13.860 -2.8844  2.8020 -2.7052
 3209SOL    HW221090   2.597   4.321  13.752  0.3040 -0.0248  1.0586
 3210SOL     OW21091   1.555   4.053   2.987  0.1453 -0.4733  0.2571
 3210SOL    HW121092   1.509   4.052   2.903  0.0031 -1.6533  0.3542
 3210SOL    HW221093   1.643   4.079   2.959  0.2904 -0.5947  0.6079
 3211SOL     OW21094   3.024   3.463  14.231 -0.5772  0.0360 -0.4732
 3211SOL    HW121095   3.061   3.395  14.287  0.2390 -1.1199 -2.4064
 3211SOL    HW221096   3.002   3.534  14.291 -1.0598  0.4181 -1.1059
 3212SOL     OW21097   1.179   2.767   2.484 -0.0833  0.6334 -0.3652
 3212SOL    HW121098   1.180   2.807   2.572  0.5905  2.1895 -1.0748
 3212SOL    HW221099   1.214   2.837   2.429 -2.1815  1.6816 -0.3865
 3213SOL     OW21100   2.699   0.977  14.932  0.2335  0.0811 -0.0262
 3213SOL    HW121101   2.614   1.013  14.908  0.9155  1.9262  0.3424
 3213SOL    HW221102   2.763   1.044  14.909  2.1880 -0.9686  2.4093
 3214SOL     OW21103   1.238   2.289   8.704  0.4429 -0.1422  0.4005
 3214SOL    HW121104   1.285   2.207   8.691 -1.0458 -0.9399  0.0807
 3214SOL    HW221105   1.219   2.312   8.613 -0.2347  0.8474  0.7910
 3215SOL     OW21106   2.359   0.415   5.138  0.0327 -0.1095  0.5002
 3215SOL    HW121107   2.427   0.449   5.196  0.5621  0.4535 -0.4407
 3215SOL    HW221108   2.323   0.338   5.182 -1.5336 -0.3714 -1.2391
 3216SOL     OW21109   4.687   3.191   8.076 -0.3339 -0.0522 -0.7552
 3216SOL    HW121110   0.011   3.264   8.116 -0.2925 -0.1374 -0.6485
 3216SOL    HW221111   0.038   3.130   8.074 -0.2511 -0.0095  1.0597
 3217SOL     OW21112   3.718   4.152  14.024 -0.5468 -0.3251 -0.5706
 3217SOL    HW121113   3.777   4.083  14.055 -1.7051 -0.7611  0.6057
 3217SOL    HW221114   3.735   4.152  13.929  2.7950  0.0448  0.0183
 3218SOL     OW21115   0.693   0.365   0.451  0.4818 -0.1457  0.1460
 3218SOL    HW121116   0.616   0.313   0.430 -0.3814  1.1801 -0.0092
 3218SOL    HW221117   0.680   0.387   0.543  0.2402  0.0248  0.0734
 3219SOL     OW21118   2.604   4.332   2.997 -0.0889  0.5749 -0.4593
 3219SOL    HW121119   2.602   4.363   3.087 -0.8041 -0.3707 -0.1498
 3219SOL    HW221120   2.515   4.355   2.971 -0.2313  1.6960  1.0498
 3220SOL     OW21121   2.206   0.984   2.900  0.0539  0.0147 -1.2180
 3220SOL    HW121122   2.220   0.979   2.995 -0.9457 -2.1554 -1.1868
 3220SOL    HW221123   2.291   1.010   2.864 -0.0613  0.5083 -1.1293
 3221SOL     OW21124   0.998   3.414   3.689  0.0338  0.0835 -0.0253
 3221SOL    HW121125   1.041   3.448   3.768  0.9393  1.3439 -1.0602
 3221SOL    HW221126   0.964   3.329   3.717 -3.0419  1.7653  1.3331
 3222SOL     OW21127   1.098   3.681   9.101  0.6038  0.3262  0.0774
 3222SOL    HW121128   1.005   3.693   9.079  0.0749 -1.8097  1.2009
 3222SOL    HW221129   1.119   3.607   9.044 -0.4773 -0.9836  1.3824
 3223SOL     OW21130   3.467   4.628   2.923 -0.0075 -0.7593 -0.2091
 3223SOL    HW121131   3.487   4.554   2.866 -0.4938  0.4346 -1.9328
 3223SOL    HW221132   3.389   4.603   2.972  0.6753 -2.4519  0.0165
 3224SOL     OW21133   2.990   0.910  17.518 -0.2588 -0.5874 -0.2104
 3224SOL    HW121134   3.053   0.881  17.584  0.6550  0.8564 -0.4608
 3224SOL    HW221135   2.971   0.832  17.466  0.7203 -0.0368 -1.3807
 3225SOL     OW21136   0.468   1.840   3.856 -0.1736  0.2929 -0.1657
 3225SOL    HW121137   0.508   1.757   3.833  1.5211  1.1463 -0.2706
 3225SOL    HW221138   0.373   1.833   3.841  0.3382 -1.3955 -2.7037
 3226SOL     OW21139   3.977   2.718   2.253  0.0709  0.4794  0.3207
 3226SOL    HW121140   3.931   2.784   2.201  1.4510  0.7678 -0.5165
 3226SOL    HW221141   3.960   2.756   2.340 -0.8647  2.6859 -0.8081
 3227SOL     OW21142   1.756   2.795   2.499  0.4145  0.3142 -0.1331
 3227SOL    HW121143   1.686   2.783   2.434 -0.1224  3.1892 -0.0895
 3227SOL    HW221144   1.762   2.890   2.507  1.9989  0.2493 -0.6385
 3228SOL     OW21145   1.248   3.633   3.424  0.4480  0.5684 -0.3165
 3228SOL    HW121146   1.338   3.629   3.393  1.0933  1.8612  1.4512
 3228SOL    HW221147   1.222   3.548   3.459  2.1551  0.7060  1.2498
 3229SOL     OW21148   2.912   1.505  10.531  0.8879 -0.6492  0.3711
 3229SOL    HW121149   2.907   1.487  10.437 -0.6643 -0.6645  0.4550
 3229SOL    HW221150   2.896   1.423  10.578 -0.6227 -0.6406 -0.1235
 3230SOL     OW21151   3.796   2.536  16.524  0.4802 -0.3948 -0.4372
 3230SOL    HW121152   3.821   2.510  16.613  1.6633 -0.3611 -0.7569
 3230SOL    HW221153   3.834   2.624  16.517  2.6499 -1.2493  0.3311
 3231SOL     OW21154   1.938   4.178   9.481  0.1580 -0.0585 -0.0365
 3231SOL    HW121155   1.869   4.124   9.440  0.8423  0.4034 -1.8067
 3231SOL    HW221156   2.018   4.125   9.481  0.6263  0.6539 -0.8523
 3232SOL     OW21157   2.033   1.224   2.924 -0.0339  0.2302  0.3547
 3232SOL    HW121158   1.961   1.229   2.862  0.8496  0.2321 -0.6654
 3232SOL    HW221159   2.072   1.141   2.895  1.0456 -0.0136  2.4474
 3233SOL     OW21160   3.349   0.606   2.243 -0.0780 -0.0817 -0.7806
 3233SOL    HW121161   3.275   0.551   2.218 -0.4006 -0.2208  0.4965
 3233SOL    HW221162   3.316   0.644   2.324  1.7876 -0.7681  0.2875
 3234SOL     OW21163   2.189   3.779  15.827  0.4566  0.2304  0.7436
 3234SOL    HW121164   2.234   3.734  15.899  2.4142 -0.8548 -1.1731
 3234SOL    HW221165   2.157   3.857  15.872  0.2607  0.8213 -0.4195
 3235SOL     OW21166   3.647   1.011   0.837  0.2830  0.4710  0.1567
 3235SOL    HW121167   3.638   0.981   0.927  0.5888  0.6637  0.2506
 3235SOL    HW221168   3.557   1.004   0.805  0.3199  1.5296 -0.1932
 3236SOL     OW21169   1.997   0.496   2.882 -0.0059 -0.3705  0.2200
 3236SOL    HW121170   2.040   0.581   2.891 -0.7386 -0.0410  0.6337
 3236SOL    HW221171   2.050   0.454   2.815 -2.3413  0.0315 -1.8925
 3237SOL     OW21172   4.404   4.392  17.228  0.2616  0.1802 -0.2693
 3237SOL    HW121173   4.408   4.481  17.263  0.4427 -0.4386  1.2569
 3237SOL    HW221174   4.437   4.411  17.140  0.1034  2.2121  0.1178
 3238SOL     OW21175   4.624   2.190   7.547  0.5765 -0.8598 -0.3692
 3238SOL    HW121176   4.562   2.121   7.524 -0.1704  0.0603 -1.1257
 3238SOL    HW221177   4.706   2.166   7.504  0.5634 -1.9511  0.2293
 3239SOL     OW21178   4.617   1.464   7.885  0.2183 -0.4293  0.1740
 3239SOL    HW121179   4.697   1.410   7.882  1.1130  0.8757  0.4766
 3239SOL    HW221180   4.555   1.410   7.933  2.5570 -1.2975  2.2651
 3240SOL     OW21181   4.599   1.503   6.285  0.4863  0.1754  0.2662
 3240SOL    HW121182   4.521   1.459   6.252  0.8154 -0.3451  0.1803
 3240SOL    HW221183   4.609   1.480   6.377  0.6401 -0.5920  0.0549
 3241SOL     OW21184   3.994   4.433   3.262  0.1051  0.1228 -0.7772
 3241SOL    HW121185   3.998   4.372   3.189  1.0579 -1.8176  0.9005
 3241SOL    HW221186   4.087   4.451   3.275  0.2470 -1.0157 -0.2518
 3242SOL     OW21187   1.255   3.625   0.279  1.0165  0.0129  0.1976
 3242SOL    HW121188   1.172   3.578   0.278  0.3977  1.1060 -1.1651
 3242SOL    HW221189   1.247   3.652   0.187  1.5374 -0.1138  0.1164
 3243SOL     OW21190   0.339   0.181  14.807  0.2135  0.3314  0.2748
 3243SOL    HW121191   0.294   0.200  14.725 -0.7782 -1.3566  0.4289
 3243SOL    HW221192   0.268   0.197  14.869  1.3987 -1.2857  2.0431
 3244SOL     OW21193   3.028   0.528   0.805  0.4774 -0.0250  0.0763
 3244SOL    HW121194   3.085   0.571   0.868  0.3873 -2.0095  1.5352
 3244SOL    HW221195   3.048   0.435   0.820  3.4439  0.3317 -1.7698
 3245SOL     OW21196   3.664   4.417   4.798 -0.2493  0.3818 -0.4829
 3245SOL    HW121197   3.651   4.327   4.769  0.4604 -0.5113  1.9613
 3245SOL    HW221198   3.619   4.424   4.882 -1.0105  0.8120 -0.9278
 3246SOL     OW21199   0.898   2.842   9.040  0.1098 -0.4777  0.4842
 3246SOL    HW121200   0.938   2.756   9.027 -1.5449 -1.0232 -1.1836
 3246SOL    HW221201   0.963   2.898   8.997  0.4108 -1.2679 -0.0967
 3247SOL     OW21202   1.883   2.033   4.708 -0.6484 -0.4678 -0.0253
 3247SOL    HW121203   1.821   2.100   4.737  1.5713  1.4292  0.3061
 3247SOL    HW221204   1.833   1.988   4.640 -0.1125 -0.3551 -0.4898
 3248SOL     OW21205   2.925   2.765  17.157 -0.5215  0.0349  0.4872
 3248SOL    HW121206   2.986   2.724  17.219 -2.3349 -0.5473  1.8914
 3248SOL    HW221207   2.981   2.778  17.080 -1.6225  0.8355 -0.1648
 3249SOL     OW21208   3.798   0.228   7.895  0.0036 -0.1224  0.0805
 3249SOL    HW121209   3.742   0.286   7.947 -0.4903 -0.5660  0.0392
 3249SOL    HW221210   3.884   0.246   7.934 -0.4804 -1.2408  1.6359
 3250SOL     OW21211   0.706   1.742  13.289  0.6038 -0.4042 -0.0520
 3250SOL    HW121212   0.617   1.741  13.325  1.2182  1.0100  1.5414
 3250SOL    HW221213   0.686   1.718  13.199  0.0289 -0.2162  0.0248
 3251SOL     OW21214   1.090   0.623   2.581  0.0772 -0.2539 -0.0534
 3251SOL    HW121215   1.168   0.611   2.636  0.4503  1.1426 -0.3025
 3251SOL    HW221216   1.034   0.562   2.630  0.3011  0.3556  0.9557
 3252SOL     OW21217   2.191   4.566  17.368  0.0412 -0.1275 -0.1381
 3252SOL    HW121218   2.194   4.631  17.438  0.1444  0.2352 -0.4754
 3252SOL    HW221219   2.263   4.507  17.391  0.1530  0.2702  0.5168
 3253SOL     OW21220   3.758   2.790   8.232  0.6228 -0.3554 -0.2758
 3253SOL    HW121221   3.697   2.770   8.302  1.1523  0.5352  0.4401
 3253SOL    HW221222   3.819   2.841   8.285  0.8925 -2.3749  1.3616
 3254SOL     OW21223   3.169   2.615   5.203  0.3513  0.3732  0.1131
 3254SOL    HW121224   3.073   2.614   5.208  0.4292 -1.0334  1.3254
 3254SOL    HW221225   3.165   2.648   5.113  3.9071  0.9522  0.1862
 3255SOL     OW21226   3.791   4.359   0.604  0.1255 -0.1122  0.5696
 3255SOL    HW121227   3.769   4.358   0.697 -2.5526  1.2412 -0.0313
 3255SOL    HW221228   3.823   4.449   0.599  0.0923 -0.1933 -1.1210
 3256SOL     OW21229   4.426   2.901   3.791  0.0906  0.2934 -0.6959
 3256SOL    HW121230   4.386   2.820   3.758  0.3433 -0.4482  0.8207
 3256SOL    HW221231   4.506   2.870   3.834 -0.3976  2.5354  1.7395
 3257SOL     OW21232   4.037   3.891  14.036  0.0998  0.0116 -0.0523
 3257SOL    HW121233   4.046   3.974  13.988  0.3015  0.1656  0.2569
 3257SOL    HW221234   3.951   3.898  14.078 -0.0924 -1.4866 -0.2047
 3258SOL     OW21235   2.898   4.549   0.268  0.0549 -1.1663  0.0065
 3258SOL    HW121236   2.966   4.526   0.331 -0.2209  2.0189  1.5057
 3258SOL    HW221237   2.823   4.497   0.296 -1.1934  0.8329  0.4403
 3259SOL     OW21238   0.360   1.503   4.990 -0.0510  0.2548  0.2047
 3259SOL    HW121239   0.443   1.490   5.036 -0.9124  2.8221  2.4770
 3259SOL    HW221240   0.303   1.559   5.044 -0.5172  0.1425 -0.1763
 3260SOL     OW21241   1.204   4.528   2.111  0.4158  0.1441 -0.1671
 3260SOL    HW121242   1.249   4.610   2.091 -0.2202  1.1377  2.4227
 3260SOL    HW221243   1.124   4.563   2.151  0.6677  3.5698 -2.6559
 3261SOL     OW21244   0.761   3.024   9.173 -0.0079 -0.0366  0.4714
 3261SOL    HW121245   0.757   2.984   9.259  1.1560 -1.8561 -0.3029
 3261SOL    HW221246   0.812   2.953   9.132 -1.4789  0.1978 -1.8089
 3262SOL     OW21247   4.657   1.707   6.104  0.0144 -0.5009  0.2713
 3262SOL    HW121248   4.627   1.787   6.147 -0.1733 -0.2431 -0.3450
 3262SOL    HW221249   4.654   1.637   6.169 -0.3787  1.3814  2.2932
 3263SOL     OW21250   1.405   4.593   9.917  0.5416  0.3607 -0.3064
 3263SOL    HW121251   1.403   4.551   9.830  1.6568 -1.0163  0.3425
 3263SOL    HW221252   1.498   4.604   9.932  0.0077  0.1996  3.0682
 3264SOL     OW21253   4.636   4.558  14.611  0.0951 -0.4457  0.4389
 3264SOL    HW121254   4.548   4.568  14.573  0.3329  0.5490  0.1447
 3264SOL    HW221255   4.637   4.466  14.637 -2.8037  0.3755  3.5270
 3265SOL     OW21256   2.769   1.060   3.463 -0.9469 -0.3918 -0.2331
 3265SOL    HW121257   2.710   1.025   3.530 -2.1284 -0.2800 -1.2202
 3265SOL    HW221258   2.782   1.136   3.519 -1.8227 -0.6898  0.3651
 3266SOL     OW21259   1.735   2.590   3.350 -0.2246 -0.0644  0.0571
 3266SOL    HW121260   1.811   2.641   3.378  0.5991 -0.7042 -1.0251
 3266SOL    HW221261   1.733   2.517   3.412 -0.2349 -0.4929 -0.4501
 3267SOL     OW21262   0.051   1.412   7.428 -0.1301  0.2974  0.2675
 3267SOL    HW121263   0.131   1.426   7.478 -0.5259  0.9426  0.7077
 3267SOL    HW221264   0.080   1.336   7.376 -0.4463  3.0371 -3.9610
 3268SOL     OW21265   2.398   0.086  16.435  0.3593 -0.3384 -0.6111
 3268SOL    HW121266   2.337   0.110  16.506  1.5609  1.1403 -0.0876
 3268SOL    HW221267   2.356   0.104  16.351 -1.1886 -1.7051 -0.1310
 3269SOL     OW21268   3.669   4.577  15.489 -0.5790 -0.4499  0.4235
 3269SOL    HW121269   3.603   4.635  15.527  1.6980  2.1284  0.4250
 3269SOL    HW221270   3.737   4.575  15.556  0.1778 -0.1876 -0.3365
 3270SOL     OW21271   0.794   3.716  10.242 -0.1525  0.3677 -0.5333
 3270SOL    HW121272   0.855   3.645  10.220 -1.3118 -0.9520  0.5233
 3270SOL    HW221273   0.761   3.734  10.154  0.3838  0.1180 -0.7883
 3271SOL     OW21274   2.855   0.917   8.116  0.3445  0.1985  0.3183
 3271SOL    HW121275   2.816   0.909   8.203  0.7284  2.0127  0.6634
 3271SOL    HW221276   2.923   0.978   8.145  0.7104 -0.1832  0.2679
 3272SOL     OW21277   2.204   3.599   6.062 -0.6698  0.6365  0.7593
 3272SOL    HW121278   2.151   3.531   6.103  0.5543 -0.4163  0.5859
 3272SOL    HW221279   2.237   3.649   6.138  0.2700 -0.6019  1.1629
 3273SOL     OW21280   1.078   4.056   8.389 -0.2112 -0.0746  0.4671
 3273SOL    HW121281   0.994   4.103   8.381  0.2204  0.5642 -0.3128
 3273SOL    HW221282   1.088   4.056   8.485 -1.7449  2.7634  0.6497
 3274SOL     OW21283   1.000   0.375   7.781  0.8837  0.1123 -0.4304
 3274SOL    HW121284   0.931   0.401   7.843  1.4446  0.2499  0.1300
 3274SOL    HW221285   1.083   0.401   7.819  0.4095 -0.5033  1.0316
 3275SOL     OW21286   0.573   3.883   7.682  0.6877  0.0933  0.7933
 3275SOL    HW121287   0.644   3.828   7.716 -1.5380 -2.0752  1.9313
 3275SOL    HW221288   0.499   3.822   7.676  1.4639 -0.6839 -0.8898
 3276SOL     OW21289   0.608   0.594   8.474  0.3405  0.0526 -0.1742
 3276SOL    HW121290   0.646   0.517   8.517 -3.7264 -0.4197  2.5121
 3276SOL    HW221291   0.689   0.614   8.427  2.5716 -2.1016  2.7109
 3277SOL     OW21292   1.335   0.690   2.231  0.3851 -0.1374 -0.1461
 3277SOL    HW121293   1.375   0.753   2.171  0.5099  0.5131  0.6233
 3277SOL    HW221294   1.403   0.624   2.217  1.1459  1.0120 -1.8061
 3278SOL     OW21295   3.004   1.888  15.393 -0.1658  0.3020 -0.9402
 3278SOL    HW121296   2.939   1.943  15.436  1.3541  0.7443  0.7979
 3278SOL    HW221297   2.949   1.848  15.325 -2.0061  1.4087 -0.1025
 3279SOL     OW21298   4.116   3.320  10.490  0.3723 -0.1140 -0.6179
 3279SOL    HW121299   4.165   3.343  10.411 -1.8421  1.2255 -1.5832
 3279SOL    HW221300   4.141   3.395  10.543 -2.0616 -1.3354  2.2141
 3280SOL     OW21301   0.785   4.563   4.514 -0.1542 -0.0898  0.1416
 3280SOL    HW121302   0.690   4.556   4.519 -0.3906  0.3721 -3.7794
 3280SOL    HW221303   0.797   4.632   4.450  0.8341 -1.4515 -1.1492
 3281SOL     OW21304   3.485   3.531   3.139  0.0623  0.6897  0.7522
 3281SOL    HW121305   3.434   3.462   3.096 -0.1569  2.8910 -2.4435
 3281SOL    HW221306   3.417   3.598   3.130  0.3509  0.9192  0.3020
 3282SOL     OW21307   4.188   2.017  15.923  0.2404  0.0649 -0.0968
 3282SOL    HW121308   4.241   1.970  15.987  1.2515  0.3710 -0.7205
 3282SOL    HW221309   4.190   1.966  15.841 -2.9463  1.1491 -0.8449
 3283SOL     OW21310   4.143   2.377  13.607  0.3650  0.6943 -0.3189
 3283SOL    HW121311   4.071   2.363  13.668 -1.5225  3.0990 -2.0089
 3283SOL    HW221312   4.148   2.473  13.609 -2.0513  0.8583 -2.2593
 3284SOL     OW21313   3.538   2.552   2.070 -0.2049  0.3039 -0.1399
 3284SOL    HW121314   3.559   2.610   1.996  1.0145  3.6264  2.7573
 3284SOL    HW221315   3.445   2.553   2.047 -0.2006 -1.8265 -0.2148
 3285SOL     OW21316   4.423   3.727   7.502  0.0136 -0.3135 -0.3050
 3285SOL    HW121317   4.449   3.770   7.583  1.3647 -0.9456 -0.3953
 3285SOL    HW221318   4.328   3.736   7.502  0.2370  1.7989  1.2591
 3286SOL     OW21319   2.636   1.217  16.074 -0.4261 -0.1865 -0.0332
 3286SOL    HW121320   2.681   1.192  16.155 -0.4811 -1.4199 -0.3794
 3286SOL    HW221321   2.568   1.269  16.118  0.8689  2.4037 -1.1003
 3287SOL     OW21322   0.856   4.565   8.359  0.4111 -0.2542 -0.2779
 3287SOL    HW121323   0.892   4.528   8.278 -0.3049 -0.4644 -0.5006
 3287SOL    HW221324   0.934   4.614   8.387 -0.1960  0.7961 -0.4180
 3288SOL     OW21325   3.863   4.623   3.425 -0.5460  0.0211 -0.2818
 3288SOL    HW121326   3.882   4.698   3.369  3.0035 -1.6391 -1.2647
 3288SOL    HW221327   3.916   4.556   3.383 -0.3099 -1.1051  1.8151
 3289SOL     OW21328   1.441   4.273   3.504  0.6513  0.3322 -0.0800
 3289SOL    HW121329   1.511   4.315   3.455  1.6269 -2.8130 -1.4150
 3289SOL    HW221330   1.450   4.294   3.597  0.8966  1.4754 -0.3626
 3290SOL     OW21331   2.625   1.814  15.586  0.1350 -0.4205 -0.2002
 3290SOL    HW121332   2.531   1.795  15.579  0.4551 -1.7557 -0.9010
 3290SOL    HW221333   2.645   1.758  15.662  1.2236  1.4507  0.8912
 3291SOL     OW21334   2.245   1.149  15.752 -0.2932 -0.0891  0.3034
 3291SOL    HW121335   2.197   1.223  15.714  0.3802  0.0406 -0.3021
 3291SOL    HW221336   2.304   1.197  15.809  1.3889 -0.3600 -1.2173
 3292SOL     OW21337   0.232   4.671   7.389  0.4965 -0.9938 -0.2925
 3292SOL    HW121338   0.266   4.635   7.306  2.2756  1.8941 -0.8123
 3292SOL    HW221339   0.146   4.708   7.369  0.7952 -1.2764 -2.1674
 3293SOL     OW21340   0.623   3.328  13.392 -0.1385 -0.2870  0.6806
 3293SOL    HW121341   0.550   3.292  13.341 -0.9380  0.4117  1.3396
 3293SOL    HW221342   0.690   3.340  13.324 -0.2070 -0.9357  0.5014
 3294SOL     OW21343   2.001   4.418   9.347  0.2456  0.2177  0.3206
 3294SOL    HW121344   2.061   4.371   9.290  0.9714  0.3442  0.9804
 3294SOL    HW221345   1.957   4.348   9.395  0.5954  0.7883  1.4650
 3295SOL     OW21346   1.207   1.653   1.082 -0.1605  0.0290  0.3548
 3295SOL    HW121347   1.194   1.688   0.993 -1.0142  3.1896  1.7402
 3295SOL    HW221348   1.147   1.579   1.081  0.1037 -0.1824 -0.5548
 3296SOL     OW21349   1.859   2.164   4.142 -0.0873  0.3012 -0.0494
 3296SOL    HW121350   1.836   2.160   4.235  2.1632 -1.8785  0.4245
 3296SOL    HW221351   1.779   2.134   4.100 -1.5124  2.5402  1.0405
 3297SOL     OW21352   2.758   0.027   2.466 -0.1775 -0.4528  0.1942
 3297SOL    HW121353   2.832   4.694   2.443  0.6562  0.9788 -0.4987
 3297SOL    HW221354   2.749   0.011   2.560 -0.4309 -3.3718 -0.3236
 3298SOL     OW21355   0.739   3.791   6.532 -0.5537 -0.3020  0.0072
 3298SOL    HW121356   0.796   3.785   6.455  3.0836  0.8221  2.5778
 3298SOL    HW221357   0.665   3.736   6.508 -1.7380 -0.0774  3.2129
 3299SOL     OW21358   4.269   1.288  15.478 -0.3244 -0.1884  0.0235
 3299SOL    HW121359   4.236   1.355  15.419 -0.1254  1.0501  1.3093
 3299SOL    HW221360   4.281   1.344  15.555 -0.3515 -1.0149  0.6354
 3300SOL     OW21361   2.319   1.310  16.456 -0.1794 -0.4303  0.6554
 3300SOL    HW121362   2.238   1.273  16.490 -1.3686 -0.3501 -2.0415
 3300SOL    HW221363   2.319   1.403  16.478  1.6911  0.1527 -1.7931
 3301SOL     OW21364   1.368   1.901   1.502 -0.2734  0.1138 -0.5098
 3301SOL    HW121365   1.280   1.916   1.537  1.1477  0.7014  2.7906
 3301SOL    HW221366   1.358   1.824   1.446 -1.1474 -1.6025  2.0042
 3302SOL     OW21367   4.597   2.872   2.018 -0.6739 -0.5487  0.0648
 3302SOL    HW121368   4.528   2.932   2.048  0.5866  0.0542  1.7752
 3302SOL    HW221369   4.589   2.875   1.923  0.0565 -0.6378  0.0067
 3303SOL     OW21370   1.785   0.946   4.589  0.3326 -0.2995 -0.1596
 3303SOL    HW121371   1.721   0.884   4.554  1.8032 -1.6096 -0.5648
 3303SOL    HW221372   1.817   0.904   4.669  0.0172 -0.2488 -0.0078
 3304SOL     OW21373   4.287   2.102   3.682  0.2872  0.1033  0.1288
 3304SOL    HW121374   4.262   2.010   3.673 -0.8787  0.2519  1.9606
 3304SOL    HW221375   4.276   2.125   3.589 -1.1315 -4.4166 -0.7982
 3305SOL     OW21376   1.974   0.285   1.532  0.4647 -0.6177 -0.7953
 3305SOL    HW121377   1.940   0.302   1.620  0.6979  0.4443 -0.9088
 3305SOL    HW221378   2.061   0.318   1.553  1.1883 -3.0527  0.0290
 3306SOL     OW21379   4.656   1.789   5.853  0.2888  0.3180  0.0858
 3306SOL    HW121380   4.591   1.745   5.797  2.4516 -1.3820 -1.1044
 3306SOL    HW221381   4.641   1.767   5.945 -0.6351 -1.0374 -0.3808
 3307SOL     OW21382   3.441   2.754   8.269 -0.1505 -0.5656 -0.1352
 3307SOL    HW121383   3.389   2.834   8.264  1.1137  0.2964  0.4358
 3307SOL    HW221384   3.491   2.776   8.348 -0.6912  2.8684 -0.7719
 3308SOL     OW21385   0.838   1.737   3.279 -0.1873  0.0027  0.2232
 3308SOL    HW121386   0.796   1.750   3.194  1.4332 -1.5539 -0.8152
 3308SOL    HW221387   0.891   1.661   3.252  0.5756 -0.1938  2.2905
 3309SOL     OW21388   2.917   0.131   5.629 -0.1698  0.0277  0.3319
 3309SOL    HW121389   2.866   0.186   5.689 -0.9177 -1.6119  1.1860
 3309SOL    HW221390   2.853   0.123   5.559 -2.0461  0.7192  1.9555
 3310SOL     OW21391   3.728   3.257   8.928 -0.2724  0.1691 -0.2118
 3310SOL    HW121392   3.779   3.337   8.941  0.0460 -0.3481  1.7910
 3310SOL    HW221393   3.740   3.228   8.837 -1.6380  0.6191 -0.5306
 3311SOL     OW21394   4.164   3.293   3.810  0.2887  0.5587 -0.4141
 3311SOL    HW121395   4.153   3.198   3.819 -1.9842  0.8706 -0.0103
 3311SOL    HW221396   4.237   3.309   3.870  1.6821 -0.0502 -1.9411
 3312SOL     OW21397   1.722   1.485   2.508 -0.4791  0.7391 -0.0503
 3312SOL    HW121398   1.784   1.413   2.492  0.6574  1.4605  1.0583
 3312SOL    HW221399   1.700   1.508   2.418 -1.7029  2.1612  0.6193
 3313SOL     OW21400   1.365   4.721   0.424 -0.3357  0.2397 -0.2015
 3313SOL    HW121401   1.397   4.659   0.489 -0.1257  0.1455 -0.3959
 3313SOL    HW221402   1.314   4.662   0.369 -0.5777 -1.4290  1.8006
 3314SOL     OW21403   1.743   4.500   3.394  0.3099 -0.1230  0.1596
 3314SOL    HW121404   1.741   4.426   3.453  0.8057 -2.3670 -2.6397
 3314SOL    HW221405   1.650   4.513   3.377 -0.1123  0.1566  2.6674
 3315SOL     OW21406   2.175   0.951   1.902 -0.1852  0.0162  0.1483
 3315SOL    HW121407   2.106   0.945   1.836 -0.2943  0.0083  0.2645
 3315SOL    HW221408   2.246   0.911   1.852  1.0429 -0.8676  2.5728
 3316SOL     OW21409   4.125   4.671   5.908  0.0559  0.0413  0.2930
 3316SOL    HW121410   4.203   4.679   5.853 -0.2571  3.6342  0.3518
 3316SOL    HW221411   4.070   0.008   5.857 -2.2872 -0.6020  2.0914
 3317SOL     OW21412   3.872   2.982  11.353  0.1410  0.0128 -0.3937
 3317SOL    HW121413   3.872   2.912  11.418 -1.6309  0.4116  0.0225
 3317SOL    HW221414   3.808   2.943  11.293 -1.6273  0.6527  1.0836
 3318SOL     OW21415   3.096   2.837   5.771 -0.2542 -0.3352 -0.1596
 3318SOL    HW121416   3.003   2.850   5.791 -0.5816  0.9637 -2.5521
 3318SOL    HW221417   3.118   2.769   5.835  2.8825  0.3796 -0.4797
 3319SOL     OW21418   3.657   4.169   7.099  0.4001 -0.6608 -0.4973
 3319SOL    HW121419   3.660   4.232   7.027  0.8204  2.4459  2.2533
 3319SOL    HW221420   3.732   4.117   7.070  1.0655 -0.0371  0.0954
 3320SOL     OW21421   2.820   1.648   2.157 -0.0201  0.0407 -0.2090
 3320SOL    HW121422   2.889   1.637   2.091  0.0733 -0.1247 -0.0825
 3320SOL    HW221423   2.869   1.615   2.232 -1.1430  1.5913  1.1943
 3321SOL     OW21424   2.506   1.101   1.479  0.4423  0.1786 -0.1085
 3321SOL    HW121425   2.486   1.192   1.459 -1.9744 -0.3658 -0.1196
 3321SOL    HW221426   2.457   1.083   1.559  0.9127 -2.3109 -0.3611
 3322SOL     OW21427   0.095   1.501   5.948 -0.1347 -0.4014 -0.0751
 3322SOL    HW121428   0.025   1.561   5.976  0.4916 -0.1906  1.0443
 3322SOL    HW221429   0.040   1.429   5.918 -0.0404 -0.5311  0.0650
 3323SOL     OW21430   1.587   3.871   9.480 -0.1146 -0.1732 -0.4016
 3323SOL    HW121431   1.553   3.799   9.533 -1.8909  0.9367 -0.0257
 3323SOL    HW221432   1.503   3.911   9.457  0.4869  0.2794 -1.8179
 3324SOL     OW21433   0.851   1.626   8.301  0.0770 -0.2261  0.3525
 3324SOL    HW121434   0.814   1.662   8.381 -0.1378  0.8677 -0.2384
 3324SOL    HW221435   0.837   1.533   8.319  0.2371 -0.5030 -0.9393
 3325SOL     OW21436   2.531   3.529   3.681  0.2640 -0.2035  0.1576
 3325SOL    HW121437   2.548   3.618   3.711  1.6475 -0.8211  1.2283
 3325SOL    HW221438   2.454   3.512   3.736 -0.2072 -0.8179 -0.6840
 3326SOL     OW21439   3.535   0.197  10.159  0.4549  0.1399 -0.5109
 3326SOL    HW121440   3.448   0.219  10.192  0.6212 -0.5892  0.4211
 3326SOL    HW221441   3.596   0.204  10.232 -0.5747  0.1527  0.3348
 3327SOL     OW21442   1.285   3.013  15.674 -0.2833  0.0713  0.3285
 3327SOL    HW121443   1.275   2.923  15.644  0.0082 -0.3620  1.5251
 3327SOL    HW221444   1.338   2.999  15.753 -0.8778  2.9955  1.2404
 3328SOL     OW21445   2.133   2.512  12.353  0.2777 -0.3245  0.1927
 3328SOL    HW121446   2.213   2.459  12.349  0.7458  0.3513  0.5825
 3328SOL    HW221447   2.142   2.542  12.263  0.2915 -1.0002 -0.0322
 3329SOL     OW21448   0.049   1.213   2.386  0.5590 -0.5014 -0.1582
 3329SOL    HW121449   4.704   1.218   2.453  0.5041  1.2291 -0.3554
 3329SOL    HW221450   0.099   1.287   2.419  1.5032 -1.3196  0.2798
 3330SOL     OW21451   1.914   1.354  10.504 -1.0910 -0.0018 -0.3085
 3330SOL    HW121452   1.908   1.448  10.490 -2.3328  0.1777  1.4008
 3330SOL    HW221453   1.925   1.337  10.598  0.8408 -0.5087 -0.6218
 3331SOL     OW21454   0.051   4.362   7.196 -0.0926 -0.1203  0.2243
 3331SOL    HW121455   0.144   4.362   7.173 -0.5526 -0.8219 -1.6442
 3331SOL    HW221456   0.016   4.288   7.147  3.2013  1.0236 -3.9146
 3332SOL     OW21457   3.849   1.527   6.130 -0.5419 -0.0155  0.1081
 3332SOL    HW121458   3.830   1.453   6.072  0.1057  0.9755 -1.3903
 3332SOL    HW221459   3.943   1.527   6.112 -0.7653 -0.2353 -1.0676
 3333SOL     OW21460   0.089   1.326   6.199  0.1512  0.3451  0.5163
 3333SOL    HW121461   0.016   1.369   6.244  1.3761  1.5759  1.3060
 3333SOL    HW221462   0.109   1.381   6.124  2.0468 -0.3351  0.5101
 3334SOL     OW21463   1.826   1.179   5.779  0.1285 -0.3759 -0.0989
 3334SOL    HW121464   1.831   1.141   5.692 -0.5405 -2.9762  0.9802
 3334SOL    HW221465   1.901   1.131   5.813 -0.9010 -0.4702  2.0599
 3335SOL     OW21466   2.422   2.231   7.433 -0.3335  0.4141 -0.3747
 3335SOL    HW121467   2.490   2.179   7.390 -1.7104 -1.7271  0.0601
 3335SOL    HW221468   2.468   2.312   7.458  0.0260  0.0829  0.0232
 3336SOL     OW21469   1.572   3.572   7.592  0.0820  0.1820  0.1764
 3336SOL    HW121470   1.589   3.609   7.679  1.9102 -0.5687  0.1391
 3336SOL    HW221471   1.567   3.651   7.538  0.6847  0.9369  1.2217
 3337SOL     OW21472   4.541   2.683   8.538  0.1037 -0.2719  0.0145
 3337SOL    HW121473   4.445   2.679   8.540 -0.0152  1.6910 -1.7278
 3337SOL    HW221474   4.563   2.680   8.631  0.1801 -1.7440 -0.0503
 3338SOL     OW21475   0.735   4.530  10.849 -0.2965  0.2894  0.3392
 3338SOL    HW121476   0.686   4.505  10.927  1.3863  0.7643  1.5658
 3338SOL    HW221477   0.789   4.453  10.829 -2.5838 -1.6328  1.5568
 3339SOL     OW21478   2.778   1.555   3.705 -0.0457  0.0785 -0.3879
 3339SOL    HW121479   2.762   1.573   3.797  0.3814  1.0740 -0.5045
 3339SOL    HW221480   2.704   1.599   3.662  0.9221  1.9582 -0.1462
 3340SOL     OW21481   2.122   0.980   3.939 -0.1350 -0.0906 -0.2858
 3340SOL    HW121482   2.085   1.022   4.017  1.2250 -1.8613  1.3081
 3340SOL    HW221483   2.120   1.048   3.872  1.2236  1.1565  0.9241
 3341SOL     OW21484   0.103   3.088   5.871 -0.0577 -0.2393  0.0953
 3341SOL    HW121485   0.140   3.154   5.930 -0.0362 -1.4779  1.4779
 3341SOL    HW221486   0.098   3.012   5.930  1.0860  0.3839  1.0035
 3342SOL     OW21487   0.860   2.497   0.623  0.2712 -0.6145  0.0332
 3342SOL    HW121488   0.896   2.410   0.606 -0.7524 -1.3492  1.6374
 3342SOL    HW221489   0.815   2.484   0.706 -1.2447  0.3172 -0.6399
 3343SOL     OW21490   1.814   2.246   5.187  0.4478 -0.3921  0.2493
 3343SOL    HW121491   1.776   2.202   5.263 -1.0847  1.4500  0.5314
 3343SOL    HW221492   1.823   2.338   5.212  0.9699  0.0450 -1.5360
 3344SOL     OW21493   0.288   0.337   8.145 -0.1098 -0.0484 -0.2569
 3344SOL    HW121494   0.305   0.260   8.090 -2.1933 -0.5625 -0.1672
 3344SOL    HW221495   0.307   0.308   8.234  1.6210 -0.3021 -0.7022
 3345SOL     OW21496   0.749   2.819   5.944 -0.5042 -0.3300  0.2582
 3345SOL    HW121497   0.824   2.878   5.936 -0.4379 -0.6739 -1.6611
 3345SOL    HW221498   0.679   2.863   5.895  0.0893  0.3377  0.0112
 3346SOL     OW21499   2.173   2.377  16.985 -0.4469  0.1311  0.3070
 3346SOL    HW121500   2.089   2.411  16.954 -0.6701 -1.7948 -1.1657
 3346SOL    HW221501   2.152   2.377  17.079  0.4428 -2.9070  0.5022
 3347SOL     OW21502   2.277   0.363  17.687  0.3048  0.1503  0.1101
 3347SOL    HW121503   2.289   0.276   0.032  0.0814  0.2159  0.3258
 3347SOL    HW221504   2.333   0.359  17.609 -0.6087 -0.5835 -0.5232
 3348SOL     OW21505   2.669   0.079   5.054 -0.1781  0.1904 -0.1541
 3348SOL    HW121506   2.597   0.104   5.111 -2.1423 -0.1527 -2.5222
 3348SOL    HW221507   2.700   4.722   5.098  1.3455  0.7728 -0.1770
 3349SOL     OW21508   2.192   2.406   5.429  0.6244 -0.3611  0.3533
 3349SOL    HW121509   2.248   2.478   5.400 -0.4608  0.7728  1.0795
 3349SOL    HW221510   2.184   2.345   5.356 -2.4633  0.5264 -0.0370
 3350SOL     OW21511   0.282   4.015  17.005  0.1261 -0.4321  0.2963
 3350SOL    HW121512   0.280   4.063  17.088  3.5343  2.5229 -1.3336
 3350SOL    HW221513   0.261   4.089  16.949 -0.1861 -1.0239 -0.3733
 3351SOL     OW21514   1.787   3.403  10.727  0.1842 -0.3118 -0.2757
 3351SOL    HW121515   1.753   3.317  10.703  0.6274 -0.3649 -0.7126
 3351SOL    HW221516   1.747   3.411  10.814  1.2168  1.3350  0.0470
 3352SOL     OW21517   4.719   3.097   8.650  0.0816 -0.2810  0.0226
 3352SOL    HW121518   4.691   3.179   8.690 -0.1430  0.0827 -0.8859
 3352SOL    HW221519   4.697   3.042   8.725  0.4780 -0.7743 -0.2219
 3353SOL     OW21520   1.357   3.498  13.361  0.1440 -0.5307  0.0228
 3353SOL    HW121521   1.396   3.426  13.411 -0.4197 -0.1204  1.0507
 3353SOL    HW221522   1.435   3.521  13.310  1.3329 -0.5767  1.7846
 3354SOL     OW21523   3.139   3.406   3.728  0.1107 -0.3260 -0.4382
 3354SOL    HW121524   3.198   3.426   3.801 -0.0132 -0.2519 -0.3590
 3354SOL    HW221525   3.088   3.487   3.723 -1.2728 -1.2461 -1.1232
 3355SOL     OW21526   4.511   3.633   4.173  0.3068  0.3779 -0.0180
 3355SOL    HW121527   4.434   3.689   4.170  1.0965  1.4716  0.1908
 3355SOL    HW221528   4.572   3.691   4.128  1.5459 -0.9740 -0.0852
 3356SOL     OW21529   0.230   4.489   5.054 -0.2423  0.5846 -0.8397
 3356SOL    HW121530   0.167   4.486   5.126 -0.0133 -1.0418 -0.7118
 3356SOL    HW221531   0.175   4.502   4.976  2.6154  0.5732 -2.8454
 3357SOL     OW21532   2.236   4.696   2.195 -0.3490  0.2508 -0.1567
 3357SOL    HW121533   2.172   0.017   2.138 -0.0522 -1.3980 -1.7279
 3357SOL    HW221534   2.185   4.707   2.276  2.5243 -2.5814  2.0145
 3358SOL     OW21535   0.808   4.386   3.743 -0.3807 -0.4188  0.1411
 3358SOL    HW121536   0.860   4.329   3.686 -2.3808  1.6815 -3.8049
 3358SOL    HW221537   0.824   4.356   3.832  0.5473 -1.1087 -0.2605
 3359SOL     OW21538   0.436   4.051   4.946  0.3923  0.0224  0.1449
 3359SOL    HW121539   0.445   4.081   5.037  1.4774  0.3556 -0.0752
 3359SOL    HW221540   0.528   4.061   4.923  0.8515 -0.6215  1.6840
 3360SOL     OW21541   0.293   0.562   2.023 -0.4161 -0.0007 -0.0202
 3360SOL    HW121542   0.304   0.467   2.016 -0.6411 -0.2078  2.5292
 3360SOL    HW221543   0.304   0.570   2.117  4.0428  1.3700 -0.6661
 3361SOL     OW21544   4.639   2.289   2.008 -0.0003  0.6222  0.0575
 3361SOL    HW121545   4.663   2.382   2.004  0.6591  0.4237 -0.4472
 3361SOL    HW221546   4.720   2.249   1.977 -0.1841 -0.7278  1.3104
 3362SOL     OW21547   4.026   2.244   6.506 -0.4178  0.7538  0.0661
 3362SOL    HW121548   4.102   2.297   6.479  0.0730 -0.1498 -0.3201
 3362SOL    HW221549   4.070   2.160   6.519  0.4358  0.8874 -1.8629
 3363SOL     OW21550   1.840   1.790  17.527  0.1821  0.3654  0.0636
 3363SOL    HW121551   1.838   1.770  17.433  1.5296 -1.5167  0.4277
 3363SOL    HW221552   1.919   1.744  17.555  0.7297  0.4916 -1.2687
 3364SOL     OW21553   4.178   1.493   5.872 -0.2816  0.3473  0.2391
 3364SOL    HW121554   4.214   1.532   5.792  1.3810  0.9137  1.2585
 3364SOL    HW221555   4.085   1.511   5.856 -0.2364  1.4368  1.1973
 3365SOL     OW21556   0.242   2.259  11.140  0.0059  0.1078  0.6183
 3365SOL    HW121557   0.314   2.196  11.139  0.1004  0.2478 -3.0012
 3365SOL    HW221558   0.287   2.326  11.090 -1.2302 -0.8422 -1.7879
 3366SOL     OW21559   2.536   2.779   3.461 -0.3478 -0.4642 -0.2375
 3366SOL    HW121560   2.561   2.721   3.533 -0.3713 -1.0880 -0.7272
 3366SOL    HW221561   2.600   2.848   3.477  0.0193 -0.8156 -0.1740
 3367SOL     OW21562   3.069   4.316   3.903 -0.2549  0.4651  0.1459
 3367SOL    HW121563   3.134   4.386   3.895  0.2423 -0.0093  0.0586
 3367SOL    HW221564   3.060   4.311   3.998  1.5546 -0.1753  0.2855
 3368SOL     OW21565   2.308   1.003   3.147  0.1488  0.0682 -0.1203
 3368SOL    HW121566   2.334   1.088   3.112  1.2336 -0.1089  0.2605
 3368SOL    HW221567   2.390   0.968   3.181 -1.2025 -1.5846  1.4942
 3369SOL     OW21568   0.451   1.847   4.166  0.7830  0.7870  0.3100
 3369SOL    HW121569   0.534   1.800   4.174  0.6578 -0.0936 -3.6258
 3369SOL    HW221570   0.442   1.875   4.075  2.3161 -1.6380 -0.5716
 3370SOL     OW21571   2.810   3.757  13.391 -0.4400  0.0573 -0.3020
 3370SOL    HW121572   2.863   3.831  13.360 -0.8204  0.3190 -0.3239
 3370SOL    HW221573   2.860   3.681  13.361 -1.6598  0.2171 -2.8269
 3371SOL     OW21574   2.535   2.384   9.412  0.1716 -0.2986  0.6568
 3371SOL    HW121575   2.521   2.476   9.430 -1.9609 -0.5835  0.4118
 3371SOL    HW221576   2.457   2.362   9.361  1.8856 -1.0319 -1.6577
 3372SOL     OW21577   1.591   3.729   9.737  0.3561  0.1126  0.4764
 3372SOL    HW121578   1.619   3.642   9.709 -0.7964  0.1634 -0.8148
 3372SOL    HW221579   1.666   3.776   9.699 -1.2985  1.2475 -1.3651
 3373SOL     OW21580   3.394   2.036   6.434 -0.0168 -0.5583  0.0283
 3373SOL    HW121581   3.302   2.051   6.411 -0.1628 -1.3633  0.0954
 3373SOL    HW221582   3.407   2.107   6.497 -0.4829 -1.9186  1.6400
 3374SOL     OW21583   0.295   3.219  14.455  0.0436  0.4796 -0.1212
 3374SOL    HW121584   0.269   3.231  14.546  1.2804 -0.8971  0.4230
 3374SOL    HW221585   0.319   3.308  14.430  0.6073  0.0529 -1.0771
 3375SOL     OW21586   3.513   3.497   8.760 -0.7120  0.0517 -0.0325
 3375SOL    HW121587   3.540   3.411   8.728  0.5089  1.0208 -1.6226
 3375SOL    HW221588   3.552   3.558   8.697 -1.3692  0.1241 -0.3675
 3376SOL     OW21589   3.632   4.245   2.383 -0.2899 -0.0509 -0.3367
 3376SOL    HW121590   3.609   4.298   2.307  0.4534  1.8938  0.8099
 3376SOL    HW221591   3.597   4.294   2.457  1.7880  1.8130 -0.5778
 3377SOL     OW21592   2.338   2.201  12.313 -0.4770  0.1741  0.0652
 3377SOL    HW121593   2.325   2.127  12.253 -0.6567 -0.9510  1.4832
 3377SOL    HW221594   2.335   2.155  12.397 -0.0364 -0.5555 -0.3210
 3378SOL     OW21595   2.725   3.865  15.163  0.2943 -0.0149 -0.8143
 3378SOL    HW121596   2.714   3.849  15.257 -0.1853 -0.1736 -0.8985
 3378SOL    HW221597   2.672   3.794  15.128  0.2679 -0.9329  1.0726
 3379SOL     OW21598   0.171   0.659   7.268 -0.3128 -0.1118  0.0940
 3379SOL    HW121599   0.106   0.608   7.220  1.6104 -1.6453 -0.8683
 3379SOL    HW221600   0.228   0.695   7.200 -0.3494  1.7701  1.0531
 3380SOL     OW21601   2.449   4.211   7.273 -0.0210  0.2382  0.1222
 3380SOL    HW121602   2.432   4.173   7.360 -3.5555 -2.1613 -1.6081
 3380SOL    HW221603   2.518   4.151   7.244 -0.9513 -0.2843 -1.0076
 3381SOL     OW21604   0.555   2.522   3.774 -0.2949  0.4395 -0.4109
 3381SOL    HW121605   0.567   2.609   3.813  0.9870  0.4727 -0.9029
 3381SOL    HW221606   0.463   2.501   3.787 -0.3854  0.4343 -1.0295
 3382SOL     OW21607   3.390   0.979   0.370  0.3020  0.0721  0.7805
 3382SOL    HW121608   3.403   1.071   0.392 -0.2184  0.3069  0.1157
 3382SOL    HW221609   3.321   0.963   0.435  0.8307  1.8318  1.7796
 3383SOL     OW21610   0.230   1.670   8.731  0.1340 -0.0175  0.2500
 3383SOL    HW121611   0.156   1.644   8.677  0.8965 -0.5216 -0.5591
 3383SOL    HW221612   0.183   1.720   8.797  0.1051 -1.8359  1.6182
 3384SOL     OW21613   3.897   0.484  16.861  0.6191  0.1747 -0.7399
 3384SOL    HW121614   3.919   0.400  16.820 -0.8058  0.0861 -1.3187
 3384SOL    HW221615   3.982   0.518  16.888  0.4619 -0.2544  0.2701
 3385SOL     OW21616   2.706   3.686   4.705  0.2255 -0.7655 -0.2034
 3385SOL    HW121617   2.728   3.638   4.625  0.7499  0.5102 -0.8340
 3385SOL    HW221618   2.612   3.668   4.706  0.0541 -0.0067 -1.2815
 3386SOL     OW21619   2.617   4.574   3.930  0.3709 -0.2412 -1.0444
 3386SOL    HW121620   2.690   4.628   3.961  0.8799 -1.1068 -0.7619
 3386SOL    HW221621   2.612   4.591   3.836  3.7716  1.1628 -0.9484
 3387SOL     OW21622   3.514   3.596   0.999 -0.3993  0.1766  0.3331
 3387SOL    HW121623   3.553   3.618   1.083  1.9712 -0.6811 -0.5376
 3387SOL    HW221624   3.562   3.517   0.971 -2.6671 -1.1969  0.3463
 3388SOL     OW21625   0.896   3.387   3.293 -0.0795 -0.3644 -0.2237
 3388SOL    HW121626   0.940   3.454   3.241  1.9504  0.0733  2.0697
 3388SOL    HW221627   0.939   3.309   3.256 -1.6737 -2.1403  1.6636
 3389SOL     OW21628   3.540   0.486   8.235  0.1924 -0.0577 -0.6901
 3389SOL    HW121629   3.620   0.435   8.225 -1.2098 -2.6096  1.0200
 3389SOL    HW221630   3.573   0.561   8.285  0.7615 -2.0379  1.8799
 3390SOL     OW21631   3.390   4.003  17.376  0.2130  0.5808  0.2129
 3390SOL    HW121632   3.410   3.926  17.431  2.7178 -0.0619 -1.5978
 3390SOL    HW221633   3.376   3.959  17.292 -0.9224 -1.5283  1.4965
 3391SOL     OW21634   1.338   0.260  11.329  0.3483  0.7432 -0.0689
 3391SOL    HW121635   1.312   0.187  11.386  0.5638  1.3617  0.8260
 3391SOL    HW221636   1.427   0.269  11.363  0.8735 -0.4341 -1.1474
 3392SOL     OW21637   1.493   0.405   5.669  0.4843  0.0482  0.1017
 3392SOL    HW121638   1.421   0.459   5.702 -0.2412  0.7396 -2.6134
 3392SOL    HW221639   1.472   0.326   5.719  0.6659 -0.8938 -1.3153
 3393SOL     OW21640   2.489   2.149   2.374  0.2116 -0.3885 -0.1745
 3393SOL    HW121641   2.538   2.139   2.455 -0.3962 -0.9034  0.1239
 3393SOL    HW221642   2.413   2.198   2.406  1.0555  1.2717 -0.6815
 3394SOL     OW21643   1.277   2.284  14.451 -0.3735  1.0291 -0.4687
 3394SOL    HW121644   1.230   2.244  14.525 -0.0696 -1.0283 -1.4055
 3394SOL    HW221645   1.218   2.318  14.384 -1.6936  0.9406  0.6539
 3395SOL     OW21646   2.414   3.660  12.130  0.3709  0.0294  0.2692
 3395SOL    HW121647   2.490   3.625  12.084 -2.9666 -4.4483 -1.7964
 3395SOL    HW221648   2.377   3.584  12.174 -1.6508 -0.1019 -1.6752
 3396SOL     OW21649   2.168   2.632  12.573 -0.2146  0.5125 -0.2307
 3396SOL    HW121650   2.079   2.618  12.607 -0.1519  3.9447  1.3445
 3396SOL    HW221651   2.161   2.591  12.487 -2.7541  2.0511 -0.7465
 3397SOL     OW21652   0.899   0.434   5.398  0.3579  0.0084 -0.6028
 3397SOL    HW121653   0.900   0.450   5.492  0.5790  1.0607 -0.7774
 3397SOL    HW221654   0.818   0.474   5.365  0.3313 -0.7769 -1.4865
 3398SOL     OW21655   2.439   1.806   5.011  0.2898 -0.4496  0.4847
 3398SOL    HW121656   2.458   1.899   5.014  1.1241 -0.5707 -1.0660
 3398SOL    HW221657   2.484   1.789   4.928  2.5566  0.5045  1.5120
 3399SOL     OW21658   2.418   0.581   0.518  0.0382  0.3761  0.2420
 3399SOL    HW121659   2.407   0.566   0.424  0.3110  0.0933  0.2572
 3399SOL    HW221660   2.327   0.573   0.548 -0.0967 -0.1099 -0.3078
 3400SOL     OW21661   1.138   0.923  15.377 -0.2367 -0.0620 -0.3570
 3400SOL    HW121662   1.134   0.830  15.353  1.2617  0.3920 -2.3251
 3400SOL    HW221663   1.124   0.978  15.300  2.8248 -0.1653 -0.9765
 3401SOL     OW21664   3.093   2.910   7.271 -0.2010  0.5744  0.3922
 3401SOL    HW121665   3.058   2.927   7.358  0.1530  0.5653  0.5362
 3401SOL    HW221666   3.155   2.982   7.257  0.4510  0.3617  2.2108
 3402SOL     OW21667   4.209   1.169   6.833  0.4287  0.0013  0.0982
 3402SOL    HW121668   4.225   1.174   6.739  0.4712 -0.4380  0.0797
 3402SOL    HW221669   4.209   1.074   6.842 -0.9385 -0.0012  0.0776
 3403SOL     OW21670   0.905   4.158   4.366 -0.3752  0.2988  0.1910
 3403SOL    HW121671   0.987   4.200   4.342  0.1636 -0.6370  0.3712
 3403SOL    HW221672   0.875   4.125   4.281 -2.1450 -0.4891  1.1141
 3404SOL     OW21673   1.991   3.999   7.483 -0.1959 -0.2831  0.0283
 3404SOL    HW121674   2.030   3.983   7.396 -2.3296 -1.6106 -0.6847
 3404SOL    HW221675   1.924   3.932   7.477 -0.0062 -0.5174  0.6129
 3405SOL     OW21676   4.693   4.407   3.728  0.0660  0.0888 -0.2976
 3405SOL    HW121677   4.696   4.487   3.780  0.7213 -0.4507  0.4827
 3405SOL    HW221678   0.019   4.445   3.655 -0.0801  0.0620 -0.4090
 3406SOL     OW21679   1.869   1.546   6.794  0.2660 -0.3517 -0.0914
 3406SOL    HW121680   1.925   1.530   6.870  0.9619 -2.3453 -1.0009
 3406SOL    HW221681   1.834   1.458   6.775 -0.8747  0.3984 -1.4384
 3407SOL     OW21682   0.147   3.065   3.320 -0.1428 -0.2382 -0.0307
 3407SOL    HW121683   0.125   3.083   3.229  2.1093  0.6109 -0.4002
 3407SOL    HW221684   0.234   3.025   3.319  0.6248  1.4574  0.3945
 3408SOL     OW21685   4.480   0.299   6.574 -0.1979 -0.4860 -0.1900
 3408SOL    HW121686   4.515   0.290   6.485  1.9320  1.5494  0.4599
 3408SOL    HW221687   4.475   0.208   6.604  0.4666 -0.0412  1.2124
 3409SOL     OW21688   2.610   0.602  11.068  0.1617  0.5694 -1.0934
 3409SOL    HW121689   2.647   0.689  11.056  2.0708 -0.1734 -0.5978
 3409SOL    HW221690   2.686   0.544  11.058  0.6239  1.0880 -0.5986
 3410SOL     OW21691   2.702   0.780  13.027 -0.0603  0.6311  0.0835
 3410SOL    HW121692   2.708   0.814  12.937  2.8167  0.5117  0.2271
 3410SOL    HW221693   2.691   0.862  13.074  1.0368  0.2133  1.0701
 3411SOL     OW21694   0.406   3.330   8.379  0.1507  0.5875  0.2027
 3411SOL    HW121695   0.493   3.371   8.376  0.1050  0.4912 -2.3953
 3411SOL    HW221696   0.421   3.285   8.462  3.4893 -0.1592 -0.7835
 3412SOL     OW21697   2.675   3.306   2.442  0.4230  0.3564 -0.4938
 3412SOL    HW121698   2.706   3.225   2.482 -0.2934  0.2225 -0.2157
 3412SOL    HW221699   2.756   3.324   2.394  1.2117  1.5376  1.3067
 3413SOL     OW21700   3.470   3.179   8.342 -0.1815  0.0239 -0.2178
 3413SOL    HW121701   3.501   3.128   8.267 -0.9835  2.3957 -2.1674
 3413SOL    HW221702   3.483   3.267   8.306  1.3640  0.8975  2.5181
 3414SOL     OW21703   2.668   3.790   7.526  0.6380  0.3487  0.3165
 3414SOL    HW121704   2.756   3.824   7.514  0.0018  1.3540 -1.4660
 3414SOL    HW221705   2.621   3.815   7.446 -1.2247 -1.1359  0.9524
 3415SOL     OW21706   1.212   1.006  15.793  0.0179 -0.0740  0.4662
 3415SOL    HW121707   1.186   1.075  15.855  0.2430 -0.4509  0.9858
 3415SOL    HW221708   1.293   1.046  15.760 -2.4446  2.3357 -2.6180
 3416SOL     OW21709   3.220   1.610  14.888 -0.1230  0.0949  0.7841
 3416SOL    HW121710   3.236   1.540  14.824  1.2250  0.4137  0.7756
 3416SOL    HW221711   3.193   1.679  14.827  2.3998 -1.6088 -2.2827
 3417SOL     OW21712   1.874   1.533   2.916 -0.2673 -0.3296  0.3326
 3417SOL    HW121713   1.872   1.577   2.831  1.6579  0.6687  0.7980
 3417SOL    HW221714   1.963   1.548   2.947  0.8973 -1.5071 -2.4430
 3418SOL     OW21715   0.151   3.132   3.594  0.3190 -0.4062  0.6462
 3418SOL    HW121716   0.133   3.224   3.575  0.5946 -0.4257  0.2913
 3418SOL    HW221717   0.146   3.091   3.508  0.4373  0.4300  0.2469
 3419SOL     OW21718   3.143   0.214   8.347 -0.4794 -0.9081  0.4272
 3419SOL    HW121719   3.073   0.257   8.396 -0.3768 -1.7144  1.2883
 3419SOL    HW221720   3.089   0.173   8.280 -0.2210  1.4150 -1.2016
 3420SOL     OW21721   1.039   3.950  10.636  0.7666  0.1244 -0.0260
 3420SOL    HW121722   0.982   3.944  10.560 -2.9511 -1.7223  2.9112
 3420SOL    HW221723   1.056   3.856  10.647 -0.5469 -0.2017 -0.8546
 3421SOL     OW21724   4.056   4.046  16.239  0.1477 -0.0975 -0.1123
 3421SOL    HW121725   4.147   4.037  16.267 -0.0219  2.3593  1.2499
 3421SOL    HW221726   4.055   4.011  16.150 -0.5178 -0.8523  0.1931
 3422SOL     OW21727   0.511   0.021   3.376  0.4160  0.3192 -0.3513
 3422SOL    HW121728   0.504   0.036   3.470  0.7967  0.5089 -0.3509
 3422SOL    HW221729   0.448   0.084   3.341 -1.5971 -0.8384  1.2151
 3423SOL     OW21730   3.057   2.195   3.891  0.0451  0.1383 -0.6491
 3423SOL    HW121731   3.091   2.178   3.979  0.4970 -1.7601 -1.1805
 3423SOL    HW221732   3.049   2.106   3.857 -2.3279 -0.3373  1.2138
 3424SOL     OW21733   1.773   4.065  16.168  0.5526  0.2580 -0.1595
 3424SOL    HW121734   1.779   3.997  16.101  0.9395 -2.4166  2.5901
 3424SOL    HW221735   1.763   4.130  16.098  1.7614 -1.4196 -1.9099
 3425SOL     OW21736   0.963   3.498   4.175 -0.0677 -0.0090 -0.7035
 3425SOL    HW121737   0.942   3.404   4.177 -1.2192  0.2289 -1.2144
 3425SOL    HW221738   1.047   3.505   4.132  0.6065 -0.1960  0.5768
 3426SOL     OW21739   0.199   2.217   4.703 -0.3439 -0.3885  0.2288
 3426SOL    HW121740   0.105   2.217   4.683 -0.2656 -0.4607 -0.1335
 3426SOL    HW221741   0.202   2.238   4.796 -1.1372 -1.6557  0.5452
 3427SOL     OW21742   4.449   2.454   4.318  0.1191  0.3838 -0.7662
 3427SOL    HW121743   4.448   2.548   4.302  0.5706  0.7028  1.0344
 3427SOL    HW221744   4.542   2.434   4.308  0.3259  2.1530 -2.2706
 3428SOL     OW21745   1.239   2.998   2.040 -0.2665  0.6540  0.2609
 3428SOL    HW121746   1.301   3.071   2.027  0.0925  0.4411  0.7467
 3428SOL    HW221747   1.175   3.025   1.974  0.6020  2.7871  0.2735
 3429SOL     OW21748   3.447   2.685   5.182 -0.6116  0.5067 -0.0648
 3429SOL    HW121749   3.498   2.679   5.263 -0.2423 -3.6703 -0.5589
 3429SOL    HW221750   3.372   2.629   5.201  0.8234 -1.5056 -0.2002
 3430SOL     OW21751   4.231   3.773  10.638  0.0660  0.3638  0.0469
 3430SOL    HW121752   4.323   3.746  10.639 -0.4210 -1.2628  1.2523
 3430SOL    HW221753   4.201   3.748  10.726 -0.4855  3.4855  0.7621
 3431SOL     OW21754   2.742   1.127   0.677 -0.3488  0.5386  0.2399
 3431SOL    HW121755   2.819   1.096   0.631 -0.2632 -0.2462  0.9200
 3431SOL    HW221756   2.716   1.041   0.709 -0.4148  0.7728  0.8207
 3432SOL     OW21757   3.804   2.291   6.024 -0.3490  0.3854  0.2045
 3432SOL    HW121758   3.870   2.316   6.088 -0.3390  0.1293  0.2943
 3432SOL    HW221759   3.844   2.211   5.988 -0.9577  0.2809 -0.2476
 3433SOL     OW21760   0.180   4.555  16.040 -0.2167  0.0523  0.2103
 3433SOL    HW121761   0.133   4.514  15.967 -2.6219  1.1153  1.1784
 3433SOL    HW221762   0.255   4.495  16.038  0.2977  0.6929  0.2881
 3434SOL     OW21763   0.306   0.071  16.064  0.4589  0.1423 -1.0536
 3434SOL    HW121764   0.391   0.054  16.023  1.7899 -0.6613  2.0730
 3434SOL    HW221765   0.268   4.708  16.046 -1.3438  0.5921  0.6885
 3435SOL     OW21766   2.701   2.190  14.251  0.7535 -0.1015  0.2128
 3435SOL    HW121767   2.606   2.177  14.259  0.8172  1.3269  3.2110
 3435SOL    HW221768   2.731   2.112  14.204 -0.7825 -0.2140 -0.6111
 3436SOL     OW21769   3.172   3.012   7.969  0.3879 -0.0532  0.6477
 3436SOL    HW121770   3.169   2.922   7.937  1.3398  0.1474 -0.0088
 3436SOL    HW221771   3.190   2.988   8.060  0.3839 -0.1114  0.6328
 3437SOL     OW21772   1.870   0.315   7.670  0.2603 -0.5736 -0.1607
 3437SOL    HW121773   1.962   0.328   7.647 -0.4588  0.5382 -2.4042
 3437SOL    HW221774   1.842   0.361   7.590  0.4343  0.0203  0.1175
 3438SOL     OW21775   4.652   2.214   6.193  0.3034 -0.0317 -0.0155
 3438SOL    HW121776   4.720   2.239   6.256  1.1739 -0.0717 -0.9486
 3438SOL    HW221777   4.672   2.282   6.130 -1.0965  0.5390  0.1529
 3439SOL     OW21778   2.029   0.397   7.973 -0.0434  0.6747  0.5931
 3439SOL    HW121779   2.034   0.364   7.884 -1.6676  1.0261  0.3658
 3439SOL    HW221780   2.000   0.487   7.956 -0.3450  0.2609 -1.0307
 3440SOL     OW21781   0.480   3.386   5.166  0.7369  0.0928  0.2454
 3440SOL    HW121782   0.419   3.312   5.163  1.4817 -0.5347  0.3892
 3440SOL    HW221783   0.526   3.366   5.248  0.8247  0.0546  0.1879
 3441SOL     OW21784   0.557   0.476   4.401  0.2587 -0.2226 -0.6886
 3441SOL    HW121785   0.622   0.538   4.435 -1.0393  0.1623  1.1539
 3441SOL    HW221786   0.607   0.400   4.431 -0.2675 -0.3974 -0.2537
 3442SOL     OW21787   4.611   2.666   6.397 -0.2205  0.2500 -0.2165
 3442SOL    HW121788   4.596   2.760   6.405  0.6639  0.5409 -2.0055
 3442SOL    HW221789   4.691   2.654   6.449  0.0444 -1.0886 -0.9522
 3443SOL     OW21790   2.561   0.069   1.742  0.5226 -0.2301 -0.0653
 3443SOL    HW121791   2.538   0.132   1.674 -0.2844 -0.1467  0.2856
 3443SOL    HW221792   2.654   0.089   1.760  0.1294  3.1848 -1.8424
 3444SOL     OW21793   1.301   1.262   4.265 -0.4211  0.1413 -0.1719
 3444SOL    HW121794   1.234   1.212   4.313  0.5267 -0.8183  0.1529
 3444SOL    HW221795   1.353   1.280   4.343  0.9624 -1.6984 -0.6754
 3445SOL     OW21796   3.415   0.385   9.905  0.5422 -0.1262 -0.1897
 3445SOL    HW121797   3.509   0.404   9.908  0.8347 -1.2924 -2.1734
 3445SOL    HW221798   3.396   0.382   9.999  0.2552  2.5873 -0.1430
 3446SOL     OW21799   1.473   3.945   8.152  0.4087 -0.0384 -0.7776
 3446SOL    HW121800   1.553   3.997   8.158 -0.5581  1.4917 -1.1814
 3446SOL    HW221801   1.397   3.997   8.179 -0.1065 -1.1202 -0.1290
 3447SOL     OW21802   3.583   1.358  13.354  0.3739 -0.0629 -0.0595
 3447SOL    HW121803   3.615   1.306  13.280 -0.9711  0.0665 -0.7389
 3447SOL    HW221804   3.657   1.391  13.404  1.4874 -0.1065 -1.6769
 3448SOL     OW21805   3.932   0.655   6.937 -0.3044 -0.0807  0.0039
 3448SOL    HW121806   3.965   0.570   6.968 -0.8154 -0.5759 -0.8318
 3448SOL    HW221807   4.013   0.707   6.941  0.7742 -1.7285 -0.4256
 3449SOL     OW21808   1.134   0.994  10.325 -0.2153  0.3338  0.1916
 3449SOL    HW121809   1.132   1.008  10.419 -0.6927  1.4174  0.0224
 3449SOL    HW221810   1.180   0.911  10.311  1.0626  1.3975 -2.0096
 3450SOL     OW21811   0.493   0.808   4.578 -0.1734 -1.0098  0.4488
 3450SOL    HW121812   0.443   0.888   4.591  0.7879 -0.7841  2.7456
 3450SOL    HW221813   0.498   0.800   4.483  0.5991  0.1493  0.3915
 3451SOL     OW21814   0.754   4.044   7.563 -0.0211 -0.4280 -0.1275
 3451SOL    HW121815   0.797   3.980   7.506  1.3965  0.4331 -0.0433
 3451SOL    HW221816   0.675   3.999   7.593 -1.7504  3.0344  0.5352
 3452SOL     OW21817   4.259   0.295   6.983 -0.3413 -0.0140  0.2456
 3452SOL    HW121818   4.276   0.329   7.070  0.8121 -1.8848  0.7677
 3452SOL    HW221819   4.315   0.218   6.972 -0.9953 -0.4545 -0.0192
 3453SOL     OW21820   1.707   4.343   5.949 -0.0107  0.0436  0.0214
 3453SOL    HW121821   1.652   4.343   6.027 -1.8153  4.7014 -1.2747
 3453SOL    HW221822   1.659   4.412   5.905 -0.7194 -0.9775 -0.8206
 3454SOL     OW21823   2.197   1.884  11.609 -0.0779  0.4450  0.2637
 3454SOL    HW121824   2.153   1.923  11.685 -1.4365 -0.8039  0.1242
 3454SOL    HW221825   2.125   1.837  11.568 -2.4577  2.3959  2.1655
 3455SOL     OW21826   0.381   3.238  13.284 -0.3340 -0.3540  0.0233
 3455SOL    HW121827   0.392   3.210  13.194 -3.0241 -0.8558 -0.1434
 3455SOL    HW221828   0.288   3.223  13.301 -0.3794 -1.5837 -1.3446
 3456SOL     OW21829   4.101   3.504  10.090 -0.0664 -0.3945  0.1233
 3456SOL    HW121830   4.135   3.528  10.004  1.6388  0.5283  1.0644
 3456SOL    HW221831   4.016   3.547  10.097 -0.3351 -0.6787 -1.3578
 3457SOL     OW21832   1.694   0.288   3.905  0.0034  0.7078 -0.0724
 3457SOL    HW121833   1.740   0.367   3.930  2.0356  0.0897 -1.7901
 3457SOL    HW221834   1.710   0.227   3.977 -0.9950 -0.2081 -0.6250
 3458SOL     OW21835   2.491   0.509   7.175 -0.6111  0.4875  0.0252
 3458SOL    HW121836   2.445   0.495   7.092 -0.0278  0.8772 -0.3679
 3458SOL    HW221837   2.499   0.416   7.195 -0.7661  1.0905  2.9006
 3459SOL     OW21838   1.987   4.320   8.062  0.0254  0.0411  0.1429
 3459SOL    HW121839   1.935   4.366   7.996  0.5297  0.5089  0.0749
 3459SOL    HW221840   2.059   4.295   8.004 -1.5146  0.4410 -1.9466
 3460SOL     OW21841   0.502   3.379   9.736 -0.5400 -0.0564 -0.0877
 3460SOL    HW121842   0.577   3.320   9.750  1.5750  2.0836 -2.2875
 3460SOL    HW221843   0.538   3.428   9.662 -2.1978  0.1070 -0.7817
 3461SOL     OW21844   3.771   1.566   3.516  0.0809 -0.0448  0.8010
 3461SOL    HW121845   3.687   1.525   3.540 -1.0140  0.3738 -2.3769
 3461SOL    HW221846   3.738   1.655   3.503  1.9182  0.1280 -2.6574
 3462SOL     OW21847   0.075   1.099   8.538  0.3000 -0.1169 -0.1110
 3462SOL    HW121848   0.051   1.057   8.620 -0.7921  1.2916  0.3001
 3462SOL    HW221849   0.104   1.187   8.562  0.2947  0.2266 -1.3847
 3463SOL     OW21850   1.682   3.809  14.112  0.6868 -0.2868 -0.2711
 3463SOL    HW121851   1.674   3.903  14.133 -4.0078 -0.1230 -2.6768
 3463SOL    HW221852   1.754   3.774  14.164 -1.9281 -3.3099  1.3094
 3464SOL     OW21853   2.548   2.638  13.885 -0.4319  0.0526 -0.0120
 3464SOL    HW121854   2.529   2.726  13.855  0.3997  0.0553 -0.5392
 3464SOL    HW221855   2.478   2.597  13.835  1.3490 -0.1041 -2.4050
 3465SOL     OW21856   3.322   0.966   8.153 -0.6440  0.6182 -0.1568
 3465SOL    HW121857   3.378   0.967   8.075  0.4793  2.4558  0.6594
 3465SOL    HW221858   3.383   0.988   8.224 -3.0846  0.5566  1.9891
 3466SOL     OW21859   3.910   1.178   5.306 -0.4117  0.4025 -0.2716
 3466SOL    HW121860   3.954   1.218   5.381  1.3199 -2.5049  0.2616
 3466SOL    HW221861   3.852   1.111   5.341  0.1998  0.5177  0.9503
 3467SOL     OW21862   3.440   1.992  17.614  0.4303  0.1723 -0.3107
 3467SOL    HW121863   3.419   2.039   0.002 -1.6828  0.6158 -1.1177
 3467SOL    HW221864   3.383   1.916  17.626  2.7800 -1.0444  2.8658
 3468SOL     OW21865   0.294   0.434   2.464 -0.2833 -0.0903 -0.4533
 3468SOL    HW121866   0.373   0.415   2.514 -0.5400  1.1908  0.4199
 3468SOL    HW221867   0.272   0.346   2.431 -1.6297  0.6877 -1.6488
 3469SOL     OW21868   4.029   4.449  13.900 -0.3213  0.2597 -0.5896
 3469SOL    HW121869   3.935   4.432  13.893 -0.1349 -0.3247 -1.6873
 3469SOL    HW221870   4.059   4.383  13.963  0.8432  1.4596  0.1175
 3470SOL     OW21871   3.622   3.926   9.577 -0.2915  0.2554  0.1434
 3470SOL    HW121872   3.690   3.934   9.645 -3.2612  3.6835  2.6976
 3470SOL    HW221873   3.611   3.831   9.578  1.1879  0.0814  0.3790
 3471SOL     OW21874   1.046   3.050  12.662 -0.3177  0.4559 -0.1868
 3471SOL    HW121875   0.976   3.102  12.702  1.2083  2.0804  0.4036
 3471SOL    HW221876   1.104   3.112  12.618 -1.4459  0.4498 -1.6773
 3472SOL     OW21877   2.131   1.145   0.373 -0.3380  0.3716 -0.0231
 3472SOL    HW121878   2.193   1.100   0.316 -0.2002  0.0829  0.3589
 3472SOL    HW221879   2.157   1.235   0.352  2.3754 -0.6626 -1.0523
 3473SOL     OW21880   2.449   4.384  16.718  0.0528  0.0547  0.0156
 3473SOL    HW121881   2.427   4.292  16.703  0.6826  0.2028 -1.7872
 3473SOL    HW221882   2.398   4.434  16.654  0.2174 -0.7962 -0.7720
 3474SOL     OW21883   4.326   0.305   5.140  0.3031 -0.3245 -0.5699
 3474SOL    HW121884   4.347   0.365   5.211 -3.6356 -0.1876  0.5118
 3474SOL    HW221885   4.246   0.347   5.109  0.4250 -1.8468 -2.9484
 3475SOL     OW21886   2.278   3.268   9.710 -0.2998 -0.5851 -0.2056
 3475SOL    HW121887   2.285   3.349   9.659  1.7202 -0.4940  0.2126
 3475SOL    HW221888   2.313   3.202   9.649 -2.5527 -2.9343  1.0757
 3476SOL     OW21889   0.282   4.001  13.133  0.3983  0.7003  0.1619
 3476SOL    HW121890   0.280   3.906  13.116 -0.1183  0.5339  1.1416
 3476SOL    HW221891   0.192   4.027  13.149  0.1980  0.9017 -1.4048
 3477SOL     OW21892   1.474   2.810   2.774  0.1408 -0.2241 -0.2881
 3477SOL    HW121893   1.532   2.734   2.777 -0.7431 -0.9163 -0.5749
 3477SOL    HW221894   1.420   2.793   2.851  1.2146  1.1663  0.7644
 3478SOL     OW21895   4.292   4.272   4.958 -0.0056 -0.0401 -0.1547
 3478SOL    HW121896   4.316   4.349   4.906 -0.6051 -0.9139 -1.7279
 3478SOL    HW221897   4.200   4.291   4.976  0.7351  2.4671  0.9279
 3479SOL     OW21898   0.292   0.561   5.750  0.1753  0.1533  0.0296
 3479SOL    HW121899   0.218   0.505   5.729  0.4755 -0.8775  1.6994
 3479SOL    HW221900   0.260   0.645   5.716 -1.6294 -0.6370 -0.1914
 3480SOL     OW21901   3.323   1.846   4.058  0.0906  0.1598  0.7384
 3480SOL    HW121902   3.253   1.820   4.119  0.3369  0.1904  1.0349
 3480SOL    HW221903   3.399   1.820   4.110 -1.3467 -2.8211  1.3139
 3481SOL     OW21904   2.560   3.880   7.291 -0.4288  0.6564  0.4337
 3481SOL    HW121905   2.639   3.840   7.255  0.7496  0.3164  3.4810
 3481SOL    HW221906   2.574   3.962   7.243  0.4792 -0.0313 -0.4617
 3482SOL     OW21907   0.394   4.234   8.948 -0.3838  0.2203  0.3291
 3482SOL    HW121908   0.484   4.206   8.960 -0.8274 -1.8272 -1.1010
 3482SOL    HW221909   0.388   4.306   9.011  2.8159 -1.1261  2.1362
 3483SOL     OW21910   3.963   1.663  14.416 -0.3024  0.0165  0.4968
 3483SOL    HW121911   3.881   1.655  14.368  0.1597 -0.8319 -0.1395
 3483SOL    HW221912   4.010   1.707  14.345  0.9299 -1.5922  0.3136
 3484SOL     OW21913   3.144   1.309   8.850  0.7049 -0.2096 -0.4862
 3484SOL    HW121914   3.058   1.287   8.815  0.2708 -0.3585  0.6624
 3484SOL    HW221915   3.163   1.388   8.799 -0.0362  2.6894  3.6387
 3485SOL     OW21916   2.072   2.529  15.590  0.2697  0.0002 -0.2722
 3485SOL    HW121917   1.977   2.523  15.594  0.1847  0.6310 -1.1636
 3485SOL    HW221918   2.094   2.622  15.585  0.9571  0.0116  2.7766
 3486SOL     OW21919   1.681   1.425   5.882 -0.6088  1.0042 -0.0098
 3486SOL    HW121920   1.591   1.393   5.880  0.3471 -1.7743  1.4778
 3486SOL    HW221921   1.734   1.367   5.827 -0.4946  0.8669  0.2453
 3487SOL     OW21922   4.686   0.346   7.865  0.3307  0.7207  0.1638
 3487SOL    HW121923   0.048   0.314   7.833  0.8687  2.7516 -0.4260
 3487SOL    HW221924   4.668   0.415   7.802 -0.3684  1.0451  0.7162
 3488SOL     OW21925   4.377   1.818   8.477  0.2403  0.3938  0.5324
 3488SOL    HW121926   4.316   1.747   8.456  2.3260 -2.0178  2.5928
 3488SOL    HW221927   4.429   1.833   8.398  1.5554 -1.1607  1.0830
 3489SOL     OW21928   1.369   0.633   3.124 -0.2147  0.0859 -0.6189
 3489SOL    HW121929   1.386   0.540   3.137 -1.5033  0.1828  1.5973
 3489SOL    HW221930   1.446   0.674   3.163 -0.1630 -0.0345 -0.5953
 3490SOL     OW21931   0.497   2.115   2.936  0.3389  0.3129  0.0742
 3490SOL    HW121932   0.406   2.143   2.944  0.4310  0.3014  1.1423
 3490SOL    HW221933   0.516   2.138   2.845  0.6445  0.0453  0.0730
 3491SOL     OW21934   2.229   2.008   3.261 -0.1020 -0.0985 -0.8392
 3491SOL    HW121935   2.239   1.986   3.353 -1.6246  0.3394 -0.5696
 3491SOL    HW221936   2.137   2.031   3.247 -0.2707 -0.4717 -0.3251
 3492SOL     OW21937   2.347   4.561  15.423  0.3239  0.1605  0.7053
 3492SOL    HW121938   2.357   4.481  15.373 -3.1250  0.7387 -0.8651
 3492SOL    HW221939   2.418   4.549  15.486  0.1254  0.1443  0.9277
 3493SOL     OW21940   0.290   3.274   7.486 -0.5536  0.3552  0.4381
 3493SOL    HW121941   0.305   3.368   7.484  2.9447 -0.2139  1.3549
 3493SOL    HW221942   0.302   3.250   7.394  0.5234 -0.1551  0.7164
 3494SOL     OW21943   1.039   1.580   6.159 -0.3519 -0.1494  0.0918
 3494SOL    HW121944   0.996   1.610   6.079 -0.5052  1.7778  0.8779
 3494SOL    HW221945   0.972   1.602   6.224  0.1120 -0.8180  0.7909
 3495SOL     OW21946   1.190   3.709   0.020  0.1616  0.0268  1.2022
 3495SOL    HW121947   1.150   3.654  17.646  2.3050  1.0211 -0.8978
 3495SOL    HW221948   1.185   3.796  17.673  1.8918 -1.0929 -1.4076
 3496SOL     OW21949   3.416   0.286  14.732  0.6736 -0.7642  0.1144
 3496SOL    HW121950   3.476   0.293  14.806 -0.3669  0.0099  0.8831
 3496SOL    HW221951   3.440   0.364  14.682  1.8211 -1.6996 -0.7811
 3497SOL     OW21952   0.546   0.612  13.439  0.2421  0.1184  0.4382
 3497SOL    HW121953   0.606   0.674  13.480  0.0840  0.2314  0.5009
 3497SOL    HW221954   0.478   0.667  13.401  0.0161 -0.4793 -0.0252
 3498SOL     OW21955   3.426   4.350   5.767  0.7908 -0.4268 -0.0782
 3498SOL    HW121956   3.355   4.391   5.718  2.0528 -0.5680 -2.0414
 3498SOL    HW221957   3.397   4.259   5.756  1.9472 -0.7565 -0.3651
 3499SOL     OW21958   1.425   0.577  12.641 -0.2763 -0.8683 -0.3434
 3499SOL    HW121959   1.446   0.489  12.671  0.6016 -0.1593  1.1598
 3499SOL    HW221960   1.509   0.601  12.602 -0.5076  0.2031 -0.1933
 3500SOL     OW21961   0.772   0.223   6.268 -0.1725  0.6982  0.2247
 3500SOL    HW121962   0.714   0.287   6.227  1.1164  1.0230 -1.1209
 3500SOL    HW221963   0.755   0.253   6.357 -2.8764  0.0115 -0.0625
 3501SOL     OW21964   0.548   3.286  10.760 -0.2746 -0.2166 -0.4357
 3501SOL    HW121965   0.541   3.197  10.793  0.4653 -0.5599 -1.2025
 3501SOL    HW221966   0.514   3.328  10.838  1.4281  2.7519 -1.2780
 3502SOL     OW21967   0.456   2.656   1.249 -0.0784  0.5676  0.7340
 3502SOL    HW121968   0.510   2.618   1.180  0.7619  1.4814  0.8906
 3502SOL    HW221969   0.468   2.591   1.319 -1.5760  0.5494  0.9964
 3503SOL     OW21970   0.010   1.849   4.449  0.1620  0.2528  0.3034
 3503SOL    HW121971   0.002   1.754   4.461 -0.8882  0.4489  1.2171
 3503SOL    HW221972   0.078   1.879   4.509  0.1117 -0.9675  0.9672
 3504SOL     OW21973   3.432   2.481   8.811 -0.1280 -0.0938 -0.0372
 3504SOL    HW121974   3.384   2.432   8.743 -0.3816 -0.1238  0.1629
 3504SOL    HW221975   3.366   2.470   8.879 -0.2182  0.7904  0.0152
 3505SOL     OW21976   2.753   1.265   7.994 -0.0837 -0.2970 -0.1397
 3505SOL    HW121977   2.676   1.239   7.945 -0.2353  1.6813 -0.9661
 3505SOL    HW221978   2.803   1.294   7.918 -2.8050  0.7639 -1.5167
 3506SOL     OW21979   2.889   0.435  10.061 -0.0305  0.0917  0.5076
 3506SOL    HW121980   2.818   0.422  10.123 -1.3257  0.5091 -0.8865
 3506SOL    HW221981   2.962   0.417  10.119 -0.1817 -0.1508  0.6200
 3507SOL     OW21982   3.700   0.594   3.927 -0.2961  0.2004  0.2710
 3507SOL    HW121983   3.625   0.582   3.869 -0.0869 -2.0128  0.4237
 3507SOL    HW221984   3.733   0.504   3.934  1.6623  0.9396  0.4485
 3508SOL     OW21985   4.570   0.167  16.979  0.4745  0.8631  0.3356
 3508SOL    HW121986   4.634   0.237  16.994  0.2083  1.3085 -0.5825
 3508SOL    HW221987   4.504   0.195  17.042 -1.0003  1.5752 -1.5189
 3509SOL     OW21988   2.239   4.141   5.024  0.6273  0.1681  0.4663
 3509SOL    HW121989   2.218   4.069   5.082 -0.9179  0.2390 -0.0009
 3509SOL    HW221990   2.212   4.216   5.077 -0.8845 -1.1741  1.5824
 3510SOL     OW21991   0.760   3.538   0.435 -0.2786  0.1098 -0.4770
 3510SOL    HW121992   0.747   3.580   0.520  1.6723  1.9297 -1.0889
 3510SOL    HW221993   0.676   3.566   0.397 -0.8864  0.1936  0.9377
 3511SOL     OW21994   3.778   1.310   6.339 -0.4346  0.2825 -0.7335
 3511SOL    HW121995   3.785   1.403   6.318  1.8411  0.4343  0.8051
 3511SOL    HW221996   3.721   1.278   6.268 -1.7986  2.7559 -0.7635
 3512SOL     OW21997   2.420   3.504   7.818  0.0554  0.0859 -0.0414
 3512SOL    HW121998   2.327   3.526   7.827 -0.6712 -2.0144 -2.6648
 3512SOL    HW221999   2.445   3.554   7.896 -1.8312  1.9263 -0.6021
 3513SOL     OW22000   4.253   0.714  10.707  0.1892  0.2071 -0.2307
 3513SOL    HW122001   4.289   0.630  10.680 -0.5962  1.1410 -4.2056
 3513SOL    HW222002   4.167   0.713  10.664 -0.0852 -0.9318  0.3378
 3514SOL     OW22003   2.406   2.494   7.857 -0.5590  0.2321  0.3391
 3514SOL    HW122004   2.413   2.571   7.914  0.3763 -0.0343  0.5881
 3514SOL    HW222005   2.381   2.542   7.778 -3.6180 -0.7528  0.7090
 3515SOL     OW22006   1.359   2.626   5.948 -0.4710  0.0810 -0.3199
 3515SOL    HW122007   1.342   2.533   5.935 -2.2812  0.0274  2.2116
 3515SOL    HW222008   1.283   2.675   5.916  0.6773  1.5078 -0.8840
 3516SOL     OW22009   1.075   0.933   9.044  0.6505  0.2873  0.0659
 3516SOL    HW122010   1.129   1.002   9.082  1.7585 -0.0235 -0.9024
 3516SOL    HW222011   1.007   0.989   9.007  2.3789  1.4556 -1.3718
 3517SOL     OW22012   3.512   1.991  15.324 -0.1376  0.2241 -0.0003
 3517SOL    HW122013   3.478   2.079  15.310  0.5480  1.1497  4.0187
 3517SOL    HW222014   3.431   1.946  15.301  0.7286 -1.4907  0.2597
 3518SOL     OW22015   3.595   2.033  14.795  0.5550 -0.2871  0.1738
 3518SOL    HW122016   3.598   2.088  14.874  0.2880  0.6896 -0.4949
 3518SOL    HW222017   3.683   2.054  14.764  1.1789 -1.6353  1.0516
 3519SOL     OW22018   2.145   2.962  11.622  0.2621 -0.1876  0.1905
 3519SOL    HW122019   2.170   2.876  11.655  0.7256  0.3537  1.2310
 3519SOL    HW222020   2.229   2.994  11.589 -0.2519 -0.7840 -1.7110
 3520SOL     OW22021   1.740   0.984   1.996 -0.5396  0.3926  0.5512
 3520SOL    HW122022   1.740   1.055   2.060  0.8539  3.4970 -2.9715
 3520SOL    HW222023   1.830   0.952   2.004 -0.3778  0.4036 -1.2688
 3521SOL     OW22024   3.825   1.138  16.155 -0.2317  0.3324  0.1497
 3521SOL    HW122025   3.771   1.122  16.077  0.5009 -1.8410  0.0764
 3521SOL    HW222026   3.910   1.109  16.123  0.0377  1.1499  0.1253
 3522SOL     OW22027   1.154   1.026   5.421  0.1741 -0.0621  0.3876
 3522SOL    HW122028   1.067   1.003   5.451 -0.2978  2.3298  0.9066
 3522SOL    HW222029   1.152   1.119   5.446  0.1694  0.4705 -1.5954
 3523SOL     OW22030   1.152   0.511   8.389 -0.1830 -0.5094 -0.6334
 3523SOL    HW122031   1.096   0.510   8.467 -1.0943  0.1697 -1.2731
 3523SOL    HW222032   1.184   0.422   8.397  3.5626  0.9540  0.8196
 3524SOL     OW22033   4.333   1.778   3.044 -0.2843  0.0584  0.2879
 3524SOL    HW122034   4.414   1.819   3.073 -2.0930  2.4310  2.0695
 3524SOL    HW222035   4.283   1.856   3.018 -0.4954 -1.0296 -2.5689
 3525SOL     OW22036   0.748   0.295  10.778  0.3020  0.1221 -0.6747
 3525SOL    HW122037   0.793   0.260  10.702  1.0988 -3.3693  1.4102
 3525SOL    HW222038   0.822   0.329  10.828  0.5960  0.0457 -1.0681
 3526SOL     OW22039   1.858   3.659  12.376  1.0956 -0.3339  0.4484
 3526SOL    HW122040   1.912   3.595  12.329 -1.6064 -1.5366 -1.0574
 3526SOL    HW222041   1.909   3.676  12.455 -1.3791  4.2875  1.0598
 3527SOL     OW22042   1.820   1.281   8.252  0.0607 -0.0082  0.0662
 3527SOL    HW122043   1.809   1.236   8.168  2.8748 -0.9627  0.2087
 3527SOL    HW222044   1.734   1.273   8.294  0.5783 -0.3354  1.0588
 3528SOL     OW22045   2.983   2.827   4.213  0.0301  0.0738  0.0099
 3528SOL    HW122046   2.932   2.759   4.256  0.2224 -0.5059 -0.6756
 3528SOL    HW222047   2.955   2.903   4.263  2.2808  0.4901  0.6446
 3529SOL     OW22048   0.626   1.176   6.958 -0.6283  0.0306  0.1364
 3529SOL    HW122049   0.659   1.256   6.999  0.7441 -0.9641  0.9770
 3529SOL    HW222050   0.676   1.176   6.877  0.4667  1.9931  0.8112
 3530SOL     OW22051   4.051   1.216   4.164  0.3218 -0.4740  0.0939
 3530SOL    HW122052   4.101   1.143   4.127  1.5895 -0.2078  1.2901
 3530SOL    HW222053   4.109   1.261   4.225 -0.1481  0.4473 -0.1404
 3531SOL     OW22054   3.393   4.447   1.874  0.3736 -1.0018  0.3463
 3531SOL    HW122055   3.350   4.532   1.879  0.2693 -1.1082  1.3409
 3531SOL    HW222056   3.390   4.437   1.970  2.1049  1.2576  0.6404
 3532SOL     OW22057   0.690   0.275   3.494  0.4144 -0.0727 -0.1062
 3532SOL    HW122058   0.652   0.345   3.441  1.2116  0.6378  0.2721
 3532SOL    HW222059   0.783   0.296   3.496 -0.0081  1.5267  3.4291
 3533SOL     OW22060   3.459   0.543  10.361  0.2635 -0.5462 -0.4773
 3533SOL    HW122061   3.412   0.588  10.291 -0.8252 -3.3836 -1.5837
 3533SOL    HW222062   3.543   0.535  10.316  0.0830  1.4805 -1.1799
 3534SOL     OW22063   0.074   0.179   8.670 -0.0684  0.4963 -0.1811
 3534SOL    HW122064   0.029   0.257   8.702  0.8340  0.3032  1.5202
 3534SOL    HW222065   0.027   0.111   8.718  0.8972 -0.8352 -1.1007
 3535SOL     OW22066   1.936   2.569  15.946 -0.5156 -0.2435 -0.3159
 3535SOL    HW122067   1.889   2.594  15.867 -1.0012 -0.2485 -0.0252
 3535SOL    HW222068   1.994   2.495  15.926  0.8448  0.7712 -0.1008
 3536SOL     OW22069   0.403   4.491   3.264 -0.0700  0.2196 -0.1007
 3536SOL    HW122070   0.417   4.571   3.315  0.4399 -1.1906  1.9450
 3536SOL    HW222071   0.440   4.436   3.333  0.0505  0.4072 -0.0176
 3537SOL     OW22072   1.312   1.984  16.152  0.2027  0.1384  0.4521
 3537SOL    HW122073   1.284   1.988  16.243  1.2760  1.5307  0.7274
 3537SOL    HW222074   1.373   1.910  16.157 -1.3413 -1.1053  0.8844
 3538SOL     OW22075   1.262   4.468   0.902 -0.3376  0.1848 -0.2477
 3538SOL    HW122076   1.339   4.413   0.916 -1.3405 -0.6131  2.2105
 3538SOL    HW222077   1.264   4.532   0.973 -1.4722 -1.0917  0.9360
 3539SOL     OW22078   0.347   1.292  16.174  0.3690  0.1835 -0.5134
 3539SOL    HW122079   0.423   1.348  16.163  0.3191  0.3163 -0.1791
 3539SOL    HW222080   0.274   1.353  16.166 -0.8116 -1.0725  0.4532
 3540SOL     OW22081   4.018   3.772   9.889  0.0856  0.0652  0.4421
 3540SOL    HW122082   4.014   3.866   9.871  0.5172 -0.2517 -1.4005
 3540SOL    HW222083   3.942   3.759   9.945 -1.4499 -1.0264 -1.8594
 3541SOL     OW22084   4.440   3.113   8.018  0.2672 -0.9780  0.1712
 3541SOL    HW122085   4.472   3.082   7.934 -2.2700 -0.6868 -0.8855
 3541SOL    HW222086   4.519   3.160   8.047 -0.8113  0.1943  1.2289
 3542SOL     OW22087   0.235   0.189   2.270  0.6054  0.4501 -0.2138
 3542SOL    HW122088   0.198   0.104   2.246 -1.0279  0.7077  1.4350
 3542SOL    HW222089   0.251   0.224   2.182 -3.5063  1.5608 -0.5241
 3543SOL     OW22090   3.893   4.120   2.430  0.1486 -0.0003 -0.6675
 3543SOL    HW122091   3.815   4.159   2.390  1.9459  1.8023 -2.3725
 3543SOL    HW222092   3.945   4.196   2.457 -3.5413  2.7700 -1.3232
 3544SOL     OW22093   4.697   1.846  11.911  0.0930 -0.1515 -0.0680
 3544SOL    HW122094   4.648   1.849  11.993 -0.3921 -0.5712 -0.3488
 3544SOL    HW222095   0.035   1.774  11.924  0.0828  0.0831  1.3215
 3545SOL     OW22096   4.552   3.073  12.592 -0.3882 -0.3204 -0.2307
 3545SOL    HW122097   4.647   3.065  12.581  0.1188  0.5913  3.4519
 3545SOL    HW222098   4.543   3.165  12.620 -0.7027 -1.0737  2.1359
 3546SOL     OW22099   3.072   2.521  14.959  0.1758 -0.3829  0.0735
 3546SOL    HW122100   3.028   2.450  14.912 -2.2826  1.2317 -0.0052
 3546SOL    HW222101   3.009   2.526  15.031 -0.7447  3.5054 -1.0225
 3547SOL     OW22102   2.008   3.567  14.619  0.0996 -0.8040  0.2470
 3547SOL    HW122103   1.957   3.605  14.691  0.0227  0.8237 -0.6516
 3547SOL    HW222104   1.946   3.579  14.546  0.1352 -2.9291 -0.1194
 3548SOL     OW22105   2.347   4.564   4.036 -0.0316 -0.0764  0.1440
 3548SOL    HW122106   2.438   4.554   4.011  0.1163  0.6262  0.4015
 3548SOL    HW222107   2.334   4.654   4.007  1.3546 -0.0548 -0.4074
 3549SOL     OW22108   2.768   2.748   7.898 -0.7689 -0.0045  0.9364
 3549SOL    HW122109   2.815   2.785   7.824 -3.4088  0.3881 -0.5335
 3549SOL    HW222110   2.764   2.827   7.953  0.5180 -0.3767  1.5610
 3550SOL     OW22111   0.588   0.496   8.136 -0.0414 -0.7257  0.2816
 3550SOL    HW122112   0.515   0.467   8.190 -1.0119 -1.4698 -1.4257
 3550SOL    HW222113   0.642   0.417   8.137  1.2306  0.1186 -1.3043
 3551SOL     OW22114   1.468   0.530   4.076 -0.0813  0.1304  0.5019
 3551SOL    HW122115   1.407   0.517   4.148  0.5025 -1.9084  0.6110
 3551SOL    HW222116   1.419   0.594   4.023  0.5632  1.2191  1.2120
 3552SOL     OW22117   2.711   1.827   7.339  0.2923  0.3679  0.3112
 3552SOL    HW122118   2.739   1.845   7.429 -2.8572 -0.3111  1.4394
 3552SOL    HW222119   2.670   1.741   7.338  0.7418  0.1590 -0.1900
 3553SOL     OW22120   1.235   1.956   5.648 -0.7620 -0.1236 -0.0755
 3553SOL    HW122121   1.277   2.040   5.666 -2.1340  0.3298  1.0363
 3553SOL    HW222122   1.243   1.955   5.552  4.3731  0.9956  0.3380
 3554SOL     OW22123   2.131   2.671   7.038 -0.6158 -0.8356 -0.0597
 3554SOL    HW122124   2.070   2.701   7.106 -0.1443  1.3420 -0.6056
 3554SOL    HW222125   2.179   2.751   7.015 -2.3115  0.6023  1.3793
 3555SOL     OW22126   1.665   0.153  10.856 -0.0112  0.1335 -0.0714
 3555SOL    HW122127   1.708   0.067  10.858  0.2679  0.2729 -0.0449
 3555SOL    HW222128   1.596   0.138  10.921 -0.9735 -1.0663 -1.3553
 3556SOL     OW22129   2.785   3.607   5.267 -0.5876 -0.3747 -0.0147
 3556SOL    HW122130   2.832   3.574   5.343  1.6106  0.3587 -1.0682
 3556SOL    HW222131   2.709   3.645   5.311 -0.7048 -1.1230  0.4410
 3557SOL     OW22132   0.555   0.356   2.580 -0.2243  0.2949  0.6909
 3557SOL    HW122133   0.574   0.344   2.487  0.8823 -0.2201  0.9873
 3557SOL    HW222134   0.551   0.265   2.609 -0.6493 -0.0107 -0.3488
 3558SOL     OW22135   3.778   3.087  16.896 -0.0771 -0.8253  0.0336
 3558SOL    HW122136   3.717   3.158  16.875  0.2169 -0.3369  0.8287
 3558SOL    HW222137   3.856   3.127  16.857 -0.0235 -1.9502 -1.0483
 3559SOL     OW22138   1.439   4.253   0.551 -0.1394 -0.5478  0.0446
 3559SOL    HW122139   1.357   4.207   0.534  1.2869 -2.3831 -1.8524
 3559SOL    HW222140   1.392   4.335   0.561 -1.3135 -1.2001 -0.1315
 3560SOL     OW22141   1.126   4.713  10.098  0.0444 -0.1000 -0.5534
 3560SOL    HW122142   1.179   0.057  10.055  0.7513 -1.3540 -1.6497
 3560SOL    HW222143   1.177   4.704  10.179  0.0622 -2.3978 -0.8064
 3561SOL     OW22144   4.634   2.955   5.435  0.7745  0.1843 -0.5238
 3561SOL    HW122145   4.652   3.033   5.488 -0.5992  1.3480 -1.7597
 3561SOL    HW222146   4.720   2.936   5.398  0.6937 -0.5547 -0.3278
 3562SOL     OW22147   4.563   4.402   4.201  0.0339 -0.6535 -0.9274
 3562SOL    HW122148   4.501   4.372   4.267  0.2693  0.3543 -0.2488
 3562SOL    HW222149   4.613   4.472   4.244 -1.6826  0.0520 -0.1109
 3563SOL     OW22150   2.997   2.408   8.301 -0.4385 -0.0685 -0.4912
 3563SOL    HW122151   2.979   2.487   8.249  0.1922  0.3129 -0.1346
 3563SOL    HW222152   3.087   2.386   8.277 -1.3821 -3.7867 -0.6049
 3564SOL     OW22153   4.020   1.311  12.675  0.0413  0.7504 -0.1029
 3564SOL    HW122154   4.075   1.344  12.746  0.2954  1.5412 -0.6721
 3564SOL    HW222155   4.044   1.218  12.673 -2.5528  0.0684 -0.2386
 3565SOL     OW22156   2.461   0.478   6.397  0.0263  0.3472 -0.7255
 3565SOL    HW122157   2.486   0.567   6.422  0.2199  0.0652  0.0850
 3565SOL    HW222158   2.548   0.446   6.371 -0.4955 -1.0911 -0.6691
 3566SOL     OW22159   4.430   2.076  10.409 -0.3332 -0.1753  0.0288
 3566SOL    HW122160   4.485   2.017  10.460 -2.0442 -0.7713  1.2017
 3566SOL    HW222161   4.344   2.037  10.425 -0.9071  0.9215 -0.3482
 3567SOL     OW22162   3.338   2.665   9.919  0.4058 -0.1116 -0.3712
 3567SOL    HW122163   3.348   2.583   9.967 -3.8125 -0.9210 -0.7998
 3567SOL    HW222164   3.294   2.725   9.979 -0.4283 -0.6331 -0.4510
 3568SOL     OW22165   3.133   4.354   1.843 -0.4955  0.2051 -0.4156
 3568SOL    HW122166   3.226   4.372   1.856 -0.3695 -0.3955 -0.4793
 3568SOL    HW222167   3.121   4.294   1.916  1.4585  1.4528  0.9295
 3569SOL     OW22168   3.770   1.778   4.359  0.1161 -0.1900 -0.0446
 3569SOL    HW122169   3.788   1.752   4.269  1.3277  0.2487  0.0754
 3569SOL    HW222170   3.806   1.867   4.362 -0.7392  0.1259  0.7060
 3570SOL     OW22171   4.360   1.820   4.084  0.0852  0.1033 -0.0275
 3570SOL    HW122172   4.340   1.739   4.037  1.9669 -0.6346  0.4679
 3570SOL    HW222173   4.387   1.871   4.008  0.5973 -0.6324 -0.3330
 3571SOL     OW22174   0.046   1.869   3.379 -0.1396  0.6090  0.0215
 3571SOL    HW122175   0.103   1.934   3.420 -1.2728  2.1338 -0.8185
 3571SOL    HW222176   4.693   1.874   3.437 -0.5932  2.5694 -0.7404
 3572SOL     OW22177   3.882   3.393   2.787 -0.2319 -0.4598  0.0279
 3572SOL    HW122178   3.800   3.425   2.825 -0.4573 -1.8870  0.7345
 3572SOL    HW222179   3.881   3.423   2.696  0.1211  0.3388  0.2857
 3573SOL     OW22180   2.650   0.973   6.732 -0.3197 -0.2838  0.0633
 3573SOL    HW122181   2.671   1.004   6.644 -0.1761  1.7509  0.8296
 3573SOL    HW222182   2.704   0.895   6.744  0.4317  0.2692  0.2488
 3574SOL     OW22183   0.797   3.901   5.024  0.1296 -0.7964 -0.5420
 3574SOL    HW122184   0.757   3.960   5.088  0.0224  3.2124 -4.2902
 3574SOL    HW222185   0.783   3.821   5.074  1.6611 -0.6058  0.2006
 3575SOL     OW22186   4.672   0.693   8.024 -0.3303  0.2556  0.3242
 3575SOL    HW122187   4.671   0.612   8.074  0.6578 -0.0860 -0.2125
 3575SOL    HW222188   4.654   0.759   8.091 -1.0317 -0.4394  0.8128
 3576SOL     OW22189   1.081   3.645   0.612  0.1121 -0.0464  0.0080
 3576SOL    HW122190   1.018   3.686   0.671 -1.5164 -0.1462 -1.6475
 3576SOL    HW222191   1.045   3.695   0.538 -1.7378 -3.2782 -1.2903
 3577SOL     OW22192   0.125   2.699   1.563 -0.2526  0.2545 -0.3090
 3577SOL    HW122193   0.176   2.777   1.540 -1.2456  0.6216 -1.2938
 3577SOL    HW222194   0.072   2.682   1.485  0.4232 -1.6006 -0.3747
 3578SOL     OW22195   1.162   3.914  10.952  0.5443  0.1374 -0.2890
 3578SOL    HW122196   1.179   3.832  10.906  0.2096  0.1748 -0.4790
 3578SOL    HW222197   1.067   3.917  10.958  0.5256 -2.5469  0.4166
 3579SOL     OW22198   0.840   2.239  17.448  0.2582  0.2573  0.3151
 3579SOL    HW122199   0.892   2.236  17.528 -0.2191 -0.2278  0.6098
 3579SOL    HW222200   0.750   2.226  17.477  1.7029 -0.4901  4.3777
 3580SOL     OW22201   0.112   2.073   5.476  0.0771  0.0614  0.0759
 3580SOL    HW122202   0.120   2.057   5.382  0.9729 -0.9525  0.3201
 3580SOL    HW222203   0.020   2.056   5.492  0.1535 -0.2624  0.1629
 3581SOL     OW22204   1.143   3.185  10.460 -0.4679  0.0432 -0.3539
 3581SOL    HW122205   1.180   3.114  10.408 -0.4107  0.0548 -0.3291
 3581SOL    HW222206   1.089   3.143  10.527  2.0784 -2.2492  0.2658
 3582SOL     OW22207   2.776   4.341   2.483 -0.0363  0.1101 -0.7992
 3582SOL    HW122208   2.735   4.259   2.510 -1.2265  1.6288  2.0195
 3582SOL    HW222209   2.786   4.315   2.391  0.6317 -2.6480  0.0531
 3583SOL     OW22210   4.585   0.516  17.624  0.0470  0.6267 -0.4489
 3583SOL    HW122211   4.595   0.478  17.537 -1.5949 -0.0345 -0.3470
 3583SOL    HW222212   4.494   0.547  17.624 -0.7309 -1.6741  0.7432
 3584SOL     OW22213   0.238   4.282   5.385  0.3741  0.1450 -0.5531
 3584SOL    HW122214   0.199   4.262   5.470  3.8142 -0.7817  0.7923
 3584SOL    HW222215   0.167   4.243   5.333  0.2741  1.8628 -1.7083
 3585SOL     OW22216   2.792   2.023  14.801  0.3730 -0.1502 -0.3963
 3585SOL    HW122217   2.824   2.002  14.713  0.3486 -1.1532 -0.1636
 3585SOL    HW222218   2.860   1.991  14.860  0.3985  1.2831  0.3344
 3586SOL     OW22219   0.982   1.016  13.974  0.6642 -0.4440  0.5700
 3586SOL    HW122220   1.000   1.095  13.922 -0.1715  0.2777  1.3765
 3586SOL    HW222221   0.896   1.038  14.009  1.9078  2.9572  1.4796
 3587SOL     OW22222   0.701   4.137   8.734  0.8631 -0.1220  0.2705
 3587SOL    HW122223   0.613   4.101   8.729  1.0680 -0.6631  0.5244
 3587SOL    HW222224   0.700   4.197   8.809 -0.6506 -0.4392  0.5081
 3588SOL     OW22225   0.245   2.002   7.084  0.0585  0.0044  0.4785
 3588SOL    HW122226   0.288   2.037   7.006 -0.1642 -1.0198 -0.0972
 3588SOL    HW222227   0.153   2.024   7.064  0.1447 -0.6231 -0.5858
 3589SOL     OW22228   1.334   0.861   0.498 -0.2211  0.6431 -0.7387
 3589SOL    HW122229   1.291   0.864   0.413  0.2520 -0.6915 -1.0217
 3589SOL    HW222230   1.322   0.951   0.528 -0.2599  0.2881  0.3246
 3590SOL     OW22231   4.314   2.890   6.374 -0.5021 -0.1912 -0.6563
 3590SOL    HW122232   4.348   2.942   6.447 -1.7873  0.3007 -0.4041
 3590SOL    HW222233   4.238   2.938   6.341 -0.2934 -0.1257 -1.0347
 3591SOL     OW22234   1.280   0.945   3.744  0.3553  0.7058  0.7951
 3591SOL    HW122235   1.305   1.033   3.773 -2.6039  0.8867  2.8545
 3591SOL    HW222236   1.196   0.961   3.700  0.1074  0.5117  1.1930
 3592SOL     OW22237   1.910   0.118  17.477 -0.5086 -0.1625  0.0821
 3592SOL    HW122238   2.004   0.134  17.470 -0.4806  0.7994  2.4412
 3592SOL    HW222239   1.908   0.026  17.502  1.5812  0.1375  1.3752
 3593SOL     OW22240   0.619   2.754   2.129 -0.1252 -0.5088 -0.1785
 3593SOL    HW122241   0.616   2.735   2.222  0.6101  4.1584  0.8093
 3593SOL    HW222242   0.652   2.844   2.133 -2.2703  0.1566  2.1502
 3594SOL     OW22243   3.434   1.719   8.386  0.7093 -0.0803 -0.2325
 3594SOL    HW122244   3.372   1.653   8.414 -1.4250  2.1101  0.2088
 3594SOL    HW222245   3.435   1.705   8.291 -1.4333  1.5585 -0.5038
 3595SOL     OW22246   3.716   2.653   4.297 -0.4820  0.7020  0.0631
 3595SOL    HW122247   3.621   2.648   4.294 -0.4680  0.3105  0.2373
 3595SOL    HW222248   3.734   2.723   4.234 -0.6341  0.9535  0.2996
 3596SOL     OW22249   2.576   4.280   0.045 -0.0208 -0.5102 -0.0777
 3596SOL    HW122250   2.602   4.191   0.023  1.7315  0.3556 -1.5280
 3596SOL    HW222251   2.654   4.333   0.030 -1.3955  0.7399 -2.7689
 3597SOL     OW22252   4.466   0.701   7.273  0.5169 -0.6443  0.5733
 3597SOL    HW122253   4.507   0.688   7.358  1.7089 -1.0580 -0.0660
 3597SOL    HW222254   4.441   0.793   7.273 -0.2378 -0.8496  2.3426
 3598SOL     OW22255   2.924   1.931   7.204  0.0574  0.0100  0.3322
 3598SOL    HW122256   2.852   1.911   7.264 -1.0456  1.8787 -0.3532
 3598SOL    HW222257   2.945   1.844   7.173 -1.6578 -0.3939  0.2742
 3599SOL     OW22258   1.127   4.386   9.599 -0.2775  0.1670 -0.2224
 3599SOL    HW122259   1.177   4.306   9.616 -2.4962 -1.1942 -0.0948
 3599SOL    HW222260   1.175   4.450   9.651  0.6895  1.1781 -2.3534
 3600SOL     OW22261   0.105   0.973   3.313  0.1783  0.7593  0.1827
 3600SOL    HW122262   0.067   0.985   3.226  0.0279  0.4627  0.2079
 3600SOL    HW222263   0.114   1.065   3.340  0.0425  0.6961  0.4487
 3601SOL     OW22264   4.270   0.337   6.328 -0.4888 -0.2576 -0.5224
 3601SOL    HW122265   4.235   0.420   6.361  0.5041  0.5579 -1.5647
 3601SOL    HW222266   4.305   0.295   6.407  0.3619 -0.5293 -1.0587
 3602SOL     OW22267   4.024   0.087   4.591 -0.5298  0.2921  0.0304
 3602SOL    HW122268   3.943   0.071   4.639 -0.2722  1.3768  0.8071
 3602SOL    HW222269   3.996   0.080   4.500  0.4790 -2.6059 -0.0542
 3603SOL     OW22270   3.092   2.793   1.722 -0.0872  0.1362  0.1852
 3603SOL    HW122271   3.139   2.873   1.701  1.2415 -0.8812 -0.7622
 3603SOL    HW222272   3.020   2.797   1.659  0.3562  0.4489 -0.2974
 3604SOL     OW22273   2.843   2.014   2.512 -0.2490 -0.1052  0.2738
 3604SOL    HW122274   2.881   1.971   2.436  0.1995  0.5873  0.1103
 3604SOL    HW222275   2.806   2.089   2.466  0.5488 -1.1230 -1.9987
 3605SOL     OW22276   3.704   3.684  17.304 -0.8424 -0.4961 -0.4542
 3605SOL    HW122277   3.616   3.716  17.286  0.9929  3.8995 -1.5152
 3605SOL    HW222278   3.725   3.710  17.393  1.7493 -2.0097 -0.6296
 3606SOL     OW22279   4.390   1.629  15.182  0.0103 -0.0638 -0.1209
 3606SOL    HW122280   4.378   1.723  15.171 -0.9135 -0.1013  0.5323
 3606SOL    HW222281   4.425   1.612  15.095  1.6738 -2.6893  1.0777
 3607SOL     OW22282   3.245   4.654   6.464  0.3079 -0.1358 -0.0593
 3607SOL    HW122283   3.317   4.715   6.477 -0.2072  0.1147  1.6273
 3607SOL    HW222284   3.278   4.606   6.388  0.5660 -2.1296  1.3187
 3608SOL     OW22285   1.792   2.623   4.715 -0.4959 -0.0023 -0.3021
 3608SOL    HW122286   1.762   2.564   4.646 -0.2561  1.6585 -1.8277
 3608SOL    HW222287   1.790   2.584   4.802 -0.5494 -0.7477 -0.6363
 3609SOL     OW22288   0.086   0.898   4.463 -0.8676 -0.0826  0.1304
 3609SOL    HW122289   0.014   0.919   4.404 -0.2835  1.5229 -0.0158
 3609SOL    HW222290   0.140   0.837   4.413 -0.7827 -0.0420  0.1710
 3610SOL     OW22291   1.161   1.994  10.155 -0.1622  0.5521  0.0110
 3610SOL    HW122292   1.225   1.957  10.094  1.4612  2.3304  0.6699
 3610SOL    HW222293   1.115   2.047  10.090 -0.4812 -2.0245 -1.9026
 3611SOL     OW22294   2.979   3.994   0.462  0.6089 -0.3205  0.6446
 3611SOL    HW122295   2.933   3.990   0.546 -0.7475 -1.5766 -0.1809
 3611SOL    HW222296   3.068   3.989   0.497  1.3119 -1.7296 -1.3313
 3612SOL     OW22297   1.916   0.083   4.850  0.0178  0.2706  0.0239
 3612SOL    HW122298   1.910   0.031   4.770 -0.3289 -1.0161  0.8924
 3612SOL    HW222299   2.011   0.094   4.849  0.2551 -2.1626 -4.0648
 3613SOL     OW22300   4.466   0.283  17.176 -0.0945 -0.1591 -0.8461
 3613SOL    HW122301   4.408   0.359  17.180 -1.9205 -1.6776  1.2721
 3613SOL    HW222302   4.408   0.222  17.222  0.5460 -1.5627 -1.9026
 3614SOL     OW22303   4.501   0.575   2.599  0.0226  0.3061 -0.0024
 3614SOL    HW122304   4.508   0.669   2.580 -1.2019  0.4989  0.4611
 3614SOL    HW222305   4.589   0.561   2.635  0.6062  0.7260 -1.2523
 3615SOL     OW22306   2.500   2.478   4.619 -0.4807 -0.8898  0.0614
 3615SOL    HW122307   2.517   2.388   4.648  2.4337  0.3811  2.1501
 3615SOL    HW222308   2.591   2.492   4.595  0.2942 -0.8681  3.0770
 3616SOL     OW22309   1.184   4.413   5.063 -0.2972  0.0883 -0.0389
 3616SOL    HW122310   1.226   4.467   4.996  2.3251  0.1297  1.6409
 3616SOL    HW222311   1.093   4.433   5.042  1.0073  2.4275 -3.4930
 3617SOL     OW22312   4.360   0.930   7.725  0.1031  0.0307 -0.2580
 3617SOL    HW122313   4.452   0.942   7.702 -0.1738 -0.5432 -1.6775
 3617SOL    HW222314   4.369   0.940   7.820 -2.5542  0.3380 -0.0344
 3618SOL     OW22315   1.877   3.327  16.073 -0.6307  0.3269  0.2019
 3618SOL    HW122316   1.942   3.326  16.143  0.4468 -0.1626 -0.8035
 3618SOL    HW222317   1.912   3.257  16.018 -2.2545 -0.4352  0.1221
 3619SOL     OW22318   2.808   2.013   5.170  0.0627  0.5931  0.0528
 3619SOL    HW122319   2.733   1.992   5.226 -1.0745  3.3504 -0.4175
 3619SOL    HW222320   2.766   2.066   5.103 -2.1562 -1.2045  0.0172
 3620SOL     OW22321   4.369   1.061  11.105 -0.4420  0.2584 -0.2768
 3620SOL    HW122322   4.305   0.992  11.084 -1.9087  1.6763 -0.4715
 3620SOL    HW222323   4.326   1.091  11.185  1.6070 -1.9115  1.6289
 3621SOL     OW22324   2.775   2.602   7.043  0.4488 -0.5181 -0.1140
 3621SOL    HW122325   2.860   2.560   7.052  1.6154  1.5956 -1.1094
 3621SOL    HW222326   2.778   2.671   7.110  2.0490 -1.6876  1.0125
 3622SOL     OW22327   3.701   3.285   6.150  0.0642  0.2793  0.2384
 3622SOL    HW122328   3.658   3.201   6.131  0.6454  0.0167  0.0743
 3622SOL    HW222329   3.635   3.322   6.209 -0.5287 -0.7379  0.2121
 3623SOL     OW22330   4.612   2.712   7.373  0.1946  0.2632 -0.0285
 3623SOL    HW122331   4.663   2.660   7.311  2.2696  0.1422  1.7732
 3623SOL    HW222332   4.684   2.725   7.434  0.2534 -1.8562  0.3621
 3624SOL     OW22333   1.721   2.348  12.620  0.2408  0.7393 -0.0847
 3624SOL    HW122334   1.768   2.368  12.539 -1.1554 -0.6210 -1.2378
 3624SOL    HW222335   1.770   2.399  12.684  0.4210 -0.1054  0.4440
 3625SOL     OW22336   3.328   2.017   5.868  0.3382 -0.8871 -0.5462
 3625SOL    HW122337   3.283   1.981   5.944  2.5670  0.2195  1.2958
 3625SOL    HW222338   3.362   2.095   5.913 -1.0106 -0.7874  0.2945
 3626SOL     OW22339   0.978   3.070  10.666 -0.1517  0.4134  0.1386
 3626SOL    HW122340   0.918   3.144  10.678  2.9193  2.8382  0.6972
 3626SOL    HW222341   0.930   2.988  10.663  0.0547  0.2405  1.4792
 3627SOL     OW22342   1.430   0.238   4.537  0.2547  0.6052 -0.9843
 3627SOL    HW122343   1.472   0.198   4.613  3.2455  0.4005 -2.7472
 3627SOL    HW222344   1.343   0.271   4.558  0.1309  0.2508 -0.9324
 3628SOL     OW22345   2.386   1.504  11.424 -0.1723  0.0063  0.0605
 3628SOL    HW122346   2.412   1.595  11.439 -0.7910  0.4025 -1.2973
 3628SOL    HW222347   2.440   1.472  11.496 -0.9626  1.2750  1.2067
 3629SOL     OW22348   0.647   1.132   2.628 -0.2879 -0.3240  0.2217
 3629SOL    HW122349   0.630   1.042   2.654  0.1719 -0.6441 -0.5921
 3629SOL    HW222350   0.720   1.113   2.570 -2.8182 -0.4533 -2.9132
 3630SOL     OW22351   2.214   3.973   2.411 -0.2502 -0.5426 -0.2253
 3630SOL    HW122352   2.280   4.041   2.400 -0.7034  0.0221  0.5427
 3630SOL    HW222353   2.256   3.921   2.479  2.0625  0.3561 -0.9428
 3631SOL     OW22354   0.374   3.635  10.694 -0.3844  0.4967  0.1323
 3631SOL    HW122355   0.410   3.673  10.614  0.1828 -0.5254 -0.0947
 3631SOL    HW222356   0.350   3.545  10.670 -1.0546  0.7478 -0.1617
 3632SOL     OW22357   2.161   3.041   1.743 -0.3398 -0.5884  0.4032
 3632SOL    HW122358   2.068   3.026   1.757 -0.9041  2.8611  0.3695
 3632SOL    HW222359   2.158   3.071   1.653  1.6601  2.5212  1.3782
 3633SOL     OW22360   2.218   3.931   5.218  0.3433 -0.5598 -0.0214
 3633SOL    HW122361   2.154   3.870   5.253 -0.3772 -0.7313 -1.6037
 3633SOL    HW222362   2.280   3.870   5.177 -0.3958 -2.6015  1.9142
 3634SOL     OW22363   1.845   2.485  12.423  0.0774  0.1127 -0.0715
 3634SOL    HW122364   1.941   2.479  12.421  0.1080  0.6226 -0.1445
 3634SOL    HW222365   1.838   2.580  12.436  0.9126  0.1652  0.0298
 3635SOL     OW22366   3.946   3.783   0.618  0.2963 -0.0526  0.5316
 3635SOL    HW122367   3.927   3.719   0.687  0.0742  0.3802  0.8696
 3635SOL    HW222368   4.040   3.799   0.626  0.3800  0.2247 -0.9911
 3636SOL     OW22369   2.194   3.262   1.000  0.0939 -0.4105 -0.0674
 3636SOL    HW122370   2.287   3.263   0.981  0.2494 -2.3633  0.6577
 3636SOL    HW222371   2.203   3.279   1.094  1.1212  0.2645 -0.2904
 3637SOL     OW22372   3.493   0.497   6.170 -0.1559 -0.7046  0.4364
 3637SOL    HW122373   3.565   0.523   6.111 -1.2400  0.1312 -0.5155
 3637SOL    HW222374   3.495   0.404   6.150  0.4837 -0.2082 -1.8995
 3638SOL     OW22375   0.689   4.422   6.920  0.6302  0.4425  0.1903
 3638SOL    HW122376   0.748   4.347   6.913  0.8742  0.7499 -0.9582
 3638SOL    HW222377   0.743   4.484   6.871 -3.1842  3.7866  0.2353
 3639SOL     OW22378   1.792   3.106   4.363 -0.3181  0.4705  0.0860
 3639SOL    HW122379   1.806   3.080   4.272  1.4960  1.8728 -0.0308
 3639SOL    HW222380   1.864   3.165   4.387  1.0505 -0.2785 -2.1354
 3640SOL     OW22381   3.255   1.521   2.260  0.0949 -0.6972  0.1483
 3640SOL    HW122382   3.330   1.566   2.298  1.4877 -2.6855 -0.2648
 3640SOL    HW222383   3.274   1.540   2.168  2.3650 -1.3157  0.4841
 3641SOL     OW22384   4.684   1.076   2.735  0.1093 -0.5627  0.2152
 3641SOL    HW122385   4.647   1.060   2.822 -0.2570 -3.0375 -0.3855
 3641SOL    HW222386   0.051   1.054   2.759  0.0075 -1.1558  0.0375
 3642SOL     OW22387   4.245   0.783  14.613 -0.6379 -0.0888 -0.5510
 3642SOL    HW122388   4.273   0.707  14.562 -0.1316  0.8068 -1.6097
 3642SOL    HW222389   4.150   0.777  14.624 -0.7116 -0.0997 -1.1735
 3643SOL     OW22390   2.642   0.360   3.449 -0.0116 -0.1324 -0.0031
 3643SOL    HW122391   2.683   0.445   3.468  0.7005 -0.0106 -2.1379
 3643SOL    HW222392   2.595   0.379   3.368  0.7874  0.4169 -0.3388
 3644SOL     OW22393   2.504   3.188   4.295 -0.0997  0.0493 -0.3418
 3644SOL    HW122394   2.510   3.255   4.363  0.3964  0.4797 -0.8044
 3644SOL    HW222395   2.434   3.132   4.329  0.3993  1.4197  2.9725
 3645SOL     OW22396   2.797   0.528  17.331  0.1812  0.2145 -0.4156
 3645SOL    HW122397   2.723   0.478  17.365  0.5595  0.7113  1.1356
 3645SOL    HW222398   2.749   0.611  17.329 -1.5631 -0.8117 -0.5165
 3646SOL     OW22399   4.247   3.596   7.011  0.4130 -0.2906 -0.0405
 3646SOL    HW122400   4.241   3.544   7.091  1.0405  2.1701  1.6279
 3646SOL    HW222401   4.230   3.541   6.935 -0.6199 -1.7706  1.2569
 3647SOL     OW22402   2.151   4.061   3.258  0.5333  0.0386 -0.0386
 3647SOL    HW122403   2.238   4.022   3.247  0.4738 -0.3013  0.7035
 3647SOL    HW222404   2.094   3.994   3.221 -0.4188  2.6871 -3.4146
 3648SOL     OW22405   3.560   2.178   8.589  0.1515  0.1879  0.2717
 3648SOL    HW122406   3.498   2.110   8.564  0.7409  0.6083 -2.3153
 3648SOL    HW222407   3.494   2.244   8.613 -0.8517 -0.1597 -1.5804
 3649SOL     OW22408   2.056   4.491   5.034 -0.2253 -0.3161  0.2778
 3649SOL    HW122409   2.010   4.445   4.964  2.3409  0.8263 -2.1664
 3649SOL    HW222410   2.123   4.539   4.985  0.9344 -2.8414 -0.6106
 3650SOL     OW22411   1.823   3.005   5.866  0.2201  0.3081 -0.2487
 3650SOL    HW122412   1.753   2.948   5.833 -1.3420  0.3876  2.9392
 3650SOL    HW222413   1.900   2.949   5.853 -0.3099 -0.4148 -0.2831
 3651SOL     OW22414   2.309   1.492   2.364 -0.4528  0.7866 -0.1751
 3651SOL    HW122415   2.366   1.484   2.287 -1.3379 -0.7562 -0.6654
 3651SOL    HW222416   2.254   1.414   2.359  1.0260 -0.4997  3.3103
 3652SOL     OW22417   0.899   0.355  10.250 -0.0080 -0.0350 -0.3008
 3652SOL    HW122418   0.950   0.284  10.211  1.1334  0.0073  1.1070
 3652SOL    HW222419   0.939   0.372  10.335 -0.7443 -2.4311  0.5256
 3653SOL     OW22420   2.628   3.699   7.941  0.4496 -0.0784 -0.0108
 3653SOL    HW122421   2.664   3.750   8.013  1.6754 -0.2516 -0.4987
 3653SOL    HW222422   2.544   3.738   7.918  0.9715  0.7329 -0.5228
 3654SOL     OW22423   2.651   3.693   3.439 -0.1514 -0.0997 -0.1903
 3654SOL    HW122424   2.617   3.647   3.515  0.5280 -0.9809 -0.4152
 3654SOL    HW222425   2.598   3.662   3.366 -1.2843 -0.6420  0.8728
 3655SOL     OW22426   0.416   2.418   6.079  0.4642 -0.2414  0.3408
 3655SOL    HW122427   0.404   2.360   6.153  0.2204  0.7682  1.0928
 3655SOL    HW222428   0.325   2.428   6.049  0.4763  0.2380  0.4676
 3656SOL     OW22429   4.149   4.180   4.715 -0.4170  0.3909 -0.0553
 3656SOL    HW122430   4.163   4.243   4.644  1.3841  0.9496  0.7809
 3656SOL    HW222431   4.075   4.128   4.686  0.7400 -0.0120 -2.2473
 3657SOL     OW22432   1.947   4.532  13.898 -0.2290  0.1742  0.0670
 3657SOL    HW122433   1.960   4.566  13.987  0.4824  1.6936 -0.6173
 3657SOL    HW222434   1.982   4.607  13.850  0.0299  0.1155  0.1609
 3658SOL     OW22435   1.753   3.276   4.953 -0.2926  0.0422 -0.4147
 3658SOL    HW122436   1.708   3.292   4.870  0.3742  1.2357 -0.5439
 3658SOL    HW222437   1.726   3.189   4.981  0.1373 -0.0901 -0.4081
 3659SOL     OW22438   2.764   3.817   8.605 -0.3271  0.6632  0.2401
 3659SOL    HW122439   2.707   3.874   8.553  0.2758 -1.0290 -2.3017
 3659SOL    HW222440   2.767   3.751   8.536  0.6193 -1.6396  2.4691
 3660SOL     OW22441   1.541   1.695  11.485  0.2736  0.3876 -0.2941
 3660SOL    HW122442   1.540   1.788  11.507  1.3163  0.5290 -0.8524
 3660SOL    HW222443   1.606   1.700  11.415 -0.3346 -1.1264 -0.9664
 3661SOL     OW22444   1.486   2.346   2.798 -0.1026 -0.4514 -0.2079
 3661SOL    HW122445   1.427   2.295   2.855 -1.6055 -1.9943 -3.1115
 3661SOL    HW222446   1.517   2.274   2.742  1.2762  1.5746 -2.0347
 3662SOL     OW22447   2.019   1.658   3.264  0.2914  0.1045 -0.1969
 3662SOL    HW122448   1.997   1.718   3.335 -0.0111  1.1147 -1.1427
 3662SOL    HW222449   2.062   1.587   3.313 -0.3501 -0.7261 -0.8391
 3663SOL     OW22450   3.278   0.553   9.136  0.1171 -0.1261 -0.7033
 3663SOL    HW122451   3.372   0.558   9.154 -0.0403  0.4980 -0.0526
 3663SOL    HW222452   3.278   0.558   9.040 -0.9939  2.5563 -0.5692
 3664SOL     OW22453   2.897   0.173  17.365  0.3775 -0.0588 -0.0110
 3664SOL    HW122454   2.884   0.238  17.296  0.7024  3.1696  2.9227
 3664SOL    HW222455   2.807   0.144  17.383  0.3107 -0.9132 -1.7371
 3665SOL     OW22456   1.804   1.748   7.879  0.0743 -0.5738 -0.1794
 3665SOL    HW122457   1.712   1.725   7.872 -0.2029  0.7172 -0.8843
 3665SOL    HW222458   1.807   1.816   7.812  4.2605 -0.9925 -0.4067
 3666SOL     OW22459   4.488   1.667   5.654 -0.6152 -0.6043  0.0691
 3666SOL    HW122460   4.550   1.675   5.581  0.2891 -0.3343  0.8713
 3666SOL    HW222461   4.413   1.628   5.609 -0.6249 -0.0927 -0.3584
 3667SOL     OW22462   3.243   3.715   3.048 -0.2632 -0.3654  0.0789
 3667SOL    HW122463   3.153   3.703   3.017  0.0101 -0.2886 -0.7518
 3667SOL    HW222464   3.243   3.780   3.118 -0.7399 -0.9060  0.5714
 3668SOL     OW22465   1.878   3.965   4.808  0.0436 -0.6429  0.2227
 3668SOL    HW122466   1.823   4.041   4.828 -0.5496 -1.6109  2.2334
 3668SOL    HW222467   1.964   4.003   4.793 -0.0653 -0.4953 -0.0299
 3669SOL     OW22468   0.098   1.693   5.104  0.5028 -0.0631 -0.0499
 3669SOL    HW122469   0.014   1.681   5.148 -1.6045 -0.2093 -4.0533
 3669SOL    HW222470   0.062   1.711   5.017  0.1800 -0.1270  0.0693
 3670SOL     OW22471   3.153   1.826   0.477 -0.3359  0.2582  0.2142
 3670SOL    HW122472   3.238   1.791   0.448 -0.2947  0.8419 -0.3741
 3670SOL    HW222473   3.139   1.885   0.402 -1.4997  0.2925  0.4612
 3671SOL     OW22474   4.305   1.825   7.840  0.2326 -0.0267 -0.5463
 3671SOL    HW122475   4.282   1.734   7.854  2.1945 -0.1189  1.9968
 3671SOL    HW222476   4.226   1.868   7.874 -0.0993 -0.2461 -1.0433
 3672SOL     OW22477   1.774   1.450   6.400 -0.1743  0.3694  0.1903
 3672SOL    HW122478   1.678   1.446   6.391 -0.0665  0.6960 -1.0981
 3672SOL    HW222479   1.809   1.361   6.399 -2.5202 -0.5518 -3.0460
 3673SOL     OW22480   4.672   1.251   4.631 -0.1216 -0.7424  0.3050
 3673SOL    HW122481   4.680   1.336   4.675 -3.0652 -0.3070  0.0109
 3673SOL    HW222482   0.031   1.201   4.640  0.8518  0.2667 -2.8179
 3674SOL     OW22483   3.283   0.844   2.084  0.6971 -0.0325  0.5248
 3674SOL    HW122484   3.296   0.768   2.141  2.5336 -1.2598 -1.4955
 3674SOL    HW222485   3.357   0.889   2.125  1.1702 -0.1461 -0.2004
 3675SOL     OW22486   3.414   1.089   8.425  0.0703 -0.1890  0.1619
 3675SOL    HW122487   3.344   1.042   8.470 -0.9265 -0.2229 -1.4251
 3675SOL    HW222488   3.394   1.177   8.455 -1.1283 -1.3947  2.8993
 3676SOL     OW22489   0.098   0.658   6.783  0.6030 -0.2901  0.3426
 3676SOL    HW122490   0.141   0.717   6.720 -0.4190 -1.3326 -1.3500
 3676SOL    HW222491   0.021   0.634   6.731  1.1079  0.0776 -0.5804
 3677SOL     OW22492   4.712   2.719   2.229 -0.0056 -0.3199 -0.1058
 3677SOL    HW122493   4.698   2.627   2.209 -0.5262 -0.7130  2.1266
 3677SOL    HW222494   4.666   2.767   2.160  0.2983 -2.4461 -1.7673
 3678SOL     OW22495   0.059   2.165   8.294 -0.5515 -0.5037  0.1061
 3678SOL    HW122496   0.004   2.218   8.351 -0.8213 -0.4866 -0.1721
 3678SOL    HW222497   4.722   2.106   8.248  0.6071  0.6534 -2.8666
 3679SOL     OW22498   3.538   3.132   6.677 -0.8930 -0.6831 -0.3934
 3679SOL    HW122499   3.545   3.159   6.769 -2.1290  0.4883 -0.6403
 3679SOL    HW222500   3.545   3.217   6.633 -0.2453  0.2384  1.4912
 3680SOL     OW22501   0.816   2.878   2.786  0.0596  0.2118  0.0652
 3680SOL    HW122502   0.796   2.867   2.879  0.3497 -2.9189 -0.2442
 3680SOL    HW222503   0.912   2.884   2.779  0.0797  0.6016  0.6457
 3681SOL     OW22504   2.904   3.482  14.558 -0.1345 -0.1297 -0.4347
 3681SOL    HW122505   2.951   3.557  14.595  1.2655 -1.6038  0.7749
 3681SOL    HW222506   2.971   3.423  14.524 -0.1260 -0.2862 -0.1443
 3682SOL     OW22507   1.595   4.631  16.687 -0.3121  0.4259  0.3995
 3682SOL    HW122508   1.572   4.704  16.630  0.4003 -0.7058 -1.3464
 3682SOL    HW222509   1.654   4.580  16.631 -1.5995 -0.7719  0.1198
 3683SOL     OW22510   0.424   4.307   1.624  0.2499 -0.9090  0.1863
 3683SOL    HW122511   0.471   4.382   1.659 -2.0552 -0.1026  1.5809
 3683SOL    HW222512   0.344   4.308   1.677  0.6575 -0.5594  0.7956
 3684SOL     OW22513   4.503   2.310   2.461 -0.3219 -0.1534 -0.3873
 3684SOL    HW122514   4.512   2.246   2.390  0.1977  1.2262 -1.5719
 3684SOL    HW222515   4.408   2.302   2.471 -0.4847  0.6387 -1.2855
 3685SOL     OW22516   1.795   0.976   5.050 -0.2494 -0.6539  0.0137
 3685SOL    HW122517   1.816   1.030   5.125  0.5508  1.2527 -1.5963
 3685SOL    HW222518   1.881   0.976   5.008 -0.2406  3.1661  0.0502
 3686SOL     OW22519   4.444   0.035   4.392  0.0109 -0.0272  1.0640
 3686SOL    HW122520   4.438   0.100   4.322  0.6428 -0.9289  0.1744
 3686SOL    HW222521   4.389   4.688   4.355 -1.5084  2.7214 -1.9113
 3687SOL     OW22522   1.706   3.740  10.339 -0.3956  0.6404  0.7243
 3687SOL    HW122523   1.758   3.816  10.312  1.7812 -0.7498  0.9987
 3687SOL    HW222524   1.711   3.676  10.268 -1.7383  1.1821  0.1433
 3688SOL     OW22525   2.683   2.959   4.485  0.2257 -0.0611  0.5587
 3688SOL    HW122526   2.686   2.884   4.544 -0.4303  0.6127  1.4595
 3688SOL    HW222527   2.593   2.988   4.498  0.6389  1.4825  0.0093
 3689SOL     OW22528   0.406   2.901   6.178  0.4236  0.2707  0.4717
 3689SOL    HW122529   0.357   2.828   6.217  0.7854 -0.2882 -0.1077
 3689SOL    HW222530   0.405   2.868   6.088 -1.1105  2.7116 -0.4104
 3690SOL     OW22531   1.662   2.915  15.807 -0.0837  0.3235  0.2589
 3690SOL    HW122532   1.598   2.857  15.847 -2.6374  2.1664 -1.1644
 3690SOL    HW222533   1.715   2.862  15.748 -2.0573 -1.2836 -0.0239
 3691SOL     OW22534   1.209   1.309   7.250  0.6183  0.2434 -0.5166
 3691SOL    HW122535   1.130   1.278   7.294  0.5064 -1.3349 -1.8344
 3691SOL    HW222536   1.183   1.394   7.216  0.9867  0.3908 -0.4331
 3692SOL     OW22537   0.828   3.160  15.134  0.1281  0.4815  0.2230
 3692SOL    HW122538   0.827   3.246  15.092 -1.3281  0.6524  0.6117
 3692SOL    HW222539   0.882   3.171  15.212  0.4329  0.2004  0.0503
 3693SOL     OW22540   0.173   3.622   7.137 -0.0122  0.0089  0.0520
 3693SOL    HW122541   0.114   3.624   7.062  1.0027 -1.4510 -0.7995
 3693SOL    HW222542   0.108   3.650   7.202  2.8290  2.0983  1.9831
 3694SOL     OW22543   1.462   3.090  15.255 -0.3610  0.0849  1.0935
 3694SOL    HW122544   1.446   3.132  15.170  0.9114  0.6182  1.1252
 3694SOL    HW222545   1.447   2.997  15.241 -0.9656  0.3434 -0.0008
 3695SOL     OW22546   1.231   0.436   0.279 -0.0712 -0.8850  0.0884
 3695SOL    HW122547   1.309   0.381   0.286 -1.2476 -2.6536 -0.5093
 3695SOL    HW222548   1.258   0.500   0.345  0.5957 -0.8834 -0.1884
 3696SOL     OW22549   1.523   0.766   3.314  0.4075 -0.2289  0.0588
 3696SOL    HW122550   1.519   0.767   3.410 -0.0995  0.0807  0.0317
 3696SOL    HW222551   1.487   0.851   3.290 -0.0109 -0.4929 -0.2335
 3697SOL     OW22552   1.724   4.369   1.651  0.0368  0.6602  0.3101
 3697SOL    HW122553   1.749   4.288   1.609 -2.0280 -0.5160  1.3168
 3697SOL    HW222554   1.802   4.422   1.637  0.1417  0.0914 -1.2089
 3698SOL     OW22555   2.198   0.996   7.729 -0.2925  0.3873 -0.4536
 3698SOL    HW122556   2.281   0.959   7.760 -0.8823 -0.1570  0.4833
 3698SOL    HW222557   2.184   1.079   7.775  1.7848  1.2015 -1.3125
 3699SOL     OW22558   2.802   2.617   4.311 -0.0222 -0.3744 -0.0319
 3699SOL    HW122559   2.708   2.599   4.319  0.3703 -2.4088  0.1371
 3699SOL    HW222560   2.837   2.594   4.397 -3.5041 -0.6046  1.3186
 3700SOL     OW22561   0.645   3.192   8.247  0.4618  0.3650  0.1170
 3700SOL    HW122562   0.601   3.126   8.301 -0.7365  1.9293  1.0723
 3700SOL    HW222563   0.670   3.251   8.318 -0.8321  0.5466  0.4147
 3701SOL     OW22564   4.330   4.063   8.213 -0.6944 -0.1094  0.0832
 3701SOL    HW122565   4.315   4.020   8.129  0.1652 -0.7612  0.2719
 3701SOL    HW222566   4.321   3.994   8.279 -1.3242 -0.8151 -0.7425
 3702SOL     OW22567   0.920   3.377   1.156  0.8310 -0.3523  0.0121
 3702SOL    HW122568   1.012   3.373   1.183  1.1495  1.9849 -0.6656
 3702SOL    HW222569   0.914   3.433   1.079  0.6794  0.9907  0.9974
 3703SOL     OW22570   3.109   2.870   2.921 -0.0588 -0.2520 -0.0053
 3703SOL    HW122571   3.182   2.829   2.967 -1.0442 -2.2047 -0.1672
 3703SOL    HW222572   3.034   2.833   2.967 -0.5999  0.0358 -0.6437
 3704SOL     OW22573   0.276   3.983   6.780 -0.5871  0.0183  0.6116
 3704SOL    HW122574   0.312   4.070   6.793 -0.8191 -0.5702  5.1120
 3704SOL    HW222575   0.350   3.944   6.732 -2.6851 -1.5319 -1.3521
 3705SOL     OW22576   0.964   2.367   5.936  0.5625 -0.3948 -0.1069
 3705SOL    HW122577   0.957   2.430   5.865 -2.7937 -1.9415 -1.1393
 3705SOL    HW222578   0.884   2.378   5.988  0.1638 -0.8298 -0.6227
 3706SOL     OW22579   1.770   0.766  16.863 -0.0716  0.8863  0.1982
 3706SOL    HW122580   1.743   0.689  16.813  1.7434  0.3293  0.0576
 3706SOL    HW222581   1.829   0.724  16.926 -0.1602  0.2777 -0.1183
 3707SOL     OW22582   3.708   1.825   9.229  0.3090  0.3161  0.8662
 3707SOL    HW122583   3.782   1.830   9.168 -0.2172  0.2352  0.2265
 3707SOL    HW222584   3.641   1.783   9.176  0.1995  0.8347  0.5915
 3708SOL     OW22585   2.626   1.820   4.794 -0.0679  0.5011 -0.2955
 3708SOL    HW122586   2.655   1.730   4.813  0.1473  0.7241  0.4456
 3708SOL    HW222587   2.700   1.858   4.747  0.8955 -2.2807 -1.0246
 3709SOL     OW22588   0.479   2.805   6.548 -0.2859 -0.2972  0.0037
 3709SOL    HW122589   0.460   2.798   6.642  0.9833 -0.8204  0.2285
 3709SOL    HW222590   0.573   2.825   6.542 -0.1738  0.0306  2.6597
 3710SOL     OW22591   1.279   1.073   9.237  0.2415  0.2737  0.4632
 3710SOL    HW122592   1.228   1.067   9.318 -1.2825  2.2688 -0.3336
 3710SOL    HW222593   1.337   0.997   9.242  1.1711  1.0150  0.7281
 3711SOL     OW22594   4.133   0.569   3.438 -0.6981 -0.1230  0.5187
 3711SOL    HW122595   4.210   0.592   3.490 -1.0394  1.9565  0.0859
 3711SOL    HW222596   4.146   0.626   3.363 -0.0800 -0.8754  0.0553
 3712SOL     OW22597   2.148   3.484   2.711 -0.3361  0.0572 -0.0236
 3712SOL    HW122598   2.133   3.439   2.628  0.7331 -0.9536  0.3239
 3712SOL    HW222599   2.076   3.446   2.762  0.2482 -1.2136 -0.1214
 3713SOL     OW22600   3.472   3.748  15.205  0.1442  0.2713  0.2189
 3713SOL    HW122601   3.471   3.670  15.261 -1.1432 -0.5609 -0.9700
 3713SOL    HW222602   3.419   3.808  15.258  0.0770  0.9914 -0.6667
 3714SOL     OW22603   1.098   3.792   2.459 -0.3023  0.1685 -0.0792
 3714SOL    HW122604   1.034   3.837   2.514 -0.1099 -0.6960  0.8642
 3714SOL    HW222605   1.101   3.845   2.379 -0.3587  1.7729  0.9797
 3715SOL     OW22606   2.173   0.328   6.553  0.0400  0.2387 -0.3326
 3715SOL    HW122607   2.266   0.346   6.566 -0.0649  0.6251 -0.0972
 3715SOL    HW222608   2.137   0.316   6.641  1.7759  1.2179  0.5138
 3716SOL     OW22609   2.347   0.087   3.917 -0.4484 -0.1529 -0.1145
 3716SOL    HW122610   2.396   0.169   3.928  0.7206 -0.7813 -0.6799
 3716SOL    HW222611   2.256   0.109   3.898 -0.1016  1.7419  0.3591
 3717SOL     OW22612   3.177   2.737   7.944 -0.1673  0.8899 -0.2363
 3717SOL    HW122613   3.246   2.676   7.971 -0.8224 -0.4961 -1.6399
 3717SOL    HW222614   3.176   2.718   7.850 -1.6391  0.1923 -0.0760
 3718SOL     OW22615   0.686   3.698  11.194 -0.0607 -0.2555  0.0421
 3718SOL    HW122616   0.766   3.650  11.170  0.5187  0.0146  1.3930
 3718SOL    HW222617   0.645   3.715  11.110  0.1187 -1.4891 -0.2962
 3719SOL     OW22618   1.194   3.269   6.178  0.0263 -0.1936 -0.6386
 3719SOL    HW122619   1.161   3.186   6.212  1.3924 -0.6962 -0.5744
 3719SOL    HW222620   1.248   3.306   6.248 -1.0861  0.7787 -0.2866
 3720SOL     OW22621   0.496   0.656  16.897 -0.1174  0.0157 -0.1553
 3720SOL    HW122622   0.521   0.671  16.988 -0.3425  1.8739 -0.4010
 3720SOL    HW222623   0.504   0.561  16.890  1.7010  0.0715  1.3355
 3721SOL     OW22624   0.973   1.833  15.474  0.2691  0.5391  0.5444
 3721SOL    HW122625   0.924   1.801  15.550  0.1935  0.7815  0.5989
 3721SOL    HW222626   1.015   1.901  15.527  0.0117  0.5853  0.6854
 3722SOL     OW22627   0.812   4.283   7.705  0.4265  0.2901  0.1063
 3722SOL    HW122628   0.891   4.242   7.739 -1.5059 -2.3820  1.3361
 3722SOL    HW222629   0.770   4.210   7.661 -0.0974  1.3747 -1.2027
 3723SOL     OW22630   3.651   1.331   4.164  0.0549  0.2103  0.3552
 3723SOL    HW122631   3.621   1.258   4.218  3.0011 -1.1870  0.0736
 3723SOL    HW222632   3.565   1.364   4.140  0.9411  1.5201 -1.0009
 3724SOL     OW22633   4.706   2.135  11.985 -0.3165  0.0463  0.2321
 3724SOL    HW122634   4.702   2.060  11.926 -0.5196 -1.3062  1.9889
 3724SOL    HW222635   4.615   2.155  12.004 -0.9650 -1.3376 -1.3463
 3725SOL     OW22636   1.673   3.342   3.943  0.3834  0.5978  0.3792
 3725SOL    HW122637   1.724   3.367   3.866  1.2106  0.5479  0.9116
 3725SOL    HW222638   1.731   3.347   4.019 -1.9556  1.6229  2.0738
 3726SOL     OW22639   1.560   0.810   4.428  0.1301 -0.1608  0.2462
 3726SOL    HW122640   1.594   0.898   4.411  0.4660 -0.3746 -0.1768
 3726SOL    HW222641   1.513   0.808   4.345 -1.8077  0.0043  1.3512
 3727SOL     OW22642   1.977   2.464   0.405  0.1872  0.3135 -0.6745
 3727SOL    HW122643   1.919   2.426   0.339 -0.1817  0.1148 -0.2443
 3727SOL    HW222644   1.935   2.550   0.410 -4.4512 -1.9368 -0.2974
 3728SOL     OW22645   2.602   3.094   0.954 -0.1795  0.1902 -0.2038
 3728SOL    HW122646   2.547   3.018   0.932 -0.9344  0.2649  1.4240
 3728SOL    HW222647   2.546   3.171   0.944  0.3899  0.8011  1.3676
 3729SOL     OW22648   2.230   0.105   4.891 -0.0177 -0.2313 -0.0119
 3729SOL    HW122649   2.270   0.031   4.937 -1.1095  0.6749  2.4010
 3729SOL    HW222650   2.283   0.178   4.920  0.4994 -0.2926 -0.8052
 3730SOL     OW22651   0.662   4.082   4.799  0.3375 -0.6435 -0.0249
 3730SOL    HW122652   0.740   4.065   4.852  0.6068 -0.3836 -0.3339
 3730SOL    HW222653   0.693   4.088   4.708 -0.0937  0.5455 -0.0833
 3731SOL     OW22654   2.447   0.514   3.294  0.2379  0.4486  0.2845
 3731SOL    HW122655   2.444   0.434   3.241 -1.7852 -0.3087  1.5345
 3731SOL    HW222656   2.503   0.571   3.242  0.0163 -0.4207 -0.8900
 3732SOL     OW22657   1.354   2.220   7.474  0.3157 -0.1007 -0.6926
 3732SOL    HW122658   1.292   2.149   7.493  0.2175  0.0323 -0.5099
 3732SOL    HW222659   1.415   2.174   7.418 -0.8770 -0.2333 -1.8850
 3733SOL     OW22660   2.316   4.383   0.036  0.2675 -0.2790 -0.1178
 3733SOL    HW122661   2.399   4.366   0.080  0.9763 -1.6936 -1.9823
 3733SOL    HW222662   2.341   4.347  17.644  0.3696 -2.2516  0.7544
 3734SOL     OW22663   0.381   3.820  14.730  0.4571  0.0136 -0.0588
 3734SOL    HW122664   0.435   3.898  14.720 -1.9873  1.8054  0.6758
 3734SOL    HW222665   0.386   3.802  14.824 -1.8171 -1.0248 -0.1423
 3735SOL     OW22666   4.556   3.357   2.276  0.2038  0.4972  0.1490
 3735SOL    HW122667   4.480   3.353   2.335  0.3974  0.4741  0.3973
 3735SOL    HW222668   4.565   3.449   2.254 -2.8205  0.8225  0.2736
 3736SOL     OW22669   0.108   4.275   4.755  0.1493  0.1064 -0.1706
 3736SOL    HW122670   0.045   4.301   4.688 -0.1720  1.3414  0.5955
 3736SOL    HW222671   0.126   4.369   4.769  1.1281 -0.4334  2.2904
 3737SOL     OW22672   3.473   1.150   4.269  0.7948 -0.0287 -0.3616
 3737SOL    HW122673   3.381   1.149   4.240  0.6936  0.4012 -0.0589
 3737SOL    HW222674   3.470   1.084   4.338  0.7927  0.2913 -0.0578
 3738SOL     OW22675   2.022   3.438   6.178 -0.0791  0.0914 -0.2347
 3738SOL    HW122676   2.039   3.400   6.264 -1.6517  0.7738  0.3826
 3738SOL    HW222677   1.932   3.410   6.162  0.5669 -1.4625 -1.2545
 3739SOL     OW22678   3.542   1.703   9.069 -0.1789 -0.0363  0.7529
 3739SOL    HW122679   3.554   1.610   9.053 -1.6227 -0.1062  0.0509
 3739SOL    HW222680   3.449   1.708   9.093  0.1311 -0.8277  2.1297
 3740SOL     OW22681   3.975   3.961   4.650  0.0458  0.1297 -0.3712
 3740SOL    HW122682   3.934   3.983   4.567 -0.9927  2.3552  0.7260
 3740SOL    HW222683   4.017   3.876   4.638 -1.7607 -1.0609  1.7449
 3741SOL     OW22684   4.370   2.210   6.212  0.1123  0.8414  0.4195
 3741SOL    HW122685   4.456   2.237   6.243  0.3041  1.1100 -0.3521
 3741SOL    HW222686   4.318   2.281   6.250 -1.4493 -0.4769  0.7596
 3742SOL     OW22687   3.039   1.562   5.062  0.5574 -0.1602 -0.5031
 3742SOL    HW122688   2.996   1.619   4.999 -2.3623 -2.2003 -0.3308
 3742SOL    HW222689   3.042   1.482   5.008  0.3547 -0.7303  0.3293
 3743SOL     OW22690   3.538   4.024  10.986  0.0415  0.1316 -0.1534
 3743SOL    HW122691   3.620   4.006  11.032 -0.2755 -2.7242 -0.6733
 3743SOL    HW222692   3.480   4.034  11.061  2.1065 -0.2686  1.5214
 3744SOL     OW22693   0.824   4.341  12.246 -0.5618 -0.0667  0.2225
 3744SOL    HW122694   0.813   4.252  12.213 -0.6086 -0.5936  1.6817
 3744SOL    HW222695   0.820   4.406  12.176 -1.4133  0.1898  0.5143
 3745SOL     OW22696   2.061   0.150   5.953 -0.0210  0.5673 -0.0169
 3745SOL    HW122697   2.018   0.093   5.889  1.0654  1.3096 -1.4257
 3745SOL    HW222698   2.032   0.238   5.931 -1.2468  0.8160  2.6218
 3746SOL     OW22699   4.386   4.249   2.972 -0.1368  0.0413  0.2627
 3746SOL    HW122700   4.428   4.301   3.041 -0.3151  0.0784  0.3421
 3746SOL    HW222701   4.304   4.221   3.013 -1.9818  0.9312 -2.8735
 3747SOL     OW22702   3.548   4.563   7.250 -0.4508 -0.1348 -0.1124
 3747SOL    HW122703   3.459   4.558   7.214 -0.3162  0.3343 -0.5100
 3747SOL    HW222704   3.542   4.606   7.336 -1.2966  0.6740 -0.5762
 3748SOL     OW22705   4.569   0.513   4.553  0.0852 -0.1083  0.2789
 3748SOL    HW122706   4.483   0.543   4.525  0.3425  0.2055 -0.1711
 3748SOL    HW222707   4.593   0.582   4.616 -0.5306 -1.9355  2.4908
 3749SOL     OW22708   1.170   0.860   8.528 -0.8051  0.0078 -0.3386
 3749SOL    HW122709   1.099   0.869   8.591 -0.4709 -0.8806  0.1641
 3749SOL    HW222710   1.226   0.937   8.539  1.1586 -1.4541 -0.0556
 3750SOL     OW22711   0.750   2.011   1.775  0.2994  0.3982  0.0104
 3750SOL    HW122712   0.790   1.979   1.856 -1.3304  2.9726  1.8242
 3750SOL    HW222713   0.828   2.038   1.726  0.0654  0.5648 -0.2661
 3751SOL     OW22714   3.471   3.852   9.029  0.5681 -0.2726 -0.8647
 3751SOL    HW122715   3.463   3.769   9.076  1.4039 -0.7489 -1.5407
 3751SOL    HW222716   3.403   3.902   9.074  1.9752  0.0217  0.9503
 3752SOL     OW22717   4.306   3.601   8.301  0.2555  0.1341  0.9935
 3752SOL    HW122718   4.259   3.551   8.234 -0.6970 -0.7280  2.3050
 3752SOL    HW222719   4.304   3.686   8.257  2.9199 -0.2490  0.0864
 3753SOL     OW22720   0.675   4.019   2.112  0.1157  0.1876  0.4558
 3753SOL    HW122721   0.597   4.024   2.056  0.8112  2.1386 -0.3468
 3753SOL    HW222722   0.669   4.077   2.188 -0.8431 -1.0637  1.3374
 3754SOL     OW22723   4.398   2.915   4.113  0.4370 -0.3617  0.4851
 3754SOL    HW122724   4.410   3.006   4.138 -0.9187 -0.5831  1.9440
 3754SOL    HW222725   4.322   2.920   4.054  0.5130 -0.9937  0.3270
 3755SOL     OW22726   2.804   2.902  13.849 -0.1128 -0.0786 -0.4079
 3755SOL    HW122727   2.819   2.818  13.805 -0.2946 -1.1802  1.6245
 3755SOL    HW222728   2.709   2.907  13.842 -0.2793 -2.3986  0.2759
 3756SOL     OW22729   3.534   0.536   9.161  0.3380  0.4108 -0.3481
 3756SOL    HW122730   3.510   0.456   9.114 -0.5555 -0.2544  1.2432
 3756SOL    HW222731   3.630   0.538   9.168  0.2553 -0.9412  1.3975
 3757SOL     OW22732   3.836   0.866  13.473  0.4699 -0.1409 -0.0795
 3757SOL    HW122733   3.888   0.946  13.484 -0.9483  1.0748 -2.3766
 3757SOL    HW222734   3.749   0.900  13.453  0.1995 -1.2816 -0.8374
 3758SOL     OW22735   4.236   4.127   2.685 -0.7468  0.3525 -0.0424
 3758SOL    HW122736   4.181   4.083   2.621 -0.5662 -0.9212  0.6818
 3758SOL    HW222737   4.291   4.061   2.728  0.1188 -0.1159 -1.8896
 3759SOL     OW22738   1.351   4.394   1.682 -0.1632  0.1076  1.1948
 3759SOL    HW122739   1.404   4.473   1.676 -0.4060  0.2211  0.5641
 3759SOL    HW222740   1.289   4.427   1.747  0.7695  0.1317  2.0638
 3760SOL     OW22741   3.918   1.704   2.722  0.0060 -0.0257  0.1617
 3760SOL    HW122742   3.946   1.789   2.689  2.0709 -0.7445  0.0981
 3760SOL    HW222743   3.984   1.651   2.678 -0.1711 -0.5125  0.4804
 3761SOL     OW22744   1.914   0.979   0.372  0.8425 -0.1605  0.3036
 3761SOL    HW122745   1.984   1.042   0.383 -0.9160  1.6957  0.8227
 3761SOL    HW222746   1.835   1.028   0.394 -0.6741 -1.2600 -2.6903
 3762SOL     OW22747   2.447   1.786   1.205 -0.1194 -0.0431 -0.0360
 3762SOL    HW122748   2.522   1.796   1.146  0.8335 -3.0377  0.6760
 3762SOL    HW222749   2.380   1.846   1.172 -0.2501  0.3922  1.0025
 3763SOL     OW22750   1.616   1.683   5.585 -0.1705  0.1492 -0.3234
 3763SOL    HW122751   1.693   1.628   5.598 -0.3667 -0.4673 -1.7909
 3763SOL    HW222752   1.601   1.717   5.673  2.5994 -0.4566  0.3614
 3764SOL     OW22753   3.272   1.572   6.377 -1.0260  0.1340 -0.1431
 3764SOL    HW122754   3.260   1.643   6.440  0.7295  0.6337 -0.3761
 3764SOL    HW222755   3.356   1.578   6.331 -0.4243 -0.0490  0.9280
 3765SOL     OW22756   4.328   4.644   3.671 -0.3886 -0.6587  0.3696
 3765SOL    HW122757   4.391   4.605   3.612 -0.6481  0.4238 -0.6167
 3765SOL    HW222758   4.379   4.654   3.751 -1.7823 -2.8694  1.5570
 3766SOL     OW22759   1.147   1.362   0.455  0.1915  0.2235  0.3863
 3766SOL    HW122760   1.128   1.388   0.365  0.3701  0.8472  0.5304
 3766SOL    HW222761   1.159   1.445   0.502 -1.9774  0.3220  0.7698
 3767SOL     OW22762   4.114   3.776  15.172 -0.5470  0.0178  0.2726
 3767SOL    HW122763   4.101   3.767  15.266 -1.0736 -0.4075  0.1612
 3767SOL    HW222764   4.034   3.737  15.137 -0.3989 -0.5215  0.5251
 3768SOL     OW22765   1.976   3.963  13.437 -0.0253  0.0432  0.2055
 3768SOL    HW122766   1.940   4.003  13.516 -3.2685 -0.8528 -0.8113
 3768SOL    HW222767   2.059   3.920  13.457 -1.0520 -0.9975  2.1418
 3769SOL     OW22768   0.927   1.009   8.334 -0.4329 -0.1731 -0.0175
 3769SOL    HW122769   0.926   0.936   8.396 -0.8834 -0.4974 -0.4121
 3769SOL    HW222770   0.966   0.962   8.260  1.6327  3.0984 -1.0182
 3770SOL     OW22771   0.278   0.115   6.253  0.0276  0.3674 -0.3280
 3770SOL    HW122772   0.283   0.192   6.310  0.9010  1.8287 -2.3854
 3770SOL    HW222773   0.183   0.101   6.258 -0.1884  2.2896  0.7089
 3771SOL     OW22774   2.373   3.588   8.117  0.4196 -0.3979 -0.3673
 3771SOL    HW122775   2.421   3.527   8.172 -2.2590 -1.6011  0.6587
 3771SOL    HW222776   2.291   3.538   8.115 -0.2046  0.6631 -1.3498
 3772SOL     OW22777   4.612   1.574   6.561 -0.4336  0.0131  0.4467
 3772SOL    HW122778   4.597   1.599   6.652  1.6331  0.0685  0.7654
 3772SOL    HW222779   4.705   1.551   6.563 -0.3540  0.1917 -1.1137
 3773SOL     OW22780   3.001   1.861   1.567  0.3904 -0.6013  0.6090
 3773SOL    HW122781   3.053   1.936   1.540  0.6146 -0.7629  0.5933
 3773SOL    HW222782   2.948   1.843   1.489  1.3012 -2.2565  0.3666
 3774SOL     OW22783   2.087   0.927   1.130 -0.1956 -0.4632 -0.1759
 3774SOL    HW122784   2.081   0.845   1.081 -0.9427 -1.2781  1.2901
 3774SOL    HW222785   2.029   0.911   1.205  1.2731  1.6526  1.3954
 3775SOL     OW22786   2.599   1.589   4.493 -0.2592  0.1858 -0.1126
 3775SOL    HW122787   2.689   1.611   4.517 -0.9132  1.7735  0.9018
 3775SOL    HW222788   2.566   1.526   4.557 -1.0871  1.4829  0.7406
 3776SOL     OW22789   1.171   0.178   7.063 -0.3883 -0.4835 -0.7494
 3776SOL    HW122790   1.232   0.138   7.126 -0.0692  1.2798  0.0726
 3776SOL    HW222791   1.220   0.166   6.981 -0.0968 -2.9018 -0.2128
 3777SOL     OW22792   0.803   1.401   6.270  0.7179  0.4515  0.0399
 3777SOL    HW122793   0.722   1.442   6.241  0.5662 -0.3408 -0.6273
 3777SOL    HW222794   0.827   1.447   6.351  2.6989 -2.6168  1.2171
 3778SOL     OW22795   3.424   3.667   2.568  0.2409 -0.4492  0.2067
 3778SOL    HW122796   3.388   3.716   2.495 -0.6589 -1.7490 -0.2109
 3778SOL    HW222797   3.428   3.731   2.640 -3.8874  0.2341 -0.1789
 3779SOL     OW22798   0.708   1.025   4.891 -0.0420 -0.6307  0.4338
 3779SOL    HW122799   0.760   1.014   4.970  0.8837  0.6835  0.0028
 3779SOL    HW222800   0.766   1.083   4.841  1.2121 -0.7670  1.7197
 3780SOL     OW22801   2.944   0.743  13.422  0.6244  0.2898 -0.0441
 3780SOL    HW122802   2.943   0.671  13.486 -2.0391  0.5145  0.1811
 3780SOL    HW222803   3.030   0.783  13.428  0.6691  0.4575 -1.7901
 3781SOL     OW22804   1.238   0.382  12.031 -0.0367 -0.1057  0.0477
 3781SOL    HW122805   1.321   0.391  12.078  1.2505 -0.5227 -2.1315
 3781SOL    HW222806   1.242   0.287  12.029 -0.4711 -0.1249 -0.0341
 3782SOL     OW22807   4.301   0.971   4.298  0.2359 -0.0980 -0.0659
 3782SOL    HW122808   4.283   0.916   4.222 -1.6854  0.1211  0.2398
 3782SOL    HW222809   4.279   1.055   4.258 -0.5515  0.2844  1.1814
 3783SOL     OW22810   3.947   2.078  14.268 -0.3301  0.0483  0.4824
 3783SOL    HW122811   4.017   2.106  14.326 -2.1429  1.2240  2.1349
 3783SOL    HW222812   3.944   2.149  14.205 -1.6727  0.8786  1.4654
 3784SOL     OW22813   2.182   1.737   5.049  0.2403  0.0788 -0.2111
 3784SOL    HW122814   2.143   1.823   5.031 -1.5037 -0.1933  2.3025
 3784SOL    HW222815   2.275   1.753   5.035  0.1929  0.4828 -0.0500
 3785SOL     OW22816   3.705   4.068   5.621  0.0970 -0.2504  0.6321
 3785SOL    HW122817   3.674   4.132   5.556 -1.4725 -0.2830  1.3360
 3785SOL    HW222818   3.642   3.997   5.613 -1.6203  1.0785  2.4401
 3786SOL     OW22819   0.637   4.324   4.276  0.1380 -1.0311  0.4926
 3786SOL    HW122820   0.586   4.243   4.274  0.2621 -1.0912 -0.6747
 3786SOL    HW222821   0.597   4.386   4.336 -0.8547 -1.0660 -0.1233
 3787SOL     OW22822   1.061   4.177   7.837  0.3509  0.0670 -0.2048
 3787SOL    HW122823   1.114   4.234   7.781  2.8897 -0.8609  1.2672
 3787SOL    HW222824   1.059   4.228   7.918  1.7313 -1.5637  0.8447
 3788SOL     OW22825   1.858   4.633   9.364  0.0523  0.2258 -0.6269
 3788SOL    HW122826   1.871   4.676   9.280  1.0162 -1.9945 -1.6183
 3788SOL    HW222827   1.929   4.569   9.359  0.1282  0.2881 -0.3238
 3789SOL     OW22828   1.081   2.472  17.456  0.0444 -0.1176 -0.6019
 3789SOL    HW122829   1.137   2.519  17.394 -0.0614 -0.8354 -1.2344
 3789SOL    HW222830   1.151   2.418  17.494  2.2317  2.8262 -0.3716
 3790SOL     OW22831   3.061   4.081   4.938  0.6135 -0.2075  0.0431
 3790SOL    HW122832   3.112   4.014   4.893 -1.2922 -0.1681 -2.1602
 3790SOL    HW222833   2.974   4.063   4.904  0.3615 -0.2865  0.7330
 3791SOL     OW22834   0.293   3.940  16.277  0.0480  0.1011  0.3346
 3791SOL    HW122835   0.271   3.882  16.203 -1.6820  1.4530 -0.2083
 3791SOL    HW222836   0.382   3.963  16.251 -0.0951  2.5633  2.0951
 3792SOL     OW22837   4.419   2.028  13.186  0.2309 -0.2410  0.1642
 3792SOL    HW122838   4.427   1.951  13.242  0.8561 -0.4610 -0.2247
 3792SOL    HW222839   4.391   2.093  13.250 -0.6076 -0.8342  0.4085
 3793SOL     OW22840   2.222   0.254   7.312  0.3045 -0.0599  0.3064
 3793SOL    HW122841   2.136   0.282   7.280  0.8005 -0.4836 -1.3854
 3793SOL    HW222842   2.248   0.186   7.250  0.2858  0.0933  0.1293
 3794SOL     OW22843   0.877   2.668  13.205 -0.4824  0.1302  0.3301
 3794SOL    HW122844   0.803   2.628  13.159  0.1660 -2.2471  1.3288
 3794SOL    HW222845   0.846   2.697  13.291 -0.0330  0.4046  0.3955
 3795SOL     OW22846   1.066   2.893   5.214  0.3486 -0.3900  0.5119
 3795SOL    HW122847   1.045   2.856   5.128  1.5782 -0.5746  0.2916
 3795SOL    HW222848   1.007   2.850   5.275 -1.2058  0.4688 -0.3727
 3796SOL     OW22849   0.400   3.818   2.700  0.5129 -0.0067  0.3486
 3796SOL    HW122850   0.395   3.767   2.619  1.2859 -0.2324  0.4382
 3796SOL    HW222851   0.353   3.900   2.689  0.0633  0.0055  2.4960
 3797SOL     OW22852   1.921   4.531   0.298 -0.7009 -0.0461 -0.3575
 3797SOL    HW122853   1.906   4.437   0.309 -1.9624  0.1663 -0.2555
 3797SOL    HW222854   1.860   4.554   0.229  1.2058  3.1574 -0.9526
 3798SOL     OW22855   3.268   4.398   8.278 -0.8526  0.2755  0.0609
 3798SOL    HW122856   3.293   4.479   8.233  0.7478 -0.8819 -1.1622
 3798SOL    HW222857   3.289   4.325   8.219 -0.4013 -0.1110  0.7020
 3799SOL     OW22858   2.570   3.897   4.873 -0.0382  0.7246  0.7173
 3799SOL    HW122859   2.601   3.949   4.799 -0.0855  0.6485  0.6438
 3799SOL    HW222860   2.605   3.810   4.851 -0.3899  0.2799  1.9031
 3800SOL     OW22861   4.349   3.575   3.890 -0.6185 -0.5736  0.1560
 3800SOL    HW122862   4.301   3.658   3.888  1.7970  0.8449  0.1885
 3800SOL    HW222863   4.361   3.552   3.798 -0.3379 -1.1412  0.3397
 3801SOL     OW22864   3.893   3.493   3.791 -0.0306  0.4455  0.1934
 3801SOL    HW122865   3.976   3.514   3.833  0.4100 -2.6267  0.8451
 3801SOL    HW222866   3.892   3.567   3.730 -0.7140  0.0752 -0.2388
 3802SOL     OW22867   0.019   4.042   4.319 -0.1480 -0.1633  0.0145
 3802SOL    HW122868   4.672   4.013   4.377 -0.6469  0.3275 -0.3462
 3802SOL    HW222869   0.058   3.956   4.309  0.6229  0.2276 -0.3563
 3803SOL     OW22870   4.342   0.588   6.763  0.1098  0.1121  0.0269
 3803SOL    HW122871   4.296   0.505   6.755  0.7751 -0.4517  2.0054
 3803SOL    HW222872   4.276   0.647   6.727 -1.2055 -1.4238 -0.0574
 3804SOL     OW22873   4.554   3.108  13.650  0.1788 -0.1014  0.2193
 3804SOL    HW122874   4.564   3.202  13.665 -1.7136  0.0904  0.2586
 3804SOL    HW222875   4.554   3.100  13.555 -0.5322 -1.4155  0.3337
 3805SOL     OW22876   1.929   1.779   4.133  0.0072  0.1877 -0.1152
 3805SOL    HW122877   1.887   1.799   4.050 -1.9317 -1.3717  0.4798
 3805SOL    HW222878   1.849   1.767   4.184 -1.0611  0.2653 -1.7807
 3806SOL     OW22879   3.554   4.306   4.436  0.3079 -0.1613  0.4528
 3806SOL    HW122880   3.466   4.280   4.408  1.1219 -2.6741  0.2968
 3806SOL    HW222881   3.599   4.226   4.409 -2.9121 -2.1024  0.7862
 3807SOL     OW22882   2.987   4.037   8.579 -0.0857  0.2840 -0.1173
 3807SOL    HW122883   2.966   4.117   8.532 -0.8337  0.4427  0.4907
 3807SOL    HW222884   2.954   3.982   8.508  1.1655 -0.7743  0.1246
 3808SOL     OW22885   4.272   0.465  17.234 -0.5463  0.3166 -0.2219
 3808SOL    HW122886   4.230   0.523  17.171 -1.9482  0.1553  0.5701
 3808SOL    HW222887   4.197   0.411  17.261  0.0889 -1.6412 -2.4222
 3809SOL     OW22888   4.055   3.064   1.703 -0.4704  0.6550 -0.6545
 3809SOL    HW122889   3.993   3.001   1.665 -1.1251  0.1216  1.2805
 3809SOL    HW222890   4.048   3.136   1.641 -0.4247  1.0659 -0.1751
 3810SOL     OW22891   3.200   2.090   5.205  0.1727 -0.1037 -0.4883
 3810SOL    HW122892   3.136   2.109   5.136 -0.6895  0.3730  0.4396
 3810SOL    HW222893   3.191   1.995   5.206 -1.0333  0.0159  1.5472
 3811SOL     OW22894   2.763   4.189   1.881 -0.2494  0.2382 -0.2422
 3811SOL    HW122895   2.801   4.101   1.873 -0.7156 -0.1506  1.8815
 3811SOL    HW222896   2.673   4.161   1.863 -0.8382  2.4149 -0.6659
 3812SOL     OW22897   2.197   1.800   7.966 -0.2977 -0.1065  0.7498
 3812SOL    HW122898   2.245   1.733   7.918  0.1120  0.0530  0.9323
 3812SOL    HW222899   2.230   1.879   7.923  3.8623 -1.4450  1.4513
 3813SOL     OW22900   0.711   1.124   7.563  0.5737  0.2670  0.6579
 3813SOL    HW122901   0.630   1.084   7.595  0.3168  0.8573  0.7573
 3813SOL    HW222902   0.779   1.075   7.609 -0.1202  0.7078  2.1726
 3814SOL     OW22903   1.822   1.287   6.779  0.7128  0.5645 -0.1300
 3814SOL    HW122904   1.893   1.225   6.796 -0.6414 -1.7504 -2.8845
 3814SOL    HW222905   1.774   1.278   6.862  1.3279  0.2101  0.1785
 3815SOL     OW22906   4.433   1.012   5.197 -0.5964 -0.2273  0.3305
 3815SOL    HW122907   4.410   0.924   5.170 -0.8963  0.0818 -0.4005
 3815SOL    HW222908   4.444   1.056   5.113 -3.9632 -0.7152 -0.3472
 3816SOL     OW22909   1.066   4.579   7.276  0.0514  0.5165 -0.3888
 3816SOL    HW122910   1.085   4.501   7.224  1.1274 -0.7328  1.8609
 3816SOL    HW222911   0.981   4.562   7.318 -0.6152  0.1321 -1.8751
 3817SOL     OW22912   4.717   3.511   8.529  0.2422 -0.5531 -0.7898
 3817SOL    HW122913   0.006   3.484   8.438  2.4031  3.0187 -1.5664
 3817SOL    HW222914   4.627   3.543   8.538  0.8605  0.4491  1.8886
 3818SOL     OW22915   4.031   2.871   7.442 -0.4703  0.6927  0.0162
 3818SOL    HW122916   4.031   2.776   7.430  0.4235  0.2299  3.7842
 3818SOL    HW222917   4.112   2.892   7.488  0.5086  0.3751 -1.5567
 3819SOL     OW22918   0.368   0.831   9.865  0.0770 -0.1272 -0.1783
 3819SOL    HW122919   0.438   0.868   9.811  0.6739  1.3437  1.6062
 3819SOL    HW222920   0.414   0.815   9.947  0.9914  2.4500 -0.1800
 3820SOL     OW22921   3.983   2.899   6.511  0.0807 -0.2266  0.0006
 3820SOL    HW122922   4.004   2.922   6.421 -0.6125 -2.6921 -0.7928
 3820SOL    HW222923   4.002   2.805   6.511  0.4072 -0.1480 -1.1571
 3821SOL     OW22924   0.750   2.313   4.919  0.5424  0.3964 -0.0243
 3821SOL    HW122925   0.665   2.296   4.958 -0.6891 -1.2410 -3.4019
 3821SOL    HW222926   0.806   2.305   4.996  0.9411 -0.9672 -0.4388
 3822SOL     OW22927   2.528   3.319   4.915 -0.5692  0.0804 -0.2969
 3822SOL    HW122928   2.539   3.361   5.000 -0.0389 -0.4796 -0.0880
 3822SOL    HW222929   2.607   3.273   4.886  1.1095  2.4993  0.4380
 3823SOL     OW22930   0.807   4.488  14.345 -0.2477  0.0080 -0.0328
 3823SOL    HW122931   0.814   4.584  14.348  0.2894 -0.1023  1.8104
 3823SOL    HW222932   0.736   4.490  14.280 -1.0765  0.3920  0.8864
 3824SOL     OW22933   0.899   2.587  13.612  0.0638  0.1783 -0.4300
 3824SOL    HW122934   0.973   2.558  13.664  0.4027  1.9372  0.0399
 3824SOL    HW222935   0.923   2.678  13.598  3.9838 -0.8512 -0.3387
 3825SOL     OW22936   2.468   1.251   1.151 -0.0320 -0.0159  0.4677
 3825SOL    HW122937   2.460   1.319   1.217 -5.5686 -0.3807  0.2385
 3825SOL    HW222938   2.411   1.284   1.082  1.4318  1.0077 -0.2391
 3826SOL     OW22939   0.373   4.355   3.521 -0.1702 -0.3540  0.1436
 3826SOL    HW122940   0.336   4.285   3.574 -1.0059  1.1229  1.4994
 3826SOL    HW222941   0.431   4.397   3.584  2.0075 -0.5246 -1.7159
 3827SOL     OW22942   0.449   3.689   8.257 -0.5194 -0.3245 -0.4188
 3827SOL    HW122943   0.454   3.706   8.163 -3.0271 -0.6905 -0.6252
 3827SOL    HW222944   0.357   3.661   8.266 -0.7059  0.1546 -0.8267
 3828SOL     OW22945   1.117   1.607   0.615 -0.7413  0.2852  0.3688
 3828SOL    HW122946   1.139   1.695   0.584  0.6724 -0.5065 -0.8841
 3828SOL    HW222947   1.101   1.643   0.702  1.6496  2.2891 -0.0186
 3829SOL     OW22948   0.655   2.311   3.069 -0.6161 -0.1665 -0.2150
 3829SOL    HW122949   0.660   2.326   2.974 -0.8623 -3.7246 -0.7693
 3829SOL    HW222950   0.588   2.244   3.065  0.9991 -1.8528  0.9756
 3830SOL     OW22951   0.662   1.869   3.034  0.4211  0.0975  0.3438
 3830SOL    HW122952   0.665   1.944   2.975 -0.3551  0.8486  1.2653
 3830SOL    HW222953   0.571   1.839   3.025  1.4542 -3.3270  1.3364
 3831SOL     OW22954   4.373   0.662   3.817 -0.1785 -0.3086  0.1597
 3831SOL    HW122955   4.355   0.568   3.820 -2.1272  0.0502 -0.9170
 3831SOL    HW222956   4.462   0.671   3.781  0.6759  1.3773  2.6840
 3832SOL     OW22957   4.438   4.277   4.419 -0.8193 -0.5188  0.1887
 3832SOL    HW122958   4.358   4.307   4.461  0.1948  1.0812  0.9832
 3832SOL    HW222959   4.409   4.191   4.389 -0.8947 -0.2892 -0.4078
 3833SOL     OW22960   1.328   3.858   4.942 -0.9036 -0.0261 -0.4390
 3833SOL    HW122961   1.235   3.839   4.932 -1.0611  0.1289  0.7675
 3833SOL    HW222962   1.315   3.953   4.946 -2.8214 -0.3628  1.0015
 3834SOL     OW22963   4.661   3.956  11.997 -0.0488 -0.2121  0.7807
 3834SOL    HW122964   4.690   3.979  12.086  0.2524 -0.9015  0.8626
 3834SOL    HW222965   0.017   3.954  11.943  0.1197  1.8572  0.9578
 3835SOL     OW22966   0.706   0.600   7.197  0.2984 -0.1649  0.4296
 3835SOL    HW122967   0.783   0.544   7.205 -1.9167 -2.7678  3.4448
 3835SOL    HW222968   0.638   0.546   7.157  0.9206 -1.0424  0.5690
 3836SOL     OW22969   3.547   0.580   8.594  0.3935 -0.2840 -0.3381
 3836SOL    HW122970   3.504   0.494   8.591  0.0064 -0.1728  2.1581
 3836SOL    HW222971   3.641   0.568   8.610  0.1395  0.2125  1.5088
 3837SOL     OW22972   4.115   4.272   7.295  0.5358 -0.5248  0.1115
 3837SOL    HW122973   4.190   4.217   7.316  0.8029 -0.3750 -0.4359
 3837SOL    HW222974   4.082   4.308   7.377  0.1256 -0.8613  0.0951
 3838SOL     OW22975   1.852   1.877  13.306 -0.0187 -0.1909 -0.1822
 3838SOL    HW122976   1.841   1.971  13.319 -0.2448 -0.1198 -0.9394
 3838SOL    HW222977   1.941   1.873  13.271 -0.4224  0.7850 -1.3240
 3839SOL     OW22978   2.103   0.006   0.170  0.1279 -0.5594  1.0366
 3839SOL    HW122979   2.043   4.670   0.216  0.1595  0.4116  2.3132
 3839SOL    HW222980   2.165   4.672   0.124 -1.7440 -1.2520 -0.6391
 3840SOL     OW22981   4.673   2.170   4.601 -0.6232  0.0378 -0.4913
 3840SOL    HW122982   4.601   2.230   4.580  0.5489  1.9151  0.8669
 3840SOL    HW222983   4.684   2.111   4.526 -4.2783 -1.1702 -0.1025
 3841SOL     OW22984   4.525   1.874  13.674  0.2357 -0.1740 -0.1882
 3841SOL    HW122985   4.527   1.786  13.635 -0.4747 -0.6132  0.7714
 3841SOL    HW222986   4.567   1.852  13.757 -3.1416  2.2310  2.1593
 3842SOL     OW22987   4.529   3.968   4.879 -0.1802  0.3009  0.1574
 3842SOL    HW122988   4.506   4.040   4.820 -0.3182 -1.2986 -1.7480
 3842SOL    HW222989   4.448   3.964   4.930 -0.4476 -1.2610 -0.3865
 3843SOL     OW22990   0.783   4.720   4.053 -0.3350  0.2029 -0.3020
 3843SOL    HW122991   0.692   4.712   4.024 -0.5064  0.6103  0.1311
 3843SOL    HW222992   0.802   4.633   4.088 -4.0185  1.0485  3.7856
 3844SOL     OW22993   3.017   1.142   4.368  0.2518  0.2357 -0.3470
 3844SOL    HW122994   2.935   1.192   4.363  1.3569  2.1230  0.4218
 3844SOL    HW222995   3.017   1.129   4.463 -0.7636  3.2271  0.0700
 3845SOL     OW22996   4.471   4.418  11.916 -0.1732 -0.2987  0.0362
 3845SOL    HW122997   4.545   4.478  11.921  0.3769 -1.3459  4.8706
 3845SOL    HW222998   4.468   4.394  12.009 -2.1045  1.1340  0.3485
 3846SOL     OW22999   3.629   0.548   3.533  0.2202  0.6477  0.3067
 3846SOL    HW123000   3.719   0.573   3.511  0.0773  1.4070  0.5794
 3846SOL    HW223001   3.634   0.456   3.506 -1.8646 -0.1305  2.6361
 3847SOL     OW23002   1.228   1.457   1.896  0.4718 -0.0647  0.5132
 3847SOL    HW123003   1.159   1.452   1.962  0.2390  3.1449  0.5143
 3847SOL    HW223004   1.239   1.363   1.879 -0.9293 -0.4994  2.0833
 3848SOL     OW23005   3.797   3.696   2.736  0.3955 -0.2343 -0.3519
 3848SOL    HW123006   3.813   3.625   2.674  1.6162 -1.1262  0.9783
 3848SOL    HW223007   3.847   3.672   2.814  2.5507  0.5771 -1.4577
 3849SOL     OW23008   3.244   4.162   0.384 -0.2320  0.0009  0.6621
 3849SOL    HW123009   3.258   4.075   0.346  2.4645  0.6527  0.1577
 3849SOL    HW223010   3.309   4.157   0.455  0.3818 -0.7349  0.0514
 3850SOL     OW23011   0.592   3.006   3.776 -0.3235 -0.0382  0.9933
 3850SOL    HW123012   0.549   3.059   3.843 -0.7079  1.4683 -0.4585
 3850SOL    HW223013   0.583   2.923   3.823  0.5976 -0.8431 -0.2501
 3851SOL     OW23014   3.255   1.299   3.962  0.2434  0.0587  0.2796
 3851SOL    HW123015   3.267   1.218   3.912  1.2778 -0.9181  2.1073
 3851SOL    HW223016   3.218   1.261   4.042 -0.0385  1.6618  0.9108
 3852SOL     OW23017   2.078   0.724   2.550  0.0473  0.1476  0.1717
 3852SOL    HW123018   2.148   0.665   2.577  1.0188  0.1358 -2.2886
 3852SOL    HW223019   2.075   0.706   2.456 -0.8269  2.4558 -0.2292
 3853SOL     OW23020   1.475   0.184   4.090  0.1697  0.1714  0.4481
 3853SOL    HW123021   1.502   0.113   4.031 -0.5863 -0.1069  0.4403
 3853SOL    HW223022   1.487   0.259   4.031 -2.8486  0.1632 -0.2062
 3854SOL     OW23023   1.471   4.501  11.325  0.6129 -0.2996  0.2548
 3854SOL    HW123024   1.442   4.569  11.386 -1.5083  0.4812 -1.6809
 3854SOL    HW223025   1.495   4.555  11.250 -1.8718 -0.9272 -0.9642
 3855SOL     OW23026   1.000   1.308   8.154 -0.3452 -0.0521  0.1071
 3855SOL    HW123027   1.071   1.264   8.199  0.7095 -0.2427 -1.7612
 3855SOL    HW223028   0.975   1.348   8.237  1.3767  1.6178 -0.1743
 3856SOL     OW23029   4.355   2.838   1.801  0.0867  0.3708 -0.8941
 3856SOL    HW123030   4.262   2.820   1.783  0.3264 -1.1650 -0.5220
 3856SOL    HW223031   4.376   2.758   1.849  1.0157  0.1881 -1.6077
 3857SOL     OW23032   0.088   4.064  16.683 -0.3655  0.0428  0.2594
 3857SOL    HW123033   0.065   4.002  16.751  1.5234 -0.3771  0.5150
 3857SOL    HW223034   0.133   4.140  16.721 -0.2328  0.4318 -0.6680
 3858SOL     OW23035   2.650   2.846   5.926 -0.2310 -0.8024 -0.0781
 3858SOL    HW123036   2.677   2.754   5.925 -0.4126 -0.8534 -0.2642
 3858SOL    HW223037   2.565   2.842   5.882 -0.9200  0.7755  1.0813
 3859SOL     OW23038   3.032   0.176  14.540 -0.1902  0.8045 -0.3921
 3859SOL    HW123039   3.096   0.117  14.581  0.2261  1.2455 -0.4070
 3859SOL    HW223040   3.090   0.241  14.502  0.4377  1.2485  1.3190
 3860SOL     OW23041   2.121   3.876   7.259  0.1988 -0.0340  0.1678
 3860SOL    HW123042   2.127   3.803   7.197 -0.3978  1.2844 -1.4372
 3860SOL    HW223043   2.133   3.952   7.202 -0.8187  0.0581  0.0824
 3861SOL     OW23044   4.211   0.332  13.138 -0.5644 -0.4382  0.2078
 3861SOL    HW123045   4.241   0.339  13.047 -0.6934 -1.5015  0.0828
 3861SOL    HW223046   4.181   0.244  13.157 -1.9979  0.3262  1.4991
 3862SOL     OW23047   2.957   1.546   9.572 -0.3271  0.0042  0.2043
 3862SOL    HW123048   2.890   1.484   9.542  2.0963 -1.6361 -1.8074
 3862SOL    HW223049   3.021   1.490   9.617 -2.6645 -1.1809  2.0789
 3863SOL     OW23050   0.036   0.847   4.928  0.1320  0.2745 -0.7489
 3863SOL    HW123051   0.034   0.830   5.022 -1.6440  0.1305 -0.8048
 3863SOL    HW223052   0.013   0.940   4.936  2.0384  0.5034  2.0328
 3864SOL     OW23053   1.362   0.136   9.864 -0.1916 -0.1400  0.0649
 3864SOL    HW123054   1.293   0.108   9.804  0.6280  0.8919 -1.3510
 3864SOL    HW223055   1.409   0.053   9.875 -0.1427  0.0947  1.6180
 3865SOL     OW23056   1.073   0.830   5.236  1.0685 -0.5464  0.2801
 3865SOL    HW123057   1.132   0.769   5.280 -0.3572 -1.0164  1.5317
 3865SOL    HW223058   1.102   0.904   5.289  0.5841  0.5168 -0.9333
 3866SOL     OW23059   3.350   2.523   6.819 -0.4395 -0.0987 -0.2314
 3866SOL    HW123060   3.398   2.454   6.864  0.6514  1.2906  0.7349
 3866SOL    HW223061   3.369   2.498   6.728  0.7887  0.8110 -0.2334
 3867SOL     OW23062   2.262   2.438  14.832  0.2370  0.4007 -0.4179
 3867SOL    HW123063   2.225   2.350  14.828 -1.5515  1.1446 -0.0607
 3867SOL    HW223064   2.311   2.445  14.750 -1.4341 -4.3123 -1.7958
 3868SOL     OW23065   0.865   0.179  10.573 -0.4099 -0.2049  0.5397
 3868SOL    HW123066   0.958   0.199  10.561 -0.0758 -1.1150  1.7004
 3868SOL    HW223067   0.868   0.105  10.634 -0.5763 -1.3717 -0.8608
 3869SOL     OW23068   2.156   1.891   6.854  0.5521 -0.0268  0.2856
 3869SOL    HW123069   2.092   1.908   6.923 -0.6079  1.0249 -1.0448
 3869SOL    HW223070   2.165   1.983   6.828  2.8883 -0.1266  0.7849
 3870SOL     OW23071   2.492   0.313  13.528 -0.1611 -0.0272 -0.0989
 3870SOL    HW123072   2.527   0.225  13.541  2.7425  0.9875 -1.2729
 3870SOL    HW223073   2.532   0.361  13.601  2.8955 -2.1112 -0.4126
 3871SOL     OW23074   1.718   2.443   4.529 -0.3504  0.4898  0.6862
 3871SOL    HW123075   1.719   2.446   4.433  2.0706 -2.2586  0.6316
 3871SOL    HW223076   1.653   2.377   4.552 -0.7713  0.7248  0.1798
 3872SOL     OW23077   2.929   2.352  14.752 -0.0164 -0.0750 -0.1074
 3872SOL    HW123078   2.990   2.278  14.741 -0.5948 -0.7287  1.0947
 3872SOL    HW223079   2.874   2.344  14.673 -0.9229  0.8729  0.4390
 3873SOL     OW23080   4.352   1.492   8.230  0.4193  0.4615  0.8121
 3873SOL    HW123081   4.300   1.466   8.307  1.4148 -2.8216  0.3539
 3873SOL    HW223082   4.441   1.477   8.262 -0.2009  0.6407  2.6712
 3874SOL     OW23083   4.052   1.493  13.300  0.4375 -0.5799  0.0919
 3874SOL    HW123084   4.002   1.420  13.263  0.4240 -0.9861  0.8986
 3874SOL    HW223085   4.002   1.498  13.382 -0.5210  0.6738 -0.5843
 3875SOL     OW23086   3.013   2.332   6.084 -0.0930  0.1978  0.2259
 3875SOL    HW123087   2.969   2.310   6.166  0.0031 -0.6578  0.0520
 3875SOL    HW223088   2.934   2.324   6.030 -0.6502  1.1021  0.9075
 3876SOL     OW23089   1.981   2.869   7.170  0.1960  0.1195 -0.3923
 3876SOL    HW123090   2.011   2.906   7.253 -0.7858 -0.1116  0.0667
 3876SOL    HW223091   1.890   2.848   7.191 -0.5372  4.8211  1.0560
 3877SOL     OW23092   2.547   2.495  14.720 -0.1544  0.3561 -0.4783
 3877SOL    HW123093   2.562   2.473  14.628 -0.7905 -0.2619 -0.4325
 3877SOL    HW223094   2.636   2.480  14.752 -0.1761 -3.1284 -2.0310
 3878SOL     OW23095   2.797   4.340   7.697 -0.0112 -0.1300 -0.4121
 3878SOL    HW123096   2.810   4.248   7.673 -0.8553 -0.0886 -1.0505
 3878SOL    HW223097   2.839   4.390   7.627  2.4980 -1.1040  0.4126
 3879SOL     OW23098   3.207   3.563   5.383 -0.3328 -0.2376  0.0936
 3879SOL    HW123099   3.154   3.581   5.306 -1.4326 -3.5118  0.0837
 3879SOL    HW223100   3.138   3.567   5.450  1.2015 -0.2521  1.6602
 3880SOL     OW23101   1.455   0.447  10.034  0.5107  0.3168  0.7404
 3880SOL    HW123102   1.537   0.486  10.063  0.4333  0.3065  0.9711
 3880SOL    HW223103   1.453   0.373  10.095 -0.1413  0.8568  1.3759
 3881SOL     OW23104   0.358   3.394  16.478 -0.1810  0.0870  0.3020
 3881SOL    HW123105   0.364   3.429  16.389  0.7784  0.7611  0.6195
 3881SOL    HW223106   0.388   3.468  16.531 -0.7838  0.5087  0.0579
 3882SOL     OW23107   0.267   0.542   6.579 -0.2706 -0.1424  0.2826
 3882SOL    HW123108   0.253   0.554   6.673  0.8455 -1.2782  0.6016
 3882SOL    HW223109   0.294   0.450   6.576  0.8752  0.2522 -1.5890
 3883SOL     OW23110   3.418   2.481   6.565  0.0475  0.3641 -0.0299
 3883SOL    HW123111   3.382   2.468   6.478 -3.9182  2.0899  1.3331
 3883SOL    HW223112   3.436   2.575   6.565 -0.9018  0.5456  0.6065
 3884SOL     OW23113   0.295   0.704  13.269  0.4421  0.0628  0.1625
 3884SOL    HW123114   0.209   0.738  13.246  0.9770  0.8241 -0.7020
 3884SOL    HW223115   0.317   0.768  13.337  2.6583  0.0138 -0.5020
 3885SOL     OW23116   3.603   0.815   0.511  0.0646  0.6742 -0.3260
 3885SOL    HW123117   3.543   0.829   0.438 -1.6818  3.1277  1.5643
 3885SOL    HW223118   3.670   0.881   0.496  0.1526  0.7604  0.4217
 3886SOL     OW23119   2.512   4.364   8.310  0.5966 -0.2374  0.2112
 3886SOL    HW123120   2.493   4.273   8.288 -1.6933  0.3230 -0.1958
 3886SOL    HW223121   2.592   4.376   8.259  1.1733  1.2649  1.4560
 3887SOL     OW23122   0.853   3.215  12.748 -0.2225  0.4543 -0.5418
 3887SOL    HW123123   0.813   3.287  12.701  0.9464  1.1878 -0.4178
 3887SOL    HW223124   0.837   3.254  12.834 -1.0934 -0.8325 -0.1279
 3888SOL     OW23125   0.616   2.263  13.594 -0.1105 -0.0272  0.0361
 3888SOL    HW123126   0.533   2.310  13.603 -0.3252 -0.3011 -0.4862
 3888SOL    HW223127   0.654   2.301  13.515  0.7772 -1.0439 -0.0284
 3889SOL     OW23128   1.318   2.779   8.705 -0.0821 -0.2609  0.1601
 3889SOL    HW123129   1.235   2.746   8.671  0.0066  1.1696 -1.4498
 3889SOL    HW223130   1.356   2.779   8.617 -0.2585  0.9744  0.0759
 3890SOL     OW23131   4.164   2.053   7.392  0.2282  0.2894  0.0999
 3890SOL    HW123132   4.249   2.057   7.436 -0.4154 -1.2635  1.5476
 3890SOL    HW223133   4.100   2.029   7.459 -1.9704 -0.6800 -2.3380
 3891SOL     OW23134   1.342   2.362   4.882 -0.0159  0.2463 -0.5748
 3891SOL    HW123135   1.392   2.311   4.947 -1.2788  3.2112  2.6953
 3891SOL    HW223136   1.405   2.430   4.859  0.9675 -0.9814 -1.5391
 3892SOL     OW23137   0.907   4.254  15.754  0.0742  0.4349  0.3041
 3892SOL    HW123138   0.875   4.208  15.832 -0.5398  1.0245  0.3951
 3892SOL    HW223139   0.832   4.266  15.697  2.0564  2.5286 -1.8407
 3893SOL     OW23140   4.624   3.300   5.079 -0.4241 -0.1099 -0.1529
 3893SOL    HW123141   4.660   3.337   5.160  0.1181 -1.7300  0.3537
 3893SOL    HW223142   4.533   3.328   5.089 -1.1238 -2.8525  1.0420
 3894SOL     OW23143   4.279   3.010  13.298  0.0314 -0.0618 -0.4638
 3894SOL    HW123144   4.351   3.059  13.337 -0.9431  0.9583  0.0316
 3894SOL    HW223145   4.209   3.073  13.311 -1.8208 -2.4104  1.0079
 3895SOL     OW23146   3.712   1.331   5.577  0.6425  0.1527  0.1439
 3895SOL    HW123147   3.743   1.241   5.568 -0.8877 -0.4121  0.5655
 3895SOL    HW223148   3.621   1.324   5.547 -0.3370  0.5520  3.0286
 3896SOL     OW23149   2.733   4.645   6.685  0.3330  0.3435 -0.2533
 3896SOL    HW123150   2.812   4.593   6.702 -0.6685 -2.0473 -2.8499
 3896SOL    HW223151   2.768   4.717   6.633  1.0856 -1.1821 -1.8867
 3897SOL     OW23152   4.020   2.250  16.909  0.2619 -0.3377 -0.0758
 3897SOL    HW123153   4.047   2.264  17.000 -0.4444 -2.3485  0.4378
 3897SOL    HW223154   3.997   2.158  16.921  0.2044 -0.5333 -1.6768
 3898SOL     OW23155   3.702   4.709   4.051  0.0893 -0.2611 -0.2631
 3898SOL    HW123156   3.642   4.666   4.112 -1.0694  2.0325  0.2359
 3898SOL    HW223157   3.691   0.075   4.085  2.1619  1.4396 -4.0009
 3899SOL     OW23158   0.136   2.989  13.379 -0.5185  0.3751 -0.3626
 3899SOL    HW123159   0.112   3.078  13.354 -1.3768  0.2243 -0.0524
 3899SOL    HW223160   0.056   2.938  13.391 -0.7250  0.4535 -1.3673
 3900SOL     OW23161   4.256   4.106   5.955  0.0400  0.7752  0.3455
 3900SOL    HW123162   4.268   4.160   6.034  0.5891  3.5465 -1.6441
 3900SOL    HW223163   4.348   4.102   5.931  0.1105  3.1490  0.1763
 3901SOL     OW23164   1.722   0.856  12.762  0.1248  0.3208 -0.2183
 3901SOL    HW123165   1.698   0.947  12.743  1.1300  1.1239  2.4406
 3901SOL    HW223166   1.652   0.830  12.822  1.5393  0.5238  1.5031
 3902SOL     OW23167   2.043   3.678   7.645  0.7939  0.2995  0.3063
 3902SOL    HW123168   1.990   3.749   7.681  2.7984  2.0025 -0.1468
 3902SOL    HW223169   2.005   3.598   7.681 -1.1099  2.4400  3.0340
 3903SOL     OW23170   0.429   2.174   5.219  0.1097  0.2827  0.0665
 3903SOL    HW123171   0.432   2.263   5.183 -0.8043 -0.2412 -1.2784
 3903SOL    HW223172   0.336   2.172   5.242 -0.2702 -0.9259 -1.5981
 3904SOL     OW23173   0.295   2.471  14.335  0.0902  0.3424 -0.4037
 3904SOL    HW123174   0.218   2.418  14.357  1.2092 -1.1599 -0.1048
 3904SOL    HW223175   0.305   2.516  14.418 -1.6153 -0.1809  0.0977
 3905SOL     OW23176   4.662   3.147   3.955 -0.5902 -0.0743  0.6072
 3905SOL    HW123177   0.014   3.204   3.940 -0.3264 -0.1087  1.7552
 3905SOL    HW223178   4.683   3.059   3.923 -1.6875 -0.2146  0.2830
 3906SOL     OW23179   0.242   1.251   4.424  0.6379  0.3634  0.2820
 3906SOL    HW123180   0.242   1.193   4.501  1.8189  0.6907  0.5233
 3906SOL    HW223181   0.181   1.318   4.454  0.8165  2.3686 -3.9072
 3907SOL     OW23182   3.559   3.817   8.770 -0.3111  1.0173 -0.1548
 3907SOL    HW123183   3.511   3.806   8.852 -2.1685  2.2025 -1.0848
 3907SOL    HW223184   3.647   3.788   8.792 -0.5856  0.2775 -0.0333
 3908SOL     OW23185   1.216   0.931   6.389 -0.2560 -0.0918  0.2196
 3908SOL    HW123186   1.141   0.934   6.449 -0.6146  0.0485 -0.2438
 3908SOL    HW223187   1.217   0.836   6.378  0.2497 -0.0767  0.1417
 3909SOL     OW23188   0.963   0.986   8.698 -0.0905  0.5128 -0.4058
 3909SOL    HW123189   0.896   1.046   8.663  1.3557  1.8600 -0.8498
 3909SOL    HW223190   0.905   0.931   8.750  0.1921  0.0861 -0.5448
 3910SOL     OW23191   4.102   2.584   3.478  0.2172  0.0532  0.2605
 3910SOL    HW123192   4.157   2.510   3.453 -1.8081 -2.0110  1.9526
 3910SOL    HW223193   4.164   2.657   3.469 -0.8387  0.4724 -3.5416
 3911SOL     OW23194   0.423   2.945   2.334  0.3344 -0.1121 -0.2480
 3911SOL    HW123195   0.344   2.920   2.382  1.2985 -1.9428  0.3642
 3911SOL    HW223196   0.386   2.965   2.247  0.9809  1.1013 -0.2429
 3912SOL     OW23197   1.751   2.160   8.224 -0.0013 -0.4329 -0.1268
 3912SOL    HW123198   1.692   2.207   8.283 -1.2210 -2.1077 -0.0288
 3912SOL    HW223199   1.790   2.088   8.273  2.3363 -0.5669 -2.1793
 3913SOL     OW23200   4.666   2.420   6.012 -0.2645 -0.1819 -0.4307
 3913SOL    HW123201   4.720   2.478   6.065  0.3381 -0.8596 -0.2985
 3913SOL    HW223202   4.583   2.467   6.005 -0.5603 -0.3546  1.9567
 3914SOL     OW23203   0.358   3.855   3.377 -0.2109  0.2872  0.0064
 3914SOL    HW123204   0.331   3.892   3.293  1.9094  2.5305  0.3087
 3914SOL    HW223205   0.391   3.930   3.426 -0.3821  1.0864 -1.0991
 3915SOL     OW23206   4.320   0.533   9.595 -0.0898 -0.0541  0.5195
 3915SOL    HW123207   4.413   0.528   9.574  0.1402 -2.1819  2.0111
 3915SOL    HW223208   4.328   0.575   9.681  0.8473  2.6141 -0.8834
 3916SOL     OW23209   3.885   0.674   0.958 -0.0877 -0.3466 -0.5496
 3916SOL    HW123210   3.884   0.582   0.981 -1.1601 -0.7896 -2.4227
 3916SOL    HW223211   3.832   0.672   0.879 -1.2082  0.5333  0.1762
 3917SOL     OW23212   0.962   3.909  10.371  0.4866  0.3053 -0.5296
 3917SOL    HW123213   1.028   3.873  10.312 -0.3478 -0.8269 -0.7627
 3917SOL    HW223214   0.902   3.835  10.375  1.4320 -0.4412 -0.2793
 3918SOL     OW23215   0.790   0.646   0.567  0.2265  0.1254  0.0206
 3918SOL    HW123216   0.723   0.630   0.633  0.5741 -3.1698 -0.4208
 3918SOL    HW223217   0.871   0.650   0.618 -0.0484  3.1706  0.2108
 3919SOL     OW23218   3.792   4.225  10.940 -0.5698 -0.0054 -0.1914
 3919SOL    HW123219   3.790   4.167  11.016  2.3261  1.6269  1.1295
 3919SOL    HW223220   3.866   4.186  10.894 -0.3470  0.5753 -0.3194
 3920SOL     OW23221   2.235   0.202   5.316 -0.3471  0.0051  0.4043
 3920SOL    HW123222   2.165   0.261   5.341  0.0643 -0.2325  2.1114
 3920SOL    HW223223   2.179   0.129   5.290  0.6735 -0.9023  0.6884
 3921SOL     OW23224   3.850   2.663  10.655 -0.2514 -0.2005  0.0998
 3921SOL    HW123225   3.876   2.749  10.623  1.3354 -0.9691 -0.6850
 3921SOL    HW223226   3.847   2.681  10.749 -2.7080 -0.1539  0.0101
 3922SOL     OW23227   0.355   3.434   7.027  0.5391 -0.2497  0.9514
 3922SOL    HW123228   0.321   3.507   7.079  2.0583 -0.4208  2.1865
 3922SOL    HW223229   0.445   3.467   7.022  0.8990 -1.2438  0.9334
 3923SOL     OW23230   0.398   3.745   0.821  0.3108  0.2911 -0.0295
 3923SOL    HW123231   0.448   3.792   0.754  0.4863 -2.7430 -2.0634
 3923SOL    HW223232   0.428   3.657   0.795  1.7464  0.2676  1.7274
 3924SOL     OW23233   3.263   1.092   9.698  0.0852 -0.3665 -0.0392
 3924SOL    HW123234   3.221   1.024   9.751  0.1240  0.8662  1.5589
 3924SOL    HW223235   3.300   1.041   9.625  1.0844  0.3182 -0.0041
 3925SOL     OW23236   2.628   3.573   5.564  0.0693  0.0767 -0.3977
 3925SOL    HW123237   2.536   3.547   5.555 -0.3736  1.0551  1.2686
 3925SOL    HW223238   2.620   3.659   5.521  0.4402  1.0913  1.5585
 3926SOL     OW23239   2.262   4.457   6.190 -0.5391  0.1734 -0.3407
 3926SOL    HW123240   2.173   4.423   6.185 -0.8602  1.3989 -2.6462
 3926SOL    HW223241   2.251   4.547   6.159 -0.5068 -0.0325 -0.9346
 3927SOL     OW23242   3.027   3.774   8.736  0.1069  0.4238  0.0521
 3927SOL    HW123243   2.944   3.799   8.696  0.2289 -0.0566 -0.5027
 3927SOL    HW223244   3.039   3.844   8.801 -0.4446  1.7096 -1.2346
 3928SOL     OW23245   2.213   3.622   3.009  0.3418  0.0555 -0.0668
 3928SOL    HW123246   2.119   3.641   3.011  0.0849 -1.2495  0.2959
 3928SOL    HW223247   2.237   3.630   3.101 -0.0708 -2.3105  0.2520
 3929SOL     OW23248   3.070   3.402   3.088  0.3862 -0.1157 -0.5106
 3929SOL    HW123249   3.074   3.341   3.161 -0.3564 -0.1297 -0.4842
 3929SOL    HW223250   2.998   3.457   3.118  0.3512 -0.6993  0.4440
 3930SOL     OW23251   0.443   3.931  15.789  0.5289 -0.2898  0.6939
 3930SOL    HW123252   0.521   3.879  15.809  2.4394  1.6468 -1.7836
 3930SOL    HW223253   0.412   3.874  15.718  2.4905 -0.3026 -0.1756
 3931SOL     OW23254   0.666   4.401   4.927  0.4672 -0.3979  0.0244
 3931SOL    HW123255   0.574   4.427   4.935  0.5409 -0.1584  0.0980
 3931SOL    HW223256   0.661   4.338   4.855 -1.3430  0.5208 -0.6463
 3932SOL     OW23257   0.724   0.460   6.804  1.1581  0.3064 -0.3032
 3932SOL    HW123258   0.741   0.547   6.841  1.1895  0.3848 -0.5025
 3932SOL    HW223259   0.800   0.415   6.842 -0.1252 -0.3174  1.5037
 3933SOL     OW23260   3.693   3.168   8.599 -0.8733  0.2556 -0.5971
 3933SOL    HW123261   3.702   3.246   8.545 -3.4807  0.5505 -0.6379
 3933SOL    HW223262   3.769   3.159   8.656 -1.9196  0.1023  0.7767
 3934SOL     OW23263   3.238   2.807   4.195  0.1980 -0.2396 -0.0935
 3934SOL    HW123264   3.147   2.829   4.216 -0.0097 -0.6029 -0.5903
 3934SOL    HW223265   3.218   2.754   4.118  1.7001 -1.1928  0.1630
 3935SOL     OW23266   3.881   2.949  16.612  0.2931  0.5439  0.0399
 3935SOL    HW123267   3.905   3.025  16.665 -1.3104  0.0546  1.4642
 3935SOL    HW223268   3.798   2.981  16.577  0.3563 -0.2848 -0.8693
 3936SOL     OW23269   1.520   4.228   1.407  0.4251  0.6253 -0.5740
 3936SOL    HW123270   1.539   4.166   1.337  0.8861 -2.4103  2.2488
 3936SOL    HW223271   1.425   4.239   1.410  0.3979  0.0717  0.6192
 3937SOL     OW23272   4.223   4.105  17.630 -0.0433  0.4958 -0.5525
 3937SOL    HW123273   4.219   4.185  17.577  0.8407  1.5136  0.9333
 3937SOL    HW223274   4.178   4.118   0.020  0.4776 -0.1231 -0.1729
 3938SOL     OW23275   3.040   1.638   3.806  0.1745 -0.2722 -0.2555
 3938SOL    HW123276   2.994   1.621   3.724  1.9667 -0.9854 -1.1089
 3938SOL    HW223277   3.020   1.551   3.842  0.5394  0.8101  2.5499
 3939SOL     OW23278   0.463   0.156   4.804  0.2638  0.0947 -0.6266
 3939SOL    HW123279   0.456   0.117   4.717  1.0704 -1.9271  0.2336
 3939SOL    HW223280   0.389   0.216   4.798  0.1823  0.2317  1.9165
 3940SOL     OW23281   4.332   4.702  16.961 -0.2945  0.5214 -0.2137
 3940SOL    HW123282   4.280   0.007  17.037  1.9952  2.0748  0.8027
 3940SOL    HW223283   4.282   0.007  16.885  1.4069  3.0442 -0.4140
 3941SOL     OW23284   2.040   2.701   7.761 -0.0007 -0.5158  0.5605
 3941SOL    HW123285   2.090   2.689   7.681 -0.7761  0.5894 -0.0971
 3941SOL    HW223286   1.965   2.753   7.733  0.0730 -0.9795 -0.5108
 3942SOL     OW23287   3.503   0.027   6.458  0.1843  0.3104  0.6386
 3942SOL    HW123288   3.562   0.072   6.518 -0.0424 -2.8474  3.2492
 3942SOL    HW223289   3.563   4.689   6.416 -1.2255 -0.0874 -0.7969
 3943SOL     OW23290   4.436   2.036   7.755 -0.1537  0.0374  0.4668
 3943SOL    HW123291   4.400   1.951   7.781 -0.3931  0.3044  1.0029
 3943SOL    HW223292   4.516   2.035   7.808 -1.1506  0.6154  1.9871
 3944SOL     OW23293   1.005   0.072   2.497 -0.1234  0.6802 -0.0614
 3944SOL    HW123294   0.943   0.092   2.567 -1.5760 -0.3977 -1.0447
 3944SOL    HW223295   1.061   0.005   2.537 -2.2366  0.0048  1.7252
 3945SOL     OW23296   4.535   1.471   8.652  0.0095  0.2804  0.3493
 3945SOL    HW123297   4.591   1.523   8.710 -1.2970  4.4637 -2.1786
 3945SOL    HW223298   4.444   1.477   8.680 -0.1994 -1.2933  0.0114
 3946SOL     OW23299   2.952   3.680   3.373  0.1510 -0.4006  0.3788
 3946SOL    HW123300   2.881   3.719   3.424 -0.2607 -1.1363  0.3585
 3946SOL    HW223301   2.900   3.647   3.300 -0.9238  0.6954  0.6562
 3947SOL     OW23302   3.373   1.770  14.579 -0.4786  0.1470 -0.1445
 3947SOL    HW123303   3.283   1.741  14.563 -0.5275  0.3943 -0.3231
 3947SOL    HW223304   3.420   1.702  14.529 -1.0084 -0.1136 -0.2925
 3948SOL     OW23305   2.698   0.363   4.563  0.4671 -0.3007  0.0642
 3948SOL    HW123306   2.638   0.427   4.600 -0.3460 -1.1193  0.1484
 3948SOL    HW223307   2.679   0.387   4.473  1.5604 -0.5758 -0.2415
 3949SOL     OW23308   0.271   1.652   6.255  0.1576 -0.6048  0.0102
 3949SOL    HW123309   0.303   1.707   6.327  0.3268  2.4720 -2.4188
 3949SOL    HW223310   0.229   1.714   6.195 -1.1589 -4.4117 -2.9661
 3950SOL     OW23311   4.429   0.882  17.507 -0.3878  0.6376  0.6564
 3950SOL    HW123312   4.497   0.868  17.574  0.5911  1.9790 -0.0430
 3950SOL    HW223313   4.417   0.792  17.477  0.5858 -0.1677  2.6571
 3951SOL     OW23314   1.311   2.101   4.501 -0.0049 -0.5097  0.0294
 3951SOL    HW123315   1.272   2.023   4.542  1.6458 -0.8608  0.9044
 3951SOL    HW223316   1.256   2.099   4.423 -0.5092 -1.8061  0.4036
 3952SOL     OW23317   1.414   3.398   3.662 -0.1728 -0.1387  0.5147
 3952SOL    HW123318   1.492   3.358   3.623 -0.9850  0.0704 -1.3128
 3952SOL    HW223319   1.350   3.385   3.593  0.6856 -2.6485  0.1875
 3953SOL     OW23320   1.666   4.407   7.910 -0.0066 -0.1147  0.2032
 3953SOL    HW123321   1.748   4.392   7.862 -0.8579  2.1822 -1.9646
 3953SOL    HW223322   1.614   4.437   7.835  0.9192 -0.4835 -0.5893
 3954SOL     OW23323   3.666   0.114   9.928 -0.1365 -0.2154 -0.1585
 3954SOL    HW123324   3.755   0.127   9.963 -0.2431 -1.3814  0.5812
 3954SOL    HW223325   3.616   0.165   9.991 -0.5248  1.3548 -1.7561
 3955SOL     OW23326   1.185   2.479   6.243  0.0221  0.2402  0.1524
 3955SOL    HW123327   1.126   2.523   6.181 -0.4437 -1.8805 -0.9174
 3955SOL    HW223328   1.256   2.450   6.187 -2.8323 -0.9223 -2.9072
 3956SOL     OW23329   3.408   1.540  15.230  0.0261 -0.2526  0.2316
 3956SOL    HW123330   3.444   1.565  15.146 -0.9478  0.2654 -0.0418
 3956SOL    HW223331   3.333   1.483  15.214  0.1018 -0.5502  0.9342
 3957SOL     OW23332   1.073   0.625  13.023  0.4889  0.1316  0.3625
 3957SOL    HW123333   1.148   0.676  12.994  1.8690 -0.7031  2.4479
 3957SOL    HW223334   1.022   0.603  12.946  1.9509  0.3791 -0.6742
 3958SOL     OW23335   0.617   4.115   3.094  0.4129  0.3967 -0.0843
 3958SOL    HW123336   0.696   4.155   3.055  0.7941 -0.4993 -0.2245
 3958SOL    HW223337   0.631   4.120   3.188 -1.6762  0.1033  0.2320
 3959SOL     OW23338   3.560   1.176   9.543  0.0287 -0.2411  0.3021
 3959SOL    HW123339   3.540   1.164   9.636  0.9784 -2.1424  0.2759
 3959SOL    HW223340   3.635   1.118   9.527  0.5028  0.9846 -1.9004
 3960SOL     OW23341   1.598   4.605   7.712 -0.8681  0.0191  0.3070
 3960SOL    HW123342   1.648   4.632   7.789 -0.7751  0.5112  0.0728
 3960SOL    HW223343   1.612   4.673   7.647  1.0308 -1.1879 -0.5501
 3961SOL     OW23344   4.025   2.665  14.902 -0.5861 -0.1828  0.3326
 3961SOL    HW123345   4.051   2.755  14.885 -2.7362  0.3733  0.0099
 3961SOL    HW223346   3.979   2.648  14.819  1.4764 -2.2936 -0.3790
 3962SOL     OW23347   1.863   0.073   0.724 -0.0446 -0.1425  0.0545
 3962SOL    HW123348   1.922   0.013   0.770  0.7287  1.2689  0.9068
 3962SOL    HW223349   1.896   0.072   0.634  0.2725  1.1951  0.1480
 3963SOL     OW23350   2.638   1.030  17.511 -0.3553  0.0848 -0.4959
 3963SOL    HW123351   2.640   1.108  17.456 -4.1762  0.4690 -0.1029
 3963SOL    HW223352   2.544   1.013  17.504 -0.2860  0.7683 -3.0770
 3964SOL     OW23353   2.558   1.603   5.225  0.6411 -0.9043  0.4987
 3964SOL    HW123354   2.591   1.574   5.139 -0.1890  1.0761 -0.4878
 3964SOL    HW223355   2.543   1.695   5.204 -0.7017 -1.3601 -0.6152
 3965SOL     OW23356   2.665   0.588  11.446  0.1229 -0.3164  0.2213
 3965SOL    HW123357   2.704   0.607  11.531 -2.0496 -3.1944  1.8654
 3965SOL    HW223358   2.720   0.516  11.416 -0.1943 -1.2948  2.0046
 3966SOL     OW23359   4.400   3.872   8.413 -0.2095  0.0997 -0.0750
 3966SOL    HW123360   4.469   3.939   8.408 -1.1257  1.0400 -0.1199
 3966SOL    HW223361   4.443   3.811   8.473 -2.7913 -0.3845  1.2354
 3967SOL     OW23362   1.823   3.283   2.305 -0.1199 -0.0840 -0.3057
 3967SOL    HW123363   1.879   3.349   2.264  0.8495  0.1888  1.4399
 3967SOL    HW223364   1.821   3.322   2.393  0.3883 -3.5946  1.2566
 3968SOL     OW23365   3.095   3.503   9.003  0.4110 -0.3172 -0.3456
 3968SOL    HW123366   3.187   3.519   8.983  0.1796  0.8589 -0.4254
 3968SOL    HW223367   3.113   3.419   9.046 -0.8291  0.7305  2.1774
 3969SOL     OW23368   4.585   3.919   9.027  0.1492 -0.3379 -0.3957
 3969SOL    HW123369   4.572   3.900   8.934 -1.2948  0.0516 -0.2633
 3969SOL    HW223370   4.597   4.014   9.032  2.4815 -0.5909 -1.1816
 3970SOL     OW23371   0.553   2.477  13.840 -0.1552 -0.1424  0.2192
 3970SOL    HW123372   0.519   2.457  13.753  0.0834 -0.1605  0.1306
 3970SOL    HW223373   0.475   2.504  13.889  0.3951  2.0476 -0.1026
 3971SOL     OW23374   1.241   4.255   1.441  0.2999 -0.6873 -0.1078
 3971SOL    HW123375   1.255   4.317   1.513  2.4706 -1.4386  0.1070
 3971SOL    HW223376   1.200   4.182   1.486 -1.4205  1.1598  1.3519
 3972SOL     OW23377   1.918   3.575   4.408 -0.1908  0.7293  0.4175
 3972SOL    HW123378   1.934   3.601   4.499 -0.2266 -0.0089  0.6344
 3972SOL    HW223379   1.863   3.647   4.377 -0.3209  0.2692 -0.4285
 3973SOL     OW23380   4.026   0.779   2.167  0.4254 -0.7146  0.5472
 3973SOL    HW123381   4.117   0.801   2.146 -0.9034  2.6657 -1.7369
 3973SOL    HW223382   4.032   0.684   2.177 -0.3956 -0.7408  0.8002
 3974SOL     OW23383   1.478   3.289  10.635  0.3315 -0.5521  0.0699
 3974SOL    HW123384   1.550   3.297  10.572 -0.6129 -0.0443 -0.9599
 3974SOL    HW223385   1.529   3.289  10.715 -0.3236  1.0274  0.4902
 3975SOL     OW23386   1.366   0.574   0.483 -0.3559  0.3670  0.4616
 3975SOL    HW123387   1.335   0.529   0.561 -1.2018  1.5034  0.7804
 3975SOL    HW223388   1.334   0.661   0.506 -0.9186 -0.2641  2.0136
 3976SOL     OW23389   2.974   0.664   7.396  0.2128  0.1668  0.2281
 3976SOL    HW123390   3.055   0.616   7.377  0.8078  1.5604 -0.7676
 3976SOL    HW223391   2.995   0.738   7.339 -2.7257  2.2083  1.8269
 3977SOL     OW23392   0.733   4.599   3.002  0.6674 -0.0528 -0.3083
 3977SOL    HW123393   0.801   4.593   3.069  1.3370 -2.5191 -1.2212
 3977SOL    HW223394   0.766   4.540   2.935  1.0960 -0.6492  0.4234
 3978SOL     OW23395   2.856   3.044   6.771  0.0632 -0.2881  0.0534
 3978SOL    HW123396   2.904   3.065   6.691 -1.6213 -4.6668 -2.1560
 3978SOL    HW223397   2.930   3.029   6.829  0.3011  1.2552  0.1374
 3979SOL     OW23398   2.514   4.696   6.887  0.4411 -0.1484  0.3752
 3979SOL    HW123399   2.549   0.036   6.950  1.3161 -1.6377  1.3677
 3979SOL    HW223400   2.598   4.676   6.844  1.6977 -0.2413  2.8653
 3980SOL     OW23401   0.577   1.580   3.851  0.8797  0.7712 -0.2475
 3980SOL    HW123402   0.502   1.537   3.891  3.1715 -3.4254 -0.4468
 3980SOL    HW223403   0.649   1.520   3.873  0.3288  0.5221  0.9077
 3981SOL     OW23404   4.506   4.672   3.899 -0.4407  0.0370 -0.6141
 3981SOL    HW123405   4.549   0.000   3.968 -1.9068  0.9022 -0.3174
 3981SOL    HW223406   4.421   4.658   3.942  0.4716  0.6869  1.3792
 3982SOL     OW23407   4.579   1.407   8.348 -0.4395 -0.3733  0.6612
 3982SOL    HW123408   4.632   1.480   8.318 -0.2771 -0.8721 -0.2490
 3982SOL    HW223409   4.615   1.394   8.436  0.0846 -2.8239  0.0831
 3983SOL     OW23410   2.352   1.623  12.402 -0.8861 -0.2619  0.4390
 3983SOL    HW123411   2.300   1.546  12.423 -0.2288 -0.3594  1.6905
 3983SOL    HW223412   2.439   1.585  12.396 -1.1488 -0.9220  0.8250
 3984SOL     OW23413   0.202   2.973   2.790 -0.7727  0.4227 -0.3319
 3984SOL    HW123414   0.239   3.043   2.736  1.8968  1.2259  2.5896
 3984SOL    HW223415   0.191   2.896   2.734  1.3960  0.0363 -0.2193
 3985SOL     OW23416   0.159   1.992   5.209  0.6896 -0.2205 -0.2439
 3985SOL    HW123417   0.158   2.009   5.115 -0.7057  2.3221  0.2366
 3985SOL    HW223418   0.148   1.897   5.216  0.8504 -0.2405 -0.2613
 3986SOL     OW23419   3.849   0.549   8.007  0.2011 -0.5980 -0.7156
 3986SOL    HW123420   3.845   0.611   7.934  0.0001  0.2909  0.0503
 3986SOL    HW223421   3.865   0.601   8.086 -0.5956 -3.0053  1.0549
 3987SOL     OW23422   1.874   0.026  12.425 -0.1902 -0.1073 -0.1930
 3987SOL    HW123423   1.953   0.057  12.469 -0.6442  0.4503  0.2312
 3987SOL    HW223424   1.905   4.662  12.400 -1.8927 -0.9559  0.6277
 3988SOL     OW23425   4.500   1.256   6.895 -0.1699 -0.6563 -0.1998
 3988SOL    HW123426   4.468   1.173   6.858 -0.0337 -0.6808 -0.2619
 3988SOL    HW223427   4.595   1.252   6.905  0.0140  1.6114 -1.0834
 3989SOL     OW23428   1.893   3.712  14.256 -0.6243  0.2761 -0.2978
 3989SOL    HW123429   1.836   3.686  14.328  0.6232 -2.4735 -0.2850
 3989SOL    HW223430   1.970   3.657  14.269 -0.0983  0.8603 -0.9243
 3990SOL     OW23431   3.379   2.024   7.281  0.5573 -0.5039 -0.3423
 3990SOL    HW123432   3.426   2.069   7.352  0.0104 -0.3154 -0.0992
 3990SOL    HW223433   3.425   1.941   7.280 -0.0470 -0.8674  1.2866
 3991SOL     OW23434   1.403   4.676   5.242 -0.4061 -0.1869 -0.3134
 3991SOL    HW123435   1.345   0.027   5.222 -1.9194 -1.4103 -0.4394
 3991SOL    HW223436   1.417   4.627   5.162 -0.3087  0.9135 -0.9677
 3992SOL     OW23437   4.422   2.007   7.490 -0.0671 -0.4070  0.4221
 3992SOL    HW123438   4.424   2.031   7.582 -0.8669  2.3235 -0.2567
 3992SOL    HW223439   4.459   1.919   7.494  1.3735  0.1546 -0.4401
 3993SOL     OW23440   3.337   4.336  12.508 -0.0448 -0.1248  0.2784
 3993SOL    HW123441   3.339   4.421  12.464 -1.9564 -0.3292 -0.2334
 3993SOL    HW223442   3.304   4.276  12.441  0.5749 -1.7723  1.4507
 3994SOL     OW23443   4.102   3.859   3.058 -0.2363 -0.1761 -0.0229
 3994SOL    HW123444   4.187   3.815   3.060 -0.6755 -0.9210  1.9581
 3994SOL    HW223445   4.130   3.947   3.079 -3.5403  0.1609  2.9624
 3995SOL     OW23446   2.993   1.241  16.958  0.2366 -0.0639 -0.1736
 3995SOL    HW123447   3.049   1.209  16.887  1.8862  2.3602  0.0442
 3995SOL    HW223448   2.999   1.335  16.938 -1.7392  0.4214  1.5240
 3996SOL     OW23449   0.182   3.511   7.958  0.0781 -0.6663  0.5304
 3996SOL    HW123450   0.251   3.454   7.924 -0.6903 -0.9843 -0.5044
 3996SOL    HW223451   0.104   3.492   7.905  0.7454 -0.7855 -0.4201
 3997SOL     OW23452   2.523   1.989  10.928  0.3278 -0.3907 -0.2879
 3997SOL    HW123453   2.509   1.904  10.888  1.5365  0.5335 -2.6848
 3997SOL    HW223454   2.440   1.999  10.975  1.8297  0.6320  2.1791
 3998SOL     OW23455   4.138   4.182   6.782 -0.1519 -0.0162  0.0847
 3998SOL    HW123456   4.221   4.230   6.785 -1.8976  3.0949 -1.5698
 3998SOL    HW223457   4.099   4.214   6.863  1.0215  2.3998 -0.2975
 3999SOL     OW23458   0.457   1.740  13.405 -0.2631 -0.3605  0.5964
 3999SOL    HW123459   0.500   1.671  13.457 -1.9142 -0.8744  1.2776
 3999SOL    HW223460   0.377   1.745  13.456 -0.7707  1.7098 -0.4193
 4000SOL     OW23461   0.372   2.833   8.081 -0.1815 -0.1738  0.3974
 4000SOL    HW123462   0.407   2.775   8.149 -0.6264  0.6390  1.3256
 4000SOL    HW223463   0.355   2.763   8.019  1.9495  0.0758 -0.4508
 4001SOL     OW23464   3.813   0.829   8.499 -0.3546  0.0858 -0.8467
 4001SOL    HW123465   3.766   0.790   8.426 -0.1457  0.7204 -1.3288
 4001SOL    HW223466   3.760   0.909   8.503 -1.3664 -0.6836  0.5861
 4002SOL     OW23467   2.888   1.441  12.246  0.0475  0.3037 -0.4188
 4002SOL    HW123468   2.970   1.397  12.224 -0.4748 -0.7252 -0.3036
 4002SOL    HW223469   2.846   1.381  12.308 -2.1497  0.6462 -1.5567
 4003SOL     OW23470   2.421   1.484  13.841  0.7872  0.0007  0.2684
 4003SOL    HW123471   2.387   1.436  13.916  0.6701  1.3084  1.0621
 4003SOL    HW223472   2.370   1.440  13.773 -0.3149  2.0678 -0.2407
 4004SOL     OW23473   0.879   1.882   2.754 -0.1050 -0.3777 -0.7633
 4004SOL    HW123474   0.919   1.954   2.706  1.4966 -0.2652  0.7189
 4004SOL    HW223475   0.833   1.836   2.684 -1.6189 -0.6806  0.4275
 4005SOL     OW23476   3.917   3.651   6.541 -0.5491 -0.1032  0.0705
 4005SOL    HW123477   3.825   3.626   6.540 -0.7411  0.6137 -0.9193
 4005SOL    HW223478   3.923   3.680   6.632 -4.1022 -1.6429  0.7499
 4006SOL     OW23479   4.030   4.258   7.036  0.0083  0.9942 -0.0460
 4006SOL    HW123480   4.073   4.256   7.121 -1.7544  2.8382  0.9145
 4006SOL    HW223481   3.970   4.331   7.053 -0.2535  1.3135 -2.3207
 4007SOL     OW23482   1.908   0.123  17.135 -0.1603 -0.5340  0.3186
 4007SOL    HW123483   1.950   0.038  17.151 -0.3660 -0.7932 -0.5187
 4007SOL    HW223484   1.873   0.169  17.211  2.1842  1.8201 -0.0235
 4008SOL     OW23485   4.476   1.768   0.894 -0.3830 -0.6983 -0.0269
 4008SOL    HW123486   4.483   1.732   0.806 -1.4753  1.7019 -1.0732
 4008SOL    HW223487   4.425   1.845   0.871 -0.2470 -0.8199 -0.7465
 4009SOL     OW23488   2.512   4.652   5.519 -0.4354 -0.4640  0.5163
 4009SOL    HW123489   2.461   4.633   5.598 -3.7847  0.9096 -1.3033
 4009SOL    HW223490   2.448   4.635   5.450 -0.5330  0.8198  0.2878
 4010SOL     OW23491   1.050   4.537   4.074  0.8153 -0.1462 -0.2499
 4010SOL    HW123492   0.981   4.472   4.058 -0.3355  0.9163  0.4992
 4010SOL    HW223493   1.031   4.612   4.019 -1.1549  0.9449  1.9367
 4011SOL     OW23494   3.051   2.631   7.163 -0.2376  0.0665 -0.1351
 4011SOL    HW123495   3.048   2.610   7.257  0.9042  0.0545 -0.1025
 4011SOL    HW223496   3.054   2.727   7.162 -1.0965  0.0769 -1.7650
 4012SOL     OW23497   4.353   1.882  15.152  0.5372  0.2164  0.3158
 4012SOL    HW123498   4.399   1.896  15.069 -0.9863  0.7945 -0.4136
 4012SOL    HW223499   4.265   1.908  15.126  1.6062  0.7072 -2.8172
 4013SOL     OW23500   0.824   3.674   7.903 -0.0152 -0.3384  0.2425
 4013SOL    HW123501   0.872   3.750   7.870 -1.0487  0.7523  1.2923
 4013SOL    HW223502   0.869   3.659   7.986  1.0638  3.3433  0.3109
 4014SOL     OW23503   1.300   1.164   1.902  0.0538 -0.1952 -0.3473
 4014SOL    HW123504   1.379   1.111   1.907  0.6916  0.7405 -0.4456
 4014SOL    HW223505   1.239   1.134   1.969 -2.5704  3.0595 -1.2722
 4015SOL     OW23506   4.402   1.251  14.769 -0.0341  0.3595 -0.5008
 4015SOL    HW123507   4.434   1.299  14.845 -4.1456  1.5556  0.4376
 4015SOL    HW223508   4.374   1.168  14.809 -1.3803  1.6307  1.1615
 4016SOL     OW23509   2.017   3.073   3.295  0.0659 -0.1806  0.0371
 4016SOL    HW123510   2.020   3.026   3.212  1.0173 -0.3900  0.1917
 4016SOL    HW223511   2.112   3.066   3.304  0.0657 -1.2114 -0.7144
 4017SOL     OW23512   3.447   0.906   6.740 -0.3008 -0.4040 -0.8940
 4017SOL    HW123513   3.482   0.982   6.693  2.8706 -1.6195 -0.5169
 4017SOL    HW223514   3.362   0.892   6.698  1.5485 -1.1868 -4.3122
 4018SOL     OW23515   4.203   1.222   2.711  0.1542  0.3191 -0.3132
 4018SOL    HW123516   4.144   1.219   2.636 -0.2824  0.2833  0.0319
 4018SOL    HW223517   4.279   1.181   2.670  0.3772  0.4113  0.0092
 4019SOL     OW23518   2.450   1.193   5.358 -0.0722  0.3681  0.6633
 4019SOL    HW123519   2.541   1.187   5.328 -1.3487 -0.7625 -2.9501
 4019SOL    HW223520   2.450   1.287   5.375 -0.5376  0.0330  2.5169
 4020SOL     OW23521   2.347   3.939   3.869 -0.2640 -0.0746  0.0978
 4020SOL    HW123522   2.384   4.009   3.922  1.3027  0.4197 -1.6853
 4020SOL    HW223523   2.276   3.991   3.830 -0.9329  0.3960  1.9449
 4021SOL     OW23524   2.916   4.070  14.463  0.2022  0.4416 -0.3121
 4021SOL    HW123525   2.946   3.982  14.487 -0.0873  0.3611 -0.2430
 4021SOL    HW223526   2.961   4.129  14.524 -1.1893  1.2790 -0.0996
 4022SOL     OW23527   4.290   0.465   7.238  0.3482 -0.2008 -0.0297
 4022SOL    HW123528   4.362   0.527   7.250  1.2589 -1.6197  2.0135
 4022SOL    HW223529   4.241   0.478   7.319 -0.5660 -0.2814 -0.5786
 4023SOL     OW23530   0.179   1.100   4.620  0.2184 -0.0426  0.6110
 4023SOL    HW123531   0.249   1.056   4.669 -0.1353 -2.4447 -1.0575
 4023SOL    HW223532   0.130   1.032   4.574  0.3478  0.4016 -0.1695
 4024SOL     OW23533   0.672   0.189  15.803  0.2393 -0.0243  0.3616
 4024SOL    HW123534   0.598   0.245  15.826 -0.6133 -0.2379 -1.9068
 4024SOL    HW223535   0.629   0.105  15.791  0.7976 -0.6129  2.3982
 4025SOL     OW23536   2.286   1.551   8.828 -0.7186  0.4909 -0.4806
 4025SOL    HW123537   2.294   1.526   8.736  0.7037  1.1308 -0.5222
 4025SOL    HW223538   2.339   1.481   8.864  0.3620  1.3365 -0.4417
 4026SOL     OW23539   0.712   1.405  11.706 -0.2665  0.1079 -0.0139
 4026SOL    HW123540   0.797   1.362  11.699 -0.2803 -0.1823  1.7243
 4026SOL    HW223541   0.675   1.397  11.618 -4.2145  0.4439  1.5860
 4027SOL     OW23542   3.403   2.449   7.848 -0.3501  0.2898 -0.1722
 4027SOL    HW123543   3.418   2.454   7.942  2.1934  1.8332 -0.6534
 4027SOL    HW223544   3.308   2.455   7.853 -0.3333  0.2285  0.2410
 4028SOL     OW23545   0.667   0.099  12.952  0.1176 -0.6184 -0.4134
 4028SOL    HW123546   0.596   0.163  12.952  0.0331 -0.7095 -0.9929
 4028SOL    HW223547   0.616   0.033  12.905 -1.4588  0.8596 -0.8024
 4029SOL     OW23548   3.545   3.563   3.929 -0.1806  0.5528 -0.3258
 4029SOL    HW123549   3.464   3.576   3.879 -0.7637  1.3340  0.8319
 4029SOL    HW223550   3.533   3.477   3.969  3.0578 -0.0538 -0.6792
 4030SOL     OW23551   2.397   2.650   8.135 -0.0664  0.1941 -0.0732
 4030SOL    HW123552   2.444   2.584   8.186  3.2694  2.5068 -0.1783
 4030SOL    HW223553   2.322   2.670   8.191  0.7808  0.6219  0.9162
 4031SOL     OW23554   2.072   3.612   2.270  0.3716 -0.1874  0.1999
 4031SOL    HW123555   2.094   3.524   2.241  0.3324 -0.1647  0.1007
 4031SOL    HW223556   2.158   3.634   2.305  0.8458  1.4507 -1.9372
 4032SOL     OW23557   1.473   2.126   2.023 -0.7227  0.2892 -0.0808
 4032SOL    HW123558   1.527   2.052   1.995 -0.3714  1.2464 -1.9301
 4032SOL    HW223559   1.450   2.176   1.944 -0.4221 -0.7063 -0.8028
 4033SOL     OW23560   0.808   4.146   6.951  0.7432 -0.3879 -0.0169
 4033SOL    HW123561   0.762   4.081   6.898 -1.3545  0.9498  0.1656
 4033SOL    HW223562   0.804   4.108   7.038 -1.4494  0.4994  0.2763
 4034SOL     OW23563   1.728   1.626  13.282 -0.4979 -0.4151 -0.2281
 4034SOL    HW123564   1.760   1.575  13.356 -2.7510 -2.3147 -0.5827
 4034SOL    HW223565   1.765   1.714  13.292  0.1181 -0.5663 -1.1679
 4035SOL     OW23566   0.867   3.725   4.490 -0.3478  0.0714  0.1162
 4035SOL    HW123567   0.860   3.747   4.583  0.9273  0.6178  0.0795
 4035SOL    HW223568   0.811   3.792   4.451 -0.2962 -0.1860 -0.4109
 4036SOL     OW23569   2.818   1.962   6.955 -0.4266  0.4297 -0.5365
 4036SOL    HW123570   2.774   1.881   6.979  1.3943 -0.5983 -0.7188
 4036SOL    HW223571   2.868   1.962   7.036 -1.9879 -0.1855  0.4360
 4037SOL     OW23572   2.928   2.584  10.937  0.8184  0.0211 -0.3096
 4037SOL    HW123573   2.900   2.588  10.845 -4.5387 -0.1379  1.3067
 4037SOL    HW223574   2.909   2.676  10.955  0.5893  0.2362 -1.6361
 4038SOL     OW23575   2.525   2.825  11.559 -0.4323  0.4688  0.7971
 4038SOL    HW123576   2.469   2.902  11.547 -0.6204  0.3347  0.8114
 4038SOL    HW223577   2.455   2.773  11.598 -0.0350 -0.4969  0.2201
 4039SOL     OW23578   3.375   1.843   1.140  0.4321 -0.2149  0.8420
 4039SOL    HW123579   3.443   1.782   1.113 -0.0928  0.2465 -1.5467
 4039SOL    HW223580   3.317   1.785   1.190 -0.1121 -2.5426 -2.5142
 4040SOL     OW23581   1.413   2.182  12.572 -0.4972 -0.2514  0.7369
 4040SOL    HW123582   1.438   2.128  12.647  0.3959  1.0666  1.3992
 4040SOL    HW223583   1.398   2.113  12.508 -3.4657 -0.4851  1.6851
 4041SOL     OW23584   3.245   3.701  11.660 -0.0309  0.4046  0.9044
 4041SOL    HW123585   3.165   3.730  11.616 -0.2735 -2.4585 -0.5121
 4041SOL    HW223586   3.293   3.781  11.638 -0.4105  0.1695 -0.8021
 4042SOL     OW23587   0.410   1.235   3.967  0.1178 -0.3467 -0.5820
 4042SOL    HW123588   0.445   1.222   3.879 -0.3001 -2.2169 -0.4771
 4042SOL    HW223589   0.449   1.162   4.015  0.4973 -0.2704 -0.7745
 4043SOL     OW23590   0.036   3.433   6.006 -0.0261 -0.3172  0.3388
 4043SOL    HW123591   0.027   3.433   5.911 -2.0566 -1.6258  0.5191
 4043SOL    HW223592   4.666   3.423   6.024  0.0950  1.0596  1.6742
 4044SOL     OW23593   4.203   4.608   7.587 -0.3396  0.2323  0.9731
 4044SOL    HW123594   4.120   4.655   7.596 -0.9734 -0.7728  0.3634
 4044SOL    HW223595   4.251   4.626   7.668  0.3656 -1.1547  0.8699
 4045SOL     OW23596   3.270   4.237   5.397 -0.2632  0.7233 -0.3713
 4045SOL    HW123597   3.214   4.201   5.328  0.6641 -1.1550 -0.1549
 4045SOL    HW223598   3.232   4.193   5.472 -1.6235  1.6981 -0.5051
 4046SOL     OW23599   4.444   3.101   2.913  0.5601  0.3659 -0.8881
 4046SOL    HW123600   4.428   3.195   2.926  0.5751  0.4036 -1.1425
 4046SOL    HW223601   4.508   3.087   2.982 -0.7290 -1.6893 -0.0971
 4047SOL     OW23602   3.355   0.646   6.865 -0.0799  0.2221 -0.0074
 4047SOL    HW123603   3.389   0.733   6.847  0.2526  0.0932 -0.0158
 4047SOL    HW223604   3.342   0.607   6.778  2.7433  1.8068 -1.1137
 4048SOL     OW23605   2.371   3.926   3.217  0.4279  0.2526  0.4034
 4048SOL    HW123606   2.422   3.957   3.142  0.0652  2.0993  0.9175
 4048SOL    HW223607   2.348   3.837   3.191 -2.1442  1.5453 -1.7219
 4049SOL     OW23608   2.265   1.093   1.302  0.4812 -0.1533  0.2624
 4049SOL    HW123609   2.222   1.026   1.248 -1.2504 -0.6268  2.2205
 4049SOL    HW223610   2.334   1.115   1.239 -1.3546  0.0269 -1.6663
 4050SOL     OW23611   3.976   1.357   3.046 -0.1002 -0.0253  0.3774
 4050SOL    HW123612   3.954   1.406   3.125 -0.2857 -0.3754  0.5445
 4050SOL    HW223613   4.039   1.414   3.002 -1.5163  1.1312 -0.1810
 4051SOL     OW23614   0.140   3.431   5.527 -0.5067 -0.2933 -0.0196
 4051SOL    HW123615   0.079   3.415   5.455 -0.1624 -2.0153  0.0778
 4051SOL    HW223616   0.215   3.372   5.520  0.0239  0.2716  0.7869
 4052SOL     OW23617   2.642   3.830  16.610 -0.3398  0.1789  0.3135
 4052SOL    HW123618   2.644   3.925  16.616  0.6801  0.1382  0.5449
 4052SOL    HW223619   2.733   3.804  16.600 -0.4964  0.6716 -2.3646
 4053SOL     OW23620   4.462   1.240   8.843 -0.6566  0.3559 -0.3795
 4053SOL    HW123621   4.513   1.309   8.801 -0.0575  0.7394  0.9605
 4053SOL    HW223622   4.380   1.235   8.795 -0.0161  2.6245 -1.6941
 4054SOL     OW23623   1.822   1.345   0.688  0.5204  0.0063  0.8103
 4054SOL    HW123624   1.865   1.344   0.603 -1.1457 -2.5906  0.0061
 4054SOL    HW223625   1.861   1.426   0.722  0.4159  0.8900 -1.1948
 4055SOL     OW23626   1.176   1.921   8.978 -0.1184  0.2067  0.5019
 4055SOL    HW123627   1.167   1.868   9.057 -0.2128  1.5578  1.4050
 4055SOL    HW223628   1.233   1.996   8.996 -1.2976  1.1970  0.1255
 4056SOL     OW23629   4.142   3.247   6.047  0.1583  0.2788  0.4434
 4056SOL    HW123630   4.176   3.325   6.003  1.6173 -1.4608 -1.4994
 4056SOL    HW223631   4.214   3.191   6.019 -1.3876 -1.9617  0.9852
 4057SOL     OW23632   2.087   1.122   9.521  0.2636 -0.6497 -0.4748
 4057SOL    HW123633   2.173   1.081   9.522  0.6846  0.2785  2.6230
 4057SOL    HW223634   2.037   1.062   9.466 -2.4578  1.1045  0.1154
 4058SOL     OW23635   2.050   4.284  17.495 -0.4531  0.6306  0.0120
 4058SOL    HW123636   2.087   4.318  17.414 -0.7060  0.7822 -0.0420
 4058SOL    HW223637   2.087   4.196  17.500  1.3593  1.3891 -0.1741
 4059SOL     OW23638   3.266   3.924   0.259 -0.0472 -0.5044 -0.2000
 4059SOL    HW123639   3.250   3.830   0.262  0.7450 -0.6723 -1.4360
 4059SOL    HW223640   3.203   3.966   0.200  1.9002 -0.2513 -2.0671
 4060SOL     OW23641   2.436   3.180   3.611  0.4401  0.1821 -0.1438
 4060SOL    HW123642   2.421   3.093   3.648 -0.8159  0.7933  0.7881
 4060SOL    HW223643   2.428   3.233   3.690  0.0792 -0.6355  0.3739
 4061SOL     OW23644   3.880   2.726   3.460 -0.2726 -0.0643 -0.7205
 4061SOL    HW123645   3.939   2.651   3.471  0.3083  0.4610 -0.2697
 4061SOL    HW223646   3.920   2.782   3.526 -0.5129  0.8784 -1.3685
 4062SOL     OW23647   1.975   1.521   5.925 -0.5734 -0.3536  0.1887
 4062SOL    HW123648   2.031   1.525   5.847 -0.4410  0.7518  0.3390
 4062SOL    HW223649   1.886   1.513   5.890 -0.0766  0.6596 -1.3177
 4063SOL     OW23650   2.325   1.252  17.467 -0.3278  0.0224 -0.1921
 4063SOL    HW123651   2.294   1.175  17.419 -0.5804  0.3428 -0.5474
 4063SOL    HW223652   2.293   1.321  17.409 -1.8744  1.1194  1.9809
 4064SOL     OW23653   2.683   0.781   4.144  0.6112  0.1004  0.2194
 4064SOL    HW123654   2.643   0.852   4.095  0.6622  0.4637  0.7001
 4064SOL    HW223655   2.703   0.819   4.230  0.2725  1.3197 -0.2327
 4065SOL     OW23656   2.663   3.581  14.335 -0.1189 -0.2920  0.0197
 4065SOL    HW123657   2.719   3.512  14.372  0.7658  0.8496  0.7827
 4065SOL    HW223658   2.715   3.619  14.264 -1.4696  1.6419  0.0745
 4066SOL     OW23659   2.269   0.537  15.019 -0.3726 -0.2390  0.1573
 4066SOL    HW123660   2.226   0.516  14.936 -0.5056 -1.2222  0.4786
 4066SOL    HW223661   2.346   0.481  15.013 -0.2888 -0.4254  2.8662
 4067SOL     OW23662   2.525   0.434  14.968  0.1172 -0.6975 -0.4739
 4067SOL    HW123663   2.581   0.511  14.969  1.4759 -1.7095  0.6562
 4067SOL    HW223664   2.563   0.393  14.890  0.3228  0.1828 -0.8264
 4068SOL     OW23665   3.965   1.785  12.609  0.3809 -0.2255 -0.1510
 4068SOL    HW123666   3.889   1.841  12.625  0.2249 -0.2065 -0.9769
 4068SOL    HW223667   3.963   1.785  12.513  0.3372  0.7654 -0.1517
 4069SOL     OW23668   4.619   2.132  13.606  0.8136  0.2104  0.5034
 4069SOL    HW123669   4.575   2.054  13.640  0.6175 -0.1534 -0.5741
 4069SOL    HW223670   4.543   2.185  13.583 -0.2105 -1.3755  0.2436
 4070SOL     OW23671   3.698   0.417   9.940  0.1461 -0.1483  0.0145
 4070SOL    HW123672   3.751   0.475   9.885  0.9655 -0.6179  0.3151
 4070SOL    HW223673   3.747   0.335   9.947  0.4149  0.0276  0.1576
 4071SOL     OW23674   1.249   2.653   3.942 -0.2405 -0.0833 -0.0288
 4071SOL    HW123675   1.320   2.652   4.007 -0.4901  1.2422  0.2698
 4071SOL    HW223676   1.280   2.700   3.864  0.5496 -0.1004  0.2724
 4072SOL     OW23677   1.796   3.973   9.363 -0.4694 -0.4552  0.5565
 4072SOL    HW123678   1.780   3.938   9.275 -2.3855  1.5406  0.0997
 4072SOL    HW223679   1.721   3.947   9.416  0.5379  0.1111  2.2480
 4073SOL     OW23680   1.544   3.090  16.737  0.0471 -0.1746 -0.6602
 4073SOL    HW123681   1.632   3.127  16.731  0.0651  0.0742  0.9848
 4073SOL    HW223682   1.499   3.097  16.653 -0.5185 -0.8603 -0.4158
 4074SOL     OW23683   0.322   2.665   4.029 -0.1491  0.1279 -0.1815
 4074SOL    HW123684   0.402   2.668   4.082 -0.7665  1.8891  0.6256
 4074SOL    HW223685   0.253   2.630   4.085  0.0021 -0.9860 -0.6894
 4075SOL     OW23686   2.312   2.930   1.065 -0.1968  0.5539  0.5826
 4075SOL    HW123687   2.287   2.991   1.134 -0.3305 -0.7156  1.6522
 4075SOL    HW223688   2.284   2.848   1.106  2.2909 -1.0589 -0.9634
 4076SOL     OW23689   2.786   1.073  16.249 -0.0252  0.5125  0.0605
 4076SOL    HW123690   2.839   1.035  16.179 -0.9343 -0.2096 -0.2463
 4076SOL    HW223691   2.737   0.991  16.262 -0.9604  1.0594  0.0056
 4077SOL     OW23692   2.892   1.928   4.066  0.1914  0.1855 -0.1748
 4077SOL    HW123693   2.943   1.946   3.987  1.4801  2.1795  1.1080
 4077SOL    HW223694   2.949   1.881   4.127 -0.9048 -0.6905  0.1842
 4078SOL     OW23695   0.489   0.687   6.127  0.0525 -0.5132  0.6307
 4078SOL    HW123696   0.500   0.603   6.082 -1.2633 -0.0216 -0.6179
 4078SOL    HW223697   0.452   0.657   6.210 -0.9378 -1.8912 -0.2972
 4079SOL     OW23698   1.486   3.302   6.143 -0.8860  0.2534  0.5377
 4079SOL    HW123699   1.506   3.236   6.077 -0.8219  1.9509 -1.1294
 4079SOL    HW223700   1.460   3.376   6.088  0.7936  0.2090 -0.3021
 4080SOL     OW23701   1.371   3.048  16.959  0.4908  0.0092  0.2611
 4080SOL    HW123702   1.407   3.020  16.875  1.5771 -0.1915  0.7912
 4080SOL    HW223703   1.292   3.094  16.930 -0.7991 -1.7633  0.9664
 4081SOL     OW23704   0.497   3.594   4.780 -0.0065 -0.1153 -0.5061
 4081SOL    HW123705   0.544   3.628   4.856  2.6819 -1.8838 -1.3695
 4081SOL    HW223706   0.410   3.627   4.804 -0.6197 -1.1623 -1.2929
 4082SOL     OW23707   1.487   0.461   2.584  0.3222  0.0252 -0.3806
 4082SOL    HW123708   1.494   0.412   2.503 -0.2077 -1.7985  0.6821
 4082SOL    HW223709   1.552   0.414   2.635 -0.6749 -1.2527 -0.2992
 4083SOL     OW23710   1.299   0.692  12.852 -0.0337  0.1725 -0.0686
 4083SOL    HW123711   1.349   0.668  12.774  1.2357 -0.5367  0.9525
 4083SOL    HW223712   1.369   0.745  12.893  1.1616 -0.6395 -1.0605
 4084SOL     OW23713   4.447   3.414   7.732  0.2682  0.0148 -0.8196
 4084SOL    HW123714   4.414   3.324   7.726 -1.5305  0.7000 -1.2343
 4084SOL    HW223715   4.369   3.469   7.728  0.7489  0.7590  0.0133
 4085SOL     OW23716   3.755   1.591  14.222 -0.5923  0.2192 -0.3764
 4085SOL    HW123717   3.820   1.592  14.152 -1.9101 -2.2501 -1.6227
 4085SOL    HW223718   3.690   1.651  14.186 -0.5443  0.2592 -0.3978
 4086SOL     OW23719   2.356   4.141   5.312  0.0723  0.0191  0.1467
 4086SOL    HW123720   2.298   4.070   5.284 -0.7303  1.0230 -0.7614
 4086SOL    HW223721   2.401   4.092   5.380 -0.0940 -0.9244 -0.4241
 4087SOL     OW23722   0.549   0.099  14.977 -0.3313 -0.2654 -0.3880
 4087SOL    HW123723   0.604   0.120  14.901  1.7915 -0.1689  1.1883
 4087SOL    HW223724   0.465   0.116  14.933 -0.7384 -0.3507  0.3582
 4088SOL     OW23725   3.920   4.636   8.393  0.4331 -1.1473 -0.1002
 4088SOL    HW123726   3.946   4.546   8.373 -0.4752 -1.1422 -1.3594
 4088SOL    HW223727   3.827   4.615   8.404  0.6783 -1.3392  1.6257
 4089SOL     OW23728   1.125   0.506  12.739 -0.2987  0.0873 -0.2350
 4089SOL    HW123729   1.095   0.445  12.807  1.4683 -0.2125  0.2846
 4089SOL    HW223730   1.199   0.551  12.779 -0.3249  1.2294 -1.4897
 4090SOL     OW23731   3.864   1.137   1.446  0.4531  0.7529  0.0346
 4090SOL    HW123732   3.952   1.110   1.421 -0.0465 -1.3973  0.5112
 4090SOL    HW223733   3.807   1.059   1.440 -0.1957  1.3313 -1.2715
 4091SOL     OW23734   1.614   2.139  16.180 -0.3720 -0.3310 -0.2897
 4091SOL    HW123735   1.589   2.097  16.263  0.1938 -0.9153 -0.4116
 4091SOL    HW223736   1.537   2.131  16.124  1.4238 -1.7833 -2.5396
 4092SOL     OW23737   0.212   2.190   2.946  0.2173 -0.5329 -0.5026
 4092SOL    HW123738   0.203   2.244   2.867  0.4111 -0.9773 -0.8323
 4092SOL    HW223739   0.243   2.109   2.905  1.6906 -0.8048  1.1619
 4093SOL     OW23740   1.908   1.032   6.837  0.7195 -0.1779  0.2351
 4093SOL    HW123741   1.916   0.991   6.923 -1.2021 -1.4148 -0.1531
 4093SOL    HW223742   1.851   0.972   6.787  1.5003 -0.9683  0.3028
 4094SOL     OW23743   3.226   3.289   4.583 -0.0818  0.2436  0.2850
 4094SOL    HW123744   3.223   3.282   4.487 -0.1040  1.0906  0.2249
 4094SOL    HW223745   3.309   3.250   4.609  1.0019  2.4478  0.1271
 4095SOL     OW23746   2.170   3.197   1.499 -0.1914 -0.6408  0.8547
 4095SOL    HW123747   2.127   3.123   1.455  1.7157 -0.0388 -2.0131
 4095SOL    HW223748   2.177   3.257   1.425 -0.0835 -0.6786  0.8345
 4096SOL     OW23749   3.343   4.045   2.800 -0.3370  0.3656 -0.2549
 4096SOL    HW123750   3.252   4.023   2.817 -0.2222 -0.9068 -1.2967
 4096SOL    HW223751   3.373   3.972   2.745 -0.4824  0.0635  0.0645
 4097SOL     OW23752   1.171   1.990   6.322 -0.1322  0.3042  0.5502
 4097SOL    HW123753   1.138   1.927   6.387  1.3086 -0.5269  0.4909
 4097SOL    HW223754   1.100   2.053   6.316 -0.9998 -0.6615  0.6371
 4098SOL     OW23755   1.001   3.124   2.636  0.3430 -0.0475  0.1431
 4098SOL    HW123756   0.928   3.117   2.574 -0.1652 -0.3672  0.7812
 4098SOL    HW223757   1.053   3.199   2.607  1.6056  0.1803  3.0438
 4099SOL     OW23758   1.127   4.537   2.627 -0.2668 -0.3502  0.1146
 4099SOL    HW123759   1.200   4.516   2.686 -0.6320 -3.0122 -0.3528
 4099SOL    HW223760   1.117   4.465   2.564  0.4793  1.4201 -2.0330
 4100SOL     OW23761   0.772   0.513   7.833  0.2362  0.0329 -0.4461
 4100SOL    HW123762   0.783   0.527   7.739 -1.6543  0.9617 -0.5398
 4100SOL    HW223763   0.688   0.467   7.834 -0.7588  1.8305 -1.7652
 4101SOL     OW23764   0.061   3.057  12.991  0.8166 -0.1327 -0.5009
 4101SOL    HW123765   0.039   2.980  12.939  0.9580 -0.6280  0.1734
 4101SOL    HW223766   0.049   3.126  12.925 -0.8655  0.0410 -0.0174
 4102SOL     OW23767   2.118   3.983  14.897 -0.8605  0.5353  0.0717
 4102SOL    HW123768   2.191   3.922  14.900 -1.3394  0.0814  2.1071
 4102SOL    HW223769   2.057   3.954  14.964  0.5732  4.5791  3.1074
 4103SOL     OW23770   2.327   3.305   1.260  0.0711 -0.1000 -0.6641
 4103SOL    HW123771   2.385   3.231   1.277  1.6166  1.1314 -0.6017
 4103SOL    HW223772   2.392   3.364   1.222 -2.5859  3.1711 -0.1540
 4104SOL     OW23773   3.697   1.591   1.337 -0.0245 -0.5357  0.0234
 4104SOL    HW123774   3.767   1.526   1.342  0.4876  0.0311  0.0991
 4104SOL    HW223775   3.741   1.671   1.310 -2.4710 -0.2280 -3.0458
 4105SOL     OW23776   1.108   0.311   5.265  0.5646 -0.4626  0.4469
 4105SOL    HW123777   1.085   0.223   5.294  0.7428 -0.9029 -0.7196
 4105SOL    HW223778   1.029   0.352   5.299 -0.0350  0.2320 -1.7556
 4106SOL     OW23779   1.463   3.942   0.689 -0.4768  0.2647  0.6205
 4106SOL    HW123780   1.427   3.879   0.627  2.0616 -1.2731  0.7499
 4106SOL    HW223781   1.380   3.976   0.725 -0.7172  0.4177 -0.0659
 4107SOL     OW23782   0.640   3.476   3.035  0.5012 -0.4915  0.6273
 4107SOL    HW123783   0.663   3.523   2.956 -0.8508  0.4694  0.8156
 4107SOL    HW223784   0.679   3.536   3.099 -0.4033  0.2642  0.4675
 4108SOL     OW23785   4.099   1.313   2.194  0.0509 -0.0665 -0.4193
 4108SOL    HW123786   4.019   1.351   2.157  0.3657 -2.9701 -3.9695
 4108SOL    HW223787   4.103   1.222   2.167 -1.2856  0.3313 -1.9431
 4109SOL     OW23788   1.077   2.845  12.856 -0.5789 -0.4060  0.3641
 4109SOL    HW123789   0.991   2.803  12.853 -0.7618  0.0772 -1.0355
 4109SOL    HW223790   1.058   2.909  12.787 -2.2777  1.2906  2.4148
 4110SOL     OW23791   3.288   2.650   5.473 -0.3854 -0.0507 -0.2314
 4110SOL    HW123792   3.233   2.644   5.395 -1.5952  0.4371  0.5823
 4110SOL    HW223793   3.259   2.571   5.518 -0.1895 -1.5390 -2.7290
 4111SOL     OW23794   1.677   1.988  10.667 -0.2783  0.2883 -0.4442
 4111SOL    HW123795   1.717   1.987  10.754  0.6892 -0.4136 -0.8905
 4111SOL    HW223796   1.750   2.002  10.608 -0.8013 -0.4507 -1.2713
 4112SOL     OW23797   1.594   1.688   6.277  0.2487  0.0747  0.2752
 4112SOL    HW123798   1.651   1.687   6.354  2.0096 -0.0508 -1.0274
 4112SOL    HW223799   1.600   1.597   6.247 -1.0378 -0.5044  1.7883
 4113SOL     OW23800   1.812   2.720   4.270  0.0486 -0.8700 -0.2230
 4113SOL    HW123801   1.740   2.782   4.266  0.5692 -0.2276  0.4609
 4113SOL    HW223802   1.756   2.642   4.267  0.2857 -1.1116  1.9210
 4114SOL     OW23803   0.408   4.595   5.265 -0.0736 -0.0443 -0.6432
 4114SOL    HW123804   0.494   4.558   5.248  0.2604 -0.9361  3.0882
 4114SOL    HW223805   0.370   4.550   5.189 -1.4650 -0.5708  0.3751
 4115SOL     OW23806   4.132   1.590   2.612  0.5808  0.8104  0.5571
 4115SOL    HW123807   4.199   1.659   2.612  0.3344  1.0439  1.5183
 4115SOL    HW223808   4.155   1.544   2.531 -1.1100  0.9950 -0.0203
 4116SOL     OW23809   4.468   2.332   0.735 -0.1468  0.1146 -0.1783
 4116SOL    HW123810   4.540   2.270   0.722 -0.6503  0.1145 -3.0080
 4116SOL    HW223811   4.504   2.412   0.696 -1.3786  0.6613 -0.1935
 4117SOL     OW23812   2.968   3.016   4.427  0.7407  0.1652 -0.5477
 4117SOL    HW123813   3.031   2.953   4.461 -0.6591  0.6899  3.0517
 4117SOL    HW223814   2.886   2.998   4.472  3.0771 -2.6413  2.4990
 4118SOL     OW23815   3.591   0.279   3.421  0.1859  0.5942  0.0071
 4118SOL    HW123816   3.544   0.223   3.359  0.3446  3.7592 -3.0119
 4118SOL    HW223817   3.653   0.210   3.444  0.9992  1.2149 -0.2964
 4119SOL     OW23818   2.413   4.139  10.978  0.6042 -0.4495 -0.9617
 4119SOL    HW123819   2.387   4.098  10.895  0.0889 -0.2212 -0.9077
 4119SOL    HW223820   2.508   4.134  10.962  1.1919 -1.2798  2.7141
 4120SOL     OW23821   0.564   2.972   5.810 -0.0477 -0.3920 -1.2890
 4120SOL    HW123822   0.519   3.056   5.809 -1.2927 -1.0563 -0.6789
 4120SOL    HW223823   0.493   2.912   5.786  1.9924 -3.3189 -0.0332
 4121SOL     OW23824   2.270   0.970  17.249 -0.8708 -0.2046  0.2496
 4121SOL    HW123825   2.235   0.889  17.286  0.9527 -0.5620  1.1452
 4121SOL    HW223826   2.184   1.014  17.247 -0.9589 -0.3868 -0.0647
 4122SOL     OW23827   3.560   4.216   0.747 -0.0499  0.0037  0.2031
 4122SOL    HW123828   3.542   4.215   0.653 -1.1932  2.3325  0.4030
 4122SOL    HW223829   3.611   4.136   0.760 -0.9924 -0.1667  2.9667
 4123SOL     OW23830   3.281   1.159  15.148 -0.7468 -0.1333 -0.1570
 4123SOL    HW123831   3.285   1.065  15.128  0.5930 -0.2794  0.8049
 4123SOL    HW223832   3.374   1.168  15.166 -0.5812  0.5277 -1.3502
 4124SOL     OW23833   3.551   0.403   7.967  0.0123  0.5284  0.1282
 4124SOL    HW123834   3.478   0.343   7.956  1.1899 -0.7682 -0.5533
 4124SOL    HW223835   3.530   0.439   8.053 -1.2835 -1.2513  0.5508
 4125SOL     OW23836   3.485   3.957   0.120 -0.1991  0.2485  0.2340
 4125SOL    HW123837   3.419   3.931   0.184 -1.0645 -1.4576 -1.3874
 4125SOL    HW223838   3.459   4.048   0.104  1.0434  0.2942 -1.5019
 4126SOL     OW23839   2.777   0.517   2.993 -0.2994  0.7296 -0.2532
 4126SOL    HW123840   2.701   0.463   2.968 -0.6585  1.4132 -0.6236
 4126SOL    HW223841   2.806   0.473   3.073  2.5415  0.0258 -1.6489
 4127SOL     OW23842   0.469   4.049   4.258 -0.2945  0.5495 -0.6614
 4127SOL    HW123843   0.500   3.969   4.217  0.0854 -0.0334  0.7713
 4127SOL    HW223844   0.417   4.019   4.333 -0.3991 -0.0754 -0.9888
 4128SOL     OW23845   1.133   3.835   6.638 -0.2202 -0.2744 -0.1288
 4128SOL    HW123846   1.114   3.894   6.565  0.7653 -0.0353 -0.1999
 4128SOL    HW223847   1.101   3.888   6.711  1.3604 -0.4212  0.6682
 4129SOL     OW23848   2.310   1.855   3.019  0.3472  0.0431 -0.2423
 4129SOL    HW123849   2.249   1.822   3.085  1.6978 -1.0223  0.4721
 4129SOL    HW223850   2.280   1.817   2.936  1.1674 -0.1415 -0.4508
 4130SOL     OW23851   1.528   0.743   7.660  0.1598 -0.1392  0.2820
 4130SOL    HW123852   1.533   0.838   7.668  0.7282 -0.1857  0.4152
 4130SOL    HW223853   1.522   0.713   7.750 -0.8026 -3.3401 -0.8439
 4131SOL     OW23854   1.294   3.410   5.880  0.3307  0.2689 -0.1081
 4131SOL    HW123855   1.375   3.445   5.843 -0.1094 -0.2280 -1.5369
 4131SOL    HW223856   1.327   3.352   5.949 -0.9847  0.8125  0.9804
 4132SOL     OW23857   2.448   1.669   0.113 -0.0491 -0.6933  0.0586
 4132SOL    HW123858   2.377   1.694   0.053  1.8528 -0.5284 -2.1293
 4132SOL    HW223859   2.426   1.581   0.142 -0.8025 -1.1914 -2.0702
 4133SOL     OW23860   3.628   4.512   3.368  0.2208 -0.0026  0.4560
 4133SOL    HW123861   3.658   4.436   3.317 -1.4909 -2.4490  3.1351
 4133SOL    HW223862   3.712   4.557   3.371 -0.9355  2.1466  0.1281
 4134SOL     OW23863   1.511   2.796   6.073  0.1762  0.2426  0.6171
 4134SOL    HW123864   1.476   2.727   6.016  0.5461  1.4154 -1.0275
 4134SOL    HW223865   1.485   2.758   6.157 -0.0905 -1.6039 -0.3026
 4135SOL     OW23866   1.456   0.910  17.377  0.6442  0.0721  0.2472
 4135SOL    HW123867   1.518   0.888  17.307 -0.3820  1.0945 -1.0074
 4135SOL    HW223868   1.456   1.005  17.365  1.6940  0.2155  1.4163
 4136SOL     OW23869   1.835   1.631  10.495  0.6914 -0.0162  0.8432
 4136SOL    HW123870   1.777   1.671  10.430 -1.9036 -3.8745  0.7823
 4136SOL    HW223871   1.914   1.680  10.474 -1.4113  2.7555 -0.5582
 4137SOL     OW23872   3.509   1.916  16.145  0.1644 -0.1504  0.3489
 4137SOL    HW123873   3.526   1.987  16.084 -0.8560  0.5152  0.8414
 4137SOL    HW223874   3.499   1.971  16.223  0.0168 -0.8539  0.8287
 4138SOL     OW23875   1.339   4.697   8.805  0.0191  0.2511 -0.6868
 4138SOL    HW123876   1.380   0.031   8.740  0.4596 -0.6861 -1.2313
 4138SOL    HW223877   1.406   4.632   8.827 -1.2811 -0.1298  2.0977
 4139SOL     OW23878   3.700   3.888   5.108 -0.2601 -0.0824 -0.1294
 4139SOL    HW123879   3.683   3.838   5.188  1.0287 -0.9404 -0.3851
 4139SOL    HW223880   3.793   3.871   5.092  0.5518  1.3298  3.1580
 4140SOL     OW23881   2.621   3.519   7.589  0.5779  0.1060 -0.4218
 4140SOL    HW123882   2.651   3.609   7.576 -1.6389  0.7183 -1.2972
 4140SOL    HW223883   2.535   3.529   7.630  0.4323  1.4806 -1.0314
 4141SOL     OW23884   2.399   2.557   7.056 -0.2396  0.4945 -0.0137
 4141SOL    HW123885   2.433   2.565   6.967 -2.0471  1.6929 -0.5984
 4141SOL    HW223886   2.317   2.606   7.056  0.1191  1.0980 -0.3443
 4142SOL     OW23887   4.332   1.563   7.937 -0.0998 -0.5086  0.8376
 4142SOL    HW123888   4.359   1.498   7.873 -3.1787 -1.1316  0.1496
 4142SOL    HW223889   4.386   1.542   8.014  3.9024  1.2127 -1.5488
 4143SOL     OW23890   4.533   2.415   6.435  0.0419  0.0160  0.0137
 4143SOL    HW123891   4.540   2.510   6.423  3.1528 -0.2100  0.1566
 4143SOL    HW223892   4.627   2.396   6.434  0.0412  0.0353 -0.3851
 4144SOL     OW23893   1.192   1.213   8.333 -0.2242 -0.0628  0.2177
 4144SOL    HW123894   1.244   1.180   8.406 -0.5023  0.2962  0.5731
 4144SOL    HW223895   1.236   1.296   8.311 -0.8143  0.2778  0.3173
 4145SOL     OW23896   2.961   3.026  16.821 -0.0178  0.0906 -0.1976
 4145SOL    HW123897   2.969   2.941  16.779  1.6654  0.5015 -0.7459
 4145SOL    HW223898   3.051   3.032  16.855 -0.4339 -2.4469  1.3006
 4146SOL     OW23899   0.545   2.673   0.800  0.3304  0.2725 -0.4063
 4146SOL    HW123900   0.528   2.609   0.731  0.2754 -0.1871  0.0368
 4146SOL    HW223901   0.514   2.632   0.880  3.0989 -0.8092  0.1192
 4147SOL     OW23902   1.385   1.927   5.163 -0.4814  0.7007  0.0342
 4147SOL    HW123903   1.412   1.916   5.072 -0.4545 -0.7703  0.2187
 4147SOL    HW223904   1.392   2.021   5.175  3.4417  0.1787  1.9622
 4148SOL     OW23905   3.895   3.774  16.985  0.4638  0.2652 -0.4609
 4148SOL    HW123906   3.981   3.792  17.022  0.8950 -1.2717 -0.6783
 4148SOL    HW223907   3.854   3.857  17.010 -0.6194 -0.4111  0.0214
 4149SOL     OW23908   2.717   3.764   6.436  0.2554  0.4570  0.2890
 4149SOL    HW123909   2.655   3.752   6.363  1.0693  0.6625 -0.4449
 4149SOL    HW223910   2.685   3.846   6.474 -0.8743 -0.6917  1.7926
 4150SOL     OW23911   1.563   0.965   5.620  0.3136  0.4344  0.0541
 4150SOL    HW123912   1.479   0.920   5.625  0.7604 -0.2839  0.9933
 4150SOL    HW223913   1.531   1.055   5.626 -1.3103 -0.1065 -0.5185
 4151SOL     OW23914   0.438   2.487   5.103 -0.4999  0.5598  0.2099
 4151SOL    HW123915   0.383   2.442   5.039 -0.5905  0.8225  0.1044
 4151SOL    HW223916   0.377   2.505   5.175  0.0473  1.3908  0.4719
 4152SOL     OW23917   0.980   0.846  15.700  0.3685 -0.7682 -0.1445
 4152SOL    HW123918   0.931   0.924  15.672  0.3046 -0.0087  2.0233
 4152SOL    HW223919   1.066   0.881  15.725 -1.0397  2.0024  0.9353
 4153SOL     OW23920   1.778   2.652   8.797  0.4086 -0.6245  0.1199
 4153SOL    HW123921   1.826   2.664   8.879  1.1924 -0.7337 -0.3225
 4153SOL    HW223922   1.742   2.565   8.815 -1.1241  0.3483  1.7585
 4154SOL     OW23923   1.046   4.509  15.644 -0.2434  0.7865 -0.6542
 4154SOL    HW123924   1.030   4.499  15.550 -2.3018  2.3251 -0.4528
 4154SOL    HW223925   0.996   4.434  15.678 -0.7735  0.8615 -1.2734
 4155SOL     OW23926   2.444   2.632   2.419  0.5131  0.0262  0.4996
 4155SOL    HW123927   2.461   2.565   2.485  2.6867 -0.1168 -0.2108
 4155SOL    HW223928   2.506   2.697   2.451 -0.0461  0.9973 -0.4098
 4156SOL     OW23929   2.837   2.950   0.795 -0.6375 -0.0168 -0.5764
 4156SOL    HW123930   2.917   2.938   0.845  1.0477  1.6654 -2.8650
 4156SOL    HW223931   2.801   3.011   0.859 -2.7201 -0.7988 -0.9836
 4157SOL     OW23932   3.114   0.280   0.834 -0.2748  0.5192 -0.2294
 4157SOL    HW123933   3.187   0.279   0.773  0.2287 -1.1788  0.4178
 4157SOL    HW223934   3.085   0.191   0.816  2.2008 -0.6954  1.8581
 4158SOL     OW23935   4.371   0.593   1.127  0.1728  0.5099  0.3147
 4158SOL    HW123936   4.401   0.577   1.037 -1.3763 -0.8466  0.0392
 4158SOL    HW223937   4.296   0.533   1.127 -1.9569  3.1998  2.7262
 4159SOL     OW23938   3.341   4.231   4.192  0.0215 -0.2597  0.1397
 4159SOL    HW123939   3.387   4.280   4.124 -0.6271  0.7486  0.4417
 4159SOL    HW223940   3.262   4.284   4.203  1.0338  1.0387  1.1417
 4160SOL     OW23941   0.080   2.416   5.747 -0.9245 -0.1759  0.2725
 4160SOL    HW123942   0.063   2.323   5.756 -1.4634 -0.1616 -0.5664
 4160SOL    HW223943   0.055   2.446   5.835 -0.8531  0.0109  0.2294
 4161SOL     OW23944   4.522   0.441   5.331 -0.1222 -0.3756 -0.0541
 4161SOL    HW123945   4.611   0.443   5.295  0.2341  1.6118  0.9433
 4161SOL    HW223946   4.523   0.370   5.395  0.2219 -1.3929 -1.1905
 4162SOL     OW23947   0.461   4.512  16.056 -0.2346  0.4177  0.2529
 4162SOL    HW123948   0.546   4.505  16.100 -0.5184  0.8111  0.8530
 4162SOL    HW223949   0.476   4.497  15.962  0.6366  2.1821  0.1182
 4163SOL     OW23950   3.575   1.861   6.351 -0.3875 -0.1265  0.5629
 4163SOL    HW123951   3.640   1.922   6.316 -1.2078 -0.2680 -1.2050
 4163SOL    HW223952   3.513   1.918   6.397 -0.0179 -0.7559  1.8600
 4164SOL     OW23953   1.789   4.383   4.153 -0.1414  0.1356 -0.2116
 4164SOL    HW123954   1.700   4.419   4.157  0.7048  1.9690  1.8425
 4164SOL    HW223955   1.834   4.420   4.228 -0.5739 -0.9179  0.5604
 4165SOL     OW23956   3.510   3.244  15.102 -0.7673  0.1461 -0.2130
 4165SOL    HW123957   3.552   3.161  15.079  2.4173  2.0266 -1.1666
 4165SOL    HW223958   3.421   3.224  15.129 -0.8380  1.2608  0.3369
 4166SOL     OW23959   2.979   2.472   2.504  0.2023 -0.2524 -0.1062
 4166SOL    HW123960   3.068   2.438   2.504  0.4179  0.3053 -0.0930
 4166SOL    HW223961   2.992   2.531   2.578 -0.6205  0.3888 -0.4617
 4167SOL     OW23962   3.230   3.312   4.316  0.0636  0.0449 -0.4297
 4167SOL    HW123963   3.195   3.394   4.284 -1.1763 -0.7682 -1.1521
 4167SOL    HW223964   3.167   3.253   4.274 -0.9525  0.3994  0.5896
 4168SOL     OW23965   0.917   4.312  11.844  0.1921 -0.1893  0.2531
 4168SOL    HW123966   0.997   4.279  11.802  1.5019  2.0003  1.0276
 4168SOL    HW223967   0.855   4.289  11.775 -0.3826 -1.3188  1.1409
 4169SOL     OW23968   1.855   4.143   0.057 -0.3131  0.0874 -0.1283
 4169SOL    HW123969   1.827   4.226   0.017 -0.4572  0.1160  0.0283
 4169SOL    HW223970   1.943   4.131   0.022 -0.9011  0.2443 -1.6641
 4170SOL     OW23971   3.716   4.317   0.250  0.1904 -0.3180  0.7954
 4170SOL    HW123972   3.738   4.244   0.192 -2.4640 -0.3637 -0.1741
 4170SOL    HW223973   3.776   4.384   0.218  0.2380 -1.4260 -1.4272
 4171SOL     OW23974   1.009   2.719  11.973  0.4080  0.5471 -0.4633
 4171SOL    HW123975   0.988   2.711  11.880 -0.9172 -0.0884 -0.1043
 4171SOL    HW223976   0.936   2.777  11.994 -0.9041 -0.8460 -1.1597
 4172SOL     OW23977   4.366   2.855   8.149  0.1292  0.0059 -0.0954
 4172SOL    HW123978   4.417   2.905   8.085  1.3728  1.9736  2.4298
 4172SOL    HW223979   4.406   2.880   8.233 -1.1004 -0.4480  0.6158
 4173SOL     OW23980   0.421   2.072  13.439  0.2026  0.0463  0.2523
 4173SOL    HW123981   0.330   2.094  13.457 -0.3521 -1.1264 -1.0217
 4173SOL    HW223982   0.452   2.011  13.506 -1.9790 -0.6450  0.6523
 4174SOL     OW23983   0.870   1.070   5.454 -0.1716 -0.4254 -0.3090
 4174SOL    HW123984   0.885   1.061   5.548 -1.0684  1.9952  0.0529
 4174SOL    HW223985   0.834   0.986   5.425 -0.8524  0.0488 -0.8311
 4175SOL     OW23986   4.527   2.643   9.949  0.1935 -0.6060 -0.1884
 4175SOL    HW123987   4.517   2.713  10.013  2.1613  0.2593 -0.8398
 4175SOL    HW223988   4.511   2.694   9.869  3.4775 -0.3780 -0.7196
 4176SOL     OW23989   4.597   0.439   5.914  0.2614 -0.7721  0.0702
 4176SOL    HW123990   4.562   0.522   5.882 -0.7628 -1.0559  0.4529
 4176SOL    HW223991   4.553   0.375   5.858 -2.8132 -0.9374  2.6475
 4177SOL     OW23992   0.331   3.955   4.489 -0.4131  0.1262 -0.6661
 4177SOL    HW123993   0.345   3.995   4.575 -0.3576  1.0055 -1.0902
 4177SOL    HW223994   0.253   3.903   4.510  0.0412 -0.3149 -0.0585
 4178SOL     OW23995   4.390   0.105  13.531 -0.0848 -0.1067 -0.2892
 4178SOL    HW123996   4.477   0.096  13.570 -0.6384  0.6514  1.1030
 4178SOL    HW223997   4.334   0.037  13.569  2.1812 -1.5723  0.4431
 4179SOL     OW23998   2.631   2.819   8.672  0.0775 -0.0362 -0.6819
 4179SOL    HW123999   2.560   2.764   8.640 -0.9596  0.5412  0.5876
 4179SOL    HW224000   2.619   2.814   8.767  1.2966 -1.8181 -0.6199
 4180SOL     OW24001   2.689   4.420  11.499 -0.3877  0.0683  0.1512
 4180SOL    HW124002   2.618   4.367  11.462 -1.6142  2.3766 -0.7886
 4180SOL    HW224003   2.636   4.471  11.560 -0.1964 -1.8690  1.9320
 4181SOL     OW24004   1.157   4.609  14.336  0.0773  0.2961 -0.1623
 4181SOL    HW124005   1.123   4.525  14.304  1.8156 -1.4948  2.6843
 4181SOL    HW224006   1.143   4.597  14.430  0.5086 -2.0477 -0.3874
 4182SOL     OW24007   2.902   0.717   7.941  0.0508 -0.6636  0.1230
 4182SOL    HW124008   2.903   0.792   8.001 -0.5795  0.3209 -1.1058
 4182SOL    HW224009   2.992   0.718   7.910  0.5397  1.6887  1.6485
 4183SOL     OW24010   2.790   3.999   4.301 -0.2496 -0.0306  0.4792
 4183SOL    HW124011   2.710   3.949   4.313 -2.0061  2.7705  0.3768
 4183SOL    HW224012   2.771   4.093   4.305 -0.5137  0.0439 -2.3599
 4184SOL     OW24013   0.642   1.242   6.455  0.2810  0.3211 -0.3873
 4184SOL    HW124014   0.555   1.280   6.444 -0.1723 -0.6847 -0.2959
 4184SOL    HW224015   0.700   1.278   6.388 -1.7233  3.1538 -0.5793
 4185SOL     OW24016   4.626   3.135   4.696  0.0491  0.0410 -0.4743
 4185SOL    HW124017   4.593   3.095   4.777 -2.3188 -0.5724 -1.7310
 4185SOL    HW224018   4.555   3.114   4.636  1.3651 -1.6287 -1.4537
 4186SOL     OW24019   2.480   2.646   6.815  0.7062 -0.3968 -0.6954
 4186SOL    HW124020   2.487   2.585   6.743  1.3498  1.2357 -2.0204
 4186SOL    HW224021   2.560   2.699   6.805  0.3589  0.2489 -0.1021
 4187SOL     OW24022   4.002   2.889   7.750  0.2874 -0.5872 -0.0383
 4187SOL    HW124023   3.976   2.965   7.697 -3.4089 -2.1143 -0.3961
 4187SOL    HW224024   3.942   2.893   7.825  0.1925  1.9074 -0.2428
 4188SOL     OW24025   3.619   0.444  12.557  0.0462  0.0408 -0.0843
 4188SOL    HW124026   3.698   0.456  12.610 -1.4718  0.3222  2.1537
 4188SOL    HW224027   3.551   0.436  12.625 -0.3325  1.5226 -0.2917
 4189SOL     OW24028   1.347   0.690   6.797 -0.3099  1.0709  0.1725
 4189SOL    HW124029   1.414   0.756   6.780  0.0113  0.5994 -0.4098
 4189SOL    HW224030   1.364   0.673   6.890  1.4936 -2.8895 -0.8387
 4190SOL     OW24031   0.276   3.054   5.097  0.3678  0.4853 -0.1478
 4190SOL    HW124032   0.322   2.972   5.079 -3.5385 -1.5205 -0.9726
 4190SOL    HW224033   0.289   3.098   5.014  1.2690  2.2360  0.9136
 4191SOL     OW24034   1.724   2.181  15.571 -0.0299 -0.1061 -0.4971
 4191SOL    HW124035   1.685   2.124  15.504 -0.2878  0.1099 -0.5307
 4191SOL    HW224036   1.644   2.223  15.602 -0.1554 -0.8005  0.1135
 4192SOL     OW24037   1.995   0.319   7.144  0.2248 -0.0100  0.4323
 4192SOL    HW124038   2.023   0.393   7.089 -2.3495  1.0035  0.5073
 4192SOL    HW224039   1.992   0.247   7.081 -0.9049 -1.9407  2.7067
 4193SOL     OW24040   4.121   3.331   9.218 -0.0082  0.2304 -0.3816
 4193SOL    HW124041   4.191   3.395   9.207  0.5133  0.3363  3.5680
 4193SOL    HW224042   4.039   3.381   9.214 -0.8956 -1.1210  1.1174
 4194SOL     OW24043   1.205   0.234  11.049 -0.1968  0.2496 -0.1642
 4194SOL    HW124044   1.292   0.262  11.078 -0.3582  0.3182  0.2482
 4194SOL    HW224045   1.216   0.140  11.065  1.3148  0.4889  0.2050
 4195SOL     OW24046   0.100   0.608   0.050  0.4396 -0.2995 -0.0322
 4195SOL    HW124047   0.049   0.679   0.088  0.6413  0.3895 -1.0661
 4195SOL    HW224048   0.033   0.576  17.682  0.3486  2.5593 -1.4225
 4196SOL     OW24049   4.469   1.187  15.090 -0.3686 -0.0266 -0.4728
 4196SOL    HW124050   4.531   1.220  15.156 -2.2899  3.2526 -0.3247
 4196SOL    HW224051   4.402   1.253  15.107  0.7380  1.1285 -0.5940
 4197SOL     OW24052   2.898   3.499   5.483 -0.1193  0.3080  0.4219
 4197SOL    HW124053   2.866   3.411   5.503 -1.2535  0.4492 -0.8208
 4197SOL    HW224054   2.836   3.555   5.530 -0.1545  0.2389  0.4563
 4198SOL     OW24055   2.998   2.414   2.114  0.4421  0.0952  0.4104
 4198SOL    HW124056   3.029   2.477   2.049  0.1200  0.8293  0.9567
 4198SOL    HW224057   2.929   2.378   2.059  1.1018  0.9805 -1.0182
 4199SOL     OW24058   1.003   4.530   5.630 -0.4807 -0.0011 -0.2692
 4199SOL    HW124059   0.948   4.588   5.684  0.1942 -0.1295  0.5526
 4199SOL    HW224060   0.938   4.489   5.573 -1.1274 -0.2193  0.6102
 4200SOL     OW24061   0.134   1.593   2.848  0.0672  0.2999  0.0677
 4200SOL    HW124062   0.120   1.515   2.901  1.5178  1.1643  1.7065
 4200SOL    HW224063   0.100   1.565   2.763 -1.0909 -2.0122  1.3059
 4201SOL     OW24064   3.399   3.809  10.848 -0.6995 -0.8733 -0.3179
 4201SOL    HW124065   3.443   3.799  10.764  0.4053 -0.3464  0.1927
 4201SOL    HW224066   3.459   3.878  10.877 -2.8936 -0.7414  3.9410
 4202SOL     OW24067   0.035   0.078   2.865  0.6048 -0.7223 -0.2210
 4202SOL    HW124068   4.714   0.147   2.915  1.1250 -0.6345  0.1080
 4202SOL    HW224069   4.707   0.091   2.785  0.4878  0.8515  0.1013
 4203SOL     OW24070   0.325   3.635  16.602  0.1921 -0.3775  0.3304
 4203SOL    HW124071   0.369   3.704  16.652 -2.8657  0.9805  1.1346
 4203SOL    HW224072   0.243   3.677  16.577 -0.4012  0.2459  3.3217
 4204SOL     OW24073   1.758   0.847   5.328  0.4520  0.4226 -0.1513
 4204SOL    HW124074   1.852   0.838   5.313  0.3442  0.4623 -0.8362
 4204SOL    HW224075   1.736   0.867   5.237 -2.6252  1.3878  0.7696
 4205SOL     OW24076   1.575   1.875   5.394 -0.0529  0.6859  0.5882
 4205SOL    HW124077   1.585   1.811   5.465 -0.3097 -0.5859 -0.5387
 4205SOL    HW224078   1.571   1.817   5.318 -1.9964 -0.7364  1.7768
 4206SOL     OW24079   3.107   4.441   3.322 -0.2097 -0.1459 -0.0156
 4206SOL    HW124080   3.062   4.430   3.406  1.1277  0.7964  0.8164
 4206SOL    HW224081   3.038   4.490   3.277  0.0040 -0.6668 -0.9012
 4207SOL     OW24082   4.536   2.676   4.643  0.5756  0.1562  0.4124
 4207SOL    HW124083   4.526   2.737   4.716  1.7441  0.8100  0.0312
 4207SOL    HW224084   4.611   2.715   4.598 -1.8537  1.5103 -2.4274
 4208SOL     OW24085   1.063   2.556   4.355 -0.2812  0.0114  0.2032
 4208SOL    HW124086   1.145   2.601   4.372 -0.6083  0.3233  0.9583
 4208SOL    HW224087   1.055   2.534   4.448  0.2749  0.2866  0.3133
 4209SOL     OW24088   1.037   4.081   6.808 -0.2156 -0.5329  0.2587
 4209SOL    HW124089   1.100   4.088   6.879  1.3569  1.7207 -1.3396
 4209SOL    HW224090   0.962   4.125   6.850  1.1672  3.1235 -1.0711
 4210SOL     OW24091   1.843   0.001   1.237  0.0529  0.1073  0.2042
 4210SOL    HW124092   1.763   0.042   1.203 -0.3918 -0.4766  0.5393
 4210SOL    HW224093   1.857   4.662   1.165  2.1439  0.2941  0.4535
 4211SOL     OW24094   3.329   2.414   4.256  0.1881 -0.3021  0.5874
 4211SOL    HW124095   3.356   2.402   4.165 -0.6205 -0.0716  0.3182
 4211SOL    HW224096   3.329   2.323   4.287 -2.1317 -0.6455 -0.4361
 4212SOL     OW24097   1.238   0.499   4.241 -0.1970  0.4749 -0.0750
 4212SOL    HW124098   1.226   0.470   4.332  3.8184 -1.0081 -0.0227
 4212SOL    HW224099   1.151   0.532   4.220 -1.0729 -0.7175  1.6867
 4213SOL     OW24100   3.133   2.650   6.881  0.2768 -0.0981  0.1209
 4213SOL    HW124101   3.205   2.587   6.874 -0.8907 -1.2096 -1.8931
 4213SOL    HW224102   3.087   2.623   6.961  0.9560  1.3154  0.9724
 4214SOL     OW24103   0.665   0.988  15.580  0.1376  0.0756 -0.4837
 4214SOL    HW124104   0.656   1.047  15.655  0.0649  0.6721 -0.9633
 4214SOL    HW224105   0.750   1.015  15.545  0.3272  1.1633  0.8575
 4215SOL     OW24106   4.020   2.994   3.393 -0.2226  0.2123  0.1328
 4215SOL    HW124107   4.073   3.007   3.315  1.0942  0.7863  1.1432
 4215SOL    HW224108   4.087   2.943   3.438 -2.4949 -0.7098  2.4955
 4216SOL     OW24109   3.005   4.661  16.225 -1.0164  0.3841  0.1863
 4216SOL    HW124110   3.072   4.657  16.293 -1.3756 -0.9915  0.4543
 4216SOL    HW224111   3.012   4.569  16.200  0.1124  1.1827 -2.4960
 4217SOL     OW24112   0.772   3.377  10.397  0.5183  0.2219 -0.1406
 4217SOL    HW124113   0.806   3.289  10.384  1.9118  0.9190 -1.2411
 4217SOL    HW224114   0.767   3.420  10.312 -0.8039  0.7731  0.2087
 4218SOL     OW24115   1.683   4.706  16.362 -0.3682 -0.2925  0.3176
 4218SOL    HW124116   1.661   4.613  16.363  0.8670 -0.5897 -0.3402
 4218SOL    HW224117   1.595   0.017  16.380  0.7999  2.6628  0.4399
 4219SOL     OW24118   2.614   3.543  15.991 -0.0956  0.4870  0.2499
 4219SOL    HW124119   2.544   3.572  15.932 -0.5009  0.6143  0.7892
 4219SOL    HW224120   2.589   3.454  16.017 -2.3360  0.7690 -0.9339
 4220SOL     OW24121   0.913   1.430   4.541 -0.3810 -0.8043 -0.1107
 4220SOL    HW124122   0.847   1.493   4.512  2.7271  2.1533 -0.6670
 4220SOL    HW224123   0.978   1.464   4.481 -0.8549  1.8515  0.8829
 4221SOL     OW24124   3.304   1.611   2.013 -0.0393 -0.3475  0.3780
 4221SOL    HW124125   3.325   1.688   1.960  1.5376 -1.2341 -0.3125
 4221SOL    HW224126   3.353   1.543   1.965  0.6717 -0.1509  0.8176
 4222SOL     OW24127   3.458   2.514   8.096  0.3871 -0.2778 -0.3968
 4222SOL    HW124128   3.444   2.577   8.166 -0.1405 -1.6065  0.6735
 4222SOL    HW224129   3.553   2.502   8.102  0.4842  1.7497  1.9962
 4223SOL     OW24130   1.488   1.342   1.614 -0.0199  0.0387  0.6194
 4223SOL    HW124131   1.399   1.307   1.623 -0.2519  0.3022 -0.7002
 4223SOL    HW224132   1.482   1.406   1.543 -1.0695 -0.6502  0.0930
 4224SOL     OW24133   3.018   3.175  13.073  0.6752 -0.1896  0.4936
 4224SOL    HW124134   3.045   3.176  13.164  0.1184  0.9790  0.6409
 4224SOL    HW224135   2.965   3.096  13.061  0.2328  0.2125 -0.2719
 4225SOL     OW24136   1.200   0.703   1.559  0.4018 -0.2300 -0.7769
 4225SOL    HW124137   1.261   0.756   1.611  0.3641  0.1991 -1.1654
 4225SOL    HW224138   1.130   0.767   1.548  0.3598 -0.0295  0.6334
 4226SOL     OW24139   3.315   3.085   9.372  0.1872  0.4188  0.0861
 4226SOL    HW124140   3.238   3.133   9.403 -0.7263 -0.7533 -0.3629
 4226SOL    HW224141   3.269   3.010   9.335 -0.4817  1.8462 -1.9829
 4227SOL     OW24142   2.529   2.510   8.329 -0.3139  0.0051  0.1141
 4227SOL    HW124143   2.522   2.416   8.315 -4.1341  0.6412 -2.1761
 4227SOL    HW224144   2.624   2.516   8.343 -0.3449 -0.8273  0.6759
 4228SOL     OW24145   2.689   0.458   7.583  0.2000  0.0637  0.4699
 4228SOL    HW124146   2.698   0.526   7.516  0.1714  0.1267  0.5303
 4228SOL    HW224147   2.599   0.426   7.584 -0.3620  1.7416  2.6681
 4229SOL     OW24148   2.017   1.362   6.176 -0.1430  0.1630  0.0346
 4229SOL    HW124149   1.924   1.348   6.159 -0.5842  1.7454  1.0805
 4229SOL    HW224150   2.042   1.408   6.096  0.9410  1.5398  1.1770
 4230SOL     OW24151   0.920   3.889   0.717  0.6140 -0.3711  0.2167
 4230SOL    HW124152   0.984   3.949   0.756  1.3822 -1.0551  0.0227
 4230SOL    HW224153   0.911   3.926   0.630 -0.7201  1.3370  1.0769
 4231SOL     OW24154   3.064   3.119   2.532  0.7019  0.3370 -0.4060
 4231SOL    HW124155   3.082   3.210   2.557  0.4831 -0.3293  2.1815
 4231SOL    HW224156   3.141   3.089   2.580 -0.7634 -0.7407  1.3076
 4232SOL     OW24157   3.295   1.063   2.926 -0.1819 -0.0217 -0.0133
 4232SOL    HW124158   3.379   1.091   2.964  0.3620  1.7396 -2.4997
 4232SOL    HW224159   3.301   1.080   2.832 -0.5677  0.3262  0.0270
 4233SOL     OW24160   3.240   1.266   6.709 -0.1895  0.0422  0.3291
 4233SOL    HW124161   3.234   1.255   6.614  3.3945  1.3245 -0.0373
 4233SOL    HW224162   3.148   1.271   6.734 -0.2683  0.5509 -0.0713
 4234SOL     OW24163   1.155   2.914   3.146 -0.2059 -0.2010  0.5961
 4234SOL    HW124164   1.185   2.861   3.220  0.9812  0.5166  0.6305
 4234SOL    HW224165   1.206   2.869   3.079  0.3047  1.8535 -0.3808
 4235SOL     OW24166   3.962   1.050   7.051 -0.4998  0.0081 -0.3541
 4235SOL    HW124167   3.908   1.121   7.018  0.6580 -0.8283 -4.0246
 4235SOL    HW224168   3.970   1.011   6.964 -0.8953  0.6225 -0.6644
 4236SOL     OW24169   1.593   1.416  12.157 -0.0774  0.4374  0.1907
 4236SOL    HW124170   1.656   1.344  12.152 -1.6299 -0.7374 -2.6048
 4236SOL    HW224171   1.608   1.462  12.075  0.2649 -1.4009 -0.7696
 4237SOL     OW24172   0.617   3.984  15.013  0.1260 -0.1221 -0.5267
 4237SOL    HW124173   0.526   4.007  14.994 -0.0074 -1.3758 -1.4302
 4237SOL    HW224174   0.646   3.983  14.922 -0.3620 -0.5619 -0.6793
 4238SOL     OW24175   0.941   0.453   7.164 -0.3181 -0.4441 -0.2066
 4238SOL    HW124176   1.028   0.489   7.180 -0.2330 -0.6258 -0.2711
 4238SOL    HW224177   0.942   0.433   7.070 -0.8215  3.6112 -1.0946
 4239SOL     OW24178   4.447   0.495   0.874  0.1237  0.3739 -0.7616
 4239SOL    HW124179   4.486   0.408   0.867 -2.9264 -0.8892 -1.7264
 4239SOL    HW224180   4.525   0.545   0.898 -3.6557  5.0557  1.6712
 4240SOL     OW24181   3.777   2.850   9.832  0.2972 -0.3202 -0.0130
 4240SOL    HW124182   3.820   2.923   9.789  0.5119 -0.8876 -0.7725
 4240SOL    HW224183   3.853   2.793   9.844  1.4063  1.4265  1.1853
 4241SOL     OW24184   0.689   1.852   9.272 -0.4373 -0.0364 -0.7042
 4241SOL    HW124185   0.742   1.835   9.349 -1.8023  0.3599  0.3194
 4241SOL    HW224186   0.657   1.938   9.301 -1.9115 -0.3379 -1.4411
 4242SOL     OW24187   0.352   4.524  11.344 -0.2160  0.1229  0.5992
 4242SOL    HW124188   0.390   4.440  11.370  0.8508  0.1955 -0.7473
 4242SOL    HW224189   0.414   4.596  11.352 -0.7648  0.6239  0.3121
 4243SOL     OW24190   4.262   3.192   8.388  0.2980  0.0940  0.0488
 4243SOL    HW124191   4.357   3.183   8.391  0.2295 -0.0229  1.6458
 4243SOL    HW224192   4.242   3.198   8.294 -2.0336  1.8552  0.6311
 4244SOL     OW24193   1.934   4.588  10.587 -0.1053 -0.2654 -0.1314
 4244SOL    HW124194   1.904   4.673  10.554  0.7347 -0.7105 -2.0374
 4244SOL    HW224195   1.856   4.561  10.636 -0.7162  1.4354 -0.1604
 4245SOL     OW24196   2.991   0.214   5.288  0.1009 -0.1861 -0.0866
 4245SOL    HW124197   2.948   0.130   5.299 -0.8829  0.2104 -0.9892
 4245SOL    HW224198   3.084   0.193   5.276 -0.2722 -1.7512 -0.1510
 4246SOL     OW24199   0.537   2.442   3.490 -0.1850 -0.5219 -0.3906
 4246SOL    HW124200   0.571   2.497   3.419 -0.6930  2.1317  1.4379
 4246SOL    HW224201   0.591   2.478   3.561 -1.1602 -0.2967  0.2310
 4247SOL     OW24202   3.669   2.307   2.093 -0.0451  0.2637 -0.1773
 4247SOL    HW124203   3.635   2.394   2.072  0.9497  1.1853  2.0185
 4247SOL    HW224204   3.720   2.279   2.017 -0.1834 -3.5425  1.0873
 4248SOL     OW24205   3.070   0.529  17.271  0.5369  0.2880 -0.2034
 4248SOL    HW124206   2.980   0.502  17.255  0.8285  0.3796 -1.9767
 4248SOL    HW224207   3.046   0.582  17.348  0.3345  0.2303 -0.2267
 4249SOL     OW24208   2.792   2.007   3.004 -0.0710 -0.3613 -0.2475
 4249SOL    HW124209   2.873   1.995   3.054  0.5998  2.0409 -0.7862
 4249SOL    HW224210   2.829   1.971   2.923  1.0265 -0.4951  0.3108
 4250SOL     OW24211   4.444   4.618   8.632  0.3280  0.3386  0.0479
 4250SOL    HW124212   4.350   4.623   8.650  0.6629 -0.7820  2.0928
 4250SOL    HW224213   4.458   4.609   8.538 -0.2475 -1.2182  0.0998
 4251SOL     OW24214   1.767   1.913   2.118  0.6133  0.5697  0.3838
 4251SOL    HW124215   1.836   1.847   2.107 -0.9094 -0.7972 -1.0888
 4251SOL    HW224216   1.796   1.971   2.188 -0.3631  1.3823  0.1015
 4252SOL     OW24217   1.783   2.530  16.207 -0.3259  0.3610 -0.1593
 4252SOL    HW124218   1.834   2.573  16.138 -0.1748 -0.3955 -0.5129
 4252SOL    HW224219   1.801   2.439  16.186  1.2355  0.5614  0.3114
 4253SOL     OW24220   3.001   3.166   4.202 -0.2183 -0.1103 -0.0670
 4253SOL    HW124221   2.928   3.223   4.229 -0.2558  0.2032 -0.8356
 4253SOL    HW224222   3.004   3.110   4.280 -1.2537  0.3258  0.2941
 4254SOL     OW24223   1.486   1.829  12.978  0.2121  0.0958 -0.6105
 4254SOL    HW124224   1.467   1.750  13.028 -0.5558  0.3638 -0.4793
 4254SOL    HW224225   1.526   1.880  13.049 -2.1438  0.6519  0.2916
 4255SOL     OW24226   3.909   3.541   9.198 -0.2662  0.5750  0.0454
 4255SOL    HW124227   3.880   3.632   9.194 -0.2903  0.5812  0.3811
 4255SOL    HW224228   3.859   3.505   9.272 -0.5464  1.7126  0.4140
 4256SOL     OW24229   3.766   0.116   2.216  0.2839  0.2248 -0.0460
 4256SOL    HW124230   3.750   0.022   2.214  0.3444  0.2377 -1.2910
 4256SOL    HW224231   3.830   0.126   2.287 -0.2683 -0.2485  0.5164
 4257SOL     OW24232   0.546   0.009   6.525  0.4470  0.6468 -0.5604
 4257SOL    HW124233   0.495   4.673   6.580  0.0340 -0.4612 -2.1174
 4257SOL    HW224234   0.619   0.031   6.582 -0.0947  2.0507 -0.3944
 4258SOL     OW24235   1.588   2.837  17.494 -0.3679  0.4250  0.2399
 4258SOL    HW124236   1.631   2.771  17.549 -0.2668 -0.5864 -1.0398
 4258SOL    HW224237   1.646   2.858  17.420 -0.1650 -1.7989 -0.2283
 4259SOL     OW24238   2.774   2.636  11.675  0.3901 -0.5138  0.0668
 4259SOL    HW124239   2.861   2.676  11.681 -0.0592  0.6020 -0.7023
 4259SOL    HW224240   2.787   2.592  11.591 -0.3577 -1.7842  0.6243
 4260SOL     OW24241   0.244   2.965   4.262  0.2537  0.4836  0.4948
 4260SOL    HW124242   0.338   2.955   4.245  0.3295  0.4253  0.9473
 4260SOL    HW224243   0.241   3.003   4.350 -4.1186  0.2079  0.4328
 4261SOL     OW24244   2.572   0.638   2.626  0.1901 -0.0460  0.2782
 4261SOL    HW124245   2.627   0.716   2.626  2.1586 -1.4524  3.7094
 4261SOL    HW224246   2.640   0.572   2.636 -0.4813 -0.9163 -0.9335
 4262SOL     OW24247   2.482   0.443   6.083 -0.3291  0.7587  0.4064
 4262SOL    HW124248   2.419   0.390   6.132 -0.3300  1.0214  0.6849
 4262SOL    HW224249   2.417   0.489   6.029 -0.7864  0.1215  0.4183
 4263SOL     OW24250   1.135   3.308   4.663 -0.1270  0.0801  0.3398
 4263SOL    HW124251   1.100   3.234   4.614 -0.6264  1.8392 -1.9793
 4263SOL    HW224252   1.114   3.390   4.617  0.4129  0.3804  0.6356
 4264SOL     OW24253   2.520   1.217  15.632  0.4977 -0.4129 -0.7127
 4264SOL    HW124254   2.434   1.210  15.673  0.7155  0.8910 -0.0286
 4264SOL    HW224255   2.584   1.229  15.703 -1.5162 -0.6339  1.1528
 4265SOL     OW24256   0.088   4.551   4.827 -0.6918 -0.6598  0.1434
 4265SOL    HW124257   0.027   4.593   4.887  0.3856  0.6892  0.2830
 4265SOL    HW224258   0.108   4.610   4.754 -1.2016 -0.3756  0.2374
 4266SOL     OW24259   4.458   3.965   3.504 -0.0971  0.4196 -0.0761
 4266SOL    HW124260   4.427   4.056   3.495 -0.5108  0.2484 -0.4125
 4266SOL    HW224261   4.472   3.951   3.597 -1.5473  1.0723  0.2542
 4267SOL     OW24262   2.502   3.689   2.934 -0.6216 -0.7290 -0.1979
 4267SOL    HW124263   2.415   3.650   2.943 -1.0751  0.8081  2.0710
 4267SOL    HW224264   2.521   3.656   2.846 -0.7192  0.6574 -0.7305
 4268SOL     OW24265   3.876   1.109  15.090 -0.1444 -0.6764  0.5062
 4268SOL    HW124266   3.921   1.083  15.171  0.8134  1.0561  0.5163
 4268SOL    HW224267   3.944   1.073  15.033  1.4511  1.3508  1.1584
 4269SOL     OW24268   3.919   0.467  15.751  0.4724 -0.0892  0.0130
 4269SOL    HW124269   3.952   0.390  15.706 -0.2414 -1.7086  2.2369
 4269SOL    HW224270   3.846   0.433  15.803  0.4998 -0.7163 -0.3670
 4270SOL     OW24271   4.667   3.815   4.029 -0.3650 -0.1749 -0.0399
 4270SOL    HW124272   4.711   3.835   3.946 -1.8119 -0.7854 -0.9530
 4270SOL    HW224273   0.013   3.817   4.095  0.3213 -0.4021 -0.7472
 4271SOL     OW24274   4.476   2.481   7.405  0.1334 -0.2520 -0.0488
 4271SOL    HW124275   4.489   2.462   7.498  0.4619  1.7181  0.3214
 4271SOL    HW224276   4.520   2.566   7.396  0.1061 -0.2176  0.1442
 4272SOL     OW24277   1.234   3.480   4.055  0.6360 -0.0534  0.1408
 4272SOL    HW124278   1.323   3.486   4.090 -0.1582 -1.3067  2.3966
 4272SOL    HW224279   1.249   3.409   3.992  0.1990 -0.7494  0.8164
 4273SOL     OW24280   2.794   3.529   7.805 -0.4526  0.4027  0.0410
 4273SOL    HW124281   2.727   3.576   7.854  0.4842  1.1791  0.5823
 4273SOL    HW224282   2.736   3.493   7.737  0.0830  1.0357 -0.7486
 4274SOL     OW24283   0.717   3.986  13.167  0.3561  0.0410 -0.4621
 4274SOL    HW124284   0.767   4.064  13.190 -0.2132 -0.6599  3.0997
 4274SOL    HW224285   0.741   3.909  13.218  0.2094  1.1522  1.2553
 4275SOL     OW24286   2.471   1.536   6.558  0.2787  0.3186  0.7824
 4275SOL    HW124287   2.457   1.452   6.602  0.3585  0.0653  0.3158
 4275SOL    HW224288   2.383   1.573   6.548  0.4873  0.7551  0.5399
 4276SOL     OW24289   0.526   0.096   1.292  0.4170  0.1570  0.3165
 4276SOL    HW124290   0.498   0.009   1.263  0.4697 -0.4067  1.9788
 4276SOL    HW224291   0.535   0.085   1.386 -0.1093 -1.9083  0.1430
 4277SOL     OW24292   3.618   2.574  10.531  0.2414  0.2267  0.2687
 4277SOL    HW124293   3.661   2.550  10.449 -2.0820  1.7402 -1.3696
 4277SOL    HW224294   3.691   2.621  10.572 -0.6930  1.0757  0.9868
 4278SOL     OW24295   2.638   0.835   7.542  0.4117 -0.6739  0.8744
 4278SOL    HW124296   2.713   0.817   7.600  1.0141  1.7710  0.8598
 4278SOL    HW224297   2.576   0.768   7.571 -0.6601 -0.1499 -0.2497
 4279SOL     OW24298   4.581   3.554   3.176  0.3642 -0.3303  0.6785
 4279SOL    HW124299   4.666   3.598   3.176 -0.7630  1.8328  0.8822
 4279SOL    HW224300   4.527   3.627   3.207 -0.6139 -0.2205 -1.3243
 4280SOL     OW24301   1.871   0.281   5.592  0.3492  0.3650 -0.5022
 4280SOL    HW124302   1.849   0.205   5.646  0.7468  1.2781  0.9505
 4280SOL    HW224303   1.908   0.338   5.660 -3.1858  1.3288  0.5779
 4281SOL     OW24304   4.220   1.482   2.364  0.0048 -0.1812 -0.2566
 4281SOL    HW124305   4.307   1.442   2.362 -0.5794 -1.4291 -0.4740
 4281SOL    HW224306   4.176   1.419   2.308 -0.6634 -0.7147  0.8642
 4282SOL     OW24307   0.580   1.453  17.533 -0.0312 -0.4026 -0.1665
 4282SOL    HW124308   0.563   1.505  17.612  2.3602  2.3284 -1.4595
 4282SOL    HW224309   0.584   1.517  17.462 -0.5641  0.0852  0.2396
 4283SOL     OW24310   3.300   1.665   1.363 -0.3842  0.3799  0.3654
 4283SOL    HW124311   3.248   1.660   1.444 -2.3196  1.1068 -0.8306
 4283SOL    HW224312   3.385   1.627   1.385 -0.7193 -0.2812  0.4982
 4284SOL     OW24313   2.255   0.938   8.237 -0.0298 -0.2634  0.4999
 4284SOL    HW124314   2.191   0.971   8.301 -0.0242  0.8594 -0.0781
 4284SOL    HW224315   2.326   0.933   8.301  0.5945  1.7605 -0.0220
 4285SOL     OW24316   4.646   2.401  16.028 -0.5954 -0.3444  0.5349
 4285SOL    HW124317   4.584   2.456  16.075  0.7353  1.3401  0.3108
 4285SOL    HW224318   4.719   2.464  16.032 -0.0412 -0.9721  0.3487
 4286SOL     OW24319   2.253   1.908   1.047  0.0239  0.0856  0.1224
 4286SOL    HW124320   2.328   1.932   0.993  0.2107 -1.1812 -0.1709
 4286SOL    HW224321   2.193   1.981   1.033 -0.2905  0.0643  1.3281
 4287SOL     OW24322   0.619   2.688   2.647  0.6796 -0.0028  0.6481
 4287SOL    HW124323   0.574   2.681   2.732  0.7109  2.3160  0.8444
 4287SOL    HW224324   0.681   2.754   2.676  0.5279  1.1498 -1.6901
 4288SOL     OW24325   1.690   4.571   7.103 -0.0394  0.1734 -0.3780
 4288SOL    HW124326   1.781   4.543   7.087  0.0632 -0.1667  0.7794
 4288SOL    HW224327   1.701   4.662   7.132 -1.4620  0.9841 -2.4400
 4289SOL     OW24328   1.593   1.683   5.863  0.0373  0.1366 -0.9505
 4289SOL    HW124329   1.517   1.640   5.900 -1.1695  0.3814 -3.1097
 4289SOL    HW224330   1.660   1.618   5.883 -0.8145 -0.2535  0.6233
 4290SOL     OW24331   4.484   1.664   9.308 -0.1991  0.0607 -0.3588
 4290SOL    HW124332   4.480   1.682   9.214 -2.2679  1.2833 -0.0519
 4290SOL    HW224333   4.389   1.669   9.322 -0.1217 -0.4133  0.3186
 4291SOL     OW24334   1.598   1.862   8.499 -0.3156  0.8236 -0.2995
 4291SOL    HW124335   1.683   1.853   8.457 -0.9185 -1.3300 -1.0782
 4291SOL    HW224336   1.591   1.793   8.565  0.2624  1.9377  0.9207
 4292SOL     OW24337   2.618   0.550  13.159 -0.0198  0.3049 -0.6670
 4292SOL    HW124338   2.687   0.493  13.125 -0.3838  0.3810 -1.5446
 4292SOL    HW224339   2.632   0.626  13.104 -0.3549  1.8574  1.4078
 4293SOL     OW24340   4.532   1.252   6.428  0.3405  0.1445 -0.2311
 4293SOL    HW124341   4.511   1.243   6.335  2.1382 -0.3145 -0.5945
 4293SOL    HW224342   4.452   1.255   6.480 -1.2053 -0.0346 -2.5810
 4294SOL     OW24343   4.333   1.406   5.074  0.4892  0.1913 -0.1783
 4294SOL    HW124344   4.319   1.401   5.169 -1.7074  2.5401 -0.3693
 4294SOL    HW224345   4.366   1.318   5.056 -0.0555 -0.5956  2.6648
 4295SOL     OW24346   3.786   2.250   2.353  0.2878  0.2496  0.6884
 4295SOL    HW124347   3.867   2.298   2.336  1.2680 -2.4826 -2.5124
 4295SOL    HW224348   3.746   2.249   2.266 -1.5087  2.9105  1.5018
 4296SOL     OW24349   2.315   3.594  13.477  0.0636 -0.5568  0.6738
 4296SOL    HW124350   2.262   3.602  13.398 -0.8399  2.0044  1.5357
 4296SOL    HW224351   2.265   3.637  13.547 -1.5506 -1.7137  0.2001
 4297SOL     OW24352   3.918   3.907   4.114 -0.4833  0.0735 -0.0371
 4297SOL    HW124353   3.921   3.968   4.040 -1.1395  1.1056  0.8046
 4297SOL    HW224354   3.832   3.870   4.097 -0.4592  0.3489 -0.7814
 4298SOL     OW24355   1.777   0.035   3.645 -0.4281 -0.1159  0.4348
 4298SOL    HW124356   1.764   4.685   3.705  0.3198 -1.4566 -1.0309
 4298SOL    HW224357   1.831   0.094   3.698  1.3131  1.4503 -3.1010
 4299SOL     OW24358   2.977   4.022   6.528  0.2462 -0.2978 -0.3325
 4299SOL    HW124359   2.956   4.105   6.570 -1.8400 -0.2351 -1.4932
 4299SOL    HW224360   2.982   4.040   6.435  0.7725  1.8358  0.1115
 4300SOL     OW24361   0.990   2.661   7.121  0.5048  0.4345 -0.4387
 4300SOL    HW124362   1.054   2.728   7.098 -0.4620  2.2349  2.0706
 4300SOL    HW224363   0.918   2.681   7.062  0.4241  0.1763 -0.4283
 4301SOL     OW24364   0.666   2.390   5.762 -0.5214 -0.0324  0.0564
 4301SOL    HW124365   0.618   2.421   5.684 -0.1808  0.6773  0.1280
 4301SOL    HW224366   0.743   2.349   5.724  0.9212  0.3945  2.5570
 4302SOL     OW24367   1.470   4.579   5.828 -0.3027 -0.3229  0.4071
 4302SOL    HW124368   1.530   4.554   5.758 -0.0637  0.9384  0.1559
 4302SOL    HW224369   1.391   4.584   5.775  1.3704 -0.1720 -2.0406
 4303SOL     OW24370   2.860   2.261   1.942  0.5847 -0.0527  0.4081
 4303SOL    HW124371   2.916   2.266   1.864  1.9092  4.0439  1.6219
 4303SOL    HW224372   2.779   2.221   1.910  0.4843  0.1181  0.4502
 4304SOL     OW24373   4.612   0.465  12.643  0.7615 -0.4006  0.2933
 4304SOL    HW124374   4.572   0.381  12.667 -1.6067  0.3342 -1.0854
 4304SOL    HW224375   4.608   0.445  12.549 -0.9167 -0.6401  0.4156
 4305SOL     OW24376   3.820   1.945  17.489  0.2633 -0.3292 -0.0959
 4305SOL    HW124377   3.752   1.933  17.556 -1.5871 -1.0644 -2.0881
 4305SOL    HW224378   3.837   1.855  17.460 -2.9274 -0.9158 -0.1894
 4306SOL     OW24379   0.494   2.533   8.636 -0.4027 -0.5494 -0.4394
 4306SOL    HW124380   0.525   2.559   8.722 -2.2954  2.8841 -0.8062
 4306SOL    HW224381   0.428   2.600   8.620 -0.2192 -0.2700 -0.0056
 4307SOL     OW24382   0.203   1.701  11.973  0.5790 -0.9149  0.1555
 4307SOL    HW124383   0.249   1.651  11.907  1.3482  1.0825 -0.8207
 4307SOL    HW224384   0.244   1.788  11.972 -2.2314  0.4090 -1.3228
 4308SOL     OW24385   4.076   1.181   9.165 -0.0944 -0.0313 -0.7534
 4308SOL    HW124386   4.060   1.190   9.071  3.8177 -0.5086 -1.4380
 4308SOL    HW224387   4.170   1.195   9.176 -0.5415  1.0711  1.6116
 4309SOL     OW24388   0.424   4.100   2.557 -0.0947  0.3570 -0.6230
 4309SOL    HW124389   0.446   4.135   2.643 -0.6562 -0.0626 -0.3058
 4309SOL    HW224390   0.329   4.084   2.559  0.0645 -0.3837  1.0253
 4310SOL     OW24391   1.259   1.537   9.140  0.2616 -0.2370  0.0270
 4310SOL    HW124392   1.320   1.605   9.113  1.3042 -2.2529 -2.7262
 4310SOL    HW224393   1.228   1.502   9.057  1.2389 -0.6820 -0.1570
 4311SOL     OW24394   1.373   4.006   6.815  0.0777 -0.2924 -0.0631
 4311SOL    HW124395   1.448   3.957   6.779  1.3224  0.5160  1.4667
 4311SOL    HW224396   1.329   4.032   6.734 -2.2303 -2.3084  0.5665
 4312SOL     OW24397   3.466   2.215  13.160  0.4451 -0.3049  0.5171
 4312SOL    HW124398   3.410   2.169  13.097 -1.0189  0.1360  1.4940
 4312SOL    HW224399   3.515   2.279  13.109  0.5216 -0.6974  0.1012
 4313SOL     OW24400   0.484   0.860   3.051  0.8213  0.0865 -0.4967
 4313SOL    HW124401   0.403   0.809   3.055  1.2995 -0.6301  0.0257
 4313SOL    HW224402   0.546   0.809   3.001 -0.2915 -1.4419 -0.3119
 4314SOL     OW24403   0.574   1.773   5.231 -0.1811  0.4690  0.3359
 4314SOL    HW124404   0.478   1.775   5.231 -0.1993 -0.0458 -1.1949
 4314SOL    HW224405   0.586   1.681   5.257  1.8712  0.4477 -0.6852
 4315SOL     OW24406   3.378   0.300   2.437  0.5462 -0.1424 -0.0484
 4315SOL    HW124407   3.441   0.325   2.369 -0.0470  0.1429 -0.5054
 4315SOL    HW224408   3.423   0.228   2.480  0.3191 -0.2839 -0.0512
 4316SOL     OW24409   1.064   3.890   4.982  0.1015  0.5673  0.2002
 4316SOL    HW124410   1.071   3.873   4.888  0.5018  1.2053  0.1146
 4316SOL    HW224411   0.976   3.921   5.001 -0.5663  1.0468 -3.7554
 4317SOL     OW24412   1.332   4.103   8.834  0.2072  0.2915  0.3166
 4317SOL    HW124413   1.317   4.183   8.884 -1.8256 -0.2593  0.5868
 4317SOL    HW224414   1.349   4.038   8.902 -1.9236 -0.0880  0.4903
 4318SOL     OW24415   2.550   0.427   0.728  0.1026  0.1018  0.2211
 4318SOL    HW124416   2.510   0.486   0.664 -1.5976 -1.3339 -0.0609
 4318SOL    HW224417   2.621   0.489   0.747  0.7542 -0.1132 -1.5097
 4319SOL     OW24418   4.206   2.820   6.747 -0.6505  0.3468  0.5542
 4319SOL    HW124419   4.128   2.862   6.782 -1.6072 -2.4936  1.8514
 4319SOL    HW224420   4.282   2.873   6.771 -0.2263 -0.2805  0.6290
 4320SOL     OW24421   0.139   2.083   7.883  0.2146  0.5973  0.1316
 4320SOL    HW124422   0.144   2.162   7.831  1.0877  1.4551  1.5166
 4320SOL    HW224423   0.108   2.026   7.812  0.3001 -0.6906  1.1152
 4321SOL     OW24424   4.632   1.456   5.034  0.0238 -0.8505 -0.2186
 4321SOL    HW124425   4.548   1.481   5.073  1.6382  0.3290  2.4932
 4321SOL    HW224426   4.695   1.435   5.103  0.5095  0.7139 -0.1882
 4322SOL     OW24427   3.089   0.717  14.215  0.6585  0.0931 -0.1326
 4322SOL    HW124428   3.176   0.749  14.239  0.1756  1.5175 -0.2522
 4322SOL    HW224429   3.104   0.636  14.166 -1.8848 -0.6763  0.3761
 4323SOL     OW24430   2.314   2.732   6.567  0.1110 -0.2312 -0.5888
 4323SOL    HW124431   2.392   2.788   6.565 -0.6250  0.7565 -1.8980
 4323SOL    HW224432   2.353   2.656   6.610  0.2004 -0.1083 -0.4548
 4324SOL     OW24433   0.090   4.613  10.679 -0.5718 -0.5326 -0.0654
 4324SOL    HW124434   0.138   4.682  10.633 -2.2322  0.4338 -0.3882
 4324SOL    HW224435   0.090   4.655  10.765 -0.1134  1.0056 -0.8181
 4325SOL     OW24436   3.909   1.212   1.713  0.0054  0.1752 -0.2352
 4325SOL    HW124437   3.868   1.290   1.752  0.6785  1.0918 -1.3567
 4325SOL    HW224438   3.881   1.209   1.621 -0.9092 -0.0658  0.0472
 4326SOL     OW24439   3.788   2.255   4.945  0.7985 -0.1519 -0.2090
 4326SOL    HW124440   3.803   2.259   5.039 -1.7761 -0.7982  0.2368
 4326SOL    HW224441   3.874   2.256   4.903 -0.0893  0.2483 -2.0254
 4327SOL     OW24442   2.240   3.828   1.734 -0.0551 -0.5810 -0.1441
 4327SOL    HW124443   2.318   3.860   1.690  0.1485  1.0321  1.3843
 4327SOL    HW224444   2.180   3.902   1.722  0.7398  0.0291 -0.3006
 4328SOL     OW24445   0.064   0.917  10.249 -0.3836  0.5048  0.3765
 4328SOL    HW124446   0.031   0.886  10.166  0.5821  0.5548 -0.0293
 4328SOL    HW224447   0.028   0.849  10.306 -1.3172 -0.5648 -1.5256
 4329SOL     OW24448   0.783   1.875   7.898  1.2862 -0.3806 -0.1329
 4329SOL    HW124449   0.787   1.799   7.841  0.0447 -0.4239 -0.1463
 4329SOL    HW224450   0.867   1.869   7.944  1.0743 -0.9907  0.1661
 4330SOL     OW24451   1.307   3.576   8.762  0.2301 -0.1181 -0.2501
 4330SOL    HW124452   1.267   3.529   8.688 -1.0068  0.8345 -0.1749
 4330SOL    HW224453   1.255   3.544   8.835 -0.2604  2.7514  0.6279
 4331SOL     OW24454   4.154   4.512   9.346 -0.1099 -0.1646 -0.1250
 4331SOL    HW124455   4.192   4.550   9.426 -1.8308  0.5817  0.3373
 4331SOL    HW224456   4.066   4.482   9.367 -0.8673  0.0519 -2.9674
 4332SOL     OW24457   3.390   3.056  16.966  0.3415  0.3037  0.1546
 4332SOL    HW124458   3.449   3.131  16.966 -0.8089  1.2241  1.4750
 4332SOL    HW224459   3.309   3.094  16.932  0.6643 -0.0668 -1.0368
 4333SOL     OW24460   1.265   0.232  13.233  0.2800 -0.7310 -0.3860
 4333SOL    HW124461   1.259   0.284  13.153 -1.3996 -0.0170  0.2149
 4333SOL    HW224462   1.349   0.256  13.272 -1.4954  0.3779  2.7491
 4334SOL     OW24463   3.847   4.655   3.020 -0.8258 -0.5507  0.2714
 4334SOL    HW124464   3.772   4.703   3.056 -1.6431  0.0057 -2.1809
 4334SOL    HW224465   3.904   4.657   3.097 -0.8470 -2.8252  0.3311
 4335SOL     OW24466   0.637   1.964   4.833 -0.2477  0.8852 -0.8023
 4335SOL    HW124467   0.628   1.989   4.925 -1.9012 -1.0668 -0.4237
 4335SOL    HW224468   0.589   1.881   4.841  2.9465 -0.5482  3.2870
 4336SOL     OW24469   0.121   2.792   3.603 -0.3099 -0.2004 -0.7536
 4336SOL    HW124470   0.080   2.726   3.548  0.3499  1.4873 -3.2767
 4336SOL    HW224471   0.211   2.779   3.576  0.2144  1.6493  0.0758
 4337SOL     OW24472   2.118   3.646  13.315  0.1586 -0.3242  0.2739
 4337SOL    HW124473   2.117   3.642  13.220 -1.5833  0.2416  0.2642
 4337SOL    HW224474   2.023   3.645  13.328  0.1976  0.5047  0.6273
 4338SOL     OW24475   4.470   4.097   6.179  0.1915  1.0770  0.6761
 4338SOL    HW124476   4.420   4.158   6.234  1.3611  2.3715  0.2948
 4338SOL    HW224477   4.438   4.019   6.225 -1.4687  0.3503 -1.7224
 4339SOL     OW24478   0.641   3.102   7.496 -0.5564  0.1032 -0.4860
 4339SOL    HW124479   0.604   3.029   7.546  0.8904 -0.2082  0.1393
 4339SOL    HW224480   0.584   3.165   7.539 -0.4496  0.6276 -1.1228
 4340SOL     OW24481   0.266   3.315   4.279 -0.9276  0.2285  0.1383
 4340SOL    HW124482   0.305   3.352   4.200  2.0443  0.3354  1.6389
 4340SOL    HW224483   0.340   3.262   4.309 -1.2785 -0.9162 -1.0274
 4341SOL     OW24484   4.636   1.498   3.702 -0.5070 -0.3686 -0.0761
 4341SOL    HW124485   4.591   1.414   3.700  0.8245 -1.0951  0.5416
 4341SOL    HW224486   4.562   1.554   3.678  1.0884  1.2350 -1.2861
 4342SOL     OW24487   4.329   1.377   7.729  0.1173  0.0545  0.2662
 4342SOL    HW124488   4.270   1.305   7.706 -0.1005  0.4015 -0.2758
 4342SOL    HW224489   4.411   1.352   7.687 -0.2567  1.8157 -1.5262
 4343SOL     OW24490   2.309   4.621  13.429  0.2563 -0.8118 -0.1926
 4343SOL    HW124491   2.287   4.607  13.521  0.1001 -0.9579 -0.2525
 4343SOL    HW224492   2.402   4.600  13.428  0.5073  0.2953 -0.0840
 4344SOL     OW24493   4.322   4.239  11.767  0.4466  0.4875  0.1992
 4344SOL    HW124494   4.354   4.161  11.812 -0.7249  1.0631  2.0272
 4344SOL    HW224495   4.388   4.300  11.800  1.1237  0.2151 -0.6459
 4345SOL     OW24496   2.101   0.724  16.007 -0.1950  0.6059  0.3268
 4345SOL    HW124497   2.130   0.632  16.006  1.6486  1.1884  0.3501
 4345SOL    HW224498   2.056   0.728  15.922 -2.0949 -1.1501  1.2536
 4346SOL     OW24499   3.349   0.106   7.332  0.2286  0.6649  0.1852
 4346SOL    HW124500   3.429   0.157   7.321  0.3322  0.5864  0.5725
 4346SOL    HW224501   3.308   0.122   7.247  0.8314  1.8077  0.1123
 4347SOL     OW24502   1.790   0.741   7.884  0.3283 -0.2844 -0.2175
 4347SOL    HW124503   1.800   0.646   7.876 -0.8783 -0.4515  0.3574
 4347SOL    HW224504   1.872   0.755   7.932 -0.0595  0.5235  0.2117
 4348SOL     OW24505   0.457   1.015   9.199  0.0531 -0.3929 -0.0026
 4348SOL    HW124506   0.428   1.079   9.263 -1.8489 -0.2962 -0.9654
 4348SOL    HW224507   0.394   0.947   9.225  0.8362 -1.2597 -0.3369
 4349SOL     OW24508   2.764   2.178  12.018 -0.5545 -0.2322 -1.0137
 4349SOL    HW124509   2.797   2.231  11.945  0.2153  2.1028  0.9965
 4349SOL    HW224510   2.682   2.222  12.039 -0.7017 -0.9096 -0.1739
 4350SOL     OW24511   0.102   2.646   4.198 -0.5592 -0.1745 -0.1673
 4350SOL    HW124512   0.145   2.716   4.247 -0.8215 -0.0439 -0.1224
 4350SOL    HW224513   0.054   2.687   4.126 -0.7123  0.5329  0.3298
 4351SOL     OW24514   3.833   3.948   3.015  0.2327 -0.2290 -0.2088
 4351SOL    HW124515   3.782   3.897   3.078  1.3567 -1.9978 -0.7353
 4351SOL    HW224516   3.921   3.919   3.041  0.5692  1.8109  0.9479
 4352SOL     OW24517   4.258   0.390   2.636  0.0052 -0.7846 -0.5406
 4352SOL    HW124518   4.320   0.429   2.697 -1.3689  0.1665  0.2630
 4352SOL    HW224519   4.224   0.322   2.694  0.9981  0.1871  1.1751
 4353SOL     OW24520   0.464   3.971   0.607  0.1347  0.0169  0.5178
 4353SOL    HW124521   0.477   4.046   0.550  0.6921  1.0876  2.0449
 4353SOL    HW224522   0.446   3.905   0.540  1.5052  0.1615 -0.0004
 4354SOL     OW24523   4.386   3.648   0.486 -0.3065  0.0735 -0.0808
 4354SOL    HW124524   4.462   3.689   0.446 -0.7050  2.1764  1.3102
 4354SOL    HW224525   4.433   3.588   0.544 -2.6261 -0.8029  0.9203
 4355SOL     OW24526   3.186   3.779   1.526  0.5114  0.5001  0.6973
 4355SOL    HW124527   3.276   3.812   1.526  0.4519  0.6648  0.8251
 4355SOL    HW224528   3.194   3.685   1.510 -1.3477  0.2127  1.3832
 4356SOL     OW24529   2.201   0.697  17.326 -0.5481 -0.2078 -0.2301
 4356SOL    HW124530   2.142   0.702  17.401  0.8437  2.2684  0.7385
 4356SOL    HW224531   2.275   0.651  17.367 -0.1099  0.8740  0.2057
 4357SOL     OW24532   0.708   3.269  14.482 -0.1013 -0.2632 -0.1761
 4357SOL    HW124533   0.678   3.319  14.406 -0.1867  1.1834  0.8139
 4357SOL    HW224534   0.654   3.192  14.469 -0.4396 -0.3368  1.6885
 4358SOL     OW24535   2.540   0.637  17.267  0.0653 -0.3027 -0.2693
 4358SOL    HW124536   2.563   0.618  17.176  2.3879  3.1125 -0.3856
 4358SOL    HW224537   2.516   0.730  17.271  0.5844 -0.3077  3.0511
 4359SOL     OW24538   2.305   1.765  15.925 -0.0063 -0.3621  0.5139
 4359SOL    HW124539   2.264   1.849  15.904  0.0058 -0.4328  0.2135
 4359SOL    HW224540   2.349   1.744  15.843 -1.9638  0.9881 -0.8566
 4360SOL     OW24541   4.308   3.384   4.598  0.5174 -0.5806  0.0102
 4360SOL    HW124542   4.367   3.309   4.587  0.3221 -0.4958 -1.6007
 4360SOL    HW224543   4.374   3.441   4.639  1.4275 -0.7815 -1.1545
 4361SOL     OW24544   0.916   1.792  11.908  0.1401 -0.3265  0.3527
 4361SOL    HW124545   0.825   1.802  11.879 -0.0075 -1.1203  0.5186
 4361SOL    HW224546   0.941   1.745  11.829 -1.0399 -0.9745  0.3564
 4362SOL     OW24547   0.430   1.784   9.359 -0.2494 -0.5391  0.0048
 4362SOL    HW124548   0.413   1.818   9.271  2.2271  0.5648 -0.0445
 4362SOL    HW224549   0.513   1.737   9.350 -0.1106 -0.3953  0.5307
 4363SOL     OW24550   3.561   3.059  13.020 -0.2057  0.4423 -0.1599
 4363SOL    HW124551   3.624   3.002  12.974 -0.3428 -0.1250  0.3556
 4363SOL    HW224552   3.565   3.012  13.103 -2.2845  0.5551  0.0048
 4364SOL     OW24553   0.757   3.298   9.654 -0.0603  0.1153  0.6535
 4364SOL    HW124554   0.703   3.230   9.695 -0.7383 -0.6598 -1.5367
 4364SOL    HW224555   0.839   3.286   9.701 -0.0052  0.8374  0.7423
 4365SOL     OW24556   2.568   4.436  12.360 -0.4779 -0.0101 -0.5693
 4365SOL    HW124557   2.554   4.531  12.363  1.9386  0.3178 -0.0656
 4365SOL    HW224558   2.641   4.428  12.422  0.6755  0.4061 -1.8971
 4366SOL     OW24559   0.807   1.696   6.912 -0.1950 -0.0642 -0.2288
 4366SOL    HW124560   0.755   1.769   6.947  0.7300 -0.8223  2.7737
 4366SOL    HW224561   0.742   1.625   6.918 -0.7698  0.3606 -1.4673
 4367SOL     OW24562   0.743   3.770   8.394  0.1691  0.4510  0.0919
 4367SOL    HW124563   0.783   3.837   8.449  0.4169 -1.0884  1.7670
 4367SOL    HW224564   0.704   3.817   8.320 -0.9513  0.4367  0.6743
 4368SOL     OW24565   1.658   0.182   3.433  0.1766  0.1045 -0.1144
 4368SOL    HW124566   1.698   0.118   3.492 -1.2698 -0.2216  0.5347
 4368SOL    HW224567   1.637   0.254   3.492 -0.5370 -0.4332  0.3005
 4369SOL     OW24568   4.101   1.161  10.541  0.4748  0.1743  0.2389
 4369SOL    HW124569   4.037   1.119  10.485 -1.0882  1.0560  1.3666
 4369SOL    HW224570   4.103   1.254  10.517 -0.7789  0.3047  0.6718
 4370SOL     OW24571   0.131   0.551   2.873 -0.5383  0.3437  0.2496
 4370SOL    HW124572   0.199   0.484   2.870  0.7398  1.6501  0.0578
 4370SOL    HW224573   0.104   0.550   2.781 -0.0075  1.5098  0.0835
 4371SOL     OW24574   1.328   2.394   4.490  0.1251 -0.0859 -0.2143
 4371SOL    HW124575   1.268   2.345   4.547 -0.0234  0.6948  0.2962
 4371SOL    HW224576   1.403   2.335   4.506  2.0936  2.2508 -0.8005
 4372SOL     OW24577   3.210   2.073   2.508  0.4463  0.3708  0.1432
 4372SOL    HW124578   3.120   2.041   2.509  1.2051 -1.8102 -0.3261
 4372SOL    HW224579   3.241   2.052   2.419  0.5818  1.0788  0.0220
 4373SOL     OW24580   1.215   0.617   7.562  0.4740 -0.5116  0.2263
 4373SOL    HW124581   1.287   0.558   7.584 -0.3397 -1.5799  0.0413
 4373SOL    HW224582   1.193   0.650   7.649 -2.6957  1.3842 -1.3222
 4374SOL     OW24583   1.512   3.590   6.946 -0.3467  0.1733 -0.0854
 4374SOL    HW124584   1.424   3.579   6.981 -1.0510  0.0762 -1.8670
 4374SOL    HW224585   1.531   3.518   6.886  1.7292  1.2964 -0.8106
 4375SOL     OW24586   2.950   2.812   6.435  0.4374  0.4236  0.3764
 4375SOL    HW124587   2.920   2.756   6.507  0.9049 -1.0707 -0.5910
 4375SOL    HW224588   2.947   2.895   6.483  0.1300 -0.1038  1.2826
 4376SOL     OW24589   2.423   0.660  11.555  0.0803  0.1938 -0.1314
 4376SOL    HW124590   2.363   0.679  11.483  0.0360 -0.4937 -0.2788
 4376SOL    HW224591   2.505   0.639  11.509  0.6749  1.4559  0.3581
 4377SOL     OW24592   1.278   0.252   8.807 -0.4153  0.2627 -0.0002
 4377SOL    HW124593   1.220   0.296   8.869 -0.2915 -1.1853  1.1580
 4377SOL    HW224594   1.300   0.177   8.862  1.3738  0.2593 -0.7060
 4378SOL     OW24595   2.098   3.437   1.279  0.1570  0.2768 -0.7863
 4378SOL    HW124596   2.171   3.379   1.258  0.5752 -0.0739  1.7107
 4378SOL    HW224597   2.107   3.501   1.208  1.5372  1.0827  0.1248
 4379SOL     OW24598   0.246   1.850   4.846  0.0753 -0.1219 -0.4478
 4379SOL    HW124599   0.269   1.865   4.754 -0.7307  0.6503 -0.5210
 4379SOL    HW224600   0.163   1.804   4.837 -0.7940  1.0665  1.7083
 4380SOL     OW24601   4.614   0.196   3.748  0.4727  0.3291  0.7636
 4380SOL    HW124602   4.606   0.193   3.843 -0.4540 -3.4234  0.6002
 4380SOL    HW224603   4.531   0.240   3.729 -0.4793 -2.6468 -1.9840
 4381SOL     OW24604   0.958   2.641   6.480  0.5739 -0.0998  0.7475
 4381SOL    HW124605   0.910   2.682   6.408 -0.3771  0.8406  1.8962
 4381SOL    HW224606   1.048   2.667   6.460  0.3376  0.7941  0.8229
 4382SOL     OW24607   0.456   4.046   3.578  0.7042 -0.1873 -0.0198
 4382SOL    HW124608   0.474   3.997   3.658  2.7678 -2.1158 -1.6895
 4382SOL    HW224609   0.365   4.067   3.597  0.9865  0.7723  0.2954
 4383SOL     OW24610   0.033   0.495   4.781 -0.4858  0.0490  0.5387
 4383SOL    HW124611   0.020   0.588   4.759  1.0353  0.3484  0.8630
 4383SOL    HW224612   0.103   0.481   4.716 -2.2449 -1.5645 -1.0039
 4384SOL     OW24613   4.192   1.797  10.864 -0.6126  0.2148  0.3242
 4384SOL    HW124614   4.195   1.708  10.901  0.2985 -0.6535 -1.7970
 4384SOL    HW224615   4.097   1.799  10.866 -0.6653 -1.4032 -0.0629
 4385SOL     OW24616   3.609   2.360   8.404 -0.0475 -0.0656 -0.9218
 4385SOL    HW124617   3.689   2.353   8.353  1.9344 -1.9568  2.5065
 4385SOL    HW224618   3.626   2.283   8.457 -0.3455 -0.5546 -1.5410
 4386SOL     OW24619   0.326   3.658   2.463 -0.3224  0.0034 -0.7115
 4386SOL    HW124620   0.333   3.583   2.404  1.5536 -1.5365  1.4581
 4386SOL    HW224621   0.296   3.604   2.536  1.6999  0.3091  0.3496
 4387SOL     OW24622   0.763   0.824  14.581 -0.4971 -0.3472 -0.0815
 4387SOL    HW124623   0.842   0.777  14.552  0.0323  0.0070  0.7958
 4387SOL    HW224624   0.706   0.753  14.610  1.2042 -1.2423  1.0528
 4388SOL     OW24625   0.303   0.045   8.713  0.4004 -0.1316  0.4240
 4388SOL    HW124626   0.329   0.006   8.629  0.0523  2.0088 -0.6535
 4388SOL    HW224627   0.234   0.100   8.677 -0.2731 -1.7687 -0.8243
 4389SOL     OW24628   3.602   1.209   3.256 -0.0427 -0.2231 -0.4133
 4389SOL    HW124629   3.676   1.260   3.289  0.0858 -1.5378  1.3300
 4389SOL    HW224630   3.638   1.121   3.266 -1.0939 -0.7646 -1.4628
 4390SOL     OW24631   4.019   0.550   2.324 -0.0278 -0.1538  0.4273
 4390SOL    HW124632   4.090   0.600   2.362 -2.0346  2.4853  0.6988
 4390SOL    HW224633   4.013   0.467   2.373 -2.1889 -0.4777 -0.3743
 4391SOL     OW24634   2.233   1.969   3.566 -0.6994  0.1622 -0.2080
 4391SOL    HW124635   2.190   1.908   3.625 -1.2574  0.0361 -0.7408
 4391SOL    HW224636   2.320   1.942   3.596 -1.9360 -2.1894  1.2074
 4392SOL     OW24637   2.590   0.993   3.204 -0.0442 -0.4447 -0.4715
 4392SOL    HW124638   2.651   1.031   3.267  0.5071 -0.6093 -0.9044
 4392SOL    HW224639   2.633   1.013   3.121  1.3296  1.0745  0.6025
 4393SOL     OW24640   0.916   4.033  11.186  0.1320 -0.0698 -0.4074
 4393SOL    HW124641   0.959   4.110  11.150 -3.4618  2.2520  0.2207
 4393SOL    HW224642   0.866   4.011  11.107  0.1986 -0.8677 -0.2360
 4394SOL     OW24643   4.485   1.694   4.724  0.2360 -0.7177 -0.2554
 4394SOL    HW124644   4.515   1.611   4.687 -1.5402 -1.9868  1.1103
 4394SOL    HW224645   4.421   1.654   4.782  1.6266 -1.6243  0.6616
 4395SOL     OW24646   1.138   2.008   7.336  0.3013 -0.1483  0.6842
 4395SOL    HW124647   1.104   1.955   7.263 -1.1542 -0.6988  1.7513
 4395SOL    HW224648   1.151   2.090   7.288  2.2309 -1.2178 -0.6182
 4396SOL     OW24649   2.803   2.491  16.640  0.3860  0.3468  0.1946
 4396SOL    HW124650   2.871   2.514  16.703  0.3145  0.2745  0.2979
 4396SOL    HW224651   2.720   2.493  16.688 -0.0520  0.4864 -0.5609
 4397SOL     OW24652   0.055   3.776   3.788 -0.0688  0.1509 -0.1048
 4397SOL    HW124653   0.084   3.796   3.698  0.5604 -0.9306 -0.1405
 4397SOL    HW224654   0.139   3.751   3.827  0.2067 -0.7731 -1.2894
 4398SOL     OW24655   3.434   3.539   4.641  0.7252 -0.1031  0.5159
 4398SOL    HW124656   3.370   3.472   4.664  0.3347 -0.3105 -1.1693
 4398SOL    HW224657   3.393   3.617   4.679 -2.4225 -1.6415  0.2705
 4399SOL     OW24658   4.246   0.323   8.736 -0.4744 -0.3030 -0.3443
 4399SOL    HW124659   4.308   0.358   8.672 -0.2678  0.4979  0.2946
 4399SOL    HW224660   4.306   0.281   8.798 -1.6016  0.1282  1.0460
 4400SOL     OW24661   1.012   4.541   8.096  0.2132  0.1387  0.2201
 4400SOL    HW124662   0.969   4.626   8.106  0.1855  0.1166  0.2797
 4400SOL    HW224663   1.089   4.565   8.148 -0.5772  0.2751  1.3181
 4401SOL     OW24664   1.443   4.177   2.426 -0.3752 -0.8793  0.0734
 4401SOL    HW124665   1.392   4.224   2.360  0.3652  0.8554  0.7257
 4401SOL    HW224666   1.398   4.093   2.420 -1.4392 -0.1547 -2.3978
 4402SOL     OW24667   1.681   1.544   5.274 -0.1670 -0.1652  0.8782
 4402SOL    HW124668   1.664   1.497   5.356 -0.3336  2.0949  2.1412
 4402SOL    HW224669   1.771   1.570   5.293 -0.1562 -0.6288  1.4640
 4403SOL     OW24670   1.875   0.353   0.935 -0.4682 -0.2838 -0.3285
 4403SOL    HW124671   1.938   0.281   0.936  2.3935  2.2324 -0.9412
 4403SOL    HW224672   1.852   0.349   1.028  1.4568 -0.4073  0.1333
 4404SOL     OW24673   0.812   2.863   6.611  0.0130 -0.9440  0.2356
 4404SOL    HW124674   0.834   2.822   6.527  0.3561 -0.4189  0.0675
 4404SOL    HW224675   0.811   2.785   6.667  3.9505 -1.6780 -0.7186
 4405SOL     OW24676   4.470   4.194   9.134 -0.6991  0.2821 -0.2320
 4405SOL    HW124677   4.466   4.276   9.184 -1.2000  1.2730 -1.8892
 4405SOL    HW224678   4.553   4.209   9.090 -1.3311  1.2122 -1.1198
 4406SOL     OW24679   3.194   0.043  15.684  0.3858  0.5248 -0.0055
 4406SOL    HW124680   3.135   0.115  15.662  1.0118  0.4410 -1.9847
 4406SOL    HW224681   3.231   0.008  15.602  4.5023  1.1386  1.5575
 4407SOL     OW24682   1.717   2.416   1.260  0.0685  0.2297  0.1312
 4407SOL    HW124683   1.698   2.397   1.351  0.9917  0.3758  0.3613
 4407SOL    HW224684   1.810   2.391   1.260  0.4259  1.5580  0.9122
 4408SOL     OW24685   3.931   0.447   0.745  0.5222 -0.1633  0.2087
 4408SOL    HW124686   4.012   0.478   0.703 -1.3520  2.5302 -1.4748
 4408SOL    HW224687   3.960   0.431   0.834 -1.7026  0.5134  1.0440
 4409SOL     OW24688   4.175   0.753   0.471 -0.7626  0.3791  0.7050
 4409SOL    HW124689   4.120   0.816   0.425 -2.2667 -1.0531  0.5619
 4409SOL    HW224690   4.128   0.745   0.554 -1.3975  0.0432  0.3075
 4410SOL     OW24691   1.913   0.065  16.465 -0.6308  0.0635 -0.0451
 4410SOL    HW124692   1.829   0.028  16.437  0.2783  0.0806 -2.7767
 4410SOL    HW224693   1.887   0.151  16.499 -0.6383 -0.4521  1.2335
 4411SOL     OW24694   2.624   1.608   3.101  1.1105  0.1257 -0.3202
 4411SOL    HW124695   2.692   1.643   3.043 -1.6159  1.4231 -2.7172
 4411SOL    HW224696   2.665   1.528   3.134  0.5134  0.0954  0.3479
 4412SOL     OW24697   3.184   1.332   4.945  0.0587  0.0290 -0.6592
 4412SOL    HW124698   3.188   1.244   4.983 -2.7726 -0.2611 -1.0583
 4412SOL    HW224699   3.256   1.366   4.997 -0.0462 -2.2340  0.9820
 4413SOL     OW24700   1.057   1.447   2.391  0.6146 -0.6053  0.2457
 4413SOL    HW124701   0.966   1.468   2.410  0.7197  0.5310 -0.5328
 4413SOL    HW224702   1.071   1.530   2.346 -0.5689 -0.3634  0.3151
 4414SOL     OW24703   3.416   4.315   7.865  0.0943  0.3637  0.2319
 4414SOL    HW124704   3.459   4.360   7.792 -0.3855  0.9621  0.3194
 4414SOL    HW224705   3.349   4.379   7.888 -0.8437  0.0412 -1.5715
 4415SOL     OW24706   4.672   2.217   3.387  0.1277  0.0168 -0.2566
 4415SOL    HW124707   0.026   2.209   3.443 -0.3715 -1.6363  0.2025
 4415SOL    HW224708   4.689   2.183   3.299  0.9614 -1.1329  0.3490
 4416SOL     OW24709   2.376   2.926   8.450  0.0243 -0.3424 -0.1931
 4416SOL    HW124710   2.463   2.965   8.459  0.9179 -1.9809 -1.9011
 4416SOL    HW224711   2.390   2.838   8.486 -2.6083 -0.6085  0.1733
 4417SOL     OW24712   1.695   3.455  12.224  0.2522 -0.0583  0.2444
 4417SOL    HW124713   1.734   3.384  12.274  0.7262  0.2785  0.3572
 4417SOL    HW224714   1.758   3.525  12.241 -1.1926  1.4698 -0.7090
 4418SOL     OW24715   0.690   4.036  15.497  0.1218  0.0337  0.1588
 4418SOL    HW124716   0.718   3.953  15.535 -0.5898 -0.1281  0.3284
 4418SOL    HW224717   0.654   3.997  15.417 -0.9210  1.4181 -0.0407
 4419SOL     OW24718   3.800   3.147   4.699 -0.4378  0.2520 -0.1319
 4419SOL    HW124719   3.776   3.062   4.661  0.8426  0.3432 -1.1183
 4419SOL    HW224720   3.757   3.216   4.648 -0.4470 -0.9172 -1.7052
 4420SOL     OW24721   4.035   3.958   5.946 -0.0375 -0.1494  0.5722
 4420SOL    HW124722   3.971   3.985   6.012 -1.3344  1.3600 -1.2897
 4420SOL    HW224723   4.111   4.015   5.953 -1.9237  2.1597  1.9829
 4421SOL     OW24724   4.512   1.969   7.210 -0.2894 -0.0614 -0.0686
 4421SOL    HW124725   4.452   1.999   7.278  1.1958  1.1218  0.7116
 4421SOL    HW224726   4.483   1.879   7.192  2.5205 -0.9329 -0.2598
 4422SOL     OW24727   2.667   2.107   5.459  0.0291 -0.1269  0.1339
 4422SOL    HW124728   2.597   2.148   5.409  1.1583  0.7853 -0.6749
 4422SOL    HW224729   2.740   2.168   5.446 -1.3787  1.9789  2.0991
 4423SOL     OW24730   1.939   0.748   0.481 -0.0217 -0.2247  0.1954
 4423SOL    HW124731   1.892   0.750   0.565  0.1694  1.1601  0.2681
 4423SOL    HW224732   1.939   0.841   0.459  1.1034 -0.2349  0.1318
 4424SOL     OW24733   2.745   2.736   4.898 -0.5790 -0.3810 -0.1637
 4424SOL    HW124734   2.658   2.742   4.859 -1.0439 -1.5017  0.7091
 4424SOL    HW224735   2.752   2.827   4.928 -1.3406 -0.4432  0.2041
 4425SOL     OW24736   0.865   2.658  12.841 -0.7146 -0.3873 -0.0191
 4425SOL    HW124737   0.829   2.665  12.929  1.2639  0.1250  0.7412
 4425SOL    HW224738   0.796   2.675  12.777 -0.4316  1.1694  0.0839
 4426SOL     OW24739   0.517   0.295   5.050 -0.2906 -0.1496  0.0857
 4426SOL    HW124740   0.457   0.221   5.054 -0.7906  0.1952 -0.8684
 4426SOL    HW224741   0.541   0.300   4.957  0.1908 -1.4421  0.1432
 4427SOL     OW24742   0.953   4.332   9.048 -0.1161  0.0962  0.0817
 4427SOL    HW124743   0.957   4.303   8.957 -0.1761 -4.0022  1.3842
 4427SOL    HW224744   0.946   4.426   9.031 -0.3287  0.4871  2.2558
 4428SOL     OW24745   0.718   1.057  14.004  0.2002  0.3125  0.1245
 4428SOL    HW124746   0.691   0.967  13.987 -1.1250  1.0163 -1.4023
 4428SOL    HW224747   0.631   1.089  14.029  0.6900  1.6724  0.1256
 4429SOL     OW24748   3.102   1.099   8.131  0.7218 -0.7125  0.0918
 4429SOL    HW124749   3.128   1.191   8.138 -0.3019 -0.5504  1.8166
 4429SOL    HW224750   3.179   1.048   8.155  1.3474  0.7240  1.1092
 4430SOL     OW24751   4.162   2.006   8.809  0.3370  0.1842 -0.7648
 4430SOL    HW124752   4.194   2.031   8.723 -0.7441  1.6096 -0.7555
 4430SOL    HW224753   4.208   2.074   8.858 -2.1697  0.6633  0.9234
 4431SOL     OW24754   2.163   2.778  15.552 -0.3989  0.5051 -0.3890
 4431SOL    HW124755   2.182   2.752  15.462  1.6421  0.1054  0.1570
 4431SOL    HW224756   2.239   2.836  15.565 -0.2945  0.2313  0.2016
 4432SOL     OW24757   4.157   0.889   7.352 -0.2435  0.1915 -0.0922
 4432SOL    HW124758   4.095   0.954   7.318 -2.8491 -1.1177  2.2096
 4432SOL    HW224759   4.103   0.834   7.408 -0.4341 -0.9920 -1.4270
 4433SOL     OW24760   0.373   1.865   7.803 -0.1884  0.0566  0.2496
 4433SOL    HW124761   0.368   1.921   7.880 -0.0356 -0.5503  0.7012
 4433SOL    HW224762   0.430   1.793   7.828  0.6698  0.8885  0.6851
 4434SOL     OW24763   3.727   3.996   7.776  0.4191 -0.2873  0.4206
 4434SOL    HW124764   3.817   3.971   7.757  1.0568  1.4365  1.1962
 4434SOL    HW224765   3.722   4.079   7.728 -1.3025 -1.1511 -0.9235
 4435SOL     OW24766   2.056   4.458   0.826  0.4229 -0.5806 -0.2560
 4435SOL    HW124767   2.041   4.379   0.773  4.3980 -2.8217  2.0083
 4435SOL    HW224768   2.068   4.523   0.756 -1.2715 -3.0506 -2.8617
 4436SOL     OW24769   0.339   1.628   5.854  0.3157  0.4079 -0.0657
 4436SOL    HW124770   0.291   1.586   5.926  1.2405 -0.1948  0.2010
 4436SOL    HW224771   0.280   1.700   5.829  1.0151  0.2792 -2.0666
 4437SOL     OW24772   3.073   0.165   4.863  0.2002 -0.0775  0.0446
 4437SOL    HW124773   3.068   0.225   4.789 -3.0228 -0.7626 -0.2665
 4437SOL    HW224774   2.987   0.124   4.852  1.1585 -2.1785  0.3244
 4438SOL     OW24775   3.776   1.763  15.070  0.6889 -0.5451  0.0725
 4438SOL    HW124776   3.842   1.729  15.010  1.2448  3.4708 -1.6066
 4438SOL    HW224777   3.704   1.701  15.056  1.0652 -0.6943 -1.1731
 4439SOL     OW24778   2.831   0.024   0.082 -0.3184 -0.7526 -0.4714
 4439SOL    HW124779   2.847   4.698   0.163 -0.7397 -0.1611 -0.0297
 4439SOL    HW224780   2.891   4.698   0.025 -1.0219 -3.4417  1.0873
 4440SOL     OW24781   0.713   0.812  13.569 -0.5370 -0.0441 -0.4084
 4440SOL    HW124782   0.732   0.846  13.656 -1.6278  0.2137 -0.2695
 4440SOL    HW224783   0.698   0.899  13.534 -0.9326  0.7232  1.7013
 4441SOL     OW24784   1.053   3.570   3.148  0.1621  0.0372  0.4857
 4441SOL    HW124785   0.997   3.605   3.078 -1.6314  0.5717  2.2074
 4441SOL    HW224786   1.043   3.635   3.217  0.8709 -0.8491  1.4073
 4442SOL     OW24787   2.191   2.875   3.209  0.6621  0.0494 -0.0557
 4442SOL    HW124788   2.224   2.818   3.139  0.6897 -0.6570  0.5392
 4442SOL    HW224789   2.272   2.918   3.235 -1.0859  2.7319  1.0132
 4443SOL     OW24790   4.221   4.537   6.208 -0.5418  0.2487  0.2471
 4443SOL    HW124791   4.300   4.571   6.250  1.3008 -1.4821 -1.7952
 4443SOL    HW224792   4.202   4.603   6.142  2.3766  1.7684  0.9447
 4444SOL     OW24793   2.501   3.365   5.273 -0.5122  0.3462 -0.0476
 4444SOL    HW124794   2.491   3.405   5.360  0.1856 -1.0509  0.6671
 4444SOL    HW224795   2.411   3.334   5.261 -0.6126  1.4779 -2.2783
 4445SOL     OW24796   1.903   4.525  17.527  0.6442 -0.3990 -0.1333
 4445SOL    HW124797   1.851   4.521  17.447 -0.1544 -1.1199  0.4164
 4445SOL    HW224798   1.950   4.443  17.517 -0.9876 -0.9185 -3.5142
 4446SOL     OW24799   2.184   0.359  13.217  0.4734  0.6880  0.0696
 4446SOL    HW124800   2.248   0.407  13.270 -0.0312  1.2706  0.1489
 4446SOL    HW224801   2.148   0.427  13.161 -2.1425  0.1667  1.0928
 4447SOL     OW24802   3.365   3.945   5.306 -0.3477 -0.1224  0.2855
 4447SOL    HW124803   3.373   3.864   5.256  0.9077 -0.3044  0.7810
 4447SOL    HW224804   3.283   3.986   5.282 -0.9877 -0.0533  2.5382
 4448SOL     OW24805   3.852   3.971  13.539 -0.5124 -0.6096  0.1679
 4448SOL    HW124806   3.833   4.033  13.468  3.3824 -0.7472 -0.9502
 4448SOL    HW224807   3.916   4.006  13.600 -2.5428 -0.0497  1.9850
 4449SOL     OW24808   4.328   4.312   7.714 -0.3839  0.5794 -0.0049
 4449SOL    HW124809   4.288   4.386   7.759  0.7808  1.2061 -0.0042
 4449SOL    HW224810   4.403   4.350   7.667 -0.3791 -2.8800 -2.8333
 4450SOL     OW24811   1.817   2.438   1.945 -0.2228 -0.2410  0.3160
 4450SOL    HW124812   1.905   2.416   1.914 -0.6078  0.2628 -1.1181
 4450SOL    HW224813   1.807   2.364   2.005 -0.0271 -1.6662 -1.3920
 4451SOL     OW24814   1.109   2.679   7.422  0.3034 -0.8017 -0.6448
 4451SOL    HW124815   1.168   2.604   7.426  0.8216 -0.3421  0.5948
 4451SOL    HW224816   1.105   2.704   7.330  1.2116 -0.4296 -0.5916
 4452SOL     OW24817   1.198   0.024   9.688  0.2058  0.4570  0.2038
 4452SOL    HW124818   1.173   0.047   9.599  1.8652 -0.0606 -0.4006
 4452SOL    HW224819   1.248   4.670   9.661  0.3874  0.4536  0.5583
 4453SOL     OW24820   2.937   2.533   4.898  0.3806  0.2364 -0.0284
 4453SOL    HW124821   3.022   2.559   4.934  0.3728  0.0242  0.1424
 4453SOL    HW224822   2.889   2.612   4.923 -1.1384 -0.9119  0.6148
 4454SOL     OW24823   2.289   0.120  12.409  0.1581  0.6088  0.4542
 4454SOL    HW124824   2.215   0.146  12.464 -0.5531 -0.1415 -0.1542
 4454SOL    HW224825   2.285   0.028  12.436 -1.4477  0.2001 -1.1464
 4455SOL     OW24826   2.119   0.329   7.564  0.0244 -0.2032  0.6737
 4455SOL    HW124827   2.141   0.263   7.630 -1.8010 -0.6276  0.8464
 4455SOL    HW224828   2.169   0.312   7.484 -0.0852  0.3520  0.4904
 4456SOL     OW24829   3.618   0.633   7.823 -0.1168 -0.3194  0.3314
 4456SOL    HW124830   3.528   0.665   7.811 -0.2833 -0.1008  2.1402
 4456SOL    HW224831   3.605   0.550   7.869 -1.0254 -0.1872  0.3278
 4457SOL     OW24832   2.063   0.205  14.447 -0.8353 -0.4658 -0.3855
 4457SOL    HW124833   2.023   0.146  14.383 -0.3704  0.3514 -1.4401
 4457SOL    HW224834   2.045   0.158  14.528  2.2478 -0.9173  0.0361
 4458SOL     OW24835   1.284   2.966   5.364  0.0760 -0.1071 -0.0773
 4458SOL    HW124836   1.212   2.933   5.311 -1.6005  0.7537  1.6723
 4458SOL    HW224837   1.232   2.982   5.442 -1.0072  0.5458 -0.9307
 4459SOL     OW24838   1.008   2.122   1.727  0.2437  0.3394  0.3759
 4459SOL    HW124839   1.068   2.167   1.667  2.8089 -0.4796  2.3356
 4459SOL    HW224840   1.017   2.170   1.809  1.0092  0.7323  0.0619
 4460SOL     OW24841   0.566   3.645  10.971  0.4945 -0.1516 -0.1826
 4460SOL    HW124842   0.505   3.711  11.003 -0.8183 -1.2446 -0.4045
 4460SOL    HW224843   0.527   3.559  10.985  0.0964  0.2896  1.4157
 4461SOL     OW24844   0.359   0.718   6.392  0.4208  0.4049  0.3804
 4461SOL    HW124845   0.313   0.783   6.445 -0.3425  0.4608 -0.3594
 4461SOL    HW224846   0.343   0.642   6.449  0.4504  0.7124  0.7976
 4462SOL     OW24847   4.593   0.978   2.994  0.7839 -0.2034  0.2074
 4462SOL    HW124848   4.540   1.053   3.022 -1.3059  0.1524 -4.7800
 4462SOL    HW224849   4.670   0.994   3.048  0.9560 -0.3174 -0.0026
 4463SOL     OW24850   1.359   3.109  14.999  0.2382  0.0358 -0.3632
 4463SOL    HW124851   1.272   3.117  14.960 -0.6369  1.5724  1.9203
 4463SOL    HW224852   1.400   3.196  14.999 -0.1509  0.2227  1.3800
 4464SOL     OW24853   3.191   2.896   8.525  0.0692  0.6197  0.2594
 4464SOL    HW124854   3.229   2.866   8.608  0.1701  0.4857  0.1639
 4464SOL    HW224855   3.164   2.985   8.548 -0.6822 -0.3287  3.1650
 4465SOL     OW24856   3.547   1.434   8.585  0.8453 -0.6489 -0.2167
 4465SOL    HW124857   3.546   1.388   8.669 -0.6453 -1.0700 -0.4501
 4465SOL    HW224858   3.453   1.447   8.569  0.9253  1.8984  1.5433
 4466SOL     OW24859   3.269   4.392   6.314 -0.1202  0.2203 -0.2963
 4466SOL    HW124860   3.238   4.386   6.223 -3.4495  0.7657  0.8104
 4466SOL    HW224861   3.286   4.302   6.338 -0.7425 -0.0973 -1.0104
 4467SOL     OW24862   2.769   2.820  12.038  0.4787  0.0613  0.0621
 4467SOL    HW124863   2.715   2.895  12.016  0.1788 -0.3528 -0.6114
 4467SOL    HW224864   2.810   2.845  12.120 -0.4950  0.4745  0.4166
 4468SOL     OW24865   2.593   2.184   5.010 -0.0203  0.2831 -0.6350
 4468SOL    HW124866   2.622   2.250   5.073 -1.8608  0.5183 -0.0600
 4468SOL    HW224867   2.673   2.185   4.957 -0.2986 -0.3680 -1.0739
 4469SOL     OW24868   3.495   2.251   0.457 -0.1889  0.0080 -0.5245
 4469SOL    HW124869   3.507   2.302   0.377  0.5001 -1.4949 -1.3766
 4469SOL    HW224870   3.407   2.216   0.440  0.2054 -2.3537  2.3378
 4470SOL     OW24871   0.330   0.613   4.644  0.2967 -0.1737 -0.6278
 4470SOL    HW124872   0.319   0.665   4.724  1.5320  0.3055 -0.7705
 4470SOL    HW224873   0.404   0.662   4.610 -2.1575  2.6851 -1.8572
 4471SOL     OW24874   0.789   1.248   3.688  0.2171  0.2270 -0.7162
 4471SOL    HW124875   0.776   1.201   3.606  1.9859  0.5997 -1.2039
 4471SOL    HW224876   0.883   1.248   3.706  0.0861  1.7267  0.0373
 4472SOL     OW24877   0.320   0.089   2.974  0.4617 -0.5325 -0.2741
 4472SOL    HW124878   0.231   0.071   2.944  0.6215 -1.3386 -0.2717
 4472SOL    HW224879   0.356   0.001   2.984  1.4449 -0.1645 -0.5811
 4473SOL     OW24880   0.001   2.865  16.658 -0.0898  0.0559  0.4326
 4473SOL    HW124881   0.009   2.878  16.752 -0.6902  1.8194  0.2286
 4473SOL    HW224882   4.720   2.957  16.633 -2.6615 -0.3841 -0.7917
 4474SOL     OW24883   1.197   1.660  16.072  0.1722  0.2390 -0.2907
 4474SOL    HW124884   1.275   1.674  16.019  1.3154  1.1645  1.6485
 4474SOL    HW224885   1.231   1.700  16.152  1.1048 -1.3050  0.1020
 4475SOL     OW24886   2.599   3.074  10.952 -0.1523  0.1006  0.3043
 4475SOL    HW124887   2.660   3.130  11.000  1.4691 -2.3016  1.0690
 4475SOL    HW224888   2.614   2.983  10.978 -2.6977 -1.2218 -2.8184
 4476SOL     OW24889   3.763   1.793   7.519  0.2256  0.8101 -0.1517
 4476SOL    HW124890   3.730   1.792   7.609  0.9486 -0.7961  0.1083
 4476SOL    HW224891   3.838   1.853   7.521  2.6706 -2.1423 -1.5580
 4477SOL     OW24892   4.263   4.526   7.329 -0.6699 -0.3681 -0.0007
 4477SOL    HW124893   4.210   4.448   7.311 -0.0608 -0.6579 -0.5665
 4477SOL    HW224894   4.258   4.538   7.423  0.1686 -1.9599  0.2518
 4478SOL     OW24895   2.468   1.393   4.634 -0.1242 -0.4719 -0.1523
 4478SOL    HW124896   2.420   1.372   4.714  1.2289 -0.3247  0.6953
 4478SOL    HW224897   2.510   1.309   4.614  0.4805 -0.4399  0.9957
 4479SOL     OW24898   0.379   0.565   2.264  0.2391 -0.2586  0.5841
 4479SOL    HW124899   0.342   0.506   2.329 -1.7920 -0.3388 -0.6618
 4479SOL    HW224900   0.423   0.631   2.317 -1.1353  0.3962  0.8936
 4480SOL     OW24901   0.604   4.069  10.834 -0.3824 -0.3573 -1.0469
 4480SOL    HW124902   0.518   4.048  10.798 -0.0423 -0.5279 -1.7481
 4480SOL    HW224903   0.653   4.095  10.757  1.4065 -0.4114  0.0749
 4481SOL     OW24904   4.245   2.856  11.892 -0.3310  0.1345 -0.7327
 4481SOL    HW124905   4.203   2.772  11.910  0.7734 -0.4636 -0.9323
 4481SOL    HW224906   4.294   2.876  11.971  2.0979 -1.2229 -1.9082
 4482SOL     OW24907   3.114   0.351   7.458 -0.0714 -0.0621  0.3710
 4482SOL    HW124908   3.022   0.334   7.436 -0.1511  0.4844  0.2699
 4482SOL    HW224909   3.150   0.390   7.378 -2.9904  2.9127  0.4614
 4483SOL     OW24910   0.739   3.716   5.226  0.3509 -0.0863  0.1470
 4483SOL    HW124911   0.687   3.724   5.306  0.4537 -1.9823  0.4000
 4483SOL    HW224912   0.828   3.707   5.263  0.4276 -1.4984 -0.3798
 4484SOL     OW24913   1.849   4.719  14.949 -0.5209 -0.3286 -0.0332
 4484SOL    HW124914   1.833   4.664  15.026 -1.3159 -1.8937 -1.3111
 4484SOL    HW224915   1.879   0.076  14.992  0.6456 -0.3967 -0.7058
 4485SOL     OW24916   0.692   3.410  14.772  0.3480 -0.2871  0.2117
 4485SOL    HW124917   0.685   3.501  14.801  3.6929 -0.5048  1.5848
 4485SOL    HW224918   0.605   3.373  14.787  1.9794 -4.6099 -1.0210
 4486SOL     OW24919   2.255   3.314   5.217 -0.3631 -0.1333 -0.0317
 4486SOL    HW124920   2.221   3.389   5.168 -1.4574 -0.1307  0.7259
 4486SOL    HW224921   2.197   3.297   5.292  1.2806 -0.1601  1.2541
 4487SOL     OW24922   3.121   2.583   9.764 -0.1847 -0.1670  0.1900
 4487SOL    HW124923   3.185   2.617   9.827 -0.2940 -2.1017  1.3375
 4487SOL    HW224924   3.125   2.490   9.786  2.8852  0.5204  2.5572
 4488SOL     OW24925   2.245   2.186   4.138 -1.2194 -0.6412 -0.1090
 4488SOL    HW124926   2.259   2.104   4.185  1.3777  0.7198  1.4701
 4488SOL    HW224927   2.175   2.163   4.077 -1.4328  1.0482 -0.5047
 4489SOL     OW24928   0.698   3.919   1.594 -0.6120  0.3419  0.0518
 4489SOL    HW124929   0.744   4.003   1.594 -0.4623  0.2582 -0.8314
 4489SOL    HW224930   0.607   3.946   1.582  0.7027  3.8333 -2.4017
 4490SOL     OW24931   0.492   1.908   1.809 -0.2050 -0.1233  0.8419
 4490SOL    HW124932   0.577   1.952   1.799  0.6455 -1.7702  0.6409
 4490SOL    HW224933   0.497   1.873   1.898  0.0663 -2.7248 -0.1670
 4491SOL     OW24934   0.655   2.138   5.402  0.0387  0.0163  0.0845
 4491SOL    HW124935   0.600   2.208   5.366 -0.0580 -0.2824 -0.3587
 4491SOL    HW224936   0.582   2.087   5.437  1.4437 -1.9590  0.1679
 4492SOL     OW24937   4.374   1.898   5.820 -0.0389  0.5576 -0.0563
 4492SOL    HW124938   4.392   1.807   5.798 -1.2420  0.5350 -0.9252
 4492SOL    HW224939   4.284   1.907   5.788  0.1224  1.8579 -0.1439
 4493SOL     OW24940   3.143   0.019   4.252 -0.0412  0.0224  0.3887
 4493SOL    HW124941   3.083   0.023   4.326  0.2356 -1.3831  0.6867
 4493SOL    HW224942   3.102   0.078   4.188  1.3551 -0.5119 -1.0128
 4494SOL     OW24943   2.864   3.186  13.721 -0.1745 -0.4212 -0.0640
 4494SOL    HW124944   2.792   3.165  13.661  0.8708 -3.5016 -0.2201
 4494SOL    HW224945   2.850   3.124  13.792  2.2367  1.0497  1.6921
 4495SOL     OW24946   0.785   4.221   0.739 -0.4708  0.0016 -0.2763
 4495SOL    HW124947   0.723   4.294   0.734 -0.1230  0.4434  1.7731
 4495SOL    HW224948   0.834   4.239   0.819  0.1118 -0.9017 -0.4315
 4496SOL     OW24949   0.252   3.401   8.892 -0.2789  0.6012  0.2638
 4496SOL    HW124950   0.233   3.397   8.798  2.5104 -1.8028 -0.2201
 4496SOL    HW224951   0.348   3.400   8.893 -0.2523  2.1495  0.0528
 4497SOL     OW24952   4.472   2.264   1.671  0.0647 -0.2111 -0.1035
 4497SOL    HW124953   4.465   2.359   1.682  0.8575 -0.0785 -0.8330
 4497SOL    HW224954   4.508   2.256   1.583 -0.7838  0.4252 -0.5124
 4498SOL     OW24955   3.523   1.779  14.820  0.1561  0.1954  0.2835
 4498SOL    HW124956   3.492   1.761  14.732  4.9741 -1.3994 -1.1298
 4498SOL    HW224957   3.561   1.866  14.810  0.0662  0.2968  0.8021
 4499SOL     OW24958   4.573   0.831   7.012  0.6295 -0.2810 -0.4013
 4499SOL    HW124959   4.549   0.795   7.098 -0.1850 -2.6888 -1.6311
 4499SOL    HW224960   4.584   0.921   7.041 -0.2799 -0.5310  0.7167
 4500SOL     OW24961   2.020   0.947   1.675  0.1849  0.5954  0.4776
 4500SOL    HW124962   2.034   1.033   1.636  2.7553  0.2704  0.6524
 4500SOL    HW224963   1.925   0.940   1.677  0.1419  1.3136  1.2258
 4501SOL     OW24964   4.110   1.845   4.167 -0.0886  0.2767  0.0815
 4501SOL    HW124965   4.197   1.834   4.128  0.2561 -0.9000  1.1861
 4501SOL    HW224966   4.120   1.917   4.229  2.3626  0.7517 -0.8707
 4502SOL     OW24967   2.320   0.381   5.695 -0.0904 -1.1881  0.2258
 4502SOL    HW124968   2.262   0.306   5.686 -1.1494 -0.4321  0.7384
 4502SOL    HW224969   2.370   0.377   5.613 -0.5057 -0.4932 -0.0635
 4503SOL     OW24970   2.885   1.471   6.221 -0.7712 -0.3040  0.5822
 4503SOL    HW124971   2.791   1.467   6.239 -1.1264 -2.1457 -1.7595
 4503SOL    HW224972   2.887   1.449   6.128  0.2622  0.2255  0.4798
 4504SOL     OW24973   3.309   0.052   8.483  0.4310 -1.0751  0.4826
 4504SOL    HW124974   3.262   0.123   8.440  0.2196 -1.1184  0.6455
 4504SOL    HW224975   3.401   0.078   8.477  0.4094 -0.7068  1.8083
 4505SOL     OW24976   1.377   3.487   1.868 -0.3035  0.1323 -0.0781
 4505SOL    HW124977   1.283   3.492   1.855 -0.2402  1.6867 -0.0294
 4505SOL    HW224978   1.388   3.402   1.910  1.0700  0.2376 -0.2098
 4506SOL     OW24979   1.777   3.335   5.290 -0.3197  0.1203 -0.1930
 4506SOL    HW124980   1.779   3.269   5.221  1.0271 -0.7265  0.6558
 4506SOL    HW224981   1.689   3.368   5.270 -0.8519  0.8735  3.3110
 4507SOL     OW24982   0.267   2.650   7.881 -0.3383 -0.4996  0.2809
 4507SOL    HW124983   0.177   2.632   7.853  0.0993 -1.7548 -0.2821
 4507SOL    HW224984   0.277   2.578   7.944  3.8243  0.2343  0.4395
 4508SOL     OW24985   0.508   0.338   5.581 -0.5491  0.0953 -0.0345
 4508SOL    HW124986   0.533   0.430   5.583 -0.3158  0.0136  0.6249
 4508SOL    HW224987   0.544   0.305   5.498  2.5186 -0.5072  1.5435
 4509SOL     OW24988   3.247   1.245   2.039  0.0883 -0.1313 -0.5022
 4509SOL    HW124989   3.268   1.180   2.106  2.0449  1.2547  0.2376
 4509SOL    HW224990   3.332   1.269   2.002 -0.5564 -1.3589 -2.7777
 4510SOL     OW24991   1.228   1.364  13.322 -0.1679  0.1635 -0.6251
 4510SOL    HW124992   1.322   1.347  13.318  0.0083  1.4747 -1.9304
 4510SOL    HW224993   1.216   1.452  13.286  0.0933  0.5066  0.1283
 4511SOL     OW24994   2.394   2.919   2.112 -0.0213  0.6420  0.2362
 4511SOL    HW124995   2.447   2.840   2.124 -1.0163 -0.2677 -1.4157
 4511SOL    HW224996   2.456   2.974   2.064 -1.6128  1.3929 -0.9454
 4512SOL     OW24997   1.757   0.604   8.516  0.0828 -0.2522 -0.2990
 4512SOL    HW124998   1.663   0.597   8.530 -0.0795  0.3683 -1.1023
 4512SOL    HW224999   1.777   0.698   8.522 -1.1141  0.1853 -3.5037
 4513SOL     OW25000   3.345   1.398   2.501  0.0418  0.2900 -0.2600
 4513SOL    HW125001   3.329   1.473   2.559 -0.3490 -1.4503  1.9060
 4513SOL    HW225002   3.286   1.420   2.429 -2.7106 -0.9737  1.5838
 4514SOL     OW25003   2.827   0.474   3.264 -0.0341 -0.0830  0.1172
 4514SOL    HW125004   2.916   0.453   3.293  0.9107  0.8774 -2.0834
 4514SOL    HW225005   2.800   0.545   3.322 -0.5272 -1.3071  1.3647
 4515SOL     OW25006   3.743   3.439   4.951 -0.4261  0.5995 -0.0535
 4515SOL    HW125007   3.726   3.499   4.879  2.0567  0.9090 -0.3783
 4515SOL    HW225008   3.813   3.481   5.001 -2.2938  0.6641  2.5012
 4516SOL     OW25009   3.306   2.900   5.606 -0.1914  0.7622 -0.0222
 4516SOL    HW125010   3.288   2.819   5.558  3.3497  1.2206 -2.0880
 4516SOL    HW225011   3.239   2.887   5.673 -0.6079 -0.3712 -0.6469
 4517SOL     OW25012   1.295   4.516  10.536 -0.1895  0.3022  0.1376
 4517SOL    HW125013   1.274   4.460  10.610 -1.1071 -1.3741 -1.4090
 4517SOL    HW225014   1.386   4.539  10.555 -0.2355  0.8370 -0.2677
 4518SOL     OW25015   4.072   3.196   6.553  0.0926 -0.1239 -0.4731
 4518SOL    HW125016   4.052   3.108   6.587 -2.2338  0.8385  0.6846
 4518SOL    HW225017   3.992   3.228   6.512  2.1319  1.8299 -2.8789
 4519SOL     OW25018   0.584   0.336  17.338 -0.0865  0.1693 -0.2082
 4519SOL    HW125019   0.606   0.362  17.427 -0.2175 -0.8535  0.1265
 4519SOL    HW225020   0.644   0.262  17.324  1.2699  0.8265  2.2719
 4520SOL     OW25021   3.831   3.091   3.615  0.4120  0.0541 -0.0855
 4520SOL    HW125022   3.795   3.176   3.640  3.0464  2.1144 -3.3309
 4520SOL    HW225023   3.887   3.123   3.545  0.1773  1.7699  0.5126
 4521SOL     OW25024   3.957   1.515  16.469  0.4438  0.1910 -0.1568
 4521SOL    HW125025   3.922   1.525  16.557  0.5377  1.4119 -0.2598
 4521SOL    HW225026   3.943   1.424  16.443  0.8044  1.0259 -3.3663
 4522SOL     OW25027   1.047   2.202   2.898 -0.0082  0.2930 -0.4177
 4522SOL    HW125028   1.113   2.133   2.908  0.5382  0.5641 -2.0824
 4522SOL    HW225029   1.083   2.258   2.828  0.0706  0.3707 -0.3145
 4523SOL     OW25030   1.368   3.328   0.707 -0.1066 -0.2688  0.7097
 4523SOL    HW125031   1.455   3.312   0.671 -0.5154 -0.1650 -0.3238
 4523SOL    HW225032   1.354   3.421   0.686  1.0273 -0.6410 -1.7354
 4524SOL     OW25033   3.622   0.894  14.426  0.2979  0.4603  0.5728
 4524SOL    HW125034   3.696   0.919  14.371  0.2390  1.9321  1.1502
 4524SOL    HW225035   3.645   0.947  14.503  1.7631  0.8109 -0.1116
 4525SOL     OW25036   3.795   0.114  17.653  0.0279 -0.1962  0.0620
 4525SOL    HW125037   3.783   0.194  17.602  1.6018  1.4009  2.1790
 4525SOL    HW225038   3.871   0.134   0.015  0.3848 -0.3617 -0.3740
 4526SOL     OW25039   3.210   4.013   7.553  0.1366  0.0079 -0.2012
 4526SOL    HW125040   3.295   4.055   7.569 -0.2937  1.0518 -0.6717
 4526SOL    HW225041   3.194   3.975   7.640  0.2941 -0.0991 -0.2192
 4527SOL     OW25042   2.861   1.479  11.481  0.4629 -0.3192  0.5059
 4527SOL    HW125043   2.773   1.517  11.478  1.6954  2.5306  0.6818
 4527SOL    HW225044   2.867   1.467  11.576  1.4787  1.8355  0.7115
 4528SOL     OW25045   2.011   0.062  13.743  0.0096 -0.2168 -0.1236
 4528SOL    HW125046   2.074   0.084  13.674 -0.1388 -0.3443 -0.3020
 4528SOL    HW225047   2.024   0.136  13.802 -1.6960 -1.3401  1.6514
 4529SOL     OW25048   0.693   1.417  11.420 -0.2049 -0.2661 -0.0825
 4529SOL    HW125049   0.785   1.422  11.445 -0.5905  0.0936  1.3017
 4529SOL    HW225050   0.666   1.506  11.400  0.7551 -0.0618 -0.4590
 4530SOL     OW25051   4.614   3.096  16.972 -0.2443  0.1037  0.0679
 4530SOL    HW125052   4.533   3.048  16.987  0.6734 -1.6148 -0.4981
 4530SOL    HW225053   4.580   3.180  16.941  1.2849  0.5312 -0.4756
 4531SOL     OW25054   3.726   1.684   6.858 -0.1788  0.1151  0.0830
 4531SOL    HW125055   3.657   1.657   6.797  0.0046 -3.3298  1.3965
 4531SOL    HW225056   3.759   1.763   6.816 -0.6475 -0.5790 -1.5941
 4532SOL     OW25057   2.612   4.550   4.740 -0.0282 -0.0599 -0.5240
 4532SOL    HW125058   2.693   4.509   4.709  1.2146  0.4971  1.9927
 4532SOL    HW225059   2.618   4.643   4.717 -1.5158 -0.1337 -1.2386
 4533SOL     OW25060   3.584   3.447   4.282  0.1929 -0.2470  0.4101
 4533SOL    HW125061   3.572   3.369   4.227  1.7890  0.7869 -1.4327
 4533SOL    HW225062   3.664   3.491   4.254  0.8352 -1.1869  0.8006
 4534SOL     OW25063   4.338   2.835   5.500  0.1242  0.2772 -0.2485
 4534SOL    HW125064   4.298   2.896   5.438  0.2184  1.3252  0.7171
 4534SOL    HW225065   4.429   2.865   5.505  0.0875  0.3486 -0.0189
 4535SOL     OW25066   0.068   0.348   3.147  0.3822  0.2916  0.5149
 4535SOL    HW125067   4.704   0.339   3.106 -0.5143 -3.4845  3.1874
 4535SOL    HW225068   0.073   0.443   3.157 -0.4226  0.0453  3.4584
 4536SOL     OW25069   1.177   0.981  14.549 -0.5465 -0.0185  0.4118
 4536SOL    HW125070   1.133   0.958  14.467 -0.5204  0.6849  0.2015
 4536SOL    HW225071   1.258   1.014  14.511  0.5297 -0.4713  2.3044
 4537SOL     OW25072   0.351   1.394   3.520 -0.4271 -0.0551  0.2785
 4537SOL    HW125073   0.400   1.475   3.508 -0.0255 -0.8026 -2.8867
 4537SOL    HW225074   0.400   1.358   3.594 -1.3199 -1.1363  0.3421
 4538SOL     OW25075   4.094   3.108   3.105 -0.6857 -0.1988 -0.1200
 4538SOL    HW125076   4.123   3.175   3.042  1.5170 -2.0047 -1.0392
 4538SOL    HW225077   4.003   3.137   3.115 -0.4955  0.4223 -0.1497
 4539SOL     OW25078   2.093   2.035   3.001 -0.1422  0.0108  0.4282
 4539SOL    HW125079   2.181   1.999   3.001  0.0238  0.4184  2.7564
 4539SOL    HW225080   2.045   1.987   2.934  1.5178  0.6209 -1.1971
 4540SOL     OW25081   4.102   0.159   2.724  0.2217  0.5780  0.3515
 4540SOL    HW125082   4.011   0.131   2.727  0.0638  0.9870 -0.7648
 4540SOL    HW225083   4.096   0.209   2.805  2.8246  0.5997  0.5218
 4541SOL     OW25084   2.061   1.751   6.382  0.0397 -0.3707 -0.9168
 4541SOL    HW125085   1.990   1.734   6.445  2.7508 -2.0882  1.6637
 4541SOL    HW225086   2.031   1.712   6.300 -1.7391 -1.2461  0.1523
 4542SOL     OW25087   4.573   3.088   6.452 -0.1745 -0.2375 -0.0647
 4542SOL    HW125088   4.590   3.126   6.365 -1.6947  1.1684  0.2505
 4542SOL    HW225089   4.484   3.119   6.464  0.2142  1.1549 -0.7308
 4543SOL     OW25090   3.702   1.935   4.058 -0.2396  0.3336 -0.1432
 4543SOL    HW125091   3.720   1.946   3.965  1.0292  1.1357  0.1907
 4543SOL    HW225092   3.753   1.855   4.063 -2.1714 -0.7173  2.5242
 4544SOL     OW25093   3.304   2.492   0.098  0.1720 -0.0882  0.0253
 4544SOL    HW125094   3.281   2.404   0.070 -1.4462 -0.1922  1.6648
 4544SOL    HW225095   3.224   2.541   0.079 -0.4713 -1.0616  0.2419
 4545SOL     OW25096   1.657   1.490   8.117 -0.1389  0.9148 -0.4058
 4545SOL    HW125097   1.745   1.500   8.079  0.4398  0.6794  0.8781
 4545SOL    HW225098   1.627   1.406   8.084  2.4573 -0.3553  0.4597
 4546SOL     OW25099   0.752   3.753   6.805  0.4105 -0.2606 -0.2529
 4546SOL    HW125100   0.777   3.780   6.716  1.1005  0.6940  0.2369
 4546SOL    HW225101   0.832   3.707   6.830 -0.9884 -1.9091  1.2002
 4547SOL     OW25102   1.836   3.726   8.005  0.2695  0.2262 -0.9972
 4547SOL    HW125103   1.855   3.639   7.971 -0.4851 -0.8595  1.3418
 4547SOL    HW225104   1.740   3.725   8.015  0.2497 -0.2034 -1.2310
 4548SOL     OW25105   4.321   0.857   9.027 -0.0210 -0.1828 -0.0633
 4548SOL    HW125106   4.228   0.867   9.004 -0.2877  0.0072  1.1120
 4548SOL    HW225107   4.328   0.774   9.073  2.8506 -0.0728 -0.3069
 4549SOL     OW25108   2.344   1.554  16.148  0.2129  0.4290  0.1522
 4549SOL    HW125109   2.282   1.497  16.101 -0.4172  1.5204 -0.3383
 4549SOL    HW225110   2.337   1.635  16.098  3.0768  0.3856 -0.2851
 4550SOL     OW25111   1.855   3.279   7.989 -0.2428 -0.4057  0.0653
 4550SOL    HW125112   1.923   3.216   8.013  0.2856 -0.1791 -0.8492
 4550SOL    HW225113   1.794   3.258   8.060 -1.1969 -0.7347 -0.8528
 4551SOL     OW25114   0.371   3.523   3.178 -0.2679 -0.0933 -0.4933
 4551SOL    HW125115   0.438   3.465   3.144  2.6098  1.6640  2.1798
 4551SOL    HW225116   0.369   3.584   3.105  0.1033  1.4257  0.7588
 4552SOL     OW25117   2.298   1.278  13.337  0.0718  0.1279  0.2080
 4552SOL    HW125118   2.264   1.261  13.249  2.9887 -0.1678 -0.8783
 4552SOL    HW225119   2.240   1.351  13.358  1.5223  1.9600 -2.1916
 4553SOL     OW25120   1.421   0.101   0.131 -0.0297 -0.9510 -0.3334
 4553SOL    HW125121   1.402   0.078   0.222 -0.3214  0.1367 -0.1263
 4553SOL    HW225122   1.515   0.099   0.115  0.1468  2.4924  0.2724
 4554SOL     OW25123   0.521   1.643   7.870 -0.8109 -0.6271 -0.4479
 4554SOL    HW125124   0.521   1.653   7.965  1.1615 -0.0388 -0.5060
 4554SOL    HW225125   0.575   1.565   7.856 -0.9886 -1.0193  1.0042
 4555SOL     OW25126   3.389   4.023   7.195 -0.0463  0.3519  0.0294
 4555SOL    HW125127   3.450   3.969   7.246 -0.3032  1.7197  1.8100
 4555SOL    HW225128   3.436   4.085   7.140  0.7029  0.7840  1.1428
 4556SOL     OW25129   1.310   4.041   0.358 -0.1834 -0.0029 -0.5056
 4556SOL    HW125130   1.280   4.064   0.270 -2.3687 -0.3294  0.1645
 4556SOL    HW225131   1.257   4.103   0.409 -0.9443 -1.5373  0.5712
 4557SOL     OW25132   1.909   2.100   5.629  0.1362 -0.6101 -0.1813
 4557SOL    HW125133   1.898   2.044   5.706 -0.9841 -0.6791 -0.3778
 4557SOL    HW225134   1.910   2.189   5.663  0.5911 -1.0879  1.0580
 4558SOL     OW25135   4.685   4.626   8.238  0.4203  0.0155 -0.3850
 4558SOL    HW125136   0.025   4.643   8.168  0.3349  0.2248 -0.4087
 4558SOL    HW225137   4.721   4.680   8.308 -0.4318  1.5903 -1.1666
 4559SOL     OW25138   1.560   0.382  17.586  0.1984  0.0713 -0.7375
 4559SOL    HW125139   1.622   0.420  17.648  0.2086  0.1126 -0.7737
 4559SOL    HW225140   1.612   0.310  17.549 -0.4078 -1.3514  1.1900
 4560SOL     OW25141   3.516   0.644   1.038 -0.3075  0.0178  0.2785
 4560SOL    HW125142   3.574   0.640   1.114 -1.3161  2.5400  1.1862
 4560SOL    HW225143   3.520   0.738   1.016  0.8007 -0.1546 -0.2702
 4561SOL     OW25144   4.202   1.291   3.901 -0.5492 -0.5989  0.5274
 4561SOL    HW125145   4.152   1.228   3.849 -0.7791 -0.0845  0.1377
 4561SOL    HW225146   4.217   1.237   3.979  2.1710 -0.7509 -0.0797
 4562SOL     OW25147   4.609   1.653  13.556 -0.0087 -0.3405  0.3668
 4562SOL    HW125148   4.566   1.571  13.530 -3.0997  1.0937  0.9288
 4562SOL    HW225149   4.681   1.621  13.609  1.9393  1.4068 -1.1992
 4563SOL     OW25150   2.303   0.708  17.690 -0.1633 -0.0687 -0.0758
 4563SOL    HW125151   2.323   0.634  17.633 -3.0446 -0.5598 -0.4489
 4563SOL    HW225152   2.224   0.691   0.048 -0.7793 -0.5538 -1.2001
 4564SOL     OW25153   3.928   3.458  11.824  0.6071 -0.4780 -0.7178
 4564SOL    HW125154   3.912   3.388  11.888  2.2488 -1.0415 -0.9163
 4564SOL    HW225155   4.023   3.475  11.831  0.2256  2.3115 -2.4026
 4565SOL     OW25156   4.559   1.433   5.482 -0.2625  0.5418  0.0605
 4565SOL    HW125157   4.509   1.382   5.545  0.3513  0.4662  0.4799
 4565SOL    HW225158   4.642   1.453   5.525  0.8309 -1.1010 -1.3098
 4566SOL     OW25159   0.675   0.087   9.525 -0.0272 -0.2085 -0.5577
 4566SOL    HW125160   0.769   0.070   9.529  0.1036  0.5913 -0.2296
 4566SOL    HW225161   0.658   0.109   9.617 -0.4273 -0.4902 -0.5617
 4567SOL     OW25162   3.548   0.951   7.943 -0.4089  0.2293  0.3743
 4567SOL    HW125163   3.639   0.922   7.937 -0.6739 -1.0671  2.7024
 4567SOL    HW225164   3.512   0.917   7.861 -0.0870  2.0791 -0.5260
 4568SOL     OW25165   0.446   1.080   5.512  0.2826 -0.0488  0.5489
 4568SOL    HW125166   0.484   0.993   5.518 -1.5089 -0.6861  2.8841
 4568SOL    HW225167   0.412   1.091   5.601  2.6376 -0.6550  1.5188
 4569SOL     OW25168   4.614   2.225  13.078 -0.1536  0.1819 -0.0731
 4569SOL    HW125169   4.544   2.284  13.105 -1.2995 -0.2251 -2.1336
 4569SOL    HW225170   4.566   2.142  13.085 -0.3080  0.4183  1.6518
 4570SOL     OW25171   4.233   0.160   7.768 -0.2105  0.0030  0.7112
 4570SOL    HW125172   4.140   0.150   7.752  0.4372 -3.1410 -1.0051
 4570SOL    HW225173   4.229   0.224   7.840 -0.0164  0.1748  0.5714
 4571SOL     OW25174   2.960   0.166   7.754 -0.6031 -0.0623 -0.1641
 4571SOL    HW125175   2.960   0.195   7.663  0.9193 -1.0173 -0.4679
 4571SOL    HW225176   2.962   0.245   7.808 -0.7697 -0.9859  1.2115
 4572SOL     OW25177   2.212   2.201   8.218 -0.8341  0.0008 -0.0177
 4572SOL    HW125178   2.180   2.126   8.168 -0.8856 -0.1488  0.2462
 4572SOL    HW225179   2.201   2.261   8.143 -2.3598 -0.3783 -0.0964
 4573SOL     OW25180   2.489   2.487   2.621 -0.1159 -0.4709  0.2291
 4573SOL    HW125181   2.448   2.403   2.603 -1.1888  0.1266 -0.0874
 4573SOL    HW225182   2.579   2.463   2.642 -0.4534  0.0856  2.2809
 4574SOL     OW25183   0.162   2.946   1.910  0.2397 -0.0363  0.2390
 4574SOL    HW125184   0.161   2.925   2.003  0.5712  1.3390  0.5578
 4574SOL    HW225185   0.091   3.007   1.890  0.0304 -0.3914 -0.0941
 4575SOL     OW25186   0.427   1.467  15.380  0.6085  0.0145  0.6068
 4575SOL    HW125187   0.441   1.386  15.330 -0.2724  0.4808 -0.3830
 4575SOL    HW225188   0.369   1.518  15.324  1.5482  1.1557  0.6783
 4576SOL     OW25189   1.268   1.144   6.657  0.1955 -0.3469  0.0263
 4576SOL    HW125190   1.204   1.136   6.728 -0.0068  0.7836 -0.0357
 4576SOL    HW225191   1.214   1.108   6.587 -0.3195 -0.0975  0.2979
 4577SOL     OW25192   2.412   0.477  13.302  0.6181 -0.1058 -0.6804
 4577SOL    HW125193   2.475   0.446  13.367  0.7372  1.1462 -0.2060
 4577SOL    HW225194   2.468   0.499  13.228  0.1912  0.2588 -0.8976
 4578SOL     OW25195   4.259   1.338   9.745  0.0765 -0.3908 -0.4781
 4578SOL    HW125196   4.164   1.328   9.747  0.1182 -0.9200 -1.2180
 4578SOL    HW225197   4.268   1.366   9.654  4.4447  0.3670  0.1972
 4579SOL     OW25198   0.193   2.378  17.508 -0.4088  0.0195 -0.5818
 4579SOL    HW125199   0.227   2.382  17.597  0.2720  2.1045 -0.9131
 4579SOL    HW225200   0.218   2.468  17.483  1.5254 -0.4379 -0.2685
 4580SOL     OW25201   3.998   1.555   1.100 -0.5318  0.2869 -0.9498
 4580SOL    HW125202   4.068   1.499   1.066  1.7737  0.9115  2.7205
 4580SOL    HW225203   3.975   1.532   1.190 -0.9508 -1.5605 -1.5306
 4581SOL     OW25204   0.296   0.807   0.817 -0.2382  0.5008  0.0885
 4581SOL    HW125205   0.315   0.874   0.751  0.2522  0.2246 -0.0451
 4581SOL    HW225206   0.371   0.816   0.875 -0.7705  3.1955  0.3872
 4582SOL     OW25207   2.356   3.828   2.033 -0.1556  0.6826  0.0943
 4582SOL    HW125208   2.279   3.884   2.040  1.4478  3.2023 -2.4022
 4582SOL    HW225209   2.375   3.838   1.940 -1.9776  0.9318 -0.2478
 4583SOL     OW25210   2.400   1.427   8.120  0.5532 -0.0286  0.4789
 4583SOL    HW125211   2.486   1.465   8.101 -0.0738  0.7271 -0.8739
 4583SOL    HW225212   2.419   1.335   8.102 -1.8710 -0.7553  1.5736
 4584SOL     OW25213   4.139   2.662   5.063  0.1006 -0.0641  0.0489
 4584SOL    HW125214   4.116   2.659   4.970  0.6419  0.1475 -0.0955
 4584SOL    HW225215   4.222   2.701   5.036 -0.5307  0.2202 -1.4401
 4585SOL     OW25216   4.541   1.861  12.479 -0.0549  0.1817 -0.9636
 4585SOL    HW125217   4.588   1.856  12.395  0.1786  0.5328 -0.8545
 4585SOL    HW225218   4.611   1.880  12.541 -0.4478  1.4296 -0.8976
 4586SOL     OW25219   2.004   0.674   5.396  0.3412 -0.3915 -0.6576
 4586SOL    HW125220   2.034   0.590   5.431 -0.9017 -0.1174  1.0717
 4586SOL    HW225221   1.947   0.698   5.470 -0.0688 -1.2031 -0.7070
 4587SOL     OW25222   0.261   1.262  14.351  0.1058  0.0714  0.5244
 4587SOL    HW125223   0.351   1.250  14.319  0.0141  1.2434 -0.1846
 4587SOL    HW225224   0.214   1.182  14.324 -2.8450  1.8143  0.5548
 4588SOL     OW25225   4.552   3.561   4.439 -0.1909 -0.1073  0.0501
 4588SOL    HW125226   4.524   3.646   4.474 -1.2068 -0.5028  0.1719
 4588SOL    HW225227   4.559   3.569   4.344 -0.6277  0.6972  0.0826
 4589SOL     OW25228   0.606   2.196   4.218 -0.8720  0.5165 -0.1678
 4589SOL    HW125229   0.583   2.271   4.273  0.9529  0.2975  0.8977
 4589SOL    HW225230   0.663   2.238   4.155 -0.9258  0.4234 -0.2785
 4590SOL     OW25231   0.302   4.148   9.586  0.3105  0.4500 -0.0138
 4590SOL    HW125232   0.390   4.134   9.551 -0.0159  0.8311 -0.9817
 4590SOL    HW225233   0.294   4.243   9.593 -0.0009  0.1836  3.4267
 4591SOL     OW25234   1.246   4.523   8.255 -0.4567 -0.1012 -0.0681
 4591SOL    HW125235   1.327   4.477   8.237  0.2840  0.8571  0.8154
 4591SOL    HW225236   1.276   4.582   8.324 -1.8167  0.7030 -0.1513
 4592SOL     OW25237   0.020   0.326   4.499  0.2243 -0.0727  0.0491
 4592SOL    HW125238   4.687   0.401   4.523 -0.9503 -0.7889 -0.4607
 4592SOL    HW225239   0.110   0.351   4.521  0.1429 -0.1036  0.4115
 4593SOL     OW25240   1.216   3.015  16.714  0.4705 -0.1925 -0.5879
 4593SOL    HW125241   1.143   3.076  16.708  0.3216 -0.3372 -0.2128
 4593SOL    HW225242   1.275   3.056  16.651 -0.3617  0.8417 -0.6935
 4594SOL     OW25243   0.761   0.627   5.605  0.2298  0.0274  0.0520
 4594SOL    HW125244   0.758   0.587   5.692 -1.1230  1.7032  0.7757
 4594SOL    HW225245   0.676   0.672   5.605 -0.5749 -1.4470  4.3687
 4595SOL     OW25246   2.407   2.045   3.883  0.1416  0.5577 -0.3213
 4595SOL    HW125247   2.458   2.029   3.962  1.6578 -1.5552 -1.7139
 4595SOL    HW225248   2.359   2.123   3.911  1.7812  1.5210 -0.2447
 4596SOL     OW25249   4.490   1.223   3.017 -0.0262 -0.1422  1.0670
 4596SOL    HW125250   4.398   1.229   3.040 -0.2774 -0.1934  0.0851
 4596SOL    HW225251   4.503   1.292   2.951 -0.5361 -2.7709 -1.7746
 4597SOL     OW25252   0.336   0.091   9.941 -0.6642  0.2045 -0.1656
 4597SOL    HW125253   0.314   4.720   9.943  1.5408 -0.3249 -1.0833
 4597SOL    HW225254   0.420   0.090   9.986 -0.7601  0.2945  0.0167
 4598SOL     OW25255   0.618   4.075   6.683 -0.0494 -0.0341  0.1463
 4598SOL    HW125256   0.698   4.086   6.631  0.0455 -1.2635  0.0243
 4598SOL    HW225257   0.592   3.989   6.650 -0.2919  0.1366 -0.1104
 4599SOL     OW25258   1.897   3.189   6.531  0.3268 -0.3213  0.3730
 4599SOL    HW125259   1.901   3.275   6.489 -0.6950  0.1053  1.1240
 4599SOL    HW225260   1.806   3.181   6.559  0.1483 -0.2941 -0.2167
 4600SOL     OW25261   2.996   3.909   3.823 -0.2227 -0.3543  0.5928
 4600SOL    HW125262   3.082   3.898   3.783  0.6726  1.6359  1.9508
 4600SOL    HW225263   2.951   3.877   3.745  0.5132  0.2672 -0.0850
 4601SOL     OW25264   0.566   2.473   0.602  0.1042  0.2863 -0.6111
 4601SOL    HW125265   0.562   2.387   0.643 -0.5263  0.2865 -0.6763
 4601SOL    HW225266   0.647   2.449   0.557  0.2234  0.2190 -0.3618
 4602SOL     OW25267   4.460   1.740   6.407 -0.7729  0.2653  0.2919
 4602SOL    HW125268   4.505   1.675   6.461 -1.8856 -0.3364  0.4993
 4602SOL    HW225269   4.530   1.778   6.355  0.0394 -2.4232 -0.5860
 4603SOL     OW25270   3.382   1.664   6.083  0.1346 -0.1535  0.3710
 4603SOL    HW125271   3.452   1.729   6.077 -0.6869  0.7484  0.6905
 4603SOL    HW225272   3.313   1.729   6.073  0.8772  0.4353 -0.9356
 4604SOL     OW25273   2.699   0.941   1.601  0.1481  0.2665  0.0046
 4604SOL    HW125274   2.747   1.015   1.636  1.9742  0.1952 -2.3763
 4604SOL    HW225275   2.627   0.980   1.552 -0.8382  0.6158  1.7140
 4605SOL     OW25276   2.795   3.797   7.175  0.6263  0.0946 -0.0133
 4605SOL    HW125277   2.857   3.822   7.243  0.4052 -1.0213  0.6034
 4605SOL    HW225278   2.832   3.825   7.091 -0.1730 -2.1400 -1.1081
 4606SOL     OW25279   4.655   4.533  10.978 -0.2199 -0.3747 -0.1781
 4606SOL    HW125280   4.712   4.607  10.958 -0.8422  0.2503  0.3490
 4606SOL    HW225281   4.683   4.504  11.065 -1.0813 -4.1172 -1.1198
 4607SOL     OW25282   0.612   4.106  11.512 -0.1654 -0.3311 -0.3438
 4607SOL    HW125283   0.536   4.081  11.565 -0.6357  1.5845 -0.1066
 4607SOL    HW225284   0.593   4.051  11.436 -1.3269 -1.1976  0.5696
 4608SOL     OW25285   3.150   2.671  17.283 -0.5656  0.9101  0.2288
 4608SOL    HW125286   3.225   2.677  17.224  0.0594 -0.6457  0.8429
 4608SOL    HW225287   3.192   2.661  17.369  2.2028 -0.9011 -1.3395
 4609SOL     OW25288   1.262   2.266   3.207  0.4673 -0.2462  0.1217
 4609SOL    HW125289   1.277   2.208   3.132  0.3878 -0.1014 -0.0077
 4609SOL    HW225290   1.294   2.219   3.284 -1.7307  1.7190  2.2497
 4610SOL     OW25291   0.601   2.895   7.675  0.3572 -0.1890 -0.2067
 4610SOL    HW125292   0.547   2.817   7.660  1.4299 -1.0230  0.2142
 4610SOL    HW225293   0.581   2.911   7.767  2.3744  0.4620  0.1329
 4611SOL     OW25294   4.476   3.029   1.050 -0.2215  0.0707  0.1444
 4611SOL    HW125295   4.552   2.978   1.024  0.1714  1.1113 -0.7383
 4611SOL    HW225296   4.515   3.110   1.082  0.1937  1.3050 -3.5926
 4612SOL     OW25297   0.500   0.271   6.752 -0.4114 -0.5598  0.2617
 4612SOL    HW125298   0.503   0.209   6.825 -0.8629  2.6100  2.9758
 4612SOL    HW225299   0.573   0.328   6.773  1.4373 -2.3578 -1.3529
 4613SOL     OW25300   1.843   4.342   5.406  0.3508  0.0410 -0.5917
 4613SOL    HW125301   1.903   4.394   5.459 -2.6996  0.2879  2.6291
 4613SOL    HW225302   1.835   4.260   5.454  3.6473  0.4792  0.7150
 4614SOL     OW25303   1.781   3.980   8.462 -0.3935 -0.1578 -0.1343
 4614SOL    HW125304   1.837   4.056   8.480 -2.5087  1.2794  0.3553
 4614SOL    HW225305   1.810   3.962   8.373 -0.7202  2.6477 -0.8099
 4615SOL     OW25306   2.040   1.304   5.612  0.1428 -0.0579  0.1821
 4615SOL    HW125307   2.082   1.287   5.528 -0.6106  1.3426 -0.4801
 4615SOL    HW225308   2.065   1.234   5.672 -0.7075  0.2950  0.9437
 4616SOL     OW25309   4.578   0.505   9.492  0.3488 -0.0113  0.2359
 4616SOL    HW125310   4.597   0.474   9.404 -1.5092  1.0208 -0.5183
 4616SOL    HW225311   4.652   0.469   9.542  0.8958 -0.8017 -1.1472
 4617SOL     OW25312   0.135   0.715   9.834  0.4974  0.2728 -0.0634
 4617SOL    HW125313   0.209   0.775   9.844  0.8203  0.3761 -3.1102
 4617SOL    HW225314   0.097   0.763   9.760  0.1790 -1.0041 -0.7274
 4618SOL     OW25315   0.862   0.239   1.486  0.5774  0.0492  0.2782
 4618SOL    HW125316   0.918   0.206   1.556 -0.1570  2.5402  2.0513
 4618SOL    HW225317   0.890   0.330   1.496  0.8512  0.0741 -0.7007
 4619SOL     OW25318   2.926   4.309   2.106 -0.4017 -0.6786 -0.2493
 4619SOL    HW125319   2.864   4.277   2.041  0.4036 -2.0111 -0.3685
 4619SOL    HW225320   2.895   4.399   2.112  1.1541 -0.1768  0.4512
 4620SOL     OW25321   0.852   2.171   7.127  0.0858 -0.5390 -0.2205
 4620SOL    HW125322   0.871   2.089   7.171 -2.1564 -0.9175  0.0485
 4620SOL    HW225323   0.921   2.235   7.146 -1.3320  1.3499 -1.3123
 4621SOL     OW25324   1.322   4.471   0.629  0.0183  0.3538  0.0147
 4621SOL    HW125325   1.239   4.425   0.637  0.7314 -0.8094  0.6462
 4621SOL    HW225326   1.333   4.498   0.720 -0.6812  0.8010 -0.0305
 4622SOL     OW25327   2.557   2.211   4.690  0.0530  1.0078  0.0953
 4622SOL    HW125328   2.467   2.186   4.709  0.2563 -1.5167 -2.2915
 4622SOL    HW225329   2.573   2.161   4.610  1.4977 -0.8926  1.5691
 4623SOL     OW25330   1.129   3.843   4.710 -0.0051 -0.2299  0.4913
 4623SOL    HW125331   1.188   3.767   4.707  0.4408  0.0976  0.9808
 4623SOL    HW225332   1.130   3.859   4.616  0.8709  2.5071  0.9654
 4624SOL     OW25333   3.159   2.094  14.707  0.1953  0.5799 -0.1681
 4624SOL    HW125334   3.252   2.089  14.686 -0.3143 -1.2043 -1.9259
 4624SOL    HW225335   3.122   2.019  14.660  0.6378  0.9740 -1.1398
 4625SOL     OW25336   1.437   0.197  10.130 -0.2323  0.2195 -0.1773
 4625SOL    HW125337   1.399   0.166  10.048 -1.2975  1.4360 -0.1279
 4625SOL    HW225338   1.397   0.143  10.198  1.4695 -1.0942 -0.2108
 4626SOL     OW25339   1.318   0.581   2.740 -0.5741  0.4102  0.7699
 4626SOL    HW125340   1.373   0.553   2.667 -2.0435 -1.6613  0.4403
 4626SOL    HW225341   1.320   0.501   2.792  1.5499 -2.3073 -3.4597
 4627SOL     OW25342   3.183   2.196   2.052 -0.3732  0.5955 -0.1083
 4627SOL    HW125343   3.106   2.251   2.070  0.2807  0.5068  3.0701
 4627SOL    HW225344   3.230   2.225   2.131 -1.7793  1.7860  0.2976
 4628SOL     OW25345   1.965   0.228  13.037  0.3137 -0.2807 -0.1229
 4628SOL    HW125346   1.982   0.265  13.124 -1.0023 -0.9101  0.4017
 4628SOL    HW225347   1.942   0.139  13.067 -2.2549  0.5190  0.2595
 4629SOL     OW25348   2.862   0.882   5.670  0.1553  0.7685 -0.3675
 4629SOL    HW125349   2.939   0.832   5.696  0.6229  1.2530 -0.8501
 4629SOL    HW225350   2.857   0.947   5.739 -0.3521 -0.2709  0.5856
 4630SOL     OW25351   0.324   0.255  16.911 -0.3115  0.4002 -0.1689
 4630SOL    HW125352   0.262   0.323  16.935 -2.6682 -2.4548  1.8232
 4630SOL    HW225353   0.317   0.184  16.975 -2.2203  0.1046 -0.7162
 4631SOL     OW25354   0.872   2.136   8.056 -0.2087  0.2548  0.6486
 4631SOL    HW125355   0.915   2.180   8.129  1.6093  0.3871 -0.5024
 4631SOL    HW225356   0.906   2.047   8.069 -1.1373 -0.4688 -1.7807
 4632SOL     OW25357   3.305   3.324   8.522 -0.4530  0.4544  0.0357
 4632SOL    HW125358   3.323   3.418   8.515 -0.1130  0.6251  3.2403
 4632SOL    HW225359   3.352   3.279   8.452  0.7118  0.3458  0.9014
 4633SOL     OW25360   0.327   3.198  17.260 -0.5677 -0.3895  0.2082
 4633SOL    HW125361   0.420   3.215  17.277 -1.1483  2.3652  0.7662
 4633SOL    HW225362   0.305   3.109  17.286  0.8989 -1.1978 -1.3619
 4634SOL     OW25363   4.113   4.712  14.081 -0.1217 -0.1329 -0.1557
 4634SOL    HW125364   4.066   4.668  14.010 -0.6503  0.2819 -0.0572
 4634SOL    HW225365   4.110   0.074  14.038  1.0012 -0.2145 -0.3878
 4635SOL     OW25366   0.040   4.260  14.895  0.4905 -0.7538  0.2504
 4635SOL    HW125367   0.055   4.255  14.801 -0.2811 -1.6190  0.1651
 4635SOL    HW225368   0.073   4.347  14.916 -0.2661 -0.2133 -0.7950
 4636SOL     OW25369   2.987   1.328  11.755  0.6212 -0.8069 -0.2463
 4636SOL    HW125370   2.994   1.283  11.839 -1.2229 -1.5428 -0.4836
 4636SOL    HW225371   2.946   1.409  11.786 -1.3791 -2.6316  1.8546
 4637SOL     OW25372   2.821   3.390   5.083 -0.4331 -0.0882 -0.0567
 4637SOL    HW125373   2.797   3.465   5.138 -0.0971  1.6099 -2.2431
 4637SOL    HW225374   2.806   3.314   5.139  1.7081 -0.6823 -0.2982
 4638SOL     OW25375   1.181   3.588   6.438 -0.5254 -0.7657  0.3520
 4638SOL    HW125376   1.262   3.627   6.470 -1.6045  0.6465  1.3244
 4638SOL    HW225377   1.213   3.544   6.359 -0.5936 -1.5065  0.7351
 4639SOL     OW25378   1.052   0.736   3.288 -0.2238  0.7040  0.2864
 4639SOL    HW125379   1.116   0.679   3.331 -0.1078  0.9949  0.5035
 4639SOL    HW225380   1.111   0.809   3.267  0.5386 -0.0109 -0.0581
 4640SOL     OW25381   1.835   1.430   4.007 -0.4157 -0.4818  0.2640
 4640SOL    HW125382   1.767   1.457   4.068  1.2912 -3.7726  3.5776
 4640SOL    HW225383   1.815   1.479   3.927 -1.1029  0.5039  1.0487
 4641SOL     OW25384   4.344   2.825  15.981  0.8723  0.0720  0.6254
 4641SOL    HW125385   4.315   2.916  15.984 -1.1710 -0.5522 -0.2361
 4641SOL    HW225386   4.439   2.829  15.996  0.8995  2.9520 -0.2309
 4642SOL     OW25387   2.017   2.715   4.850  0.3584  0.0977 -0.3250
 4642SOL    HW125388   2.009   2.746   4.760 -0.1775  2.4110  0.5232
 4642SOL    HW225389   1.931   2.729   4.890  0.0940 -0.9099 -0.5405
 4643SOL     OW25390   4.511   1.494  14.956 -0.1573 -0.3676 -0.6546
 4643SOL    HW125391   4.582   1.489  14.891  0.2542  0.1775 -0.2428
 4643SOL    HW225392   4.499   1.589  14.959  0.8305 -0.2328 -0.8975
 4644SOL     OW25393   1.957   2.247   1.339 -0.1894 -0.0321  0.1805
 4644SOL    HW125394   1.936   2.154   1.346  0.3597 -0.1614  0.1550
 4644SOL    HW225395   2.044   2.227   1.304 -0.3225 -2.2176  1.1518
 4645SOL     OW25396   4.046   2.977   2.788 -0.1360 -0.0180 -0.3022
 4645SOL    HW125397   4.002   2.976   2.874 -0.9939  0.4920 -0.7377
 4645SOL    HW225398   3.971   2.974   2.729 -0.3164  0.1421 -0.0805
 4646SOL     OW25399   0.573   4.430  15.808 -1.0695 -0.4402 -0.0312
 4646SOL    HW125400   0.548   4.498  15.745 -2.2344 -2.0517 -1.3164
 4646SOL    HW225401   0.636   4.381  15.756 -1.6899 -2.0332  0.7243
 4647SOL     OW25402   3.441   1.508   9.527  0.4192  0.7084 -0.1296
 4647SOL    HW125403   3.398   1.575   9.580 -0.3478  1.0765 -1.2155
 4647SOL    HW225404   3.371   1.469   9.475  1.4907 -2.5490  0.8289
 4648SOL     OW25405   3.162   1.655   1.638 -0.2664 -0.2241 -0.0722
 4648SOL    HW125406   3.116   1.739   1.629 -0.8200 -0.5763 -0.5520
 4648SOL    HW225407   3.098   1.584   1.627  0.3072 -0.8596  0.7324
 4649SOL     OW25408   3.556   2.951   3.047  0.3712 -0.1257  0.4701
 4649SOL    HW125409   3.562   2.996   3.131  1.2500 -1.2281  0.9960
 4649SOL    HW225410   3.644   2.951   3.008  0.9177  1.1440  1.7045
 4650SOL     OW25411   3.814   0.999   4.947 -0.1949  0.2427  0.3515
 4650SOL    HW125412   3.892   0.998   4.891 -1.3702  2.7802 -1.3529
 4650SOL    HW225413   3.806   0.909   4.979 -2.8404  0.2530 -0.3158
 4651SOL     OW25414   0.814   3.772   7.507  0.4283 -0.4801 -0.0254
 4651SOL    HW125415   0.778   3.704   7.450 -0.9968  0.5115 -0.2983
 4651SOL    HW225416   0.887   3.726   7.549  3.4610  4.2644 -0.0773
 4652SOL     OW25417   3.682   0.248   7.021  0.2801 -0.3363  0.6615
 4652SOL    HW125418   3.684   0.277   6.930 -0.9808 -3.4660 -0.3632
 4652SOL    HW225419   3.617   0.315   7.042 -0.6047 -1.5249  1.7256
 4653SOL     OW25420   2.878   1.455   6.560 -0.4291  0.2343  0.0063
 4653SOL    HW125421   2.782   1.448   6.563 -0.4400  0.1055 -0.8535
 4653SOL    HW225422   2.893   1.508   6.483  2.0602 -0.3280  0.0968
 4654SOL     OW25423   1.950   3.731   8.698 -0.3114 -0.2740  0.2461
 4654SOL    HW125424   1.965   3.638   8.711 -0.9788 -0.3584  0.4247
 4654SOL    HW225425   1.902   3.752   8.779  0.5389 -0.8375  0.8941
 4655SOL     OW25426   2.744   3.189  11.435  0.2609 -0.0154  0.0741
 4655SOL    HW125427   2.687   3.157  11.505 -0.3171  0.9779  0.0595
 4655SOL    HW225428   2.807   3.245  11.482 -1.0830  1.1769  0.4430
 4656SOL     OW25429   2.833   1.036   5.891 -0.1727 -0.8207  0.1477
 4656SOL    HW125430   2.909   1.093   5.901  0.5183 -1.9988  1.5389
 4656SOL    HW225431   2.768   1.087   5.938 -1.3666 -2.2126  0.0064
 4657SOL     OW25432   0.339   4.493   5.496 -0.0504  0.4303  0.0940
 4657SOL    HW125433   0.354   4.552   5.422  1.2714  0.2440  0.2191
 4657SOL    HW225434   0.291   4.421   5.457  1.4948  0.0794 -1.1537
 4658SOL     OW25435   4.234   0.930  10.893  0.3682 -0.0260  0.0895
 4658SOL    HW125436   4.245   0.853  10.839  2.7152 -1.4750  2.6074
 4658SOL    HW225437   4.236   1.008  10.837 -1.3343 -1.1339 -1.5106
 4659SOL     OW25438   1.311   4.527   0.236 -0.2476  0.1981  1.0063
 4659SOL    HW125439   1.267   4.523   0.152 -0.6998  0.7019  1.2195
 4659SOL    HW225440   1.396   4.493   0.207 -0.5295  0.4179 -0.0634
 4660SOL     OW25441   2.085   0.132  12.602 -0.1592  0.3656  0.2416
 4660SOL    HW125442   2.040   0.188  12.665  0.7706  1.3679  0.0172
 4660SOL    HW225443   2.144   0.092  12.666  0.2863  0.6927  0.0375
 4661SOL     OW25444   1.109   0.116   5.960  0.2702  0.1964 -0.2654
 4661SOL    HW125445   1.109   0.021   5.945 -0.0028 -0.0203  1.0857
 4661SOL    HW225446   1.060   0.143   5.882 -0.6751 -0.1014  0.2253
 4662SOL     OW25447   3.898   1.113   8.378 -0.0658 -0.4185 -0.7712
 4662SOL    HW125448   3.853   1.195   8.363  1.5997  0.4984 -0.7526
 4662SOL    HW225449   3.992   1.130   8.385 -0.2965  0.0696  1.0016
 4663SOL     OW25450   1.526   4.344   0.833  0.3163  0.0079 -0.4498
 4663SOL    HW125451   1.583   4.401   0.781  1.8087  1.7055  3.0299
 4663SOL    HW225452   1.503   4.268   0.778 -2.6339  1.2039 -0.8919
 4664SOL     OW25453   2.376   0.766   2.283 -0.2112  0.0034 -0.3223
 4664SOL    HW125454   2.374   0.711   2.204  0.1058 -1.5692  0.7643
 4664SOL    HW225455   2.447   0.824   2.254 -0.1293 -0.8702 -1.8911
 4665SOL     OW25456   4.152   0.438   7.837 -0.4783 -0.4623 -0.0068
 4665SOL    HW125457   4.220   0.501   7.858 -1.1381  0.4905 -0.7404
 4665SOL    HW225458   4.096   0.450   7.914  0.5092 -0.4033  0.7082
 4666SOL     OW25459   0.651   4.077   5.184 -0.5580  0.1977 -0.0911
 4666SOL    HW125460   0.653   4.173   5.181  3.2382  0.1554  1.3718
 4666SOL    HW225461   0.568   4.066   5.230 -0.5710  0.4448 -0.0521
 4667SOL     OW25462   3.323   1.193   7.896 -0.3623 -0.1377  0.2989
 4667SOL    HW125463   3.353   1.269   7.847 -0.2225  0.8997  2.0113
 4667SOL    HW225464   3.352   1.126   7.834  3.9938  1.8259  0.2358
 4668SOL     OW25465   1.689   1.116   7.194  0.3459 -0.3294 -0.2583
 4668SOL    HW125466   1.663   1.062   7.268 -2.3234  1.4249  0.0806
 4668SOL    HW225467   1.779   1.129   7.223  0.1861 -1.4801  0.7460
 4669SOL     OW25468   2.416   1.260   1.862 -0.0618  0.9467 -0.4024
 4669SOL    HW125469   2.505   1.245   1.893 -0.3308 -1.0746 -0.5484
 4669SOL    HW225470   2.366   1.233   1.939  2.1506 -0.6982  0.4663
 4670SOL     OW25471   3.181   0.883   6.639 -0.2296 -0.0964  0.2648
 4670SOL    HW125472   3.135   0.801   6.659  1.2245 -0.7500  0.9771
 4670SOL    HW225473   3.150   0.946   6.704  0.0917  0.6935 -0.3576
 4671SOL     OW25474   3.319   0.864   6.056  0.2431  0.1741 -0.7770
 4671SOL    HW125475   3.378   0.882   6.130 -0.5628 -0.5201  0.0263
 4671SOL    HW225476   3.297   0.955   6.037 -2.5777 -1.0056 -3.1660
 4672SOL     OW25477   3.719   2.918   7.023  0.1074 -0.4249  0.1783
 4672SOL    HW125478   3.790   2.980   7.005 -1.8150  2.6279  3.0481
 4672SOL    HW225479   3.743   2.899   7.113 -1.6937  2.3244  1.2440
 4673SOL     OW25480   1.794   4.100   4.021  0.4968 -0.1596 -0.1965
 4673SOL    HW125481   1.803   4.195   4.023  2.0439 -0.3205  0.7410
 4673SOL    HW225482   1.824   4.082   4.111  0.5813 -1.4407 -0.4839
 4674SOL     OW25483   3.221   0.577   5.224  0.1094 -0.0165  0.0571
 4674SOL    HW125484   3.287   0.516   5.193  1.6200  2.3901 -1.4937
 4674SOL    HW225485   3.232   0.573   5.319  0.7073  0.5861  0.0122
 4675SOL     OW25486   1.527   1.471   6.733  0.2401  0.1073  0.2133
 4675SOL    HW125487   1.485   1.473   6.646  2.7234  0.9010 -0.9395
 4675SOL    HW225488   1.559   1.381   6.734 -2.1222 -0.7759 -1.2161
 4676SOL     OW25489   1.887   3.686   0.002 -0.3269 -0.0298 -0.3710
 4676SOL    HW125490   1.931   3.603   0.019 -0.7609  0.1620  1.6862
 4676SOL    HW225491   1.813   3.681   0.064 -1.4626  1.4677 -1.6067
 4677SOL     OW25492   1.654   3.931   8.707  0.0304 -0.0645  0.0860
 4677SOL    HW125493   1.577   3.878   8.690  1.5504 -1.3969 -2.7587
 4677SOL    HW225494   1.681   3.951   8.617 -1.3385  0.1587 -0.2688
 4678SOL     OW25495   2.240   2.172   1.284  0.3473 -0.0303 -0.2987
 4678SOL    HW125496   2.253   2.197   1.375 -3.4525 -1.9690  0.7792
 4678SOL    HW225497   2.330   2.139   1.283  0.2158 -0.4569  3.0559
 4679SOL     OW25498   3.713   2.329   4.432 -0.5741 -0.2753 -0.2811
 4679SOL    HW125499   3.689   2.270   4.503 -1.5626 -1.1092 -1.3139
 4679SOL    HW225500   3.731   2.416   4.467 -0.9554 -1.2853  2.4660
 4680SOL     OW25501   0.802   2.957  12.335  0.2901  0.3618 -0.0863
 4680SOL    HW125502   0.834   2.908  12.259 -1.5472 -0.2641 -0.4655
 4680SOL    HW225503   0.715   2.991  12.316  0.4672  0.4562 -0.7519
 4681SOL     OW25504   3.000   4.599  17.597 -0.0992  0.1786  0.3755
 4681SOL    HW125505   3.096   4.602  17.594 -0.1129  0.0888 -0.1433
 4681SOL    HW225506   2.982   4.582  17.504  3.3251  3.5397 -0.9196
 4682SOL     OW25507   0.493   4.694  15.743  0.2338 -0.0626  0.6175
 4682SOL    HW125508   0.555   4.671  15.674 -0.2213  2.3463 -0.5730
 4682SOL    HW225509   0.433   0.025  15.692 -0.6434  1.0310  2.7843
 4683SOL     OW25510   2.225   3.851  15.563 -0.1954  0.0847 -0.1818
 4683SOL    HW125511   2.233   3.946  15.575  2.0017 -0.1127 -0.0568
 4683SOL    HW225512   2.194   3.827  15.650 -0.3490  1.9009  0.2698
 4684SOL     OW25513   0.913   2.525   2.703  0.0650  0.0233  0.8236
 4684SOL    HW125514   0.854   2.575   2.760  1.9826  3.8427 -0.5423
 4684SOL    HW225515   0.996   2.531   2.750 -0.5069 -0.3899  1.8884
 4685SOL     OW25516   2.858   3.927  14.904  0.6409 -0.7230  0.3349
 4685SOL    HW125517   2.815   3.881  14.831 -0.6949 -0.8253  1.1876
 4685SOL    HW225518   2.825   3.883  14.982 -2.0710  1.6129  0.4959
 4686SOL     OW25519   0.347   4.414   2.826 -0.0206  0.0185  0.1424
 4686SOL    HW125520   0.405   4.475   2.872 -1.6808  0.8735  1.0904
 4686SOL    HW225521   0.270   4.470   2.833 -0.7938 -1.2102  1.4998
 4687SOL     OW25522   4.518   0.560   6.977 -0.0955 -0.1796 -0.0667
 4687SOL    HW125523   4.599   0.600   6.944  0.0635 -0.5285 -0.1038
 4687SOL    HW225524   4.464   0.574   6.899 -0.3038 -0.8798 -0.0494
 4688SOL     OW25525   0.582   1.503   5.188  0.0215 -0.3096 -0.0918
 4688SOL    HW125526   0.628   1.464   5.263 -0.2989 -0.0530  0.2405
 4688SOL    HW225527   0.643   1.480   5.118  0.3781  1.5791 -0.4005
 4689SOL     OW25528   4.190   4.090   9.142  0.0203  0.6873 -0.5073
 4689SOL    HW125529   4.162   4.174   9.105 -0.0922  1.8060  2.1446
 4689SOL    HW225530   4.282   4.108   9.158  0.4307 -2.3321  0.5022
 4690SOL     OW25531   1.010   2.218   9.057 -0.2047 -0.2142 -0.0033
 4690SOL    HW125532   0.917   2.218   9.082 -0.3565 -3.1130 -0.5507
 4690SOL    HW225533   1.002   2.284   8.988  0.3799 -1.9719 -1.7321
 4691SOL     OW25534   1.422   3.933   4.258  0.0753  0.0628 -0.2491
 4691SOL    HW125535   1.474   4.012   4.246 -1.0907  1.3169  2.9040
 4691SOL    HW225536   1.470   3.873   4.203 -0.7341 -1.6939  0.9553
 4692SOL     OW25537   0.010   3.770   7.313 -0.3899 -0.1953 -0.4373
 4692SOL    HW125538   0.053   3.851   7.339  0.2851  0.4711 -3.5282
 4692SOL    HW225539   4.701   3.724   7.390  0.7584 -0.0097  0.1516
 4693SOL     OW25540   2.610   4.173  17.392  0.0520  0.1207  0.6775
 4693SOL    HW125541   2.585   4.084  17.419  1.5269 -1.2091 -2.3573
 4693SOL    HW225542   2.636   4.163  17.301  2.1348  0.4659  1.2479
 4694SOL     OW25543   1.803   1.575   8.763  0.6951 -0.4799  0.2879
 4694SOL    HW125544   1.892   1.603   8.742 -0.2116  2.7267  0.6678
 4694SOL    HW225545   1.814   1.512   8.834  2.6808 -0.7340 -0.2345
 4695SOL     OW25546   4.613   4.036   5.594  0.1994 -0.3597  0.5820
 4695SOL    HW125547   4.658   3.954   5.572 -0.1548 -0.3135 -0.3208
 4695SOL    HW225548   4.537   4.026   5.536 -2.3158 -0.1344  3.8983
 4696SOL     OW25549   4.118   3.741   1.887 -0.0457 -0.0477 -0.1450
 4696SOL    HW125550   4.165   3.713   1.809 -1.5407  2.0853 -1.8228
 4696SOL    HW225551   4.173   3.813   1.921 -0.8443  0.5016 -0.0207
 4697SOL     OW25552   2.645   1.713   3.513 -0.1954 -0.0638  0.1848
 4697SOL    HW125553   2.611   1.655   3.445 -1.8948 -2.0309  2.6834
 4697SOL    HW225554   2.576   1.777   3.527 -0.1248 -0.0119  0.2926
 4698SOL     OW25555   2.531   3.588   4.152  0.1811  0.3945 -0.6146
 4698SOL    HW125556   2.556   3.675   4.121  1.2071  0.5710  0.7183
 4698SOL    HW225557   2.609   3.544   4.116  1.0414 -0.2943  2.1187
 4699SOL     OW25558   2.639   0.409   4.281  0.5822  0.4443 -0.5966
 4699SOL    HW125559   2.686   0.431   4.201 -1.4244  1.0586 -1.5994
 4699SOL    HW225560   2.552   0.395   4.244 -0.3448  0.2252  1.6446
 4700SOL     OW25561   4.451   0.278  12.363  0.1218  0.2783 -0.3700
 4700SOL    HW125562   4.478   0.369  12.360 -0.0824  0.3734  0.5122
 4700SOL    HW225563   4.378   0.288  12.301  0.2668  0.0390 -0.5770
 4701SOL     OW25564   1.762   1.016   1.569  0.3510 -0.3277 -0.1169
 4701SOL    HW125565   1.747   1.072   1.646  0.9165 -0.9252  0.4243
 4701SOL    HW225566   1.679   1.021   1.520 -1.1068  1.7458  2.5496
 4702SOL     OW25567   4.051   2.687   1.707 -0.0859 -0.4871  0.6757
 4702SOL    HW125568   4.122   2.662   1.648  0.8213 -0.0945  1.5940
 4702SOL    HW225569   4.070   2.622   1.774  1.2862 -0.0901  0.6897
 4703SOL     OW25570   3.386   2.222   2.275  0.2694 -0.1856  0.2100
 4703SOL    HW125571   3.420   2.203   2.362  2.0264  2.9196  0.1903
 4703SOL    HW225572   3.460   2.237   2.217  0.5634 -1.4800  0.2540
 4704SOL     OW25573   0.816   0.736   6.036 -0.5074  0.4752  0.0794
 4704SOL    HW125574   0.761   0.731   6.115 -1.2351  0.0111 -0.4514
 4704SOL    HW225575   0.818   0.830   6.019  2.6167  0.8302  2.5292
 4705SOL     OW25576   3.224   3.859   3.685 -0.2087  0.1738  0.2259
 4705SOL    HW125577   3.213   3.829   3.595  2.2584 -3.3073  1.0888
 4705SOL    HW225578   3.280   3.936   3.682  2.0936 -1.5248 -1.2673
 4706SOL     OW25579   4.264   0.461  16.727 -0.3634 -0.3143  0.5493
 4706SOL    HW125580   4.262   0.369  16.753 -0.1616 -0.9221 -1.6024
 4706SOL    HW225581   4.239   0.454  16.635 -0.4692  1.3942  0.4529
 4707SOL     OW25582   2.346   0.691  10.268 -0.2353  0.4352 -0.2364
 4707SOL    HW125583   2.319   0.600  10.277  2.1274 -0.0813  1.9467
 4707SOL    HW225584   2.300   0.726  10.344  1.5838 -0.4864  1.3077
 4708SOL     OW25585   0.629   2.240  16.069  0.1443  0.2709 -0.1568
 4708SOL    HW125586   0.600   2.277  15.985 -3.0507 -3.3087 -0.6178
 4708SOL    HW225587   0.556   2.265  16.124 -0.9580 -0.8342 -1.1165
 4709SOL     OW25588   2.468   2.087   1.430 -0.7631 -0.1845  0.4469
 4709SOL    HW125589   2.475   2.153   1.499 -1.3261  0.1011  0.2340
 4709SOL    HW225590   2.558   2.056   1.438  0.5708  3.0079 -1.8899
 4710SOL     OW25591   0.058   2.801   7.574 -0.1129 -0.1815 -0.0285
 4710SOL    HW125592   0.083   2.874   7.517  1.1702 -1.3269 -0.9073
 4710SOL    HW225593   0.090   2.817   7.662  0.9373  0.5628 -0.5474
 4711SOL     OW25594   2.091   2.415   1.874 -0.3564 -0.4421  0.2651
 4711SOL    HW125595   2.152   2.444   1.806  0.9751 -2.5118  0.5825
 4711SOL    HW225596   2.141   2.343   1.913  1.9639  0.8264 -0.3652
 4712SOL     OW25597   1.461   1.565   1.430  0.2575  0.2990 -0.0769
 4712SOL    HW125598   1.497   1.548   1.343  0.5942 -0.1677  0.1492
 4712SOL    HW225599   1.382   1.612   1.405  0.2961  0.4760  0.1377
 4713SOL     OW25600   1.553   0.725   5.409  0.3294 -0.5225 -0.1941
 4713SOL    HW125601   1.560   0.729   5.504 -0.5237  1.1954 -0.2117
 4713SOL    HW225602   1.633   0.769   5.381  1.7286 -2.3423  0.9852
 4714SOL     OW25603   4.305   2.006  12.528 -0.3178 -0.3573  0.0345
 4714SOL    HW125604   4.256   2.012  12.446  1.2039 -1.2772 -0.9197
 4714SOL    HW225605   4.383   1.958  12.501 -1.2032 -0.9745 -1.4131
 4715SOL     OW25606   0.206   2.051   8.705  0.0332  0.0998 -0.1491
 4715SOL    HW125607   0.207   2.020   8.615  0.9417 -0.0805 -0.0779
 4715SOL    HW225608   0.116   2.038   8.734 -0.2278  0.3823 -0.8409
 4716SOL     OW25609   4.521   2.777   5.846  0.2009 -0.2103 -0.1155
 4716SOL    HW125610   4.455   2.827   5.798  0.2962  0.7484  0.7541
 4716SOL    HW225611   4.474   2.752   5.926 -0.4750  1.9050  0.1632
 4717SOL     OW25612   2.325   2.945   6.103 -0.4971 -0.1269 -0.1000
 4717SOL    HW125613   2.418   2.945   6.125 -0.2495  1.6933 -1.1832
 4717SOL    HW225614   2.291   2.947   6.193  0.0583 -0.7700  0.1215
 4718SOL     OW25615   1.050   1.825   7.012 -0.5043 -0.7086 -0.2600
 4718SOL    HW125616   1.029   1.772   6.935 -0.2452 -0.8286 -0.2476
 4718SOL    HW225617   0.968   1.845   7.056  0.0806  1.0299  0.0343
 4719SOL     OW25618   0.714   4.610   5.502  0.0092  0.0059  0.4503
 4719SOL    HW125619   0.702   4.614   5.407 -0.4494 -1.6215  0.4367
 4719SOL    HW225620   0.706   4.703   5.525  0.4016  0.1523 -0.0182
 4720SOL     OW25621   0.948   2.328   6.743  0.5388  0.4591  0.0780
 4720SOL    HW125622   1.018   2.353   6.682 -0.7849  0.6917 -1.3345
 4720SOL    HW225623   0.983   2.246   6.779 -0.3551  0.6057  1.2450
 4721SOL     OW25624   4.245   1.446   8.744 -0.0342  0.1637  0.5887
 4721SOL    HW125625   4.187   1.520   8.725 -0.2483  0.0151  0.6654
 4721SOL    HW225626   4.232   1.435   8.838 -0.9431 -0.4026  0.4011
 4722SOL     OW25627   2.459   3.461   8.359  0.3367 -0.8214  0.1064
 4722SOL    HW125628   2.413   3.501   8.433 -0.2667 -0.3017 -0.5514
 4722SOL    HW225629   2.512   3.391   8.397  2.9869  1.3634  0.4844
 4723SOL     OW25630   1.316   0.091  10.382  0.4055  0.0205 -1.2549
 4723SOL    HW125631   1.325   4.719  10.389  1.1514  0.1071 -1.0843
 4723SOL    HW225632   1.235   0.111  10.430  0.0404 -0.3622 -1.7058
 4724SOL     OW25633   3.794   2.938   2.145 -0.0997 -0.0684  0.5349
 4724SOL    HW125634   3.699   2.925   2.152 -0.1762 -0.7614 -1.7392
 4724SOL    HW225635   3.798   2.960   2.052 -0.7078 -2.2917 -0.0131
 4725SOL     OW25636   1.633   2.191  13.618  0.1688  0.0422  0.1762
 4725SOL    HW125637   1.647   2.119  13.556  1.7517  0.5185 -0.0280
 4725SOL    HW225638   1.561   2.223  13.563  0.1157 -1.3697 -0.5768
 4726SOL     OW25639   0.602   0.242   3.876  0.0556  0.3839  0.5478
 4726SOL    HW125640   0.609   0.324   3.827  1.5974 -0.2220 -0.2248
 4726SOL    HW225641   0.639   0.269   3.959 -0.4562  2.0994  0.2156
 4727SOL     OW25642   0.396   1.210   2.619  0.4345 -0.0834  0.6060
 4727SOL    HW125643   0.362   1.292   2.583 -0.8456 -0.4287  1.0390
 4727SOL    HW225644   0.489   1.227   2.602  0.0324  1.6066  0.0648
 4728SOL     OW25645   0.929   1.898  13.118  0.2943  0.2288 -0.2779
 4728SOL    HW125646   0.923   1.831  13.185 -5.0082  0.2714 -0.6733
 4728SOL    HW225647   0.835   1.913  13.105  0.1612 -1.2190 -0.9721
 4729SOL     OW25648   3.048   1.798   5.399 -0.5664 -0.3953 -0.1017
 4729SOL    HW125649   3.009   1.849   5.470  1.0769 -1.1882  1.3598
 4729SOL    HW225650   2.996   1.718   5.408  1.1654 -1.7069 -1.6767
 4730SOL     OW25651   0.008   0.765   4.074 -0.0551  0.6427  0.7968
 4730SOL    HW125652   0.012   0.717   4.156  3.1550  2.0626  1.4695
 4730SOL    HW225653   0.041   0.854   4.080 -1.2022  1.3097 -2.7417
 4731SOL     OW25654   2.123   1.282   3.192  0.1728  0.4472 -0.3738
 4731SOL    HW125655   2.119   1.373   3.164  1.6410 -0.3104 -2.9845
 4731SOL    HW225656   2.096   1.230   3.116 -0.1289 -2.5280  1.7494
 4732SOL     OW25657   3.037   3.236   4.925  0.0175  0.0615  0.1838
 4732SOL    HW125658   3.007   3.272   5.008  0.0051 -3.4993  1.7507
 4732SOL    HW225659   3.088   3.311   4.895 -0.9737 -0.6740 -3.3840
 4733SOL     OW25660   1.884   1.349   0.409  0.4208 -0.1948 -0.6803
 4733SOL    HW125661   1.936   1.342   0.329  0.1133 -0.0630 -0.8956
 4733SOL    HW225662   1.794   1.330   0.380  0.1207  0.7735 -0.3675
 4734SOL     OW25663   3.931   0.214   9.933 -0.1100 -0.2714  0.2838
 4734SOL    HW125664   3.924   0.176   9.845 -0.0832  1.7966 -0.6105
 4734SOL    HW225665   4.026   0.215   9.943 -0.1838 -1.6623  1.2245
 4735SOL     OW25666   0.654   3.149   3.194  0.4546  0.1010 -0.3677
 4735SOL    HW125667   0.654   3.084   3.124 -0.4650  0.8923 -1.0883
 4735SOL    HW225668   0.676   3.228   3.144  0.4280  0.9440  0.9492
 4736SOL     OW25669   1.109   1.170   2.415  0.0888 -0.3541  0.5114
 4736SOL    HW125670   1.091   1.264   2.418  0.6175 -0.2777  1.4518
 4736SOL    HW225671   1.133   1.158   2.507 -1.3221 -0.5565  0.8638
 4737SOL     OW25672   2.239   1.266   6.420  0.1524  0.0229  0.0697
 4737SOL    HW125673   2.300   1.270   6.494 -0.0555  0.4953  0.2167
 4737SOL    HW225674   2.171   1.319   6.461  1.6222  2.1465 -0.2218
 4738SOL     OW25675   0.053   3.120   5.599 -0.4762  0.2951 -0.1002
 4738SOL    HW125676   0.061   3.153   5.688 -0.6555  1.8941 -0.6688
 4738SOL    HW225677   0.146   3.128   5.579  0.0306  0.3904  2.2988
 4739SOL     OW25678   4.647   4.040   8.592 -0.0641 -0.6478 -0.3442
 4739SOL    HW125679   4.638   4.068   8.501 -1.2359  0.2076  0.0437
 4739SOL    HW225680   0.015   4.010   8.584 -0.1979 -1.4189  0.9939
 4740SOL     OW25681   4.366   3.792   2.433 -0.3906  0.1928  0.6198
 4740SOL    HW125682   4.271   3.798   2.429 -0.5576 -2.8078  0.1223
 4740SOL    HW225683   4.388   3.834   2.349  0.3898 -0.4055  0.5272
 4741SOL     OW25684   2.219   4.418   4.268 -0.3044 -0.2317 -0.2170
 4741SOL    HW125685   2.277   4.433   4.194  0.3193 -0.1787  0.2850
 4741SOL    HW225686   2.235   4.494   4.323 -0.8301  0.5007 -1.0803
 4742SOL     OW25687   1.738   1.955  15.995  0.0377  0.0294  0.0295
 4742SOL    HW125688   1.709   2.040  16.026  0.7782  0.4371 -0.4184
 4742SOL    HW225689   1.731   1.899  16.073  2.9633 -0.3144  0.0317
 4743SOL     OW25690   4.167   2.697   4.490 -0.0625 -0.2799 -0.1094
 4743SOL    HW125691   4.126   2.619   4.451 -0.6014  0.9794 -2.0691
 4743SOL    HW225692   4.255   2.702   4.454  0.9345 -0.7215  2.2515
 4744SOL     OW25693   1.776   1.639  15.665  0.1763  0.2684  0.2427
 4744SOL    HW125694   1.722   1.699  15.715  0.6670 -1.7861  3.2362
 4744SOL    HW225695   1.707   1.574  15.650 -0.8431  0.8721  2.3558
 4745SOL     OW25696   2.092   1.533  13.307  0.2328 -0.5962 -0.2481
 4745SOL    HW125697   2.076   1.529  13.213 -2.0521  1.4526  0.0666
 4745SOL    HW225698   2.008   1.529  13.351  0.1976  0.4120 -0.2250
 4746SOL     OW25699   2.487   3.372   1.705 -0.0419  0.0334 -0.2173
 4746SOL    HW125700   2.447   3.285   1.711 -1.2076  0.5948  0.1117
 4746SOL    HW225701   2.427   3.415   1.644  0.8460  0.0533 -1.0591
 4747SOL     OW25702   1.080   4.393   0.324 -0.1229  0.7000 -0.3079
 4747SOL    HW125703   1.027   4.460   0.366  0.8929  0.7258  0.9511
 4747SOL    HW225704   1.150   4.451   0.296 -1.1319  1.6826 -0.7658
 4748SOL     OW25705   3.819   2.273   1.357  0.5491  0.0429  0.3874
 4748SOL    HW125706   3.848   2.183   1.369  0.2307  0.1929  2.2937
 4748SOL    HW225707   3.851   2.283   1.267  2.2522  1.0416  1.0953
 4749SOL     OW25708   3.104   0.276   6.194  0.3939  0.1267  0.2073
 4749SOL    HW125709   3.174   0.216   6.220  0.0516  0.7813  2.6874
 4749SOL    HW225710   3.038   0.212   6.169  0.0699  0.1787  0.9328
 4750SOL     OW25711   2.075   1.025   8.000  0.5445 -0.3678 -0.0284
 4750SOL    HW125712   2.144   0.967   8.031  1.5197  1.4348  1.1772
 4750SOL    HW225713   2.081   1.014   7.905  0.9432  2.2765 -0.3021
 4751SOL     OW25714   2.031   3.444  10.913 -0.7648 -0.4714 -0.3175
 4751SOL    HW125715   1.938   3.464  10.928 -0.8313 -1.0289 -0.0116
 4751SOL    HW225716   2.042   3.383  10.986  0.6593  0.3096  0.1198
 4752SOL     OW25717   3.347   1.478  16.563 -0.2476 -0.1613  0.0986
 4752SOL    HW125718   3.294   1.468  16.483 -0.3326  0.9810  0.0137
 4752SOL    HW225719   3.308   1.555  16.605 -0.2136 -0.3839  0.5395
 4753SOL     OW25720   2.473   2.309   3.585  0.1588 -0.1454 -0.1707
 4753SOL    HW125721   2.488   2.258   3.664 -3.8828 -1.4398 -0.2458
 4753SOL    HW225722   2.548   2.281   3.533  0.3921 -0.1244  0.1598
 4754SOL     OW25723   1.800   2.895  17.340  0.7391 -0.2138 -0.2448
 4754SOL    HW125724   1.852   2.918  17.263  1.1165  1.2851  0.4498
 4754SOL    HW225725   1.866   2.844  17.386 -0.1081 -0.1115  1.0815
 4755SOL     OW25726   1.074   1.401   2.106 -0.4389  0.8182  0.3145
 4755SOL    HW125727   1.089   1.421   2.198  0.8137  1.2796  0.0059
 4755SOL    HW225728   1.004   1.335   2.107 -0.9838  1.3598 -1.3667
 4756SOL     OW25729   3.962   0.119   9.690  0.3996  0.2008  0.0998
 4756SOL    HW125730   3.944   0.171   9.612 -0.5314 -0.7874 -0.3423
 4756SOL    HW225731   3.949   0.032   9.651 -2.3953  1.6573 -2.1789
 4757SOL     OW25732   1.169   1.688   7.517 -0.2035 -0.6591  0.4050
 4757SOL    HW125733   1.154   1.779   7.543 -1.3379 -0.4523 -0.9061
 4757SOL    HW225734   1.181   1.648   7.603  0.6952 -2.1231 -0.4104
 4758SOL     OW25735   4.706   0.911   6.477  0.0228 -0.3281  0.5365
 4758SOL    HW125736   4.665   0.953   6.552  0.1795 -2.4611  1.8111
 4758SOL    HW225737   4.629   0.917   6.420 -0.8715  1.5048  1.9390
 4759SOL     OW25738   4.005   2.915   7.002  0.0590  0.2663  0.5767
 4759SOL    HW125739   3.991   2.940   7.094 -1.8067  1.4084 -0.0306
 4759SOL    HW225740   4.019   2.821   7.011 -0.3527 -0.0613 -2.4030
 4760SOL     OW25741   0.396   3.162  13.013 -0.5993 -0.4281 -0.9415
 4760SOL    HW125742   0.417   3.207  12.932  0.9230 -0.3936 -0.5367
 4760SOL    HW225743   0.312   3.121  12.993 -1.1609  0.2166  0.1030
 4761SOL     OW25744   0.055   0.487   2.607 -1.2025 -0.1352  0.0295
 4761SOL    HW125745   0.145   0.501   2.577 -1.0650 -1.8362 -0.3303
 4761SOL    HW225746   0.021   0.400   2.585 -0.0351 -0.2971 -1.1181
 4762SOL     OW25747   3.971   4.439   6.299 -0.3811  0.0217  0.4421
 4762SOL    HW125748   3.937   4.506   6.359 -0.0763  1.3491 -0.8496
 4762SOL    HW225749   4.052   4.476   6.263 -2.2741  2.8809 -0.8863
 4763SOL     OW25750   2.287   3.512   0.256  0.4588  0.1934  0.1139
 4763SOL    HW125751   2.344   3.545   0.187  1.6637 -2.8739 -0.3222
 4763SOL    HW225752   2.352   3.473   0.314 -2.3725 -1.3824  2.2412
 4764SOL     OW25753   0.312   1.255   1.376  0.1324 -0.3391 -0.2954
 4764SOL    HW125754   0.220   1.281   1.374  0.7484  2.0010  1.6132
 4764SOL    HW225755   0.304   1.160   1.367  2.7484 -0.4123 -1.9300
 4765SOL     OW25756   1.137   2.646  13.727 -0.3133 -0.1152  0.2722
 4765SOL    HW125757   1.214   2.589  13.730  0.6406  1.1470 -0.6274
 4765SOL    HW225758   1.178   2.725  13.694  1.5909 -2.0364 -1.9758
 4766SOL     OW25759   4.602   0.976   4.307  0.3540 -0.1468 -0.0097
 4766SOL    HW125760   4.620   0.994   4.214  1.5051 -1.6552 -0.0751
 4766SOL    HW225761   4.516   1.017   4.319 -0.8352 -2.6725  0.0197
 4767SOL     OW25762   0.052   3.822   5.614  0.6414  0.5707  0.1113
 4767SOL    HW125763   0.134   3.778   5.639  0.3666 -0.9907 -1.7089
 4767SOL    HW225764   4.715   3.810   5.688 -0.2353  1.2117 -0.5003
 4768SOL     OW25765   4.344   4.331   8.169  0.2593  0.2237  0.0625
 4768SOL    HW125766   4.348   4.236   8.176  0.1432  0.1452 -0.9518
 4768SOL    HW225767   4.364   4.360   8.258  0.2220 -3.9786  1.4457
 4769SOL     OW25768   1.169   0.822   4.290 -0.1076  0.2892  0.5930
 4769SOL    HW125769   1.259   0.798   4.312  0.6623  1.6661 -0.9954
 4769SOL    HW225770   1.127   0.744   4.325  1.5318 -0.9536 -0.2186
 4770SOL     OW25771   2.413   0.949   5.272  0.0780 -0.3351 -0.0492
 4770SOL    HW125772   2.417   1.037   5.308 -0.6699  0.0252 -0.8322
 4770SOL    HW225773   2.429   0.899   5.352 -3.2279 -1.4833 -0.1062
 4771SOL     OW25774   2.384   3.112   4.739  0.2295 -0.5214  0.1596
 4771SOL    HW125775   2.334   3.187   4.708  2.1825 -0.0115 -1.7248
 4771SOL    HW225776   2.462   3.154   4.778 -1.3916  0.6171  2.1710
 4772SOL     OW25777   2.226   1.222   3.743 -0.8027 -0.1644  0.3895
 4772SOL    HW125778   2.135   1.252   3.744  0.7880  4.6874  0.1081
 4772SOL    HW225779   2.245   1.201   3.652  0.8855 -0.8023  0.8955
 4773SOL     OW25780   4.256   4.266   6.264 -0.2520  0.0999  0.1890
 4773SOL    HW125781   4.236   4.358   6.248  1.9357  0.8310  1.8560
 4773SOL    HW225782   4.235   4.268   6.357  0.7531  0.6263  0.3956
 4774SOL     OW25783   2.612   0.029   3.045  0.4693  0.3870  0.4487
 4774SOL    HW125784   2.574   4.669   3.076  0.2382  1.4031  2.8609
 4774SOL    HW225785   2.703   0.001   3.053  0.6697  1.1313  0.7088
 4775SOL     OW25786   4.262   2.348   3.799 -0.5319 -0.5016 -0.2982
 4775SOL    HW125787   4.258   2.255   3.777 -1.3144 -1.0844  2.2806
 4775SOL    HW225788   4.288   2.332   3.890 -3.5305 -2.4732  0.2247
 4776SOL     OW25789   0.046   3.880   6.862  0.3681 -0.9219 -0.2684
 4776SOL    HW125790   4.705   3.922   6.804  0.7762  0.5616  0.3493
 4776SOL    HW225791   0.131   3.907   6.827 -0.3598  0.1035 -1.2674
 4777SOL     OW25792   4.635   3.971   1.974  0.1357  0.6831 -0.6532
 4777SOL    HW125793   4.586   3.912   2.032 -1.2284 -1.2009 -3.7371
 4777SOL    HW225794   4.696   4.020   2.029 -0.1822  1.2312 -0.7894
 4778SOL     OW25795   0.987   0.521   9.159 -0.2380  0.4854  0.2125
 4778SOL    HW125796   1.028   0.596   9.202 -2.4860  0.8361  1.7350
 4778SOL    HW225797   0.901   0.523   9.202  0.3277 -1.0969  1.4159
 4779SOL     OW25798   3.759   2.286   4.159 -0.4668  0.4665  0.5361
 4779SOL    HW125799   3.751   2.309   4.252 -0.1239  1.9762  0.2012
 4779SOL    HW225800   3.667   2.272   4.137  0.1571 -1.6212 -0.6508
 4780SOL     OW25801   0.426   4.261   5.163  0.4512 -0.3642 -0.3979
 4780SOL    HW125802   0.397   4.250   5.253 -1.7518 -1.8644 -1.2990
 4780SOL    HW225803   0.345   4.292   5.122  1.2310 -0.0878 -1.7324
 4781SOL     OW25804   0.296   0.384   4.482  0.3911  0.0723  0.1739
 4781SOL    HW125805   0.315   0.465   4.529 -0.0780  1.2082 -1.6356
 4781SOL    HW225806   0.315   0.412   4.393  1.3747  0.0975  0.3829
 4782SOL     OW25807   2.302   0.735  16.243  0.2930  0.0525  0.0647
 4782SOL    HW125808   2.221   0.698  16.206 -0.2495  0.5618  0.7420
 4782SOL    HW225809   2.329   0.802  16.180  2.4984 -0.3808  0.5647
 4783SOL     OW25810   3.981   4.357   9.034 -0.1903  0.1985 -0.1906
 4783SOL    HW125811   3.892   4.366   9.070 -0.6265 -0.9889 -0.9689
 4783SOL    HW225812   4.016   4.445   9.046 -1.3172  0.8759 -1.9320
 4784SOL     OW25813   3.367   1.408  17.567 -0.2195 -0.5011  0.0518
 4784SOL    HW125814   3.303   1.435  17.502  1.1543  1.4117 -0.4896
 4784SOL    HW225815   3.450   1.401  17.520  2.1641 -1.3989  4.3634
 4785SOL     OW25816   2.117   0.235   3.856 -0.4749 -0.3507 -0.2271
 4785SOL    HW125817   2.158   0.319   3.834  0.9547 -0.5219  1.7772
 4785SOL    HW225818   2.087   0.204   3.771 -1.6009 -1.7311  0.6757
 4786SOL     OW25819   0.132   1.507   6.452  0.4199 -0.2048  0.2244
 4786SOL    HW125820   0.143   1.539   6.362 -1.1487  0.1255  0.1372
 4786SOL    HW225821   0.175   1.422   6.454 -1.9251 -1.4084  0.0577
 4787SOL     OW25822   0.172   4.013  10.999  0.0443 -0.3458 -0.4557
 4787SOL    HW125823   0.084   4.045  10.976 -0.5737 -1.4135  0.3964
 4787SOL    HW225824   0.174   4.021  11.094 -1.2835 -0.4849 -0.4062
 4788SOL     OW25825   3.762   4.675   7.939 -0.1659 -0.2251 -0.6197
 4788SOL    HW125826   3.764   0.047   7.953 -2.1644 -0.0252 -1.6850
 4788SOL    HW225827   3.789   4.646   8.026 -3.0475 -0.6204  0.1463
 4789SOL     OW25828   1.557   0.104   1.173 -0.6516 -0.1950 -0.1365
 4789SOL    HW125829   1.573   0.023   1.125 -0.3943  0.2717 -0.8334
 4789SOL    HW225830   1.575   0.174   1.109 -0.6198  0.5075  0.6328
 4790SOL     OW25831   1.189   0.407   9.718  0.1550 -0.1764  0.2559
 4790SOL    HW125832   1.282   0.422   9.704  0.1279 -0.6837 -0.4827
 4790SOL    HW225833   1.176   0.441   9.806 -1.0514  1.6627 -0.6494
 4791SOL     OW25834   2.717   4.379  17.487  0.2617  0.2195 -0.3895
 4791SOL    HW125835   2.695   4.291  17.457  0.8261 -0.3716  0.8974
 4791SOL    HW225836   2.772   4.365  17.564 -0.3367  1.3919  0.2627
 4792SOL     OW25837   1.687   0.468   5.861 -0.3232  0.4540  0.2624
 4792SOL    HW125838   1.635   0.452   5.782  1.1957  0.0787 -0.6625
 4792SOL    HW225839   1.685   0.563   5.857  0.2595  0.3679 -2.0281
 4793SOL     OW25840   2.559   0.813  10.141  0.0026  0.3356  0.2507
 4793SOL    HW125841   2.484   0.789  10.194  2.4397 -0.4112  3.3305
 4793SOL    HW225842   2.634   0.805  10.200  0.8161  0.9777 -0.6853
 4794SOL     OW25843   0.384   4.546   9.912 -0.4948 -0.5287  0.4677
 4794SOL    HW125844   0.429   4.531   9.829 -1.5710 -1.7308  0.1007
 4794SOL    HW225845   0.459   4.535   9.970 -1.1550 -2.5355  0.9397
 4795SOL     OW25846   0.797   2.727  14.815  0.2741 -0.2980  0.0170
 4795SOL    HW125847   0.787   2.750  14.723  1.6866  0.6545  0.1083
 4795SOL    HW225848   0.720   2.769  14.854 -0.1096 -1.0328  0.0484
 4796SOL     OW25849   2.022   3.016   2.537 -0.3896  0.0587  0.1209
 4796SOL    HW125850   1.986   3.044   2.452  2.8100 -1.3794 -1.7008
 4796SOL    HW225851   2.115   3.018   2.517 -0.8350 -0.0621 -2.0125
 4797SOL     OW25852   3.671   0.134   7.688  0.2791  0.3927 -0.0510
 4797SOL    HW125853   3.581   0.127   7.720  0.4061  3.3007  0.9771
 4797SOL    HW225854   3.712   0.169   7.767 -0.5338 -0.4444  0.7416
 4798SOL     OW25855   0.640   1.602  17.317 -0.3125  0.0030 -0.3798
 4798SOL    HW125856   0.697   1.674  17.344  0.1230 -0.2726 -0.5671
 4798SOL    HW225857   0.659   1.611  17.224 -1.1490 -1.2406 -0.6636
 4799SOL     OW25858   1.664   1.142   3.664  0.0551  0.2524  0.0985
 4799SOL    HW125859   1.638   1.166   3.753  0.5950  3.5673 -0.6651
 4799SOL    HW225860   1.684   1.049   3.675  1.3401  0.9499  3.5050
 4800SOL     OW25861   3.438   3.166   4.994  0.0405  0.1529  0.4548
 4800SOL    HW125862   3.413   3.146   5.084  0.5203 -1.1536  0.2969
 4800SOL    HW225863   3.533   3.173   5.001  0.0579  0.1597  0.2136
 4801SOL     OW25864   3.550   3.695   7.838 -0.3681  0.3281 -0.4151
 4801SOL    HW125865   3.569   3.764   7.901  0.3027 -0.5933  0.3864
 4801SOL    HW225866   3.501   3.635   7.895  0.4765 -1.7460 -1.8412
 4802SOL     OW25867   1.327   3.327   8.365 -0.3243  0.8635 -0.1465
 4802SOL    HW125868   1.290   3.246   8.328  0.7377 -0.0149  0.7293
 4802SOL    HW225869   1.399   3.300   8.422 -1.6833  0.1552  1.2567
 4803SOL     OW25870   3.988   0.736  15.854 -0.0602 -0.3124  0.3855
 4803SOL    HW125871   3.980   0.642  15.842  2.1951 -0.8820  3.3830
 4803SOL    HW225872   3.978   0.773  15.766 -0.8698 -1.1872  0.1196
 4804SOL     OW25873   0.624   0.131   5.257  0.1093  0.6809  0.4709
 4804SOL    HW125874   0.604   0.197   5.190 -1.1360  2.8528  2.9775
 4804SOL    HW225875   0.633   0.057   5.197  0.5950  2.2669 -1.4378
 4805SOL     OW25876   1.260   3.012  10.881  0.1816  0.0495  0.4883
 4805SOL    HW125877   1.215   3.096  10.871  2.1635  1.0340 -0.1873
 4805SOL    HW225878   1.311   3.024  10.961 -0.3017 -1.2838  0.9871
 4806SOL     OW25879   3.518   3.324  12.977 -0.3166  0.1108  0.2441
 4806SOL    HW125880   3.444   3.322  13.037 -0.9685  2.8929 -0.4921
 4806SOL    HW225881   3.544   3.232  12.969  3.0888  1.1121 -0.0897
 4807SOL     OW25882   2.725   3.302   6.398 -0.2905  0.3967 -0.0884
 4807SOL    HW125883   2.773   3.314   6.316  1.2929 -0.7192  0.6729
 4807SOL    HW225884   2.757   3.379   6.446 -2.4221  1.5239 -0.4785
 4808SOL     OW25885   2.717   0.894   8.448  0.0253  0.2409 -0.1522
 4808SOL    HW125886   2.782   0.925   8.511  0.1812 -0.8043  0.2133
 4808SOL    HW225887   2.726   0.965   8.385  0.5802  2.1082  2.0557
 4809SOL     OW25888   4.647   4.021   8.302 -0.0616  0.0161  0.2890
 4809SOL    HW125889   4.642   4.075   8.223  1.7231  1.3835  1.1099
 4809SOL    HW225890   0.002   3.969   8.278  0.1590 -1.4589  4.2160
 4810SOL     OW25891   2.041   1.067  17.622  0.1145  0.1473  0.0226
 4810SOL    HW125892   2.010   1.056  17.532  0.2094 -2.3329  0.3121
 4810SOL    HW225893   2.026   1.161  17.636 -0.4241 -0.0305  0.6276
 4811SOL     OW25894   0.747   4.644   1.972  0.7553 -0.6440  0.2714
 4811SOL    HW125895   0.652   4.638   1.982  1.0522 -1.8999  2.3324
 4811SOL    HW225896   0.774   4.610   2.057 -0.2628 -0.5303  0.6334
 4812SOL     OW25897   2.172   2.674  16.075 -0.2426  0.1369  0.7639
 4812SOL    HW125898   2.249   2.656  16.022  0.4325  0.0379  1.7690
 4812SOL    HW225899   2.105   2.612  16.047  0.2254 -1.0761  2.3180
 4813SOL     OW25900   1.162   3.988   9.890 -0.1973 -0.0208 -0.0547
 4813SOL    HW125901   1.220   3.979   9.966 -1.7099  1.5369  1.2728
 4813SOL    HW225902   1.113   4.068   9.906  0.2941  0.5173 -1.2509
 4814SOL     OW25903   3.571   0.168   8.478 -0.2146  0.0731  0.1856
 4814SOL    HW125904   3.634   0.191   8.546 -0.4101 -0.9232  0.7096
 4814SOL    HW225905   3.522   0.249   8.465 -0.9761 -0.1273  1.8187
 4815SOL     OW25906   4.338   3.936   1.733  0.2572  0.1877  0.5209
 4815SOL    HW125907   4.272   4.000   1.709  0.2181 -0.1520 -0.2753
 4815SOL    HW225908   4.298   3.849   1.729  3.3311 -1.1884 -0.8679
 4816SOL     OW25909   2.639   1.881   2.722 -0.2490  0.3500  0.9347
 4816SOL    HW125910   2.701   1.889   2.650 -0.8957 -1.2624  0.1966
 4816SOL    HW225911   2.673   1.807   2.772 -0.9974 -0.4853  0.2162
 4817SOL     OW25912   3.530   3.544   2.145 -0.4760 -0.0023 -0.1496
 4817SOL    HW125913   3.583   3.539   2.065 -0.7065 -1.7456 -0.2008
 4817SOL    HW225914   3.489   3.457   2.144 -0.1659 -0.1502 -0.0128
 4818SOL     OW25915   1.367   3.278   4.820 -0.3454  0.8307  0.2842
 4818SOL    HW125916   1.345   3.361   4.862  2.7142  2.6527 -1.6592
 4818SOL    HW225917   1.305   3.274   4.747 -0.6760 -0.3455  0.6372
 4819SOL     OW25918   0.513   2.558   4.680  0.3210  0.4708 -0.0680
 4819SOL    HW125919   0.449   2.619   4.715  0.1278  1.5171 -2.2271
 4819SOL    HW225920   0.453   2.487   4.654  0.6915  0.0931  0.1107
 4820SOL     OW25921   3.379   4.053   6.034 -0.5143 -0.2776  0.1322
 4820SOL    HW125922   3.418   3.967   6.020  0.0538 -0.0053  0.0579
 4820SOL    HW225923   3.416   4.074   6.120 -0.5693  2.0102 -0.4035
 4821SOL     OW25924   3.904   2.428  16.759 -0.6125 -0.0729 -0.4461
 4821SOL    HW125925   3.985   2.479  16.762 -0.3959 -0.4733  0.6255
 4821SOL    HW225926   3.927   2.361  16.824 -2.5028 -0.7853 -0.4962
 4822SOL     OW25927   2.980   3.827   9.745  0.1575  0.7512 -0.5210
 4822SOL    HW125928   2.931   3.812   9.664  1.5489 -2.5524 -0.7420
 4822SOL    HW225929   2.978   3.734   9.770 -0.0001  1.1737  0.9937
 4823SOL     OW25930   4.278   2.697   1.522  0.3152 -0.3254 -0.2894
 4823SOL    HW125931   4.329   2.627   1.562 -0.4270 -0.9935 -0.5201
 4823SOL    HW225932   4.233   2.648   1.453 -0.1446  1.6360 -1.3866
 4824SOL     OW25933   1.037   0.442   5.027  0.0410  0.1336 -0.2494
 4824SOL    HW125934   1.118   0.492   5.036 -0.1262  0.7447 -2.0978
 4824SOL    HW225935   1.046   0.379   5.099 -1.3886  0.9551  0.6482
 4825SOL     OW25936   1.131   3.380   8.104  0.2569  0.2358  0.7278
 4825SOL    HW125937   1.177   3.440   8.044  0.2816 -1.2506 -0.7628
 4825SOL    HW225938   1.087   3.444   8.159 -1.2752  0.5665 -0.8677
 4826SOL     OW25939   2.911   1.130   2.268 -0.3336  0.1349  0.3140
 4826SOL    HW125940   2.959   1.063   2.219 -0.4428  0.7340 -0.6194
 4826SOL    HW225941   2.937   1.210   2.223 -0.2733 -1.2407 -2.1271
 4827SOL     OW25942   1.069   3.107   7.054 -0.0237 -0.0497  0.0155
 4827SOL    HW125943   1.002   3.169   7.026  2.2394  2.2849 -0.1904
 4827SOL    HW225944   1.141   3.169   7.063 -0.3782  0.1686  1.3016
 4828SOL     OW25945   1.023   1.991   4.716 -0.1489 -0.5420 -0.3455
 4828SOL    HW125946   0.947   2.035   4.678 -0.3397  0.3076  1.0219
 4828SOL    HW225947   1.006   1.989   4.810 -0.8633 -0.0525 -0.4621
 4829SOL     OW25948   2.310   4.680   7.934  0.3716  0.1139  0.2654
 4829SOL    HW125949   2.356   4.615   7.881 -2.2155 -2.4918  1.2477
 4829SOL    HW225950   2.231   4.631   7.954 -0.3934  1.3257  0.2315
 4830SOL     OW25951   1.529   3.078   5.968  0.2021  0.2533 -0.0027
 4830SOL    HW125952   1.483   2.996   5.986 -2.0294  1.2302 -1.2861
 4830SOL    HW225953   1.602   3.049   5.913 -1.1600 -1.1038 -1.0841
 4831SOL     OW25954   2.800   1.377   0.594  0.1465  0.1569 -0.0315
 4831SOL    HW125955   2.753   1.408   0.671 -2.4334 -0.5489 -1.3327
 4831SOL    HW225956   2.764   1.289   0.589 -0.7749  0.5249  0.2712
 4832SOL     OW25957   1.266   1.846   0.578 -0.2878  0.2160  0.2104
 4832SOL    HW125958   1.271   1.866   0.671 -1.4168 -0.9362  0.5240
 4832SOL    HW225959   1.351   1.861   0.536  0.5129  1.2083  2.2073
 4833SOL     OW25960   1.225   2.045   7.705 -0.3622  0.2702  0.8162
 4833SOL    HW125961   1.146   2.002   7.672 -0.6251  1.0146  0.4781
 4833SOL    HW225962   1.230   2.008   7.793  1.8043  1.1538  1.0581
 4834SOL     OW25963   0.198   1.543   7.851 -0.4394 -0.1310 -0.1962
 4834SOL    HW125964   0.199   1.573   7.941  0.1902 -1.3208  0.1923
 4834SOL    HW225965   0.176   1.450   7.860 -1.0097 -0.2248 -2.3464
 4835SOL     OW25966   3.545   3.123  15.970  0.0213 -0.3696 -0.1405
 4835SOL    HW125967   3.604   3.047  15.975 -0.9094 -0.9721  1.7530
 4835SOL    HW225968   3.471   3.100  15.914 -0.5317 -0.6870  0.7166
 4836SOL     OW25969   1.824   2.198   2.073  0.0678  0.6856  0.2648
 4836SOL    HW125970   1.830   2.140   1.997 -0.3228  0.3322  0.4995
 4836SOL    HW225971   1.764   2.153   2.133 -0.0600 -2.3161 -2.1057
 4837SOL     OW25972   1.525   4.030   4.556  0.1624  0.1204  0.3503
 4837SOL    HW125973   1.468   4.065   4.624 -1.6016 -1.1869 -0.4528
 4837SOL    HW225974   1.534   4.103   4.494  1.6684  1.0260  1.6317
 4838SOL     OW25975   3.261   2.836   2.402 -0.1675  0.0011 -0.1591
 4838SOL    HW125976   3.264   2.916   2.349 -2.7638 -2.3410 -3.8158
 4838SOL    HW225977   3.233   2.873   2.486  0.0496  1.1047 -0.5715
 4839SOL     OW25978   3.911   0.063  15.067 -0.1907  0.2978  0.5192
 4839SOL    HW125979   3.888   4.699  15.099 -1.3834  1.5675  3.1189
 4839SOL    HW225980   3.974   0.038  14.999 -0.8332  0.3317 -0.0896
 4840SOL     OW25981   3.968   0.623   2.915  0.5529 -0.3882 -0.0117
 4840SOL    HW125982   3.931   0.586   2.835  1.9086  0.6646 -1.1238
 4840SOL    HW225983   3.964   0.717   2.899  0.1281 -0.4379 -0.2047
 4841SOL     OW25984   4.401   3.200   8.907 -0.2971 -0.2506 -0.4647
 4841SOL    HW125985   4.488   3.224   8.876 -0.1307  0.7677  0.7918
 4841SOL    HW225986   4.401   3.112   8.946 -0.4668 -0.3722 -0.7383
 4842SOL     OW25987   2.046   1.014   4.897  0.4886 -0.5649  0.6887
 4842SOL    HW125988   2.098   0.936   4.878 -0.0119 -0.5130 -0.9174
 4842SOL    HW225989   2.066   1.025   4.990  1.0947 -0.2146  0.5153
 4843SOL     OW25990   3.339   1.283   3.667  0.0167 -0.2943 -0.1907
 4843SOL    HW125991   3.248   1.311   3.673 -0.2009 -1.2140  0.7152
 4843SOL    HW225992   3.336   1.244   3.580 -1.2712  0.8060 -0.6317
 4844SOL     OW25993   1.885   0.146   6.304  0.7346  0.4868  0.0739
 4844SOL    HW125994   1.895   0.118   6.213 -0.5684 -1.9741  0.7000
 4844SOL    HW225995   1.955   0.091   6.340 -0.7267 -2.0801 -0.9947
 4845SOL     OW25996   2.532   0.509   8.296 -0.1563  0.0610  0.1546
 4845SOL    HW125997   2.621   0.526   8.327 -0.2111  0.3830  0.1342
 4845SOL    HW225998   2.544   0.523   8.202 -0.2775  0.3421  0.1811
 4846SOL     OW25999   4.310   3.375   7.194 -0.2814  0.6702  0.9956
 4846SOL    HW126000   4.335   3.345   7.282 -1.1196 -0.5675  0.8014
 4846SOL    HW226001   4.220   3.343   7.191 -0.4335  1.3223 -1.4099
 4847SOL     OW26002   2.571   4.064  14.794 -0.5726 -0.7209 -0.4966
 4847SOL    HW126003   2.593   4.123  14.866 -2.7350 -0.9503  0.3452
 4847SOL    HW226004   2.553   3.982  14.841  0.1451 -0.7290 -0.2271
 4848SOL     OW26005   0.460   1.499   6.432  0.0032  0.4950 -0.3518
 4848SOL    HW126006   0.378   1.547   6.443 -0.3614 -0.0764 -0.6252
 4848SOL    HW226007   0.483   1.472   6.521 -0.4541 -0.9932 -0.6896
 4849SOL     OW26008   2.269   4.515  16.547  0.3582  0.2398 -0.5876
 4849SOL    HW126009   2.215   4.566  16.487 -0.6165  1.1514  1.0988
 4849SOL    HW226010   2.266   4.428  16.507  0.1770 -0.8472  1.7750
 4850SOL     OW26011   4.071   1.630   4.588  0.0693  0.1932 -0.2178
 4850SOL    HW126012   4.094   1.632   4.495  1.0098  0.9069  0.0332
 4850SOL    HW226013   3.980   1.602   4.593  1.5775 -4.8477 -1.2512
 4851SOL     OW26014   4.569   2.938   8.831  0.3648  0.5337  0.6612
 4851SOL    HW126015   4.607   2.851   8.833 -2.1328 -0.5556  0.9913
 4851SOL    HW226016   4.521   2.936   8.914 -0.9091  2.3716 -0.0083
 4852SOL     OW26017   4.486   0.268   5.738  0.0380  0.2745  0.2285
 4852SOL    HW126018   4.430   0.267   5.660 -0.1963  3.2913  0.3514
 4852SOL    HW226019   4.553   0.206   5.710 -2.0011 -1.9576  0.2649
 4853SOL     OW26020   2.283   2.713   3.906  0.2177 -0.5670 -0.4606
 4853SOL    HW126021   2.316   2.762   3.831  1.2328  1.2149  1.1339
 4853SOL    HW226022   2.353   2.725   3.971  0.3034 -1.1206 -0.4477
 4854SOL     OW26023   0.789   2.847   5.372  0.1067  0.4174  0.5982
 4854SOL    HW126024   0.726   2.808   5.311  1.0812 -2.0846  1.1723
 4854SOL    HW226025   0.788   2.937   5.340 -2.8354 -0.3811 -1.6184
 4855SOL     OW26026   3.784   2.696   7.652 -0.3791 -0.2043  0.9439
 4855SOL    HW126027   3.749   2.726   7.568 -0.3174  0.1551  1.0451
 4855SOL    HW226028   3.839   2.769   7.682 -1.0591  0.6435  0.1589
 4856SOL     OW26029   4.611   2.317  10.053 -0.3867 -0.3339 -0.5916
 4856SOL    HW126030   4.666   2.395  10.055 -1.2930  0.2704  0.9643
 4856SOL    HW226031   4.660   2.250  10.006 -1.4428 -1.1645 -0.5234
 4857SOL     OW26032   2.728   4.283   8.516  0.0466 -0.1105 -0.5009
 4857SOL    HW126033   2.687   4.369   8.524  0.0419 -0.1742  0.1085
 4857SOL    HW226034   2.820   4.310   8.514  0.1124 -0.3840 -1.4584
 4858SOL     OW26035   2.685   4.271  10.233 -0.1823  0.3896 -1.0161
 4858SOL    HW126036   2.601   4.249  10.193  0.4568 -0.2017 -2.0344
 4858SOL    HW226037   2.658   4.336  10.298  0.8993 -2.0981  1.9203
 4859SOL     OW26038   0.771   1.709   2.116  0.4445 -0.0375 -0.4024
 4859SOL    HW126039   0.818   1.724   2.198  1.6827 -2.6264 -0.6378
 4859SOL    HW226040   0.718   1.636   2.149 -0.7091  0.8992 -0.2192
 4860SOL     OW26041   4.237   2.514  11.500  0.1194 -0.1580  0.2962
 4860SOL    HW126042   4.222   2.605  11.525 -1.5281 -0.1815 -0.6336
 4860SOL    HW226043   4.182   2.455  11.550  0.5218 -0.0400  0.8809
 4861SOL     OW26044   1.287   4.123   2.011 -0.1294 -0.0594  0.3298
 4861SOL    HW126045   1.242   4.185   1.955 -0.2606 -0.6131 -0.1745
 4861SOL    HW226046   1.239   4.046   1.980 -0.9777  1.4713 -2.0710
 4862SOL     OW26047   2.125   3.784   4.568 -0.2743 -0.1236 -0.1570
 4862SOL    HW126048   2.044   3.751   4.608 -0.6570  2.0593  0.8520
 4862SOL    HW226049   2.191   3.775   4.637 -2.4481 -0.9173  1.8311
 4863SOL     OW26050   4.561   1.016   1.926  0.4265  0.1352 -0.6682
 4863SOL    HW126051   4.557   0.933   1.974  0.1964  0.5829  0.0746
 4863SOL    HW226052   4.654   1.011   1.905  0.6677  0.1917  0.3751
 4864SOL     OW26053   4.508   1.259   6.163 -0.1403 -0.0046  0.3634
 4864SOL    HW126054   4.509   1.166   6.140  0.3100  0.1215 -0.1022
 4864SOL    HW226055   4.532   1.292   6.077  0.9335  1.2301  1.1314
 4865SOL     OW26056   3.892   3.440  16.712 -0.1906 -0.0769  0.2557
 4865SOL    HW126057   3.873   3.530  16.684 -0.8972 -0.5342 -0.7112
 4865SOL    HW226058   3.936   3.467  16.793 -1.5918 -0.6135  1.2084
 4866SOL     OW26059   0.874   3.725  15.469  0.1478 -0.0357 -0.4423
 4866SOL    HW126060   0.929   3.802  15.456  1.8132 -1.5611 -2.4654
 4866SOL    HW226061   0.943   3.658  15.473  1.5878  1.5738  1.9825
 4867SOL     OW26062   0.965   1.095   1.853 -0.2015 -0.8127 -0.0830
 4867SOL    HW126063   1.004   1.161   1.795 -0.6860 -0.9327 -0.5436
 4867SOL    HW226064   0.933   1.025   1.796 -0.8999 -1.4030  1.0435
 4868SOL     OW26065   0.502   0.576   1.179  0.0877 -0.4665 -0.0176
 4868SOL    HW126066   0.477   0.644   1.116  0.1396 -0.0620  0.3947
 4868SOL    HW226067   0.500   0.498   1.124  0.1680 -0.1575 -0.4607
 4869SOL     OW26068   4.628   2.658   8.810 -0.0172 -0.1607  0.7676
 4869SOL    HW126069   4.600   2.567   8.824 -1.0082 -0.0058 -0.1201
 4869SOL    HW226070   4.721   2.644   8.792 -0.0661  0.7855 -0.2513
 4870SOL     OW26071   0.354   4.004  14.426 -0.3336  0.3998 -0.6551
 4870SOL    HW126072   0.265   3.995  14.458 -0.8798  1.3666 -1.9052
 4870SOL    HW226073   0.407   3.997  14.505  0.5658 -0.2094 -1.3027
 4871SOL     OW26074   2.005   1.023  17.059 -0.3698 -0.0884  0.0948
 4871SOL    HW126075   1.937   0.959  17.081 -0.3685  0.0680  0.5682
 4871SOL    HW226076   2.078   0.966  17.033 -1.6965 -1.5897 -0.3585
 4872SOL     OW26077   1.312   2.193   9.016  0.0012 -0.0797 -0.3426
 4872SOL    HW126078   1.334   2.285   9.003 -0.7005 -0.3575 -3.6060
 4872SOL    HW226079   1.216   2.190   9.024 -0.0264  0.6230 -0.4264
 4873SOL     OW26080   1.352   3.993   9.377  0.4386  0.1404  0.4742
 4873SOL    HW126081   1.420   3.997   9.310 -1.9245 -1.5712 -2.0839
 4873SOL    HW226082   1.278   3.979   9.317  1.4772  2.6777 -1.3576
 4874SOL     OW26083   2.497   0.231   7.175 -0.0737  0.3330 -0.0770
 4874SOL    HW126084   2.573   0.178   7.149 -1.7636 -1.9356 -0.4510
 4874SOL    HW226085   2.421   0.176   7.157  0.5995 -0.5893 -0.1154
 4875SOL     OW26086   2.086   2.335   9.693 -0.2897 -0.0248 -0.0632
 4875SOL    HW126087   2.114   2.250   9.728  1.1923  0.3130 -0.3898
 4875SOL    HW226088   1.994   2.314   9.680 -0.6008  1.1396  0.2838
 4876SOL     OW26089   2.283   3.659   3.821  0.5850  0.6826  0.4599
 4876SOL    HW126090   2.334   3.735   3.851  1.0991  0.2992  0.5679
 4876SOL    HW226091   2.287   3.591   3.889  1.9628  1.8802  1.5969
 4877SOL     OW26092   3.334   4.034  14.592 -0.7940 -0.2217  0.1081
 4877SOL    HW126093   3.282   4.104  14.553  0.9240 -0.5531 -2.7570
 4877SOL    HW226094   3.276   4.019  14.667 -0.4935  0.7408  0.5201
 4878SOL     OW26095   0.399   2.694   3.164  0.1147  0.5745 -0.5918
 4878SOL    HW126096   0.434   2.691   3.075 -3.0807  1.5085 -1.8714
 4878SOL    HW226097   0.435   2.621   3.214 -2.4139  1.2412  2.1910
 4879SOL     OW26098   1.483   3.215   8.693 -0.1543  0.1414  0.1960
 4879SOL    HW126099   1.475   3.159   8.770 -0.9215  0.4095  0.3086
 4879SOL    HW226100   1.541   3.278   8.735  0.8810 -0.2092 -0.7086
 4880SOL     OW26101   2.516   2.641   5.215  0.7686 -0.2821 -0.1519
 4880SOL    HW126102   2.476   2.690   5.143  1.9125  1.0601  0.1205
 4880SOL    HW226103   2.445   2.643   5.278  2.3231 -0.0965  1.5969
 4881SOL     OW26104   1.368   3.928   2.448  0.4502  0.2714 -0.1758
 4881SOL    HW126105   1.439   3.893   2.503  0.1962  2.3794  1.5196
 4881SOL    HW226106   1.302   3.861   2.467  0.8714 -0.7583 -2.4203
 4882SOL     OW26107   1.118   3.458  12.563 -0.3461 -0.4336  0.4779
 4882SOL    HW126108   1.043   3.517  12.553  0.3371  0.4403  0.4675
 4882SOL    HW226109   1.186   3.525  12.557 -0.8983 -0.0584 -1.6239
 4883SOL     OW26110   2.054   3.290   7.667  0.4159 -0.1636  0.1244
 4883SOL    HW126111   2.138   3.264   7.629 -0.3642  1.3263 -2.5784
 4883SOL    HW226112   1.997   3.232   7.616 -2.8779  1.8219  1.5220
 4884SOL     OW26113   1.018   1.039   0.466  0.2167  0.4828 -0.0138
 4884SOL    HW126114   1.044   1.026   0.375  2.0049  2.2531  0.2616
 4884SOL    HW226115   0.943   0.979   0.470  0.1152  0.5485 -0.9395
 4885SOL     OW26116   3.448   4.120   7.644  0.1513  0.3225  0.4337
 4885SOL    HW126117   3.455   4.156   7.732  1.7453  0.3683  0.2922
 4885SOL    HW226118   3.537   4.119   7.608  0.1540  2.1106  0.4319
 4886SOL     OW26119   2.079   0.633   1.069  0.1371 -0.6102 -0.4502
 4886SOL    HW126120   2.001   0.616   1.122  0.2354  0.0519 -0.1030
 4886SOL    HW226121   2.148   0.638   1.134  0.1926  1.6748 -0.6901
 4887SOL     OW26122   2.167   1.662   8.500  0.0532  0.1774 -0.1048
 4887SOL    HW126123   2.247   1.616   8.526  0.3825 -0.2962 -1.9512
 4887SOL    HW226124   2.151   1.623   8.414  0.5628 -0.6538  0.1764
 4888SOL     OW26125   0.070   1.352   8.641 -0.5095 -0.4197  0.2934
 4888SOL    HW126126   4.712   1.402   8.646 -1.0306 -1.0412 -2.4702
 4888SOL    HW226127   0.093   1.348   8.735  0.6794  0.1978  0.0369
 4889SOL     OW26128   2.495   3.021   2.997  1.0500 -0.1532  0.1765
 4889SOL    HW126129   2.570   2.992   3.048  1.2934  1.0172  0.4961
 4889SOL    HW226130   2.535   3.024   2.911  0.3228 -0.4029 -0.1702
 4890SOL     OW26131   1.465   3.477  12.070 -0.3256  0.5637 -0.1108
 4890SOL    HW126132   1.551   3.462  12.108 -0.9248 -1.2789  0.5192
 4890SOL    HW226133   1.470   3.573  12.064  1.2918  0.4671 -0.2862
 4891SOL     OW26134   0.800   3.198   8.725  0.2973  0.2427 -0.2277
 4891SOL    HW126135   0.860   3.272   8.727  1.1261 -0.5130  2.1691
 4891SOL    HW226136   0.793   3.175   8.818 -0.8810 -0.0801 -0.3871
 4892SOL     OW26137   1.842   4.373   8.583  0.1134  0.4272  0.2605
 4892SOL    HW126138   1.883   4.288   8.600  1.7370  0.6365 -2.5931
 4892SOL    HW226139   1.751   4.345   8.591  0.4116 -0.7037 -0.3262
 4893SOL     OW26140   3.207   4.560   8.609  0.2181  0.4364 -0.0550
 4893SOL    HW126141   3.178   4.625   8.674  2.3733  1.5258 -0.1686
 4893SOL    HW226142   3.213   4.623   8.537  0.3994 -2.0560 -2.2089
 4894SOL     OW26143   1.406   0.719   4.640  0.0879 -0.0243  0.0716
 4894SOL    HW126144   1.458   0.766   4.575  1.5809 -1.3381  0.3167
 4894SOL    HW226145   1.434   0.631   4.616 -3.1232 -0.8815 -0.4601
 4895SOL     OW26146   1.919   4.715   9.100  0.0616 -0.2671 -0.3665
 4895SOL    HW126147   1.967   4.664   9.035  0.3195 -1.0222  0.4255
 4895SOL    HW226148   1.847   0.023   9.044  1.5682  1.5323 -1.3313
 4896SOL     OW26149   3.111   0.235  15.388  0.3301  0.0668 -0.2703
 4896SOL    HW126150   3.098   0.315  15.338  1.1276  0.4001  0.0593
 4896SOL    HW226151   3.158   0.264  15.467 -0.6553 -0.1971  0.4152
 4897SOL     OW26152   3.109   2.597  13.965 -0.1801  0.2407  0.6015
 4897SOL    HW126153   3.015   2.614  13.959 -0.2605  0.6089  2.6622
 4897SOL    HW226154   3.139   2.685  13.987  1.2761 -0.3722  1.0857
 4898SOL     OW26155   1.579   2.007  13.428 -0.3650  0.1229 -0.1922
 4898SOL    HW126156   1.574   1.999  13.332 -1.4201 -2.8793  0.1178
 4898SOL    HW226157   1.600   1.917  13.451 -1.9167 -0.5765 -1.4552
 4899SOL     OW26158   2.717   0.607   3.511 -0.2992  0.0300 -0.0193
 4899SOL    HW126159   2.737   0.695   3.478 -0.2652  1.0623  2.7244
 4899SOL    HW226160   2.722   0.619   3.606  1.3347  2.4895 -0.4241
 4900SOL     OW26161   1.718   1.959   7.139  0.5632  0.4803 -0.7665
 4900SOL    HW126162   1.724   1.867   7.164  0.1786  0.2449 -1.5426
 4900SOL    HW226163   1.642   1.952   7.080 -1.1128  1.6159  1.2791
 4901SOL     OW26164   3.221   2.869   4.507  0.6063  0.1731 -0.2052
 4901SOL    HW126165   3.288   2.886   4.572  0.8043 -1.6918  0.0802
 4901SOL    HW226166   3.276   2.835   4.436  0.7591 -0.8516  0.4003
 4902SOL     OW26167   4.509   1.776   1.250  0.0255  0.3956  0.3934
 4902SOL    HW126168   4.456   1.809   1.177 -0.5789 -0.7076  0.3322
 4902SOL    HW226169   4.474   1.831   1.320 -1.0844  0.4947 -0.2383
 4903SOL     OW26170   4.438   0.918   8.550 -0.2296  0.0208 -1.1834
 4903SOL    HW126171   4.436   0.940   8.643 -0.4640 -1.3825 -0.8561
 4903SOL    HW226172   4.431   1.006   8.513  2.3737  1.0503  0.8501
 4904SOL     OW26173   3.330   0.623  17.174  1.0818  0.0711 -0.0244
 4904SOL    HW126174   3.341   0.715  17.152  0.6230  0.3303  0.8424
 4904SOL    HW226175   3.237   0.609  17.187  1.4186 -1.0148  1.2672
 4905SOL     OW26176   1.833   4.115   2.927 -0.0381 -0.7990 -0.8621
 4905SOL    HW126177   1.879   4.144   2.848  0.8461  1.5063  0.5028
 4905SOL    HW226178   1.840   4.019   2.926  1.1232 -0.7233 -0.0890
 4906SOL     OW26179   3.773   1.823   4.654  0.3969 -0.0292  0.4750
 4906SOL    HW126180   3.864   1.851   4.642  0.2896  0.1553  0.1093
 4906SOL    HW226181   3.748   1.791   4.567  1.8423 -0.6247  0.2850
 4907SOL     OW26182   1.855   1.508   5.623 -0.0179 -0.4133  0.8588
 4907SOL    HW126183   1.856   1.516   5.528  3.1531 -1.5147  0.7915
 4907SOL    HW226184   1.899   1.425   5.639  3.8192  1.1826 -1.3954
 4908SOL     OW26185   4.410   3.243   6.971  0.4255  0.4845 -0.1772
 4908SOL    HW126186   4.490   3.293   6.954  0.5531  0.2637 -0.2132
 4908SOL    HW226187   4.374   3.297   7.042 -1.1871  0.2185 -0.7939
 4909SOL     OW26188   3.811   4.509   8.151  0.5701  0.0019 -0.4784
 4909SOL    HW126189   3.763   4.508   8.233 -0.7640  0.5226 -1.2636
 4909SOL    HW226190   3.900   4.500   8.186  0.6505  3.7018  0.2652
 4910SOL     OW26191   2.964   1.261   3.147 -0.3089  0.0555  0.2089
 4910SOL    HW126192   3.046   1.303   3.173 -0.3256 -0.8949  1.7858
 4910SOL    HW226193   2.973   1.235   3.055  0.9343  4.0981 -0.8195
 4911SOL     OW26194   4.629   1.832   5.472  0.5748  0.7792  0.6737
 4911SOL    HW126195   4.569   1.906   5.470 -1.4747 -0.7899  3.9997
 4911SOL    HW226196   4.604   1.786   5.392 -1.4855  1.5153  0.9029
 4912SOL     OW26197   1.314   2.500  15.583 -0.1163 -0.4823  0.4274
 4912SOL    HW126198   1.388   2.490  15.643  0.3495  3.7094  0.5667
 4912SOL    HW226199   1.280   2.587  15.606 -0.5399 -0.2609 -1.0367
 4913SOL     OW26200   3.460   2.756   3.722  0.0393  0.6965  0.7144
 4913SOL    HW126201   3.517   2.806   3.662 -2.5862  1.6111 -1.0016
 4913SOL    HW226202   3.397   2.828   3.726  1.0377  1.6239 -0.0642
 4914SOL     OW26203   4.040   0.019   8.163 -0.6019  0.0695 -0.2966
 4914SOL    HW126204   4.012   4.699   8.244  0.4114  1.3807  0.7344
 4914SOL    HW226205   4.070   4.667   8.111 -2.2381  0.5887 -1.9850
 4915SOL     OW26206   0.496   3.337   8.804 -0.0522  0.2464  0.3537
 4915SOL    HW126207   0.531   3.282   8.873  0.0200 -0.4399 -0.2312
 4915SOL    HW226208   0.548   3.417   8.809 -0.3809  0.4915 -0.1067
 4916SOL     OW26209   0.397   1.727  12.910  0.1867 -0.4795 -0.4935
 4916SOL    HW126210   0.385   1.789  12.838 -1.3952 -0.2183 -0.0021
 4916SOL    HW226211   0.403   1.648  12.855  2.9458 -0.4507 -0.2423
 4917SOL     OW26212   0.346   2.381   4.546 -0.5748  0.0475  0.1105
 4917SOL    HW126213   0.304   2.335   4.619  1.9710 -2.1079  0.2186
 4917SOL    HW226214   0.268   2.423   4.512  0.2237  0.8869 -0.6709
 4918SOL     OW26215   1.772   4.129   0.933  0.8016  0.0499  0.1053
 4918SOL    HW126216   1.802   4.040   0.946 -0.0300 -0.2436  0.0438
 4918SOL    HW226217   1.764   4.152   0.840  0.2475 -0.0845  0.1210
 4919SOL     OW26218   3.260   0.594  10.561 -0.2811  0.5091  0.3726
 4919SOL    HW126219   3.345   0.582  10.519 -1.3659  0.1177 -1.7510
 4919SOL    HW226220   3.274   0.567  10.651 -1.4000  0.3977  0.5144
 4920SOL     OW26221   1.273   1.090   5.757 -0.4488 -0.1614  0.4491
 4920SOL    HW126222   1.300   1.016   5.811  1.4680  0.7001  0.6738
 4920SOL    HW226223   1.282   1.160   5.821  0.8712 -0.1453  0.2476
 4921SOL     OW26224   2.674   0.846   4.579  0.0167  0.1957 -0.0601
 4921SOL    HW126225   2.729   0.834   4.656 -0.0752 -1.2351 -0.2112
 4921SOL    HW226226   2.587   0.822   4.610 -0.3570 -1.0731 -2.0683
 4922SOL     OW26227   4.204   1.074   0.804  0.2501 -0.1312  0.1830
 4922SOL    HW126228   4.288   1.030   0.793 -0.9831 -2.1646 -0.9033
 4922SOL    HW226229   4.196   1.111   0.716 -1.4240 -1.6653 -0.2965
 4923SOL     OW26230   4.157   2.844   4.725  0.0800  0.2595  0.3258
 4923SOL    HW126231   4.083   2.789   4.752 -0.4677  0.0338 -1.6364
 4923SOL    HW226232   4.172   2.799   4.642 -2.3323 -1.4089  0.7992
 4924SOL     OW26233   3.846   3.979  17.145 -1.3915 -0.2671  0.3641
 4924SOL    HW126234   3.920   4.011  17.197 -0.3816 -2.4482  0.2671
 4924SOL    HW226235   3.776   4.009  17.204  0.3277 -1.5540  3.0768
 4925SOL     OW26236   3.692   2.710  16.187  0.1009 -0.7059  0.8181
 4925SOL    HW126237   3.768   2.672  16.142  0.4657  1.2546 -0.2351
 4925SOL    HW226238   3.715   2.803  16.182 -0.2664 -0.7776 -2.2218
 4926SOL     OW26239   3.195   0.217   7.086  0.7002  0.0602 -0.7720
 4926SOL    HW126240   3.108   0.247   7.113  0.5412  1.1287 -2.4355
 4926SOL    HW226241   3.236   0.303   7.099  0.4560  0.1208 -0.3998
 4927SOL     OW26242   3.598   0.121  14.853 -0.4564  0.3615 -0.1860
 4927SOL    HW126243   3.600   0.100  14.760 -0.0876  0.8365 -0.2852
 4927SOL    HW226244   3.530   0.060  14.882  1.8280 -1.2899  1.7556
 4928SOL     OW26245   4.059   2.416  13.065  0.1018 -0.3134 -0.1984
 4928SOL    HW126246   4.098   2.347  13.012 -2.6221 -0.6646 -1.7006
 4928SOL    HW226247   4.120   2.409  13.139 -1.0670 -1.4548  0.6648
 4929SOL     OW26248   4.606   1.523   9.503 -0.1628 -0.0282  0.2208
 4929SOL    HW126249   4.560   1.581   9.442  1.6626 -1.0393 -2.1253
 4929SOL    HW226250   4.612   1.579   9.580  1.0493 -1.0330  0.8480
 4930SOL     OW26251   1.331   1.067   2.272  0.2055 -0.2475 -0.2684
 4930SOL    HW126252   1.415   1.024   2.255  1.5631  2.1318  0.3799
 4930SOL    HW226253   1.364   1.156   2.281 -1.1791  0.3096 -0.8360
 4931SOL     OW26254   2.402   3.439   2.087  0.4169  0.0531 -0.3978
 4931SOL    HW126255   2.424   3.525   2.123 -1.1967  0.6946 -0.9796
 4931SOL    HW226256   2.362   3.472   2.007  1.0053  1.3559 -0.1492
 4932SOL     OW26257   4.394   4.440   9.218  0.1884  0.2902 -0.1087
 4932SOL    HW126258   4.368   4.501   9.148 -1.0039  0.5837  0.5808
 4932SOL    HW226259   4.302   4.426   9.239  0.5194 -2.1189 -0.3533
 4933SOL     OW26260   0.582   1.264   2.855  0.2559  0.0772 -0.1995
 4933SOL    HW126261   0.583   1.209   2.777  0.3590 -0.0185 -0.1312
 4933SOL    HW226262   0.559   1.350   2.821  2.9952  1.3185  1.0158
 4934SOL     OW26263   2.077   1.825  13.153  0.6507  0.5196  0.2704
 4934SOL    HW126264   2.035   1.833  13.068  1.6966  1.6405 -0.1446
 4934SOL    HW226265   2.163   1.800  13.119 -2.5279 -5.2141 -3.6205
 4935SOL     OW26266   1.365   3.755   3.091  0.5022  0.0256 -0.3751
 4935SOL    HW126267   1.448   3.765   3.137  0.7766  0.0258 -0.8747
 4935SOL    HW226268   1.360   3.663   3.115  0.3424 -0.5071 -2.4409
 4936SOL     OW26269   2.563   0.162   9.693 -0.0087  0.3052  0.3072
 4936SOL    HW126270   2.547   0.256   9.690  0.2023  0.3056 -0.7171
 4936SOL    HW226271   2.643   0.153   9.642  0.6835  2.0043  1.0841
 4937SOL     OW26272   0.957   2.683  14.461  0.6971  0.1564  0.0827
 4937SOL    HW126273   1.002   2.709  14.380 -0.9274 -0.9301 -1.1656
 4937SOL    HW226274   0.894   2.753  14.477 -1.2673 -0.9743 -2.7240
 4938SOL     OW26275   1.058   1.139  13.350  0.0438 -0.8223  0.0000
 4938SOL    HW126276   1.106   1.221  13.344 -0.7637 -0.2550  1.2666
 4938SOL    HW226277   1.100   1.085  13.282 -1.4493 -0.1721 -1.4425
 4939SOL     OW26278   0.932   3.420  14.615  0.2398  0.1276 -0.0057
 4939SOL    HW126279   0.878   3.365  14.558 -0.7088  0.2038  0.8165
 4939SOL    HW226280   0.872   3.425  14.690  1.7857 -1.8195  1.3643
 4940SOL     OW26281   0.255   1.767  13.561  0.2232  0.0726 -0.3659
 4940SOL    HW126282   0.219   1.852  13.534  1.4873  0.3196 -1.2980
 4940SOL    HW226283   0.305   1.775  13.642  1.0683  1.8613 -1.0524
 4941SOL     OW26284   2.426   1.076   6.314  0.5957  0.1139  0.5247
 4941SOL    HW126285   2.339   1.114   6.316 -0.0589 -1.4294  1.4529
 4941SOL    HW226286   2.410   0.994   6.266  0.3103  0.4981 -0.0344
 4942SOL     OW26287   1.162   4.271   3.419  0.2107  0.2425  0.2976
 4942SOL    HW126288   1.181   4.325   3.343 -0.1691  1.1323  0.8311
 4942SOL    HW226289   1.250   4.256   3.453  0.0512  0.1595  0.6815
 4943SOL     OW26290   0.145   4.027  11.769  0.2507  0.4030 -0.0714
 4943SOL    HW126291   0.107   4.075  11.695 -0.4099  1.9818  1.2979
 4943SOL    HW226292   0.173   4.104  11.818  1.4695  0.3866 -0.7426
 4944SOL     OW26293   1.287   3.520   1.456 -0.0086 -0.4578  0.4761
 4944SOL    HW126294   1.245   3.578   1.520  0.1073  1.2207 -0.9543
 4944SOL    HW226295   1.383   3.522   1.460  0.1167 -0.4928 -2.4567
 4945SOL     OW26296   2.583   4.431   6.634  0.0386  0.7187  0.1781
 4945SOL    HW126297   2.530   4.469   6.564 -0.9199  0.1225  0.5733
 4945SOL    HW226298   2.634   4.507   6.663  0.8007 -0.3470  1.6433
 4946SOL     OW26299   4.649   2.050   2.559 -0.3559 -0.2005 -0.1163
 4946SOL    HW126300   4.700   2.099   2.623 -1.1399  1.0790 -0.4506
 4946SOL    HW226301   4.626   2.117   2.494  0.0647 -0.9048 -1.0001
 4947SOL     OW26302   4.054   2.687   3.188  0.0093 -0.0682  0.0154
 4947SOL    HW126303   4.133   2.637   3.165  0.3970  0.7990 -0.5464
 4947SOL    HW226304   4.084   2.729   3.269  1.5379 -1.9160  0.4355
 4948SOL     OW26305   1.685   3.328   0.701 -0.6949  0.1936 -0.0506
 4948SOL    HW126306   1.710   3.393   0.636  0.2657 -0.4336 -0.3131
 4948SOL    HW226307   1.709   3.377   0.779 -0.3166  1.0855 -0.7285
 4949SOL     OW26308   0.917   1.662   1.211 -0.0427  0.2576 -0.0076
 4949SOL    HW126309   0.831   1.625   1.230  0.6204 -0.9143  0.7572
 4949SOL    HW226310   0.943   1.613   1.133 -0.6649  0.2657 -0.2192
 4950SOL     OW26311   1.503   4.270  10.922 -0.1374  0.1367 -0.5885
 4950SOL    HW126312   1.588   4.300  10.890  0.5880  0.3342  1.5507
 4950SOL    HW226313   1.495   4.182  10.885  0.0539 -0.2454  0.2946
 4951SOL     OW26314   1.383   0.271   0.478 -0.8746 -0.2664 -0.1641
 4951SOL    HW126315   1.365   0.184   0.443  2.5186 -0.5886 -1.0872
 4951SOL    HW226316   1.351   0.261   0.567  0.2770 -0.3690  0.2399
 4952SOL     OW26317   4.412   3.745   6.140  0.3021  0.4543 -0.0502
 4952SOL    HW126318   4.334   3.794   6.168  0.2870 -0.3702  1.3502
 4952SOL    HW226319   4.445   3.798   6.068  0.7843 -1.4966 -1.2614
 4953SOL     OW26320   0.155   2.795   2.594 -0.5153  0.0279  0.2180
 4953SOL    HW126321   0.213   2.788   2.518  0.7697 -0.7410  1.2835
 4953SOL    HW226322   0.070   2.813   2.553 -0.5836 -0.1760  0.2698
 4954SOL     OW26323   2.097   1.492   6.547  0.2824  0.5282 -0.1404
 4954SOL    HW126324   2.057   1.552   6.485 -0.0995  0.2025 -0.2083
 4954SOL    HW226325   2.145   1.552   6.604  0.8073 -0.0250  0.0060
 4955SOL     OW26326   2.890   1.914   2.213  0.2124 -0.0134 -0.3264
 4955SOL    HW126327   2.859   1.823   2.211 -1.4184  0.4994  1.4731
 4955SOL    HW226328   2.837   1.947   2.140  0.0945  3.1025  1.1678
 4956SOL     OW26329   0.004   2.736   8.325 -0.2936 -0.1645 -0.0774
 4956SOL    HW126330   4.698   2.732   8.416  1.7499  1.3461  0.6305
 4956SOL    HW226331   0.044   2.650   8.311  2.4587  1.0234  0.6551
 4957SOL     OW26332   0.734   2.806   4.320 -0.1978 -0.3830  0.0215
 4957SOL    HW126333   0.784   2.737   4.276  0.5544 -1.8345  3.1446
 4957SOL    HW226334   0.751   2.784   4.411  0.0172 -3.5755 -0.7869
 4958SOL     OW26335   0.740   0.538   5.850  0.5498 -0.0060  0.1535
 4958SOL    HW126336   0.649   0.524   5.875  0.6448 -1.2147 -0.1710
 4958SOL    HW226337   0.775   0.603   5.911  1.7657 -0.4303 -0.0870
 4959SOL     OW26338   4.350   2.584   4.050  0.4684 -0.0240  0.1105
 4959SOL    HW126339   4.256   2.604   4.045  0.4865  0.0375  0.0211
 4959SOL    HW226340   4.337   2.517   4.117  2.0106 -1.0708 -0.6307
 4960SOL     OW26341   2.634   0.058   4.286 -0.1593  0.0970 -0.2810
 4960SOL    HW126342   2.550   0.057   4.239  1.1104 -0.5255 -2.5415
 4960SOL    HW226343   2.654   0.150   4.270 -0.3766  0.4569  1.4860
 4961SOL     OW26344   2.376   1.583   2.615  0.2247 -0.1509  0.4290
 4961SOL    HW126345   2.298   1.529   2.633 -2.0713  2.4388 -1.6584
 4961SOL    HW226346   2.375   1.568   2.520  0.9847  0.1059  0.3836
 4962SOL     OW26347   1.511   3.552   6.012 -0.2593  0.4135 -0.1598
 4962SOL    HW126348   1.487   3.643   5.995 -2.3012 -0.3560 -1.3195
 4962SOL    HW226349   1.555   3.529   5.930  0.2776 -0.2512  0.3167
 4963SOL     OW26350   2.088   0.370   4.712 -0.1235  0.1784  0.2726
 4963SOL    HW126351   2.098   0.324   4.796 -1.2478 -0.1217  0.2316
 4963SOL    HW226352   1.996   0.364   4.686 -0.2584  0.1548  0.7625
 4964SOL     OW26353   1.201   1.996   3.882  0.2372 -0.0926  0.0105
 4964SOL    HW126354   1.150   1.928   3.838  0.1480 -0.1947  0.2674
 4964SOL    HW226355   1.184   2.070   3.824 -2.4680 -0.6535  0.0797
 4965SOL     OW26356   4.538   4.450   3.140  0.1184  0.0280  0.2274
 4965SOL    HW126357   4.498   4.518   3.087  1.2751 -0.4117 -1.2135
 4965SOL    HW226358   4.631   4.468   3.126 -0.0641  0.8418  0.0927
 4966SOL     OW26359   0.639   1.084  12.333  1.0406 -0.5114  0.2058
 4966SOL    HW126360   0.584   1.036  12.271  1.5258  0.2100 -0.7784
 4966SOL    HW226361   0.728   1.072  12.300  0.2922 -0.8227 -1.7082
 4967SOL     OW26362   4.606   2.722   4.014 -0.4105  0.1864  0.1399
 4967SOL    HW126363   4.513   2.715   4.038  0.0037 -0.3574  1.5890
 4967SOL    HW226364   4.617   2.813   4.042 -0.7632  0.6257 -1.1263
 4968SOL     OW26365   0.859   0.827   7.371 -0.1916 -0.4815 -0.0410
 4968SOL    HW126366   0.849   0.909   7.322  1.5000  0.1429  0.6624
 4968SOL    HW226367   0.792   0.770   7.332 -0.7268 -0.0418  0.2437
 4969SOL     OW26368   1.039   1.443   1.040  0.4223  0.5094 -0.0525
 4969SOL    HW126369   1.030   1.390   0.962  2.9164  1.2921 -0.8710
 4969SOL    HW226370   1.056   1.373   1.103  0.7016  1.7687  1.2857
 4970SOL     OW26371   4.176   0.633   7.051  0.6995 -0.2919 -0.4357
 4970SOL    HW126372   4.173   0.554   7.105 -0.3218 -0.7039 -1.0942
 4970SOL    HW226373   4.271   0.644   7.042  0.7792 -2.6023 -2.4044
 4971SOL     OW26374   1.056   1.557   5.491 -0.4549 -0.0692 -0.5030
 4971SOL    HW126375   1.081   1.544   5.399  0.2685 -2.0599 -0.0330
 4971SOL    HW226376   0.978   1.501   5.495 -1.3993  1.1103 -2.4386
 4972SOL     OW26377   3.999   3.531  16.953  0.5795  0.6307 -0.9465
 4972SOL    HW126378   4.025   3.512  17.043 -0.8980  1.4672 -0.3507
 4972SOL    HW226379   3.958   3.616  16.968 -0.4813  0.1947 -1.3263
 4973SOL     OW26380   0.639   2.083   1.254  0.4578  0.0270  0.1075
 4973SOL    HW126381   0.664   2.044   1.338 -0.7549 -2.0943 -0.5144
 4973SOL    HW226382   0.572   2.143   1.288 -1.7409 -1.3916 -1.6991
 4974SOL     OW26383   0.419   4.070  11.204 -0.5749  0.3461  0.3403
 4974SOL    HW126384   0.426   4.165  11.212 -3.4847  0.5004  1.1922
 4974SOL    HW226385   0.504   4.043  11.240 -1.5105 -1.5567  1.1050
 4975SOL     OW26386   2.062   3.288   8.549 -0.5790  0.0428 -0.1951
 4975SOL    HW126387   2.009   3.270   8.627  0.3030  1.3754  0.7105
 4975SOL    HW226388   2.133   3.226   8.564 -0.9893 -0.2380  0.6236
 4976SOL     OW26389   3.354   2.395   6.317  0.4831  0.0543 -0.1561
 4976SOL    HW126390   3.429   2.380   6.259  0.7515  1.4990 -0.1790
 4976SOL    HW226391   3.308   2.312   6.306  0.5588 -0.1834  1.2720
 4977SOL     OW26392   3.494   1.624   5.733  0.1043  0.2770  0.0998
 4977SOL    HW126393   3.562   1.647   5.669  1.1247 -0.3583  0.9684
 4977SOL    HW226394   3.427   1.692   5.726 -0.6789 -0.6195 -1.2068
 4978SOL     OW26395   0.960   4.591  13.030 -1.1416  0.3054 -0.1448
 4978SOL    HW126396   1.043   4.571  12.986  0.0338  1.0286  1.6971
 4978SOL    HW226397   0.999   4.631  13.108  1.4531 -1.0196 -0.7436
 4979SOL     OW26398   1.890   2.360   3.835  0.3382 -0.4251 -0.4150
 4979SOL    HW126399   1.891   2.445   3.879 -1.2956 -0.9151  0.5758
 4979SOL    HW226400   1.984   2.344   3.842  0.4829  0.6096  0.0464
 4980SOL     OW26401   2.086   4.568   8.916 -0.3968 -0.1601  0.1106
 4980SOL    HW126402   2.121   4.500   8.973  1.0302 -0.8687 -1.6105
 4980SOL    HW226403   2.144   4.551   8.842 -1.8430 -1.8259 -0.6659
 4981SOL     OW26404   1.209   1.988   7.963  0.0951  0.2339  0.1274
 4981SOL    HW126405   1.162   1.927   8.020  2.2090 -0.7651  0.7674
 4981SOL    HW226406   1.271   2.024   8.026  0.7721 -0.3003 -0.2390
 4982SOL     OW26407   1.881   2.376   2.903  0.7745 -0.0047 -0.8041
 4982SOL    HW126408   1.881   2.471   2.893 -0.9004 -0.0745 -1.6338
 4982SOL    HW226409   1.915   2.360   2.990 -1.9537  0.6117  0.3909
 4983SOL     OW26410   2.114   2.101   6.340  0.1327  0.3516  0.4098
 4983SOL    HW126411   2.142   2.111   6.249  1.8434  0.2800  0.9322
 4983SOL    HW226412   2.092   2.192   6.356 -0.2394  0.3916 -0.3721
 4984SOL     OW26413   1.365   3.040  10.569  0.2704 -0.2952 -0.4494
 4984SOL    HW126414   1.401   3.128  10.584  2.0411 -1.6292  3.1605
 4984SOL    HW226415   1.322   3.035  10.654  2.0210 -0.5550  0.4312
 4985SOL     OW26416   4.259   2.274  12.513 -0.2871  0.1298  0.8241
 4985SOL    HW126417   4.332   2.213  12.509 -1.5403 -1.3569  0.7066
 4985SOL    HW226418   4.216   2.260  12.428 -0.0810  1.9117  0.4221
 4986SOL     OW26419   2.663   0.065   4.612  0.0970  0.2344 -0.2493
 4986SOL    HW126420   2.683   0.149   4.570  3.5001 -1.1666 -1.3647
 4986SOL    HW226421   2.568   0.069   4.602 -0.0546 -0.4477  0.9467
 4987SOL     OW26422   1.591   1.349   1.925 -0.2768 -0.3012 -0.2589
 4987SOL    HW126423   1.549   1.302   1.853 -0.0541  0.1103 -0.6598
 4987SOL    HW226424   1.541   1.430   1.934 -0.8721 -0.6839 -0.1038
 4988SOL     OW26425   4.689   3.837   2.674 -0.2328 -0.2548  0.3700
 4988SOL    HW126426   4.634   3.915   2.665 -1.0493 -0.8071  0.5286
 4988SOL    HW226427   4.626   3.764   2.678 -0.1458 -0.3680 -0.3805
 4989SOL     OW26428   1.222   0.493   7.163 -0.1944  0.6653 -0.1252
 4989SOL    HW126429   1.282   0.553   7.207  1.3143 -0.2247 -0.9764
 4989SOL    HW226430   1.244   0.521   7.074  1.0210 -0.8027 -0.2906
 4990SOL     OW26431   0.239   3.029   0.056  0.1984 -0.2959 -0.4874
 4990SOL    HW126432   0.270   2.939   0.044 -1.0344 -0.9601  1.3256
 4990SOL    HW226433   0.183   3.050  17.674 -1.6876  2.0081  1.5492
 4991SOL     OW26434   0.496   1.890  10.481  0.1476 -0.0412  0.1334
 4991SOL    HW126435   0.418   1.869  10.430  0.7553 -1.0758 -0.3780
 4991SOL    HW226436   0.466   1.962  10.536  1.6274  0.9116 -0.3118
 4992SOL     OW26437   4.175   1.669   7.062  0.2223  0.0420  0.2563
 4992SOL    HW126438   4.104   1.605   7.057  0.5045 -0.1859 -0.8684
 4992SOL    HW226439   4.140   1.735   7.121 -2.0367 -0.3508 -0.6440
 4993SOL     OW26440   2.155   4.124   3.827 -0.0540 -0.3355 -0.2668
 4993SOL    HW126441   2.183   4.197   3.770 -2.1254 -0.2173 -1.1463
 4993SOL    HW226442   2.098   4.166   3.891  1.9345  0.4240  1.0084
 4994SOL     OW26443   3.801   0.972   9.551 -0.1711  0.6558 -0.1439
 4994SOL    HW126444   3.732   0.921   9.594  0.1988 -0.2547 -0.6155
 4994SOL    HW226445   3.826   1.019   9.630 -3.1634 -0.2839  1.3409
 4995SOL     OW26446   3.684   4.567   8.482  0.7741 -0.1650  0.2426
 4995SOL    HW126447   3.682   4.651   8.528 -1.2603  0.2396 -0.6025
 4995SOL    HW226448   3.612   4.517   8.518 -1.0291  1.3926 -1.2223
 4996SOL     OW26449   0.516   4.611   4.031  0.0564 -0.3707  0.5277
 4996SOL    HW126450   0.467   4.611   3.949  3.2349 -0.6363 -1.3441
 4996SOL    HW226451   0.463   4.557   4.090  2.0187 -1.8235  0.9483
 4997SOL     OW26452   2.089   1.633   2.464  0.4158 -0.8053  0.2413
 4997SOL    HW126453   2.161   1.583   2.427 -0.5361 -2.9594  1.3209
 4997SOL    HW226454   2.094   1.712   2.409  1.4006 -1.2688 -0.3230
 4998SOL     OW26455   4.651   0.996   0.656 -0.0862  0.2048  0.3483
 4998SOL    HW126456   0.003   0.974   0.600 -0.0313 -1.8637  1.2379
 4998SOL    HW226457   4.588   1.029   0.592  2.1224  2.9182 -0.4804
 4999SOL     OW26458   2.241   1.378   6.867  0.1279 -0.1164  0.0578
 4999SOL    HW126459   2.201   1.292   6.857  0.3078 -0.1492 -0.3812
 4999SOL    HW226460   2.164   1.430   6.889 -0.1691 -0.9501  0.9901
 5000SOL     OW26461   1.849   0.515   8.280  0.0155  0.3154  0.2998
 5000SOL    HW126462   1.826   0.559   8.362  0.2326  2.1393 -0.6103
 5000SOL    HW226463   1.854   0.429   8.320  0.9144 -1.3899 -3.5517
 5001SOL     OW26464   2.074   3.938   2.734 -0.2299 -0.3258  0.3242
 5001SOL    HW126465   2.005   3.903   2.791  0.9010  0.1364  1.9820
 5001SOL    HW226466   2.022   4.009   2.696  2.3532  2.7318  2.4624
 5002SOL     OW26467   2.365   0.658   7.356  0.4599 -0.3605  0.1245
 5002SOL    HW126468   2.410   0.592   7.302  2.2455  1.1441 -0.2202
 5002SOL    HW226469   2.402   0.632   7.440 -0.8475  1.9205  1.4097
 5003SOL     OW26470   2.966   3.594   3.680 -0.5224  0.4845 -0.0355
 5003SOL    HW126471   2.908   3.518   3.677  0.7103 -0.3330 -2.7577
 5003SOL    HW226472   2.902   3.661   3.656 -0.9943 -0.3035 -0.9607
 5004SOL     OW26473   4.162   3.060   2.223  0.0394  0.5331  0.3323
 5004SOL    HW126474   4.140   3.025   2.137 -0.8447  0.4992  0.5744
 5004SOL    HW226475   4.247   3.103   2.211  0.2641 -0.4488 -1.5749
 5005SOL     OW26476   1.627   0.429   6.128  0.1858  0.2127  0.1393
 5005SOL    HW126477   1.564   0.495   6.158 -1.4295 -1.0542 -0.4948
 5005SOL    HW226478   1.643   0.455   6.037 -0.1555 -0.5678 -0.1496
 5006SOL     OW26479   2.423   4.569   3.574 -0.2812 -0.3853  0.2625
 5006SOL    HW126480   2.513   4.595   3.550 -1.4616  2.8874 -0.6568
 5006SOL    HW226481   2.433   4.563   3.669 -0.5133  0.9345  0.3710
 5007SOL     OW26482   0.765   2.440   0.875 -0.2842  0.1167 -0.2639
 5007SOL    HW126483   0.783   2.385   0.951  1.0429  1.7126  0.5773
 5007SOL    HW226484   0.699   2.500   0.910 -1.1253 -0.5071 -0.7956
 5008SOL     OW26485   1.924   2.229  12.260  0.4147  0.4922 -0.2111
 5008SOL    HW126486   1.970   2.187  12.333  1.0880  0.5455 -0.6027
 5008SOL    HW226487   1.914   2.321  12.283  1.3990  0.3997  0.5526
 5009SOL     OW26488   0.553   0.131   2.724 -0.7133 -0.1010  0.1350
 5009SOL    HW126489   0.477   0.161   2.774  0.1666  0.6237  1.0600
 5009SOL    HW226490   0.532   0.039   2.710  2.1438 -0.7183 -0.0821
 5010SOL     OW26491   0.341   4.668   3.763  0.4870 -0.3630  0.1389
 5010SOL    HW126492   0.415   4.623   3.722  0.9003  1.5928 -1.3076
 5010SOL    HW226493   0.348   0.029   3.717  1.3304 -0.1849  0.5835
 5011SOL     OW26494   2.916   1.697   7.631 -0.4467  0.3650 -0.1924
 5011SOL    HW126495   2.840   1.755   7.636 -0.9269 -0.2005 -1.0302
 5011SOL    HW226496   2.878   1.625   7.581  1.6776 -0.6750 -0.2797
 5012SOL     OW26497   3.557   4.141   5.393 -0.0564  0.2388  0.5967
 5012SOL    HW126498   3.500   4.068   5.367  0.2482 -0.1982  1.1788
 5012SOL    HW226499   3.499   4.212   5.421 -1.5556 -0.8038  0.1982
 5013SOL     OW26500   1.342   4.042   7.518 -0.3704 -0.3274  0.0358
 5013SOL    HW126501   1.377   4.115   7.466  2.0959  0.7933  3.2864
 5013SOL    HW226502   1.303   3.982   7.455 -2.2743  1.8430 -0.8759
 5014SOL     OW26503   1.946   0.196  11.369 -0.0647  0.1558  0.0431
 5014SOL    HW126504   1.880   0.135  11.338 -0.7167 -0.0937  1.9339
 5014SOL    HW226505   1.905   0.272  11.327 -2.4932 -0.5856  1.0919
 5015SOL     OW26506   0.725   0.943   3.726  0.2865  0.2709  0.5147
 5015SOL    HW126507   0.675   0.866   3.752  3.0457 -1.7995 -0.3211
 5015SOL    HW226508   0.725   0.950   3.631 -0.4706 -1.4243  0.3899
 5016SOL     OW26509   1.443   2.265  11.352 -0.3253 -0.0324 -0.7755
 5016SOL    HW126510   1.462   2.175  11.325 -3.4945 -1.1426  0.7857
 5016SOL    HW226511   1.397   2.308  11.280 -1.4812  0.4487  0.2695
 5017SOL     OW26512   0.649   1.814   4.556 -0.3881 -0.6200 -0.0265
 5017SOL    HW126513   0.692   1.870   4.492  1.2441 -0.1549  1.4789
 5017SOL    HW226514   0.612   1.879   4.615 -1.7145 -0.9702 -0.4689
 5018SOL     OW26515   2.774   3.418   3.694  0.4223 -0.1959 -0.5175
 5018SOL    HW126516   2.681   3.437   3.687  0.5397  0.7795  0.4862
 5018SOL    HW226517   2.770   3.328   3.728 -0.2276  0.2389  0.5632
 5019SOL     OW26518   2.741   0.861   0.360 -0.5192  0.3092 -0.3567
 5019SOL    HW126519   2.785   0.801   0.421 -1.0545  0.7578  0.4715
 5019SOL    HW226520   2.780   0.835   0.277 -0.7073  0.8547 -0.6143
 5020SOL     OW26521   0.568   4.276   7.143 -0.1629  0.6560 -0.1793
 5020SOL    HW126522   0.633   4.328   7.095 -0.6702  0.6337 -0.8914
 5020SOL    HW226523   0.620   4.262   7.222  1.8680 -2.6965 -2.1034
 5021SOL     OW26524   1.976   4.307   1.053  0.2078  0.0914 -0.1464
 5021SOL    HW126525   2.007   4.349   0.973 -0.7315  1.0049 -0.0343
 5021SOL    HW226526   1.892   4.270   1.026 -0.2361  1.0098 -0.0460
 5022SOL     OW26527   0.868   0.605  10.025 -0.2971  0.2311  0.8160
 5022SOL    HW126528   0.805   0.647   9.966 -1.3516 -1.2104  0.9276
 5022SOL    HW226529   0.821   0.623  10.107 -0.4563 -2.1983  1.2482
 5023SOL     OW26530   1.836   2.430   8.078  0.1624  0.0184 -0.0811
 5023SOL    HW126531   1.819   2.357   8.138  1.9522 -1.1789 -1.0350
 5023SOL    HW226532   1.751   2.442   8.035 -0.2993  0.9008  1.0692
 5024SOL     OW26533   0.051   1.589   5.585  0.0360 -0.1042  0.1618
 5024SOL    HW126534   0.113   1.607   5.656  0.8571 -0.5112 -0.4539
 5024SOL    HW226535   0.057   1.673   5.539 -2.6628  0.6170  1.1330
 5025SOL     OW26536   0.853   2.917   7.519 -0.1916  0.1381 -0.6331
 5025SOL    HW126537   0.777   2.894   7.572  0.6972  0.6363  0.8698
 5025SOL    HW226538   0.827   3.005   7.490 -1.0051  0.1816  0.2163
 5026SOL     OW26539   1.270   4.553   4.206  0.5631  0.1824  0.4373
 5026SOL    HW126540   1.271   4.648   4.221  1.7659  0.5631 -2.0916
 5026SOL    HW226541   1.187   4.545   4.159  0.5894 -0.1367  0.4453
 5027SOL     OW26542   0.935   0.353  11.388 -0.0541 -0.2496 -0.0592
 5027SOL    HW126543   1.005   0.334  11.449 -1.6394  0.5676  2.0063
 5027SOL    HW226544   0.986   0.402  11.323 -1.5765  1.5478  0.1115
 5028SOL     OW26545   2.285   0.912   7.356 -0.4831  0.0492  0.1295
 5028SOL    HW126546   2.312   0.820   7.360  0.0998  0.2181  0.0586
 5028SOL    HW226547   2.322   0.947   7.437 -1.7526  0.6123  0.4794
 5029SOL     OW26548   0.907   1.192   9.042  0.2249 -0.5750  0.2742
 5029SOL    HW126549   0.911   1.192   8.947 -0.4173 -0.6119  0.2433
 5029SOL    HW226550   0.928   1.283   9.064 -0.7156 -0.1676 -0.4772
 5030SOL     OW26551   0.126   2.979   2.286 -0.0695  0.1614 -0.0115
 5030SOL    HW126552   0.069   2.902   2.276  1.8842 -1.6119  2.3623
 5030SOL    HW226553   0.073   3.041   2.334  2.1247  1.3399  0.8942
 5031SOL     OW26554   3.490   2.499   9.718  0.4034  0.4820 -0.0163
 5031SOL    HW126555   3.475   2.411   9.755  1.4390 -0.2694 -1.3813
 5031SOL    HW226556   3.470   2.559   9.790 -0.1120  0.0295  0.2252
 5032SOL     OW26557   2.249   1.780  11.975 -0.2827  0.3858  0.1889
 5032SOL    HW126558   2.321   1.834  11.943 -0.2313 -1.4118 -2.8029
 5032SOL    HW226559   2.294   1.700  12.003 -0.2185  0.5348  0.5080
 5033SOL     OW26560   3.294   2.708   7.679 -0.6545 -0.0634  0.1682
 5033SOL    HW126561   3.361   2.761   7.636  0.7649 -1.2668  0.8991
 5033SOL    HW226562   3.322   2.618   7.661  1.5091  0.3890  1.2675
 5034SOL     OW26563   2.644   0.719   5.752  0.2135 -0.4386  0.4219
 5034SOL    HW126564   2.617   0.786   5.815 -1.7057 -1.0850  0.2853
 5034SOL    HW226565   2.716   0.763   5.707 -0.0043 -0.2878  0.2215
 5035SOL     OW26566   4.466   1.157   4.131  0.8455 -0.0265 -0.0754
 5035SOL    HW126567   4.439   1.249   4.130  0.2050 -0.2316 -1.1304
 5035SOL    HW226568   4.496   1.145   4.041 -1.0136 -0.5441 -0.6338
 5036SOL     OW26569   3.362   0.435  10.771 -0.6027  0.2004  0.5416
 5036SOL    HW126570   3.438   0.431  10.714 -1.9708 -4.1460 -1.0328
 5036SOL    HW226571   3.321   0.356  10.736  0.1823  1.1874 -2.5863
 5037SOL     OW26572   2.759   3.185  11.155  0.5141  0.1167  0.0964
 5037SOL    HW126573   2.843   3.226  11.138  0.7313 -0.4525 -0.1944
 5037SOL    HW226574   2.751   3.196  11.250  0.7095 -0.4758  0.1829
 5038SOL     OW26575   1.542   2.051   4.834  0.0846  0.0203 -0.0052
 5038SOL    HW126576   1.494   1.969   4.845 -2.6592  1.4039 -1.6880
 5038SOL    HW226577   1.599   2.038   4.909 -1.3489 -1.9034  0.7700
 5039SOL     OW26578   2.709   0.910   9.039  0.5356 -0.0546 -0.1454
 5039SOL    HW126579   2.735   0.874   9.124  0.1100  0.6196  0.2697
 5039SOL    HW226580   2.772   0.854   8.994 -0.1604 -1.5358  0.7032
 5040SOL     OW26581   3.705   1.035  14.669  0.4632  0.1441 -0.5793
 5040SOL    HW126582   3.770   1.105  14.667  2.9344 -2.1141  0.4087
 5040SOL    HW226583   3.730   0.984  14.747  0.3107 -1.2105 -1.4215
 5041SOL     OW26584   2.096   2.038   4.854  0.5155 -0.2106  0.6260
 5041SOL    HW126585   2.050   2.030   4.938 -0.6887 -0.0278 -0.0219
 5041SOL    HW226586   2.024   2.044   4.792  0.8714  1.1064  0.3431
 5042SOL     OW26587   2.821   2.512   3.645  0.7148  0.0971  0.2590
 5042SOL    HW126588   2.732   2.549   3.645  0.7592  0.2085 -0.6748
 5042SOL    HW226589   2.873   2.559   3.711 -0.8688  3.0350 -0.5829
 5043SOL     OW26590   3.756   1.153   9.781  0.3001 -0.4626 -0.3645
 5043SOL    HW126591   3.785   1.130   9.870 -0.3885  0.9834  0.2431
 5043SOL    HW226592   3.664   1.144   9.807  0.3350  1.5927  0.4433
 5044SOL     OW26593   4.442   3.886   5.187 -0.5521  0.0649  0.4312
 5044SOL    HW126594   4.365   3.904   5.132  0.0177  0.6233 -0.1834
 5044SOL    HW226595   4.487   3.970   5.178  1.8289 -1.2369  0.4674
 5045SOL     OW26596   1.432   1.252   6.155 -0.1057 -0.1255 -0.1236
 5045SOL    HW126597   1.377   1.309   6.208 -0.7128 -0.7089 -0.1315
 5045SOL    HW226598   1.368   1.184   6.133  0.2334 -1.1760  2.1976
 5046SOL     OW26599   1.894   0.266   9.218  0.4973  0.0640 -0.3125
 5046SOL    HW126600   1.832   0.203   9.182 -1.0849  0.9676  0.8310
 5046SOL    HW226601   1.971   0.209   9.214  1.1924  0.8814  1.0604
 5047SOL     OW26602   1.279   3.965  10.178 -0.0512  0.6087  0.5807
 5047SOL    HW126603   1.245   3.876  10.176  1.7522 -0.0925  1.5290
 5047SOL    HW226604   1.224   4.013  10.240 -0.3218 -0.0795  0.8668
 5048SOL     OW26605   2.442   3.471   6.265 -0.3587 -0.2244 -0.0264
 5048SOL    HW126606   2.477   3.388   6.296 -0.1298  0.0498  0.4556
 5048SOL    HW226607   2.406   3.442   6.181  0.8429 -3.0183  0.4264
 5049SOL     OW26608   3.813   0.562   5.745  0.5178  0.1726  0.0467
 5049SOL    HW126609   3.744   0.501   5.719  0.4087 -0.1010  0.9629
 5049SOL    HW226610   3.805   0.626   5.674 -3.2271 -0.9738 -0.5481
 5050SOL     OW26611   2.152   1.772   4.761  0.8859 -0.2787  0.1326
 5050SOL    HW126612   2.128   1.864   4.774  0.4253 -0.4607  0.5745
 5050SOL    HW226613   2.166   1.735   4.848  1.0052  0.6633  0.5237
 5051SOL     OW26614   3.118   3.042   3.572 -0.2324 -0.4955 -0.3651
 5051SOL    HW126615   3.042   3.093   3.601  0.4348  0.8741 -1.0496
 5051SOL    HW226616   3.165   3.119   3.541  0.2759 -0.8116 -0.3786
 5052SOL     OW26617   0.034   3.833   2.274 -0.4720  0.4782 -0.1782
 5052SOL    HW126618   4.670   3.806   2.303 -0.2511 -0.2405 -0.1839
 5052SOL    HW226619   0.046   3.769   2.204  0.9823  1.0995 -0.5029
 5053SOL     OW26620   1.654   0.212   0.816  0.2020  0.3011  0.2664
 5053SOL    HW126621   1.733   0.164   0.793 -0.3690 -0.9443  0.9160
 5053SOL    HW226622   1.691   0.293   0.852 -1.1258  0.5987  0.9525
 5054SOL     OW26623   0.917   2.875   4.684  0.1147 -0.4038 -0.1284
 5054SOL    HW126624   0.905   2.854   4.777 -2.1329  2.0051  0.1262
 5054SOL    HW226625   0.828   2.864   4.650 -1.0538  1.9376  2.2238
 5055SOL     OW26626   4.095   0.145   4.849 -0.3337 -0.1169 -0.7076
 5055SOL    HW126627   4.062   0.235   4.858 -0.7599 -0.4244  0.8165
 5055SOL    HW226628   4.077   0.120   4.759  1.3970 -0.3269 -0.9928
 5056SOL     OW26629   0.677   0.502  12.858  0.0807 -0.3226 -0.4572
 5056SOL    HW126630   0.710   0.591  12.864 -2.5353  0.4169  3.1227
 5056SOL    HW226631   0.741   0.455  12.804  0.3848 -0.7701  0.2906
 5057SOL     OW26632   3.116   4.560  14.533  0.4018  0.0272 -0.1273
 5057SOL    HW126633   3.135   4.613  14.610 -3.8187  0.4093  0.6517
 5057SOL    HW226634   3.197   4.580  14.485  1.3544 -1.4323  0.8768
 5058SOL     OW26635   1.724   2.813   7.258 -0.0687  0.0480 -0.0211
 5058SOL    HW126636   1.683   2.837   7.341 -1.3302 -1.4436 -0.2320
 5058SOL    HW226637   1.658   2.762   7.212  1.7018 -0.1381 -2.3379
 5059SOL     OW26638   4.063   3.920   6.696  0.3178  0.1838  0.5237
 5059SOL    HW126639   4.075   4.002   6.744  1.6003 -1.1078  2.4083
 5059SOL    HW226640   3.967   3.927   6.697  0.2875 -0.3435  1.8931
 5060SOL     OW26641   1.430   4.283   7.894 -0.2470 -0.5005 -0.7493
 5060SOL    HW126642   1.514   4.321   7.921 -1.2348  0.0341  1.5811
 5060SOL    HW226643   1.367   4.317   7.958 -0.8839  0.9831 -2.1647
 5061SOL     OW26644   1.686   3.426   1.990  0.0383  0.7201 -0.4905
 5061SOL    HW126645   1.629   3.476   2.048  1.8729  1.4313  0.7015
 5061SOL    HW226646   1.769   3.471   2.005 -1.0437  2.3271  0.5646
 5062SOL     OW26647   1.812   1.579   1.854 -0.0622  0.2969  0.4174
 5062SOL    HW126648   1.778   1.492   1.876 -1.5049  0.9541  0.7924
 5062SOL    HW226649   1.739   1.602   1.797 -0.3870 -2.5706 -0.2969
 5063SOL     OW26650   3.804   2.112  10.914 -0.7013  0.1804 -0.2660
 5063SOL    HW126651   3.827   2.189  10.862 -1.6995  0.6388 -0.0412
 5063SOL    HW226652   3.858   2.049  10.866  2.5656  0.5806  2.9113
 5064SOL     OW26653   2.543   2.258   1.620 -0.0977 -0.2669  0.5200
 5064SOL    HW126654   2.628   2.296   1.600 -0.8967  1.5871  0.6624
 5064SOL    HW226655   2.553   2.224   1.709  0.8742 -0.5611  0.2977
 5065SOL     OW26656   3.615   1.390   6.810 -0.0472  0.2649 -0.5715
 5065SOL    HW126657   3.551   1.361   6.876 -0.6052 -0.2569 -1.3382
 5065SOL    HW226658   3.595   1.315   6.754  0.6184 -0.0583 -0.3629
 5066SOL     OW26659   4.481   0.139   6.890 -0.3549 -0.4251 -0.6182
 5066SOL    HW126660   4.514   0.108   6.806 -2.2119 -1.2687 -1.0386
 5066SOL    HW226661   4.481   0.055   6.935 -1.0982  1.0287  2.0675
 5067SOL     OW26662   2.773   4.348  11.748  0.2112 -0.5362  0.1620
 5067SOL    HW126663   2.759   4.367  11.655 -0.1246  2.9977  0.9284
 5067SOL    HW226664   2.854   4.298  11.738  0.7775  0.3442  0.3635
 5068SOL     OW26665   2.826   1.948   9.062 -0.5225  0.5656 -0.2690
 5068SOL    HW126666   2.833   2.019   9.126  0.9704 -0.5036  0.7541
 5068SOL    HW226667   2.801   1.883   9.128 -1.7763  0.3282 -0.9817
 5069SOL     OW26668   4.663   4.595  12.221 -0.4009  0.0989 -0.6725
 5069SOL    HW126669   0.009   4.633  12.275 -1.3283  1.0823 -0.1578
 5069SOL    HW226670   4.641   4.517  12.271  0.8599 -0.7849 -1.5203
 5070SOL     OW26671   0.466   2.718   1.670 -0.0485  0.2474  0.3827
 5070SOL    HW126672   0.559   2.736   1.657 -0.2496  2.3227  1.8373
 5070SOL    HW226673   0.444   2.785   1.735 -3.1200 -0.3332 -0.0510
 5071SOL     OW26674   3.375   1.899   3.544 -0.1921  0.4930  0.6319
 5071SOL    HW126675   3.455   1.847   3.542  1.1029  2.5416 -1.3690
 5071SOL    HW226676   3.327   1.870   3.622  1.5872  1.0032  1.9165
 5072SOL     OW26677   1.199   1.390   7.957  0.2378 -0.5960 -0.5081
 5072SOL    HW126678   1.279   1.353   7.996  1.7771  0.7142 -2.4365
 5072SOL    HW226679   1.124   1.345   7.995 -0.0220 -0.8301 -1.3100
 5073SOL     OW26680   3.343   4.141   6.336 -0.2833  0.3843  0.3706
 5073SOL    HW126681   3.383   4.139   6.423  0.4562  0.4059  0.0257
 5073SOL    HW226682   3.275   4.075   6.345 -0.3851  0.3814 -0.4351
 5074SOL     OW26683   2.023   3.499   5.225  0.0489 -0.4351 -0.2847
 5074SOL    HW126684   2.012   3.467   5.135  0.5757  0.1939 -0.5757
 5074SOL    HW226685   1.951   3.462   5.275  0.7533 -0.4807  0.6914
 5075SOL     OW26686   3.256   4.397  10.959 -0.1368 -0.4326  0.6561
 5075SOL    HW126687   3.178   4.436  10.998  0.0822  0.1993  0.4667
 5075SOL    HW226688   3.228   4.373  10.870 -2.7560 -0.7781  1.5730
 5076SOL     OW26689   3.676   3.042   3.931 -0.0393  0.1128 -0.9057
 5076SOL    HW126690   3.738   3.113   3.951 -0.3778  0.8279 -2.4328
 5076SOL    HW226691   3.652   3.058   3.840 -1.8205  0.2670 -0.4042
 5077SOL     OW26692   1.569   1.654   8.699  0.4000  0.4732  0.2093
 5077SOL    HW126693   1.661   1.640   8.723  0.0698  0.1512  1.2981
 5077SOL    HW226694   1.553   1.562   8.676  0.0551  0.5467  0.1645
 5078SOL     OW26695   4.024   3.016   2.459  0.0332  0.2339  0.1650
 5078SOL    HW126696   4.076   3.009   2.379  1.9431  1.1573  1.3024
 5078SOL    HW226697   4.002   3.109   2.457  0.4589  0.3937  2.2053
 5079SOL     OW26698   4.685   1.416   3.984  0.0602 -0.0944  0.4320
 5079SOL    HW126699   4.600   1.409   4.026 -0.0634  0.5816  0.2908
 5079SOL    HW226700   4.660   1.441   3.896  0.3915 -0.6961  0.1676
 5080SOL     OW26701   4.064   2.273   2.657  0.1726 -0.1342 -0.4651
 5080SOL    HW126702   4.041   2.228   2.738 -1.4774  0.5714 -0.5445
 5080SOL    HW226703   3.993   2.335   2.640 -0.1962 -0.4313  0.0059
 5081SOL     OW26704   4.672   0.942   9.227 -0.1000 -0.0054  0.3475
 5081SOL    HW126705   4.614   0.956   9.153 -0.0637 -1.0655  0.1214
 5081SOL    HW226706   0.017   1.008   9.213 -1.1540  0.8972 -0.5293
 5082SOL     OW26707   3.269   4.683   3.258  0.1720  0.4692 -0.1081
 5082SOL    HW126708   3.211   4.612   3.286 -0.4539  0.8117 -0.5298
 5082SOL    HW226709   3.290   4.659   3.168 -1.9688  0.9142 -0.7209
 5083SOL     OW26710   1.172   0.500   0.023  0.3881  0.0345 -0.0453
 5083SOL    HW126711   1.235   0.428   0.018 -2.2021 -2.2780  0.5674
 5083SOL    HW226712   1.174   0.509   0.119  1.3378  0.7827 -0.1364
 5084SOL     OW26713   4.230   0.268   4.038 -0.2790  0.1316 -0.2179
 5084SOL    HW126714   4.283   0.276   4.117 -1.6897 -0.5926  0.8130
 5084SOL    HW226715   4.240   0.176   4.016 -3.9709 -0.3494  0.0280
 5085SOL     OW26716   1.878   3.364   9.999 -0.4304 -0.7230 -0.3865
 5085SOL    HW126717   1.836   3.322   9.924 -0.8362  1.0910 -1.1717
 5085SOL    HW226718   1.938   3.299  10.036  3.6125  2.6987 -0.9740
 5086SOL     OW26719   1.140   3.224  15.599 -0.0128  0.2073  0.3094
 5086SOL    HW126720   1.189   3.153  15.642  0.3599  2.1419  3.0854
 5086SOL    HW226721   1.132   3.285  15.672 -0.7436  1.8893 -1.1781
 5087SOL     OW26722   0.880   1.824   6.671  0.1456  0.3734 -0.1499
 5087SOL    HW126723   0.819   1.899   6.671 -0.6358 -0.2759 -2.3701
 5087SOL    HW226724   0.857   1.781   6.753  0.8903 -0.2085 -0.2475
 5088SOL     OW26725   0.782   0.734   1.312  0.2651  0.2324  0.0463
 5088SOL    HW126726   0.697   0.742   1.354  0.6735  0.6156  0.8076
 5088SOL    HW226727   0.781   0.821   1.271 -0.1974 -0.8077 -2.1431
 5089SOL     OW26728   1.053   2.696   1.949 -0.1825 -0.2431 -0.0643
 5089SOL    HW126729   1.057   2.703   2.045  0.3197 -2.7040  0.0844
 5089SOL    HW226730   0.962   2.713   1.926 -0.2468 -1.2959 -0.5728
 5090SOL     OW26731   4.684   1.490   8.875 -0.5578  0.4799  0.6133
 5090SOL    HW126732   0.044   1.513   8.918 -0.1074 -0.5938  0.3216
 5090SOL    HW226733   4.625   1.525   8.942 -2.7839 -0.5204 -0.8354
 5091SOL     OW26734   3.237   3.481   2.898  0.4755 -0.0475  0.7473
 5091SOL    HW126735   3.268   3.548   2.959  1.2507 -0.7358  1.1068
 5091SOL    HW226736   3.184   3.433   2.961  0.2217 -0.7342  0.0028
 5092SOL     OW26737   2.180   1.404   2.691 -0.9141 -0.2904 -0.1838
 5092SOL    HW126738   2.123   1.419   2.615 -2.2450 -1.4019  0.6093
 5092SOL    HW226739   2.120   1.374   2.759  2.1412  0.2266  2.7069
 5093SOL     OW26740   1.397   0.685   7.063  0.2641  0.2247 -0.5877
 5093SOL    HW126741   1.363   0.710   7.149  0.4089 -1.4766 -0.0494
 5093SOL    HW226742   1.492   0.688   7.076  0.5710 -1.5222 -2.3744
 5094SOL     OW26743   3.812   2.585   4.529  0.2193  0.4940  0.2138
 5094SOL    HW126744   3.785   2.606   4.439 -0.0447  3.0269  0.8757
 5094SOL    HW226745   3.757   2.653   4.568  1.8391  1.0672  1.5344
 5095SOL     OW26746   1.412   1.353   5.836 -0.0832 -0.6402  0.3586
 5095SOL    HW126747   1.351   1.381   5.767 -1.3425 -2.4516  0.7452
 5095SOL    HW226748   1.398   1.420   5.903 -2.8656  0.1960 -1.0284
 5096SOL     OW26749   2.256   0.125   5.650 -0.9134 -0.3982  0.4324
 5096SOL    HW126750   2.244   0.058   5.717 -1.0935  1.0552  1.8557
 5096SOL    HW226751   2.189   0.090   5.591  0.6401 -1.0787 -0.9161
 5097SOL     OW26752   1.473   4.325   2.659 -0.3312 -0.6995 -0.1329
 5097SOL    HW126753   1.479   4.290   2.570  0.1157 -2.5463  0.6382
 5097SOL    HW226754   1.549   4.383   2.659 -1.0341  0.2099  0.5625
 5098SOL     OW26755   4.262   2.757   8.497 -0.0700  0.5604 -0.0271
 5098SOL    HW126756   4.262   2.833   8.556 -0.6142  2.5229 -2.5403
 5098SOL    HW226757   4.169   2.743   8.482  0.0061 -1.1453  1.0914
 5099SOL     OW26758   1.293   4.373   3.202 -0.0538 -0.1856 -0.4437
 5099SOL    HW126759   1.346   4.387   3.124 -1.6402  1.8938 -1.1441
 5099SOL    HW226760   1.366   4.373   3.263 -0.5252 -0.0962  0.1238
 5100SOL     OW26761   3.182   4.670   8.888 -0.0503 -0.1072  0.2564
 5100SOL    HW126762   3.180   4.699   8.979  1.2474  0.2106  0.1833
 5100SOL    HW226763   3.273   4.684   8.862  0.3040 -1.4361  0.7725
 5101SOL     OW26764   3.773   2.756   6.789  0.0660  0.3623  0.4039
 5101SOL    HW126765   3.735   2.806   6.717 -0.4684  1.4573  1.4312
 5101SOL    HW226766   3.765   2.819   6.861 -1.8882 -0.7438  1.1553
 5102SOL     OW26767   1.040   0.654   3.924  0.1103 -0.2499 -0.1396
 5102SOL    HW126768   0.984   0.611   3.989 -2.2544  0.0497 -1.9940
 5102SOL    HW226769   1.010   0.600   3.852 -0.6261 -0.0884  0.0493
 5103SOL     OW26770   3.371   2.327  14.207 -0.4941 -0.0100  0.2405
 5103SOL    HW126771   3.358   2.313  14.301  0.2132  0.2970  0.3781
 5103SOL    HW226772   3.287   2.293  14.176  0.1449 -2.0730  0.7937
 5104SOL     OW26773   1.801   3.517  12.834  0.0236 -0.4403 -0.1765
 5104SOL    HW126774   1.880   3.563  12.806  0.8071 -1.0716  0.9960
 5104SOL    HW226775   1.833   3.437  12.875 -1.9115 -0.0047  2.1927
 5105SOL     OW26776   3.519   0.859   0.173  0.0753 -0.1264  0.2607
 5105SOL    HW126777   3.543   0.783   0.226  0.6189  0.3117  0.6491
 5105SOL    HW226778   3.465   0.903   0.240 -1.7209 -0.7139 -0.7938
 5106SOL     OW26779   3.418   4.680  11.617  0.7638 -0.4741 -0.0879
 5106SOL    HW126780   3.513   4.678  11.630  0.2489  0.1433  3.6236
 5106SOL    HW226781   3.418   4.657  11.524  2.4466  3.6870 -1.1185
 5107SOL     OW26782   0.815   0.313   4.937  0.4836  0.2680 -0.5994
 5107SOL    HW126783   0.848   0.223   4.934  0.2662  0.0701  3.3990
 5107SOL    HW226784   0.877   0.350   4.998  0.7548  1.6433 -1.6999
 5108SOL     OW26785   1.143   4.537   6.908 -0.1159  0.4075 -0.0034
 5108SOL    HW126786   1.175   4.515   6.996 -0.8395 -1.5611 -0.2502
 5108SOL    HW226787   1.204   4.479   6.863  1.7108  1.4452  1.1052
 5109SOL     OW26788   0.218   0.860   6.618  0.3129  0.3742 -0.1395
 5109SOL    HW126789   0.155   0.874   6.546  1.3049  0.8746 -0.9189
 5109SOL    HW226790   0.168   0.890   6.694  2.2183  0.1808  1.1752
 5110SOL     OW26791   1.515   0.900   0.157  0.1765  0.0547 -0.1165
 5110SOL    HW126792   1.430   0.914   0.198  0.5262 -0.4732  0.7942
 5110SOL    HW226793   1.558   0.823   0.195 -1.6354 -1.1134 -0.4380
 5111SOL     OW26794   0.911   4.136   9.698 -0.6769  0.4684 -0.5242
 5111SOL    HW126795   0.838   4.095   9.744  1.0669 -0.6868  1.2407
 5111SOL    HW226796   0.944   4.206   9.754  0.5596  1.0503 -1.9793
 5112SOL     OW26797   3.095   1.330  14.448 -0.3637 -0.1995  0.2559
 5112SOL    HW126798   3.188   1.322  14.469  0.0955 -0.4491 -1.8689
 5112SOL    HW226799   3.090   1.238  14.423 -2.5646  0.2260 -0.8586
 5113SOL     OW26800   1.596   3.024   4.976  0.2590 -0.0913  0.2065
 5113SOL    HW126801   1.567   2.984   4.894 -0.7651  1.4383 -0.1809
 5113SOL    HW226802   1.541   2.979   5.041  0.4193  1.6620  1.5577
 5114SOL     OW26803   3.813   0.436  11.970  0.1303 -0.6396 -0.3182
 5114SOL    HW126804   3.899   0.460  11.934  0.6427 -0.6703  0.8614
 5114SOL    HW226805   3.811   0.344  11.999 -0.2849 -0.3673  0.5342
 5115SOL     OW26806   0.395   4.425   9.391  0.2610  0.2768 -0.2137
 5115SOL    HW126807   0.429   4.439   9.303 -0.2211 -1.8373 -0.7376
 5115SOL    HW226808   0.398   4.513   9.427  0.4787  0.7378 -1.3806
 5116SOL     OW26809   1.072   3.625   2.139  0.8693  0.1774  0.2437
 5116SOL    HW126810   0.997   3.672   2.102  0.6292  0.3385  0.9484
 5116SOL    HW226811   1.122   3.693   2.184 -0.5369  2.2107 -1.2277
 5117SOL     OW26812   1.710   0.526   0.072  0.0776  0.1157  0.3084
 5117SOL    HW126813   1.748   0.610   0.049  0.3334 -0.5084 -1.5475
 5117SOL    HW226814   1.720   0.534   0.167 -3.0087 -0.6434  0.6930
 5118SOL     OW26815   2.075   1.225   4.738 -0.8814  0.0589 -0.7038
 5118SOL    HW126816   1.997   1.248   4.689 -1.0279  0.8547 -0.0944
 5118SOL    HW226817   2.050   1.159   4.803 -2.6187  2.0759  0.6596
 5119SOL     OW26818   1.295   2.051   6.090  0.3621 -0.0967  0.0392
 5119SOL    HW126819   1.257   2.024   6.173 -0.8357 -2.8074 -1.3882
 5119SOL    HW226820   1.216   2.036   6.038 -0.2141  0.4237  0.7727
 5120SOL     OW26821   0.839   1.934   2.014 -0.6426 -0.2429  0.1059
 5120SOL    HW126822   0.807   1.847   2.037  2.0948 -1.5869 -1.2919
 5120SOL    HW226823   0.933   1.920   2.012 -0.7534 -1.3480  2.4718
 5121SOL     OW26824   1.760   0.084   7.842  0.6395 -0.0367 -0.6296
 5121SOL    HW126825   1.776   0.135   7.763  0.8241  0.6192 -0.1682
 5121SOL    HW226826   1.725   0.151   7.901 -0.9605  0.3394 -2.0287
 5122SOL     OW26827   3.077   0.925   6.183  0.5307  0.3846  0.1453
 5122SOL    HW126828   3.111   0.987   6.248  0.1117 -0.9355  1.6112
 5122SOL    HW226829   3.158   0.880   6.157  1.5899  1.6667  1.2011
 5123SOL     OW26830   2.795   2.339   5.762  0.1239  0.5320  0.0031
 5123SOL    HW126831   2.864   2.273   5.751  0.4682  0.4552  2.6146
 5123SOL    HW226832   2.745   2.301   5.835  0.5600  0.8645  0.4728
 5124SOL     OW26833   1.725   4.106   0.617 -0.4601  0.0076  0.1875
 5124SOL    HW126834   1.721   4.019   0.578  0.0194 -0.1140  0.4151
 5124SOL    HW226835   1.631   4.119   0.630 -0.2390  0.0715  1.7086
 5125SOL     OW26836   1.582   2.827   4.744 -0.5976  0.1977  0.2787
 5125SOL    HW126837   1.642   2.889   4.705 -2.3323  0.9489 -1.2079
 5125SOL    HW226838   1.645   2.763   4.777 -0.4626  0.3530  0.3242
 5126SOL     OW26839   3.664   3.554   6.515 -0.1488 -0.6462 -0.4541
 5126SOL    HW126840   3.634   3.619   6.451 -2.0970 -0.5090  0.5888
 5126SOL    HW226841   3.586   3.556   6.571 -1.0939 -0.9027 -1.7508
 5127SOL     OW26842   0.471   1.142   3.058 -0.0738 -0.1220 -0.2931
 5127SOL    HW126843   0.490   1.049   3.066  2.2584  0.5353  1.8567
 5127SOL    HW226844   0.512   1.169   2.975  2.6957 -1.1053  0.7562
 5128SOL     OW26845   0.505   3.432   8.039 -0.4635  0.0816 -0.1542
 5128SOL    HW126846   0.486   3.524   8.018  0.3876  0.3414  0.2350
 5128SOL    HW226847   0.557   3.432   8.119 -3.0912 -1.0815  1.5493
 5129SOL     OW26848   3.356   1.309  10.341 -0.3254  0.1610  0.0217
 5129SOL    HW126849   3.390   1.301  10.430  0.6098  1.8886 -0.1676
 5129SOL    HW226850   3.266   1.278  10.348 -0.2187 -0.4283 -1.2683
 5130SOL     OW26851   2.074   3.438   3.695  0.0910 -0.0665  0.2585
 5130SOL    HW126852   2.007   3.500   3.725  0.2819  0.1667  0.2102
 5130SOL    HW226853   2.020   3.377   3.645 -0.5126  1.7577 -1.3210
 5131SOL     OW26854   1.555   4.219   5.545 -1.0544 -0.1012 -0.1161
 5131SOL    HW126855   1.484   4.281   5.527 -0.5404  0.1323 -1.3572
 5131SOL    HW226856   1.617   4.288   5.569 -0.6016 -0.9773  1.2139
 5132SOL     OW26857   3.481   4.705  17.569  0.3254 -0.0557 -0.0207
 5132SOL    HW126858   3.445   0.058  17.617  0.1053 -0.0015 -0.2670
 5132SOL    HW226859   3.399   4.659  17.549 -1.8835  2.4259  3.0884
 5133SOL     OW26860   0.454   2.132   9.688  0.1514  0.7569 -0.7330
 5133SOL    HW126861   0.384   2.126   9.752  0.5866 -2.4043 -0.5805
 5133SOL    HW226862   0.440   2.225   9.671 -2.4629  0.3987 -0.4916
 5134SOL     OW26863   2.375   0.617   2.914 -0.2974 -0.5178  0.0956
 5134SOL    HW126864   2.321   0.626   2.836  0.1093  0.7707 -0.0250
 5134SOL    HW226865   2.343   0.683   2.975 -0.9255 -0.7160 -0.0215
 5135SOL     OW26866   1.733   0.039  11.313  0.4279  0.1460  0.0428
 5135SOL    HW126867   1.731   0.068  11.222  1.0301  0.5734  0.1638
 5135SOL    HW226868   1.663   0.092  11.350  0.0322  0.7336 -1.5737
 5136SOL     OW26869   1.512   2.433   6.360 -0.3483 -0.1705 -0.3061
 5136SOL    HW126870   1.516   2.360   6.422  0.2562  1.2776  1.3603
 5136SOL    HW226871   1.447   2.395   6.301  0.3195  1.2077 -1.9162
 5137SOL     OW26872   0.168   1.931   8.136  0.2746  0.3947  0.2080
 5137SOL    HW126873   0.206   1.982   8.064  0.5565  2.2230  1.6360
 5137SOL    HW226874   0.247   1.907   8.184  1.5325  0.7795 -1.6856
 5138SOL     OW26875   1.414   1.156  14.511  0.3532 -0.8608  0.3671
 5138SOL    HW126876   1.442   1.245  14.534  0.6794 -0.7057 -0.6267
 5138SOL    HW226877   1.439   1.161  14.419 -1.8845 -2.8391 -0.3535
 5139SOL     OW26878   1.992   3.693   8.430 -0.4716 -0.1291  0.4467
 5139SOL    HW126879   1.953   3.738   8.505 -0.4689 -0.8571  0.8821
 5139SOL    HW226880   1.973   3.759   8.364 -0.1854 -0.0025  0.4905
 5140SOL     OW26881   3.792   4.370  12.908 -0.4751 -0.7324  0.1537
 5140SOL    HW126882   3.869   4.316  12.925 -1.0728 -1.1737  1.4474
 5140SOL    HW226883   3.720   4.310  12.927 -1.8266  0.7290 -0.3634
 5141SOL     OW26884   2.779   4.602   3.267 -0.5306  0.4311  0.1723
 5141SOL    HW126885   2.756   4.694   3.281 -2.8354  0.4009 -3.2991
 5141SOL    HW226886   2.857   4.630   3.218 -0.8554  0.4061 -0.3549
 5142SOL     OW26887   3.211   4.562   5.830  0.0794 -0.4872 -0.6242
 5142SOL    HW126888   3.144   4.495   5.815  0.0454 -0.2256 -1.6642
 5142SOL    HW226889   3.242   4.562   5.739  1.3347  3.2297 -0.1825
 5143SOL     OW26890   1.924   1.934   5.838 -0.4947  0.0217  0.3033
 5143SOL    HW126891   2.003   1.925   5.891 -0.7464 -3.9079 -0.0164
 5143SOL    HW226892   1.860   1.890   5.893 -1.0135 -0.4003 -0.6328
 5144SOL     OW26893   2.228   3.010   8.229  0.1874  0.3883  0.1144
 5144SOL    HW126894   2.302   3.036   8.174  0.6032 -2.4709 -0.7145
 5144SOL    HW226895   2.267   2.968   8.306 -1.1220  0.8938  1.0263
 5145SOL     OW26896   3.773   1.413   2.763  0.1913 -0.3876  0.3595
 5145SOL    HW126897   3.768   1.473   2.689  0.3169 -2.2633 -1.1674
 5145SOL    HW226898   3.825   1.338   2.735  0.8670 -0.6260  2.2940
 5146SOL     OW26899   4.570   4.619   4.595 -0.3109 -0.2896  0.3104
 5146SOL    HW126900   4.620   4.699   4.613 -0.9334 -0.5088  3.0593
 5146SOL    HW226901   4.520   4.648   4.519 -1.4419 -0.7218  0.8834
 5147SOL     OW26902   3.965   1.611  14.036  0.4922  0.1800 -0.1691
 5147SOL    HW126903   3.955   1.538  13.976 -1.8558 -0.1805  0.6305
 5147SOL    HW226904   3.936   1.683  13.979  0.4789 -0.4700 -0.9702
 5148SOL     OW26905   3.390   0.679   9.690 -0.4228 -0.2375  0.2467
 5148SOL    HW126906   3.357   0.591   9.673 -1.1603  0.3459 -1.4151
 5148SOL    HW226907   3.406   0.710   9.601 -1.1920 -1.0565 -0.1767
 5149SOL     OW26908   2.532   0.916   5.026 -0.3201  0.1630 -0.2169
 5149SOL    HW126909   2.481   0.930   5.106  3.1775 -2.1206  2.4089
 5149SOL    HW226910   2.517   0.822   5.026 -0.5498  0.2009  0.6785
 5150SOL     OW26911   0.946   2.239   3.324  0.2081  0.4268 -0.3593
 5150SOL    HW126912   0.968   2.161   3.274  1.8515 -0.3961  1.6627
 5150SOL    HW226913   1.020   2.294   3.301 -1.4664  2.1213 -1.7343
 5151SOL     OW26914   3.349   0.844   5.206 -0.1347 -0.1699 -0.1824
 5151SOL    HW126915   3.414   0.844   5.136  0.1468 -0.6586  0.0735
 5151SOL    HW226916   3.328   0.751   5.220  0.2989  0.0457  1.8977
 5152SOL     OW26917   4.710   4.492  16.211  0.6954 -0.2568 -0.2337
 5152SOL    HW126918   4.686   4.584  16.224 -0.3394 -0.5000 -0.4213
 5152SOL    HW226919   0.039   4.486  16.131  0.1675 -0.4591 -0.5652
 5153SOL     OW26920   4.170   0.207  10.011  0.2396  0.4335  0.4965
 5153SOL    HW126921   4.147   0.260  10.088 -0.2945  2.1214 -0.8212
 5153SOL    HW226922   4.261   0.187  10.030  0.0608 -0.6642  0.1992
 5154SOL     OW26923   1.411   2.149   1.292  0.2128 -0.5010  0.4416
 5154SOL    HW126924   1.332   2.198   1.311  0.5389 -1.7224  4.9029
 5154SOL    HW226925   1.444   2.116   1.376  1.7499  2.6980  1.1237
 5155SOL     OW26926   3.967   2.783  16.400 -0.3524 -0.0518 -0.5273
 5155SOL    HW126927   3.969   2.837  16.480  1.0612 -3.5621  1.8030
 5155SOL    HW226928   3.903   2.825  16.344 -0.6041  2.4356  1.6313
 5156SOL     OW26929   4.410   3.680   4.739  0.7053 -0.3861 -0.0647
 5156SOL    HW126930   4.475   3.610   4.747  3.0047  1.5908 -1.4603
 5156SOL    HW226931   4.462   3.757   4.764  1.0055 -0.4524 -0.4875
 5157SOL     OW26932   1.553   4.581   1.053  0.3520 -0.0300 -0.5157
 5157SOL    HW126933   1.512   4.500   1.081  1.2360 -0.5544 -0.7210
 5157SOL    HW226934   1.640   4.550   1.025  0.7260  1.2247 -0.7786
 5158SOL     OW26935   2.063   1.692   9.132  0.1652 -0.1763 -0.1093
 5158SOL    HW126936   1.997   1.717   9.068 -1.6176 -2.9433  0.6555
 5158SOL    HW226937   2.041   1.602   9.157  1.4673  0.4060  3.0946
 5159SOL     OW26938   1.822   1.767  17.262 -0.4443  0.1399 -0.0876
 5159SOL    HW126939   1.762   1.824  17.214 -0.4371 -0.3512 -0.6855
 5159SOL    HW226940   1.878   1.744  17.187  0.8892  1.1573  0.5927
 5160SOL     OW26941   2.268   0.878  15.743  0.1808 -0.3660  0.2967
 5160SOL    HW126942   2.262   0.964  15.785 -3.7718 -0.2213 -0.5987
 5160SOL    HW226943   2.204   0.890  15.673  0.2844 -0.4362  0.1912
 5161SOL     OW26944   3.807   0.945  14.226 -0.1745  0.4706 -0.1874
 5161SOL    HW126945   3.808   0.953  14.130 -0.0530 -0.5128 -0.2703
 5161SOL    HW226946   3.888   0.895  14.238 -0.2108  0.8743  1.7073
 5162SOL     OW26947   0.336   0.978  15.199 -0.3412  0.0987 -0.0238
 5162SOL    HW126948   0.362   0.958  15.289  0.1988  2.2155  0.2956
 5162SOL    HW226949   0.247   0.945  15.195 -0.0821 -0.7959  1.7061
 5163SOL     OW26950   2.456   2.223   8.644 -0.6916  0.4467  0.3685
 5163SOL    HW126951   2.361   2.219   8.636 -0.7838  0.3524  1.6052
 5163SOL    HW226952   2.465   2.298   8.703 -0.2982 -0.1657  1.0744
 5164SOL     OW26953   0.831   4.132  10.657 -0.0259 -0.1187 -0.0653
 5164SOL    HW126954   0.902   4.067  10.660 -2.1910 -2.5005 -0.7455
 5164SOL    HW226955   0.874   4.210  10.692  0.7593 -1.2619  1.5380
 5165SOL     OW26956   3.530   0.032   3.263  0.0188 -0.2577  0.0893
 5165SOL    HW126957   3.564   4.675   3.303  0.3861  1.5730  3.4323
 5165SOL    HW226958   3.439   0.022   3.289 -0.1155  1.0841  0.1217
 5166SOL     OW26959   1.346   2.480  13.813 -0.4820  0.0533  0.0161
 5166SOL    HW126960   1.420   2.422  13.834 -3.1757 -1.5422  5.0336
 5166SOL    HW226961   1.280   2.429  13.859 -0.2901  0.4476  0.7297
 5167SOL     OW26962   2.720   2.362  13.020  0.1459 -0.0402  0.0189
 5167SOL    HW126963   2.647   2.406  13.064  0.5071 -1.0298  1.5934
 5167SOL    HW226964   2.761   2.435  12.975  1.8457 -0.6541  0.5947
 5168SOL     OW26965   1.835   3.437   2.573  0.3373 -0.0295  0.2684
 5168SOL    HW126966   1.741   3.441   2.589 -0.2024 -1.2228 -2.5216
 5168SOL    HW226967   1.840   3.524   2.533 -0.0106  0.2634  0.8620
 5169SOL     OW26968   3.762   1.008  17.310 -0.0064  0.3397 -0.4959
 5169SOL    HW126969   3.815   0.972  17.239 -1.2882 -0.0340 -1.2791
 5169SOL    HW226970   3.719   0.928  17.341  1.2835 -0.6454 -1.2792
 5170SOL     OW26971   1.861   2.613   2.281 -0.1691 -0.0628  0.2785
 5170SOL    HW126972   1.801   2.617   2.355  0.9373  1.6782  1.0871
 5170SOL    HW226973   1.801   2.622   2.206 -0.4869 -0.8641  0.4434
 5171SOL     OW26974   2.902   2.713  17.612  0.7077  0.1859  0.1536
 5171SOL    HW126975   2.827   2.773  17.608  1.0358  0.3835 -3.0134
 5171SOL    HW226976   2.872   2.646  17.552  0.9777  0.4874 -0.3163
 5172SOL     OW26977   3.230   2.441   3.752  0.4432  0.1921 -0.6531
 5172SOL    HW126978   3.174   2.365   3.768  0.4084  0.6192  1.2651
 5172SOL    HW226979   3.277   2.403   3.678 -0.8257 -0.6216 -1.0329
 5173SOL     OW26980   1.926   2.893   1.720  0.1736 -0.2887  0.3404
 5173SOL    HW126981   1.940   2.876   1.627  0.2502  0.1270  0.2725
 5173SOL    HW226982   1.960   2.814   1.760  0.3220  0.0775  0.9437
 5174SOL     OW26983   2.919   0.255   7.183  0.1709  0.2277 -0.4441
 5174SOL    HW126984   2.911   0.255   7.279 -1.5236  1.5955 -0.5827
 5174SOL    HW226985   2.875   0.339   7.166 -1.4619 -0.6443 -0.5342
 5175SOL     OW26986   3.255   2.510  16.887 -0.5400  0.3387 -0.4621
 5175SOL    HW126987   3.290   2.564  16.958 -0.5326  0.5832 -0.6525
 5175SOL    HW226988   3.275   2.422  16.918  2.0425  0.9074 -0.4536
 5176SOL     OW26989   2.078   0.362   4.297 -0.0184  0.5183 -0.3420
 5176SOL    HW126990   2.056   0.296   4.231 -0.9208 -0.0454  0.5178
 5176SOL    HW226991   2.000   0.363   4.352  0.2312 -1.5375  0.0422
 5177SOL     OW26992   1.982   2.745   3.380 -0.5734  0.4828  0.4454
 5177SOL    HW126993   2.021   2.795   3.308 -1.3078 -0.5516 -0.6847
 5177SOL    HW226994   2.041   2.671   3.392 -3.0288 -1.3620  1.0374
 5178SOL     OW26995   2.300   1.963  11.087 -0.0242 -0.0349 -0.0655
 5178SOL    HW126996   2.219   1.917  11.063 -0.4667  1.2744 -1.0465
 5178SOL    HW226997   2.270   2.052  11.101 -0.1593 -0.0982  0.0453
 5179SOL     OW26998   4.061   4.430   4.980  0.3874  0.8337 -0.4648
 5179SOL    HW126999   4.086   4.510   5.025 -0.5825  0.2518  1.0926
 5179SOL    HW227000   4.035   4.458   4.892  0.4625  0.0841 -0.7310
 5180SOL     OW27001   3.074   0.031  11.034 -0.1980 -0.1980  0.2668
 5180SOL    HW127002   3.134   0.105  11.033  0.1634 -0.5272 -1.7770
 5180SOL    HW227003   3.004   0.074  11.083 -0.3491  3.2880 -3.0803
 5181SOL     OW27004   2.192   1.164   8.693 -1.1141  0.4343  0.1112
 5181SOL    HW127005   2.252   1.144   8.621 -1.8169 -0.2762 -0.2825
 5181SOL    HW227006   2.148   1.235   8.646  0.8903  2.0976  0.7383
 5182SOL     OW27007   1.561   0.313  14.033 -0.2414 -0.4825  0.9698
 5182SOL    HW127008   1.639   0.275  13.992 -0.0348 -0.3731  1.2641
 5182SOL    HW227009   1.597   0.374  14.097 -0.4008 -0.1789  0.7703
 5183SOL     OW27010   0.881   2.283  14.739  0.6341 -0.1265 -0.8855
 5183SOL    HW127011   0.920   2.216  14.684  0.9247 -1.2189  0.6407
 5183SOL    HW227012   0.857   2.350  14.675 -2.5173 -1.4521 -1.0991
 5184SOL     OW27013   2.600   3.057   6.424  0.0921 -0.1949 -0.0811
 5184SOL    HW127014   2.575   3.027   6.336 -0.3578 -0.5985  0.1872
 5184SOL    HW227015   2.629   3.148   6.412 -1.8500  0.5938  1.1221
 5185SOL     OW27016   1.208   3.458  17.558  0.2815  0.5316  0.0555
 5185SOL    HW127017   1.275   3.424  17.499  1.1654 -0.2407  1.4983
 5185SOL    HW227018   1.193   3.384  17.616  0.7422 -0.1506 -0.7068
 5186SOL     OW27019   4.535   3.722   6.369  0.0052  0.5256  0.4079
 5186SOL    HW127020   4.469   3.726   6.301  0.4800  2.5950  0.0729
 5186SOL    HW227021   4.499   3.762   6.448 -0.4923 -2.9947  1.9766
 5187SOL     OW27022   0.134   2.315  13.283 -0.0681  0.5686 -0.3696
 5187SOL    HW127023   0.179   2.236  13.254  0.4208  1.9697 -3.4210
 5187SOL    HW227024   0.052   2.293  13.238 -1.5568  1.9181  1.6986
 5188SOL     OW27025   3.511   4.145  10.696  0.1115  0.0621 -0.2220
 5188SOL    HW127026   3.532   4.238  10.699 -3.2002  0.8426 -1.3583
 5188SOL    HW227027   3.500   4.124  10.789 -2.3298  0.1401 -0.4866
 5189SOL     OW27028   0.296   1.314   5.393  0.0999 -0.4538  0.1092
 5189SOL    HW127029   0.351   1.270   5.458  1.8181  2.6574  0.7645
 5189SOL    HW227030   0.338   1.275   5.316  0.0553  1.1933 -0.7537
 5190SOL     OW27031   4.694   1.910  10.279 -0.1477 -0.1141  0.5607
 5190SOL    HW127032   4.663   1.898  10.369  0.7751 -2.8933  0.5128
 5190SOL    HW227033   4.701   1.816  10.262  0.0754  0.3507 -1.9035
 5191SOL     OW27034   4.062   0.083   5.336  0.4902  0.0282 -0.8515
 5191SOL    HW127035   4.103   0.062   5.419 -0.0527 -1.9267 -1.0905
 5191SOL    HW227036   4.039   0.172   5.362  1.7489 -0.3418  1.5377
 5192SOL     OW27037   3.801   3.177   8.158 -0.0429 -0.1275 -0.3471
 5192SOL    HW127038   3.711   3.158   8.131  0.3070 -1.2080 -0.7566
 5192SOL    HW227039   3.817   3.099   8.211 -0.9375 -0.0532  0.0351
 5193SOL     OW27040   0.487   4.489  11.043 -0.0058 -0.0932  0.2984
 5193SOL    HW127041   0.425   4.497  11.116 -0.2197 -2.4909  0.3789
 5193SOL    HW227042   0.431   4.437  10.985  0.8927  0.0305 -0.6710
 5194SOL     OW27043   1.827   4.064   3.361  0.3514 -0.4391 -0.5798
 5194SOL    HW127044   1.906   4.018   3.332  1.1896  1.6320 -1.5736
 5194SOL    HW227045   1.756   4.003   3.338 -0.7962  0.6067  0.2189
 5195SOL     OW27046   0.808   3.282  10.676 -0.0903  0.2947 -0.3623
 5195SOL    HW127047   0.725   3.309  10.716 -1.3020  1.3420 -3.6175
 5195SOL    HW227048   0.809   3.348  10.607 -0.2546 -0.8575 -1.4581
 5196SOL     OW27049   0.278   3.804  11.456 -0.4382  0.3548 -0.0357
 5196SOL    HW127050   0.220   3.733  11.484 -0.9190  1.0261  0.6519
 5196SOL    HW227051   0.351   3.749  11.429 -0.3748  1.5223 -2.3320
 5197SOL     OW27052   2.102   2.107   2.146 -0.5069 -0.1243 -0.2345
 5197SOL    HW127053   2.158   2.183   2.127 -2.6138  2.2959  3.3776
 5197SOL    HW227054   2.014   2.143   2.136 -0.0961  0.3160 -2.4389
 5198SOL     OW27055   1.546   3.150   7.953 -0.7882 -0.0928  0.3846
 5198SOL    HW127056   1.587   3.156   8.039 -1.7377 -0.7872  0.8908
 5198SOL    HW227057   1.614   3.099   7.910 -0.4748  0.1048  0.6447
 5199SOL     OW27058   1.431   0.606  10.989 -0.2737 -0.4961  0.3511
 5199SOL    HW127059   1.522   0.597  11.016 -0.0443 -1.1841 -0.6638
 5199SOL    HW227060   1.411   0.699  11.003 -1.4168 -0.6085 -0.4599
 5200SOL     OW27061   0.612   1.102   6.124 -0.0022 -0.7200  0.7884
 5200SOL    HW127062   0.639   1.037   6.189  0.6547  0.1034  1.3548
 5200SOL    HW227063   0.546   1.150   6.174 -0.9161 -0.5883 -0.5425
 5201SOL     OW27064   1.612   1.923  17.543 -0.0826  0.0818 -0.0385
 5201SOL    HW127065   1.682   1.858  17.551 -0.8997 -0.9321 -1.3400
 5201SOL    HW227066   1.623   1.942  17.450 -0.6338 -0.6271 -0.2466
 5202SOL     OW27067   3.201   3.892   6.247  0.0469 -0.2126 -0.2295
 5202SOL    HW127068   3.150   3.951   6.192  2.4510  3.2343  1.2856
 5202SOL    HW227069   3.273   3.863   6.191  0.7290  2.0920 -0.5078
 5203SOL     OW27070   3.629   4.586   5.652  0.4971  0.1817  0.5193
 5203SOL    HW127071   3.552   4.532   5.671  2.4625 -2.4575  1.0611
 5203SOL    HW227072   3.622   4.674   5.687  0.2836  0.0778  0.7395
 5204SOL     OW27073   0.879   3.389  10.927 -0.2156  0.0016  0.4680
 5204SOL    HW127074   0.848   3.336  10.854  0.7966 -1.5775  1.1742
 5204SOL    HW227075   0.870   3.336  11.006  0.9923  0.7006  1.0751
 5205SOL     OW27076   0.768   3.779   2.252  0.1000 -0.5933  0.1105
 5205SOL    HW127077   0.721   3.853   2.214 -0.3705 -1.5902 -1.2474
 5205SOL    HW227078   0.852   3.825   2.246 -0.1779 -0.2489 -1.0346
 5206SOL     OW27079   0.259   3.551   7.560  0.1229  0.0731 -0.1200
 5206SOL    HW127080   0.255   3.625   7.500 -1.2165 -1.6160 -2.0946
 5206SOL    HW227081   0.181   3.572   7.612 -0.6027 -1.4878 -0.5593
 5207SOL     OW27082   0.480   3.139  10.539 -0.3557  0.3590  0.4478
 5207SOL    HW127083   0.522   3.178  10.615 -0.0485 -0.4080  0.6704
 5207SOL    HW227084   0.553   3.093  10.499  0.4594  0.9621  1.2677
 5208SOL     OW27085   2.636   2.652  17.027 -0.0687 -0.0709  0.2562
 5208SOL    HW127086   2.558   2.707  17.036  0.0523  0.6650 -2.9987
 5208SOL    HW227087   2.701   2.716  17.000  0.7803 -1.5528 -1.1979
 5209SOL     OW27088   0.237   1.015   2.774 -0.1981 -0.3241 -0.1790
 5209SOL    HW127089   0.307   1.062   2.729 -0.3056 -0.6214 -0.6557
 5209SOL    HW227090   0.263   0.923   2.765 -0.4091 -0.4252  0.2339
 5210SOL     OW27091   3.569   0.563   4.945 -0.4390 -0.6404  0.7174
 5210SOL    HW127092   3.508   0.560   5.019 -1.3783  0.0560 -0.0223
 5210SOL    HW227093   3.585   0.473   4.919  0.5895 -0.1944 -0.1865
 5211SOL     OW27094   2.148   3.944   9.938  0.3263 -0.0045  0.5331
 5211SOL    HW127095   2.055   3.926   9.930  0.9210 -1.7484 -2.6841
 5211SOL    HW227096   2.191   3.859   9.950  1.2581  0.5947  1.3922
 5212SOL     OW27097   0.898   4.284   9.470  0.3409  0.1408 -0.5995
 5212SOL    HW127098   0.886   4.239   9.553 -1.1412 -0.1592 -0.9717
 5212SOL    HW227099   0.985   4.322   9.479  0.9604 -1.4338  0.0155
 5213SOL     OW27100   0.967   1.218  15.794  0.7474 -0.1295 -0.4700
 5213SOL    HW127101   1.054   1.233  15.758  1.6359  0.5980  1.9894
 5213SOL    HW227102   0.905   1.263  15.736 -0.1400  1.6714  1.8511
 5214SOL     OW27103   4.408   2.753   4.345 -0.4858 -0.6195  0.6680
 5214SOL    HW127104   4.463   2.808   4.400 -0.1827  0.6378 -0.8763
 5214SOL    HW227105   4.404   2.808   4.266  2.4695 -0.8624  0.3502
 5215SOL     OW27106   3.307   3.720  15.567  0.4250 -0.1155  0.5209
 5215SOL    HW127107   3.328   3.641  15.517 -0.0726  0.3686 -0.4551
 5215SOL    HW227108   3.297   3.780  15.493  1.5150 -1.7944 -0.9938
 5216SOL     OW27109   2.353   4.575   5.317 -0.2013  0.0183 -0.1738
 5216SOL    HW127110   2.405   4.498   5.294  2.1225  0.9005  2.1510
 5216SOL    HW227111   2.272   4.534   5.345 -0.7531  0.8597 -0.5204
 5217SOL     OW27112   2.624   2.955   6.169  0.2801 -0.2518  0.0744
 5217SOL    HW127113   2.637   2.913   6.084  2.9442  1.6329 -0.4478
 5217SOL    HW227114   2.716   2.967   6.192  0.3620 -2.4311  0.8857
 5218SOL     OW27115   1.929   4.287  13.772 -0.5029 -0.2464 -0.0287
 5218SOL    HW127116   1.993   4.252  13.835 -0.8574 -1.2544 -0.2260
 5218SOL    HW227117   1.930   4.377  13.805  1.7404  0.0120 -0.7769
 5219SOL     OW27118   1.105   1.903   2.055 -0.2317  0.2944 -0.6612
 5219SOL    HW127119   1.189   1.916   2.099 -1.1464 -0.4703  1.3206
 5219SOL    HW227120   1.128   1.853   1.977 -1.4066  0.0957 -0.8855
 5220SOL     OW27121   1.687   0.540   7.562  0.1573  0.0946 -0.3428
 5220SOL    HW127122   1.622   0.609   7.578  2.1412  1.8633  0.1201
 5220SOL    HW227123   1.652   0.497   7.484 -0.5550  0.6184 -0.3087
 5221SOL     OW27124   3.318   2.867   6.271 -0.1257 -0.4901  0.2920
 5221SOL    HW127125   3.346   2.919   6.345 -4.0536  1.9186  0.0991
 5221SOL    HW227126   3.269   2.796   6.313 -0.2520 -1.2357 -1.1066
 5222SOL     OW27127   0.101   3.303   6.305  0.3810  0.2531  0.4491
 5222SOL    HW127128   0.028   3.263   6.259 -0.1388  0.2231  1.2941
 5222SOL    HW227129   0.064   3.354   6.377  0.4507 -2.3181  2.3384
 5223SOL     OW27130   0.087   4.305   6.834  0.1720  0.3635  0.2795
 5223SOL    HW127131   0.058   4.395   6.843  1.2231  0.7855 -0.5059
 5223SOL    HW227132   0.059   4.262   6.915 -0.5394 -0.8416 -0.6001
 5224SOL     OW27133   2.971   4.699   3.097  0.1076  0.0251  0.1730
 5224SOL    HW127134   3.023   0.043   3.053  1.2410  0.8758  2.8239
 5224SOL    HW227135   2.987   4.626   3.036  0.4671 -0.3782  0.7424
 5225SOL     OW27136   4.550   2.291  10.314 -0.6713 -0.3887 -0.3648
 5225SOL    HW127137   4.583   2.267  10.227  0.6359  2.3712 -0.6350
 5225SOL    HW227138   4.523   2.208  10.353  0.7245 -1.2498 -1.2285
 5226SOL     OW27139   2.372   1.072   7.159 -0.1068 -0.3681  0.2971
 5226SOL    HW127140   2.313   1.013   7.204 -1.4419 -0.4581 -1.5859
 5226SOL    HW227141   2.404   1.021   7.085 -0.5840 -0.7230  0.3393
 5227SOL     OW27142   4.434   4.117  17.255 -0.6830  0.0879 -0.8106
 5227SOL    HW127143   4.410   4.207  17.273  2.6738  0.7655  0.1913
 5227SOL    HW227144   4.524   4.114  17.224 -0.0450  2.5466  0.8439
 5228SOL     OW27145   1.622   0.131  17.488  0.0525  0.1155 -0.2250
 5228SOL    HW127146   1.712   0.102  17.474  0.7409  1.0710  2.2989
 5228SOL    HW227147   1.594   0.060  17.546  1.3267 -1.3398 -1.3846
 5229SOL     OW27148   3.775   1.027   0.530  0.4254  0.0893  0.3671
 5229SOL    HW127149   3.763   1.122   0.523 -2.8151 -0.6155 -3.4724
 5229SOL    HW227150   3.766   1.015   0.625 -1.4303 -0.7468  0.0952
 5230SOL     OW27151   1.837   4.056  13.654  0.3669 -0.4660 -0.3267
 5230SOL    HW127152   1.859   4.140  13.696  3.3746 -0.9288 -1.0252
 5230SOL    HW227153   1.798   4.010  13.728 -0.7893  0.2461 -0.4931
 5231SOL     OW27154   0.538   3.787   5.430  0.1441 -0.0024 -0.5736
 5231SOL    HW127155   0.522   3.812   5.521 -2.7146  0.2062 -1.1333
 5231SOL    HW227156   0.486   3.706   5.422  1.0974 -0.7642  0.9413
 5232SOL     OW27157   0.526   4.473  14.210  0.0449  0.8538 -0.1750
 5232SOL    HW127158   0.532   4.442  14.120 -1.1967  0.7703 -0.2329
 5232SOL    HW227159   0.432   4.481  14.225 -0.5726 -3.7540 -1.7038
 5233SOL     OW27160   4.618   0.973   7.651 -0.6656  0.1985 -0.6306
 5233SOL    HW127161   4.710   0.995   7.669 -0.7005  0.6885 -1.0733
 5233SOL    HW227162   4.601   1.045   7.590 -0.5204  1.7554  1.1658
 5234SOL     OW27163   3.337   1.103   2.239  0.0521 -0.1158 -0.1122
 5234SOL    HW127164   3.345   1.157   2.318  2.9401 -0.5092 -0.1129
 5234SOL    HW227165   3.416   1.049   2.246  0.0082 -0.1188  0.3872
 5235SOL     OW27166   2.994   4.412  17.157  0.1558 -0.0003 -0.6089
 5235SOL    HW127167   3.089   4.407  17.146 -0.0336 -1.2875 -1.5837
 5235SOL    HW227168   2.995   4.499  17.198 -0.3978 -0.9608  1.4630
 5236SOL     OW27169   2.130   3.956   8.572 -0.1764  0.0185  0.2900
 5236SOL    HW127170   2.186   3.889   8.533  0.7895  0.9713  0.0408
 5236SOL    HW227171   2.060   3.906   8.613 -0.5840  1.5304  1.4158
 5237SOL     OW27172   0.107   4.527   3.531 -0.0832  0.2537 -0.1416
 5237SOL    HW127173   0.146   4.613   3.547  0.5826  0.0815 -0.8735
 5237SOL    HW227174   0.178   4.474   3.496  2.2767  3.0987  0.3611
 5238SOL     OW27175   2.641   2.445   5.391 -0.1042 -0.1821 -0.2726
 5238SOL    HW127176   2.613   2.512   5.329 -0.6598 -0.2814 -0.1296
 5238SOL    HW227177   2.558   2.413   5.426  0.2306 -3.0393 -2.1002
 5239SOL     OW27178   1.079   0.734   7.825  0.3948  0.0488 -0.2430
 5239SOL    HW127179   1.021   0.737   7.749  0.5048 -1.2602 -0.3757
 5239SOL    HW227180   1.036   0.669   7.880  0.1321 -0.6134 -1.2260
 5240SOL     OW27181   0.233   1.572   4.371 -0.4700 -0.1198  0.0092
 5240SOL    HW127182   0.255   1.543   4.283 -0.5206 -3.2744  1.0285
 5240SOL    HW227183   0.139   1.592   4.365 -0.3011  0.3807 -0.8697
 5241SOL     OW27184   3.342   1.678   0.294 -0.5447  0.3875  0.4349
 5241SOL    HW127185   3.384   1.659   0.210 -0.9693 -0.0541  0.3222
 5241SOL    HW227186   3.269   1.617   0.284  0.4597 -0.9839  1.5127
 5242SOL     OW27187   3.482   2.109   0.154 -0.5274 -0.4299 -0.4328
 5242SOL    HW127188   3.501   2.037   0.214 -0.4358 -0.4671 -0.5075
 5242SOL    HW227189   3.397   2.141   0.183  0.8838  1.4898  1.6067
 5243SOL     OW27190   2.245   0.648   4.526  0.0923 -0.0259  0.5039
 5243SOL    HW127191   2.189   0.588   4.575  1.2257  0.7085  2.6971
 5243SOL    HW227192   2.176   0.693   4.478 -0.7687  0.2637  2.0083
 5244SOL     OW27193   3.091   0.211   0.491 -0.5292 -0.2995 -0.2662
 5244SOL    HW127194   3.062   0.169   0.572  0.4049 -0.7357 -0.1575
 5244SOL    HW227195   3.028   0.283   0.488 -0.0164  0.3077  3.5720
 5245SOL     OW27196   4.388   3.014   6.806 -0.0474  0.2999  1.3086
 5245SOL    HW127197   4.475   2.977   6.794  0.1733  1.3238 -0.3382
 5245SOL    HW227198   4.404   3.076   6.877  0.3755 -0.4780  1.8959
 5246SOL     OW27199   3.938   2.652   6.088  0.5436 -0.3450  0.8573
 5246SOL    HW127200   3.927   2.600   6.167  1.1001 -1.4226  0.2242
 5246SOL    HW227201   3.860   2.635   6.035  0.4430 -0.5260  1.0640
 5247SOL     OW27202   1.365   0.001   3.563  0.0613  0.1427 -0.0342
 5247SOL    HW127203   1.411   0.076   3.602 -0.4484  0.8140 -0.7384
 5247SOL    HW227204   1.358   4.666   3.640  0.4915 -0.8880 -0.7743
 5248SOL     OW27205   4.359   0.286   5.504  0.1859 -0.2481 -0.0693
 5248SOL    HW127206   4.366   0.198   5.467 -0.0742  0.9637 -3.0362
 5248SOL    HW227207   4.275   0.318   5.473  0.2692  1.7990  1.8296
 5249SOL     OW27208   1.702   4.162   4.876 -0.0077  0.6731 -0.6374
 5249SOL    HW127209   1.668   4.144   4.963 -1.0367 -0.6629 -1.3111
 5249SOL    HW227210   1.624   4.194   4.830 -0.6044  0.3036  0.1181
 5250SOL     OW27211   0.362   2.286   5.776  0.4988 -0.0556 -0.4604
 5250SOL    HW127212   0.324   2.373   5.790 -0.1416 -0.6037  1.2313
 5250SOL    HW227213   0.441   2.311   5.728  0.1255 -0.3163 -1.2003
 5251SOL     OW27214   0.812   0.356  14.147 -0.3464  0.2614 -0.4500
 5251SOL    HW127215   0.812   0.406  14.229 -2.3352 -0.3376 -0.0669
 5251SOL    HW227216   0.724   0.382  14.120 -0.7725 -1.1554 -0.4491
 5252SOL     OW27217   0.689   0.294   4.147  0.4244 -0.0340  0.4044
 5252SOL    HW127218   0.655   0.213   4.185  2.6078 -0.1757  2.0229
 5252SOL    HW227219   0.613   0.348   4.167  0.5460  0.2554  0.0689
 5253SOL     OW27220   0.510   2.319   2.077  0.2312  0.3429 -0.0343
 5253SOL    HW127221   0.521   2.224   2.074 -0.2025  0.3486 -2.2568
 5253SOL    HW227222   0.531   2.346   1.987 -1.2365 -1.9263 -1.0417
 5254SOL     OW27223   2.701   0.206   6.824 -0.3993 -0.6553  0.2298
 5254SOL    HW127224   2.617   0.206   6.779  0.6435  2.8630 -1.7695
 5254SOL    HW227225   2.752   0.253   6.758  0.8571 -1.2808  0.7440
 5255SOL     OW27226   1.906   3.231   5.667  0.1132 -0.0052  0.1625
 5255SOL    HW127227   1.826   3.280   5.646  0.5980  1.4509  1.7251
 5255SOL    HW227228   1.876   3.162   5.725  1.1678 -0.2205  0.4468
 5256SOL     OW27229   3.622   3.607  16.406 -0.4225  0.6236 -0.3244
 5256SOL    HW127230   3.691   3.548  16.435 -0.7995  1.3234  1.9647
 5256SOL    HW227231   3.629   3.591  16.311  2.6433  2.0704 -0.3690
 5257SOL     OW27232   0.572   4.211   9.506 -0.0831 -0.6917 -0.8371
 5257SOL    HW127233   0.636   4.257   9.452  0.2536  0.4197  0.5234
 5257SOL    HW227234   0.499   4.271   9.494 -0.1308 -0.7169 -0.6635
 5258SOL     OW27235   2.345   2.678   9.785  0.4400 -0.3929 -0.1338
 5258SOL    HW127236   2.308   2.642   9.865 -2.4555 -1.2069 -1.8237
 5258SOL    HW227237   2.333   2.611   9.718 -1.5634 -1.6837  1.5140
 5259SOL     OW27238   0.079   2.110  16.562 -0.1747  0.0353  0.0019
 5259SOL    HW127239   0.054   2.199  16.539 -0.3830  0.8991  3.5899
 5259SOL    HW227240   0.169   2.126  16.589 -0.7882  0.6083  1.6775
 5260SOL     OW27241   1.788   3.434   4.188 -0.4326 -0.4880 -0.2921
 5260SOL    HW127242   1.767   3.469   4.275 -1.7011 -0.3813 -0.6430
 5260SOL    HW227243   1.863   3.377   4.199 -0.6563 -0.8315 -0.5412
 5261SOL     OW27244   3.856   2.581   3.805  0.2897 -0.2063 -0.2407
 5261SOL    HW127245   3.762   2.600   3.806  0.3053 -0.0738 -1.4545
 5261SOL    HW227246   3.897   2.664   3.783  0.9373 -0.4560  0.0206
 5262SOL     OW27247   2.769   3.261   4.804  0.6616 -0.3399 -0.2239
 5262SOL    HW127248   2.813   3.341   4.835 -2.2497  0.5992  1.4613
 5262SOL    HW227249   2.818   3.245   4.723  0.2953 -1.7245 -0.1545
 5263SOL     OW27250   1.497   0.218   3.694 -0.2205  0.3537  0.3503
 5263SOL    HW127251   1.430   0.271   3.738  0.1347  2.1045 -1.1854
 5263SOL    HW227252   1.580   0.252   3.728  0.2623 -1.8027  1.3137
 5264SOL     OW27253   1.752   1.973   8.819 -0.3723 -0.0665  0.0637
 5264SOL    HW127254   1.780   2.012   8.736  3.3285  1.6384  2.1366
 5264SOL    HW227255   1.666   2.012   8.831  0.4897  1.8932 -0.2562
 5265SOL     OW27256   3.333   0.685   7.792  0.2082 -0.4805  0.6224
 5265SOL    HW127257   3.291   0.739   7.726 -2.0628 -0.3325  2.1829
 5265SOL    HW227258   3.263   0.676   7.857 -0.9766 -1.2089 -0.7536
 5266SOL     OW27259   2.853   3.620  10.837 -0.2222  0.4278 -0.2741
 5266SOL    HW127260   2.876   3.566  10.761  0.0918  0.6960 -0.3703
 5266SOL    HW227261   2.775   3.671  10.816  1.0135  2.0881 -0.7800
 5267SOL     OW27262   0.676   0.071   7.098 -0.2717  0.1462  0.8386
 5267SOL    HW127263   0.667   0.042   7.189 -0.4069  4.3844  2.1594
 5267SOL    HW227264   0.769   0.091   7.093 -0.6959  1.9187  0.0243
 5268SOL     OW27265   3.831   3.774  11.167 -0.0005 -0.1959 -0.1495
 5268SOL    HW127266   3.815   3.724  11.086  0.6174 -1.4241  0.4792
 5268SOL    HW227267   3.799   3.708  11.228  2.0257 -0.2335  0.8547
 5269SOL     OW27268   0.888   3.110   6.700 -0.8045  0.1452 -0.1200
 5269SOL    HW127269   0.878   3.017   6.682  1.5208  0.2696 -2.0664
 5269SOL    HW227270   0.797   3.135   6.683 -0.6911  0.0545 -0.8349
 5270SOL     OW27271   1.701   4.039  14.246  0.2586 -1.2364  0.0619
 5270SOL    HW127272   1.627   4.096  14.261  1.4515  1.0429 -2.6386
 5270SOL    HW227273   1.747   4.052  14.328 -1.3866 -0.5524  0.8609
 5271SOL     OW27274   4.463   3.795   6.998 -0.2266 -0.0855  0.2355
 5271SOL    HW127275   4.398   3.732   6.967 -0.3557 -0.6699  1.6854
 5271SOL    HW227276   4.428   3.874   6.957  0.1739 -0.3569 -0.6231
 5272SOL     OW27277   1.694   4.429   6.830 -0.1449  0.4487  0.0429
 5272SOL    HW127278   1.687   4.500   6.894  0.9176  1.7715 -1.3030
 5272SOL    HW227279   1.737   4.362   6.884  0.6718  0.4932 -0.5531
 5273SOL     OW27280   3.420   1.180  17.054 -0.1574  0.1327 -0.2467
 5273SOL    HW127281   3.380   1.243  17.114 -1.3576 -0.0633 -0.8404
 5273SOL    HW227282   3.419   1.227  16.971 -0.0653  0.2576 -0.1762
 5274SOL     OW27283   4.189   1.822   3.665  0.3625  0.4071 -0.1166
 5274SOL    HW127284   4.102   1.859   3.647  0.5855  0.7068 -0.5774
 5274SOL    HW227285   4.218   1.791   3.580  0.5040  1.4778 -0.4665
 5275SOL     OW27286   2.286   3.413   9.479  0.3382  0.2199 -0.5584
 5275SOL    HW127287   2.371   3.438   9.443 -1.3786  2.1247 -3.2454
 5275SOL    HW227288   2.248   3.369   9.403  1.7642 -1.0238 -0.5585
 5276SOL     OW27289   3.813   3.893   3.414 -0.2492  0.4575 -0.1216
 5276SOL    HW127290   3.757   3.932   3.347 -0.2337 -1.0382 -0.9904
 5276SOL    HW227291   3.884   3.956   3.422  0.1298  0.1832 -1.3615
 5277SOL     OW27292   4.634   3.346   8.733 -0.0456 -0.1369 -0.1086
 5277SOL    HW127293   4.567   3.404   8.768 -0.0503 -0.7030  0.8110
 5277SOL    HW227294   4.685   3.397   8.670 -0.3676 -0.8931 -0.9784
 5278SOL     OW27295   3.769   4.663   8.840  1.0393  0.3037  0.3061
 5278SOL    HW127296   3.774   4.578   8.796 -1.0316  0.5311 -0.3528
 5278SOL    HW227297   3.849   4.663   8.894  0.0491 -0.7041  1.7853
 5279SOL     OW27298   2.473   0.638   5.002  0.1456  0.0129  0.0072
 5279SOL    HW127299   2.399   0.592   5.041  1.9490 -1.4987  1.6016
 5279SOL    HW227300   2.543   0.573   5.002  0.2087  0.0768 -0.3244
 5280SOL     OW27301   3.771   1.869  15.309  0.4461  0.7025  0.0915
 5280SOL    HW127302   3.796   1.831  15.225 -2.7195  1.1450 -1.0304
 5280SOL    HW227303   3.676   1.874  15.305  0.4333  2.0440  1.9673
 5281SOL     OW27304   3.578   0.068   1.984 -0.2526  0.2210 -0.1741
 5281SOL    HW127305   3.497   0.110   2.012 -1.3039 -0.5446 -2.0253
 5281SOL    HW227306   3.633   0.091   2.059 -0.7964  0.8646  0.0259
 5282SOL     OW27307   2.206   1.798   0.704 -0.5311  0.2070 -0.3832
 5282SOL    HW127308   2.132   1.751   0.742  0.2321  0.5661  1.5421
 5282SOL    HW227309   2.179   1.887   0.684  1.8536  1.1712  0.6253
 5283SOL     OW27310   1.883   2.993   4.151  0.2744 -0.1052 -0.6072
 5283SOL    HW127311   1.869   2.901   4.173  3.3009 -0.9441 -2.1154
 5283SOL    HW227312   1.958   2.988   4.092  0.3073  1.2395 -0.6661
 5284SOL     OW27313   3.605   4.399   5.969 -0.0231  0.4216 -0.0543
 5284SOL    HW127314   3.521   4.381   5.927 -0.6774  1.3858  0.8470
 5284SOL    HW227315   3.666   4.368   5.901  0.7675  1.3196  0.2469
 5285SOL     OW27316   3.992   1.849   6.372 -0.1789  0.4510 -0.2216
 5285SOL    HW127317   3.934   1.803   6.312 -0.6053 -0.2648  0.7433
 5285SOL    HW227318   4.073   1.846   6.321  0.6546  0.1189  1.1488
 5286SOL     OW27319   0.631   2.377   1.862 -0.5262 -0.1988 -0.0950
 5286SOL    HW127320   0.702   2.316   1.883  0.0305  1.0834  1.7271
 5286SOL    HW227321   0.678   2.459   1.871  2.0266 -1.6550 -0.1648
 5287SOL     OW27322   1.757   4.538   0.071  0.1115 -0.0386 -0.2369
 5287SOL    HW127323   1.795   4.543  17.677 -0.1233  4.2779 -0.0925
 5287SOL    HW227324   1.677   4.490   0.047  0.7020 -1.5460  0.7235
 5288SOL     OW27325   0.446   2.470   9.134 -0.3398  0.2070 -0.0776
 5288SOL    HW127326   0.385   2.403   9.102 -1.8001  1.3617  0.3516
 5288SOL    HW227327   0.505   2.407   9.177 -0.0787  0.7581  0.3740
 5289SOL     OW27328   4.501   1.142   8.426  0.1266  0.3146 -0.2481
 5289SOL    HW127329   4.506   1.231   8.390 -0.9019  0.1242 -0.8660
 5289SOL    HW227330   4.595   1.126   8.438 -0.2005 -0.5038  1.1445
 5290SOL     OW27331   3.576   2.007   2.768  0.0924 -0.3065  0.1472
 5290SOL    HW127332   3.537   1.986   2.853 -1.2510 -1.6942 -0.8122
 5290SOL    HW227333   3.665   2.021   2.802 -0.2540 -2.6201  2.0432
 5291SOL     OW27334   3.870   0.776   2.517  0.2777  0.1363 -0.6805
 5291SOL    HW127335   3.924   0.730   2.581  0.3985 -0.5064 -1.2505
 5291SOL    HW227336   3.847   0.705   2.456 -2.0241  1.1586 -1.0245
 5292SOL     OW27337   2.528   0.898  17.253  0.0055  0.8906  0.3118
 5292SOL    HW127338   2.577   0.928  17.176 -0.5891  0.3422 -0.2923
 5292SOL    HW227339   2.441   0.937  17.241 -0.5471 -0.4337 -0.0560
 5293SOL     OW27340   2.520   4.518   4.314  0.2255 -0.2053  0.4417
 5293SOL    HW127341   2.535   4.476   4.399 -1.1136 -2.2575 -0.3406
 5293SOL    HW227342   2.554   4.606   4.329  0.1147 -0.0399 -0.2711
 5294SOL     OW27343   1.378   0.992   3.306 -0.0751  0.2179 -0.1759
 5294SOL    HW127344   1.306   0.999   3.368 -0.0920  1.0130 -0.2850
 5294SOL    HW227345   1.330   1.000   3.224 -1.4567  2.8030  0.8916
 5295SOL     OW27346   0.651   2.978  10.407  0.3291 -0.5536  0.0645
 5295SOL    HW127347   0.649   2.896  10.458 -2.3513 -0.9484 -0.6738
 5295SOL    HW227348   0.596   2.962  10.330 -0.0731 -1.3727  0.5232
 5296SOL     OW27349   3.767   4.298   5.782  0.3343  0.8162  0.3629
 5296SOL    HW127350   3.735   4.207   5.787 -0.2912  1.0369  0.3938
 5296SOL    HW227351   3.815   4.312   5.700 -0.4817 -0.8622 -0.4067
 5297SOL     OW27352   1.883   3.715   4.652 -0.5521  0.0080 -0.1696
 5297SOL    HW127353   1.842   3.665   4.722  0.4295 -1.5061 -0.6834
 5297SOL    HW227354   1.867   3.803   4.688  1.0568 -0.7681  2.4093
 5298SOL     OW27355   3.650   1.833  17.678  0.1050  0.1656  0.1211
 5298SOL    HW127356   3.595   1.894  17.628 -0.8672 -0.9275 -0.1529
 5298SOL    HW227357   3.585   1.763  17.674  0.3016  0.1341 -2.2941
 5299SOL     OW27358   2.779   4.696   7.837 -0.0145  0.0039  0.1529
 5299SOL    HW127359   2.825   4.626   7.883  0.1126 -0.7508 -1.1171
 5299SOL    HW227360   2.851   0.031   7.809  2.0078 -2.1832  0.8194
 5300SOL     OW27361   2.747   0.648   8.606  0.2345 -0.0955  0.1556
 5300SOL    HW127362   2.659   0.661   8.641 -0.7208  0.3092 -2.4788
 5300SOL    HW227363   2.764   0.695   8.525 -0.2201  0.7359  0.5457
 5301SOL     OW27364   0.251   1.997  17.617  0.0681 -0.1743 -0.2988
 5301SOL    HW127365   0.273   1.907  17.594 -2.9984 -0.9330 -0.2121
 5301SOL    HW227366   0.260   2.032  17.528  1.7655 -0.3158 -0.1722
 5302SOL     OW27367   3.961   2.298  10.494 -0.3785 -0.2366  0.4510
 5302SOL    HW127368   3.887   2.251  10.533 -1.6456  0.4176 -1.1601
 5302SOL    HW227369   3.998   2.348  10.567  3.2590 -1.0034 -0.9056
 5303SOL     OW27370   2.723   3.137  16.963  0.8177 -0.5790 -0.7172
 5303SOL    HW127371   2.809   3.105  16.936  1.0320 -0.2425 -0.4220
 5303SOL    HW227372   2.722   3.222  16.919  0.3855 -0.6809 -0.9028
 5304SOL     OW27373   1.307   2.879   8.949  0.5610 -0.1461 -0.2115
 5304SOL    HW127374   1.324   2.855   8.858 -1.0723 -2.2040  0.0137
 5304SOL    HW227375   1.312   2.791   8.988 -1.5803  0.0377  0.4752
 5305SOL     OW27376   1.217   1.445  14.406 -0.5269  0.5218 -0.3981
 5305SOL    HW127377   1.202   1.415  14.316  1.0917 -1.9549  0.1549
 5305SOL    HW227378   1.126   1.459  14.432 -0.0320 -0.6801  1.9733
 5306SOL     OW27379   2.323   0.757   9.958 -0.4644 -0.2377 -0.2258
 5306SOL    HW127380   2.410   0.777   9.994 -1.4507  3.0891  0.3027
 5306SOL    HW227381   2.286   0.845   9.948 -1.3293 -0.5236  0.4661
 5307SOL     OW27382   3.474   1.511   7.224 -0.2144 -0.0819  0.1515
 5307SOL    HW127383   3.535   1.582   7.201 -0.0238 -1.0800 -2.4260
 5307SOL    HW227384   3.527   1.434   7.204 -1.4971 -1.3519  1.7004
 5308SOL     OW27385   2.004   0.738   0.839  0.2319 -0.1349 -0.2835
 5308SOL    HW127386   2.041   0.708   0.922  0.4232  0.0869 -0.2889
 5308SOL    HW227387   1.949   0.668   0.805  1.3589 -1.3745  0.4473
 5309SOL     OW27388   0.014   4.178   4.094  0.1570  0.1348  0.1366
 5309SOL    HW127389   4.702   4.256   4.138 -0.1506 -0.3679  0.7800
 5309SOL    HW227390   4.700   4.118   4.159 -0.7007  0.1197 -0.3673
 5310SOL     OW27391   0.758   0.820   5.350  0.3719  0.0389 -0.2559
 5310SOL    HW127392   0.666   0.838   5.337  0.7228  2.9443  1.2796
 5310SOL    HW227393   0.761   0.726   5.366 -1.3303  0.3504  1.8607
 5311SOL     OW27394   3.803   1.814   2.474 -0.3380 -0.5052  0.7557
 5311SOL    HW127395   3.840   1.727   2.491  2.9966  0.6429 -0.7021
 5311SOL    HW227396   3.855   1.860   2.540 -0.9579  0.1576  0.7873
 5312SOL     OW27397   4.448   0.038  12.211 -0.0267  0.3937 -0.1419
 5312SOL    HW127398   4.516   4.696  12.228 -0.5282  0.1567  0.9018
 5312SOL    HW227399   4.468   0.109  12.272 -2.5063  0.1327  0.9462
 5313SOL     OW27400   1.941   0.659   7.567 -0.1506  0.2809  0.0420
 5313SOL    HW127401   1.880   0.611   7.622 -0.2760 -0.1732 -0.4928
 5313SOL    HW227402   2.017   0.619   7.609 -0.5843 -1.0290 -0.4186
 5314SOL     OW27403   1.459   0.813   4.174  0.0436  0.1867 -0.0209
 5314SOL    HW127404   1.461   0.905   4.149 -1.5093  0.5653  1.2656
 5314SOL    HW227405   1.405   0.780   4.103 -0.2482  1.7526 -0.5130
 5315SOL     OW27406   2.069   1.100  12.883 -0.7573  0.2887  0.0120
 5315SOL    HW127407   2.123   1.061  12.814 -0.7708  0.0427  0.1418
 5315SOL    HW227408   2.015   1.026  12.910  0.0222 -1.1083 -2.2642
 5316SOL     OW27409   2.481   3.981   5.743 -0.1816 -0.1870 -0.0833
 5316SOL    HW127410   2.430   4.060   5.761 -0.5633 -0.5633  0.4607
 5316SOL    HW227411   2.414   3.917   5.767 -0.3865 -0.3297 -1.0053
 5317SOL     OW27412   3.586   4.695   6.174 -0.2328  0.3689  0.1625
 5317SOL    HW127413   3.611   4.603   6.163  0.0397  0.4496  0.1063
 5317SOL    HW227414   3.666   0.022   6.157 -0.5317  0.3436 -1.3172
 5318SOL     OW27415   4.547   3.161   8.445  0.4559  0.0487 -0.5462
 5318SOL    HW127416   4.604   3.152   8.521  0.3171  2.1468 -0.1881
 5318SOL    HW227417   4.528   3.071   8.419 -2.7954  0.4993  0.2619
 5319SOL     OW27418   0.260   2.548   5.283 -0.1181  0.6529 -0.0964
 5319SOL    HW127419   0.249   2.482   5.352 -0.1044  1.7703  0.9805
 5319SOL    HW227420   0.166   2.565   5.270 -0.1134  0.6008 -0.1959
 5320SOL     OW27421   3.056   2.419  11.126  0.0138  0.1134  0.2158
 5320SOL    HW127422   3.009   2.477  11.066 -0.4466 -1.2337 -0.7329
 5320SOL    HW227423   3.149   2.441  11.114  0.2694 -1.0922 -0.0595
 5321SOL     OW27424   2.093   0.201  13.423  0.6340 -0.2028 -0.1934
 5321SOL    HW127425   2.128   0.257  13.353  1.7247  0.2433  0.7011
 5321SOL    HW227426   2.119   0.254  13.499 -2.1647 -2.3919  2.2600
 5322SOL     OW27427   1.385   4.386   1.199  0.1164 -0.6313  0.2138
 5322SOL    HW127428   1.451   4.318   1.186  2.1129  1.4085 -0.1169
 5322SOL    HW227429   1.320   4.337   1.250  0.6333 -0.2767  1.2147
 5323SOL     OW27430   1.131   4.171   5.493 -0.2397  0.1368 -0.2679
 5323SOL    HW127431   1.221   4.174   5.523  0.0084 -0.3931 -0.9674
 5323SOL    HW227432   1.128   4.239   5.425 -1.2105 -0.9063 -1.2696
 5324SOL     OW27433   4.040   3.725   5.060  0.0113 -0.5800 -0.3190
 5324SOL    HW127434   4.012   3.781   4.988 -1.0220 -0.3815  0.2303
 5324SOL    HW227435   4.068   3.790   5.125 -2.4401  0.2488 -0.0923
 5325SOL     OW27436   0.914   3.245   2.258  0.0636  0.5157  0.0225
 5325SOL    HW127437   0.997   3.289   2.241  0.7265 -0.6596  0.2538
 5325SOL    HW227438   0.907   3.272   2.350 -0.2074 -1.0267  0.4495
 5326SOL     OW27439   3.932   3.261  12.011  0.1986  0.4722  0.6790
 5326SOL    HW127440   3.983   3.307  12.078 -0.5202  2.6370 -0.2564
 5326SOL    HW227441   3.962   3.173  12.032  0.6291 -0.0462 -2.1224
 5327SOL     OW27442   4.062   3.161  13.303  0.3035  0.1979 -0.3913
 5327SOL    HW127443   3.976   3.145  13.342 -0.2554  1.4656 -1.0717
 5327SOL    HW227444   4.041   3.234  13.245  1.0264  0.4752 -0.3097
 5328SOL     OW27445   0.522   3.192   5.991 -0.1004 -0.1540  0.4424
 5328SOL    HW127446   0.565   3.119   6.036 -0.2781 -0.2936  0.3830
 5328SOL    HW227447   0.439   3.182   6.037  0.1369  1.2594  1.1762
 5329SOL     OW27448   2.584   0.912   2.176 -0.7809  0.0106 -0.0488
 5329SOL    HW127449   2.605   1.005   2.181 -0.9997  0.0461  0.1823
 5329SOL    HW227450   2.605   0.893   2.084  0.5050 -2.9009  0.8430
 5330SOL     OW27451   0.877   3.061  14.791 -0.0496 -0.7099 -0.1247
 5330SOL    HW127452   0.913   3.074  14.879 -2.0369 -2.4576  0.9525
 5330SOL    HW227453   0.918   3.124  14.732 -1.5004 -0.7395 -1.1615
 5331SOL     OW27454   3.356   3.554   8.964 -0.4009 -0.1595 -0.3072
 5331SOL    HW127455   3.409   3.544   8.885 -0.0343 -0.1746 -0.0591
 5331SOL    HW227456   3.412   3.499   9.019 -0.7763 -1.2181 -0.9873
 5332SOL     OW27457   2.096   0.973   6.277 -0.0115 -0.6289  0.2866
 5332SOL    HW127458   2.077   0.991   6.369  3.0090  0.1420  0.7653
 5332SOL    HW227459   2.146   0.891   6.274  2.7098  1.1220 -2.8795
 5333SOL     OW27460   1.688   0.444   7.844  0.4330 -0.5000  0.1994
 5333SOL    HW127461   1.646   0.500   7.779  0.2129  0.3713  1.1098
 5333SOL    HW227462   1.749   0.384   7.801  0.4325 -0.8124  0.6347
 5334SOL     OW27463   2.463   2.420   8.829 -0.2253  0.1489  0.2424
 5334SOL    HW127464   2.427   2.504   8.857 -0.6655 -0.2858  0.9740
 5334SOL    HW227465   2.543   2.423   8.881 -0.8821 -1.0870  1.3151
 5335SOL     OW27466   0.842   1.025   6.006 -0.2036 -0.3172  0.6965
 5335SOL    HW127467   0.753   1.057   6.018 -0.5452 -1.9050  2.4555
 5335SOL    HW227468   0.889   1.108   6.017 -1.2822  0.0780  2.3359
 5336SOL     OW27469   2.832   4.562   2.731 -0.0106 -0.0187 -0.0596
 5336SOL    HW127470   2.825   4.656   2.716  0.1679 -0.2779 -1.7488
 5336SOL    HW227471   2.913   4.544   2.683  0.4883 -0.8917  1.0985
 5337SOL     OW27472   2.317   1.779  12.992  0.0399  0.0120  0.6880
 5337SOL    HW127473   2.405   1.792  13.027  0.6725  0.1376 -0.9308
 5337SOL    HW227474   2.314   1.848  12.925 -0.2234 -2.0132 -1.3766
 5338SOL     OW27475   0.604   4.322   8.081  0.2291  0.2275  0.4425
 5338SOL    HW127476   0.550   4.364   8.148  1.2510 -0.2632  1.5714
 5338SOL    HW227477   0.671   4.268   8.122  1.2058 -0.2276 -1.7269
 5339SOL     OW27478   1.928   4.513   4.346 -0.3181 -0.1540 -0.3383
 5339SOL    HW127479   1.946   4.604   4.325 -1.0746  0.1895  0.5128
 5339SOL    HW227480   2.016   4.478   4.335  0.5374  1.8290  0.2814
 5340SOL     OW27481   4.284   3.957   6.364 -0.0084 -0.3441  0.2831
 5340SOL    HW127482   4.191   3.977   6.352  0.3912  1.2369 -0.1878
 5340SOL    HW227483   4.283   3.928   6.455 -0.2236  0.3869  0.5137
 5341SOL     OW27484   3.443   1.426   4.420 -0.0773  0.1362 -0.4926
 5341SOL    HW127485   3.430   1.423   4.326 -0.8462 -2.1767 -0.3128
 5341SOL    HW227486   3.425   1.520   4.430 -1.1949  0.0669 -1.9172
 5342SOL     OW27487   3.411   2.907  13.519 -0.5396  0.0607 -0.2927
 5342SOL    HW127488   3.432   2.898  13.612 -1.0063 -0.2025 -0.2148
 5342SOL    HW227489   3.339   2.970  13.512 -0.8232 -0.0370  1.6932
 5343SOL     OW27490   2.765   1.426  16.568 -0.6137  0.4718  0.1172
 5343SOL    HW127491   2.673   1.444  16.588 -0.5611  2.8719 -1.8978
 5343SOL    HW227492   2.808   1.469  16.641  2.2798  1.2002 -2.0539
 5344SOL     OW27493   2.476   2.336   4.143  0.1016 -0.0004  0.0952
 5344SOL    HW127494   2.548   2.272   4.146  0.3937  0.3855  1.3146
 5344SOL    HW227495   2.405   2.285   4.180 -0.1687  1.2727  1.3171
 5345SOL     OW27496   1.171   4.324   3.710  0.2764 -0.1829  0.9956
 5345SOL    HW127497   1.081   4.296   3.728  0.4281 -1.4186 -0.2233
 5345SOL    HW227498   1.166   4.326   3.615  1.3025  0.6877  0.9564
 5346SOL     OW27499   2.836   3.538   3.111  0.0954 -0.0386  0.1772
 5346SOL    HW127500   2.773   3.494   3.053 -0.7435 -1.6025  2.2756
 5346SOL    HW227501   2.876   3.596   3.046  1.1557 -1.9945 -0.9279
 5347SOL     OW27502   1.210   0.281   7.384  0.3469 -0.3896 -0.5716
 5347SOL    HW127503   1.133   0.261   7.437  0.2840  0.7155 -0.2384
 5347SOL    HW227504   1.170   0.335   7.315  0.7123  1.3565  0.5854
 5348SOL     OW27505   4.360   4.607   5.241  0.6776 -0.0010 -0.0395
 5348SOL    HW127506   4.291   4.543   5.257 -1.3308  2.5172  1.4044
 5348SOL    HW227507   4.332   4.659   5.165 -0.3085  0.3953  0.5887
 5349SOL     OW27508   3.976   3.174  16.755  0.4844  0.3360 -0.4704
 5349SOL    HW127509   4.066   3.150  16.777  0.9703  0.8571 -1.8845
 5349SOL    HW227510   3.985   3.265  16.727  0.9316  0.7777  1.0764
 5350SOL     OW27511   2.957   2.642   3.830 -0.4689 -0.3833  0.3771
 5350SOL    HW127512   2.941   2.554   3.864 -3.1253  0.2173  0.6101
 5350SOL    HW227513   3.051   2.653   3.847  0.3325 -1.8095 -3.2021
 5351SOL     OW27514   4.091   3.940   2.379  0.5162 -0.3742 -0.0753
 5351SOL    HW127515   4.027   4.002   2.413 -0.2518 -0.6683 -1.0108
 5351SOL    HW227516   4.138   3.997   2.319  2.3895 -1.2605  0.5476
 5352SOL     OW27517   1.885   2.882  15.963 -0.2093  0.2684  0.6350
 5352SOL    HW127518   1.920   2.823  15.896  1.9397  1.4457  0.7222
 5352SOL    HW227519   1.801   2.901  15.921  0.6663  1.4296 -0.5704
 5353SOL     OW27520   2.259   3.585   7.486  0.5884 -0.0908 -0.2690
 5353SOL    HW127521   2.177   3.596   7.534 -0.4041  0.3427 -2.0594
 5353SOL    HW227522   2.275   3.491   7.479 -0.7057 -0.1942 -1.8683
 5354SOL     OW27523   0.937   0.936   7.642  0.0547  0.3189 -0.4562
 5354SOL    HW127524   0.980   0.925   7.557 -1.7255 -3.3820 -0.8380
 5354SOL    HW227525   1.004   0.977   7.698  1.2327 -1.1350 -0.7901
 5355SOL     OW27526   2.961   2.751   8.407 -0.1454 -0.5199  0.4915
 5355SOL    HW127527   2.982   2.704   8.326  1.1579  1.0395 -0.0897
 5355SOL    HW227528   3.047   2.779   8.439 -1.2668 -0.2137  3.2087
 5356SOL     OW27529   0.121   4.098   7.540  0.7891 -0.0110  0.2189
 5356SOL    HW127530   0.146   4.076   7.450  1.5620  0.4897  0.3103
 5356SOL    HW227531   0.205   4.085   7.584  1.6927  1.1149 -1.1800
 5357SOL     OW27532   3.550   1.773   4.947  0.2826  0.2233  0.3538
 5357SOL    HW127533   3.523   1.772   5.039 -1.0995  1.0650 -0.0566
 5357SOL    HW227534   3.534   1.680   4.928 -0.7569  0.5213 -0.1972
 5358SOL     OW27535   0.197   2.171  10.198 -0.1327 -0.4202  0.0549
 5358SOL    HW127536   0.171   2.163  10.107 -1.2243  1.3327  0.2080
 5358SOL    HW227537   0.276   2.226  10.194 -0.2414 -0.3608 -1.0867
 5359SOL     OW27538   3.142   3.887  14.806 -0.0425  0.2149 -0.0611
 5359SOL    HW127539   3.204   3.924  14.869 -0.4487  0.3511  0.2576
 5359SOL    HW227540   3.060   3.890  14.854 -1.5678  4.0898 -2.9246
 5360SOL     OW27541   0.958   0.719  15.961 -0.4408 -0.1390  0.1568
 5360SOL    HW127542   0.976   0.793  15.903  0.2365 -1.3973 -1.2585
 5360SOL    HW227543   1.033   0.726  16.020 -0.8444 -1.1473  0.7913
 5361SOL     OW27544   3.605   1.699  17.439  0.4247 -0.4115  0.0074
 5361SOL    HW127545   3.593   1.604  17.437 -0.9752 -0.2677  1.0826
 5361SOL    HW227546   3.689   1.704  17.393  1.0306  0.6678  1.2236
 5362SOL     OW27547   2.257   1.811   3.908  0.1100 -0.1421  0.1523
 5362SOL    HW127548   2.277   1.905   3.912  1.6617 -0.5302  1.7581
 5362SOL    HW227549   2.345   1.777   3.920  0.8758  0.4719 -3.8014
 5363SOL     OW27550   1.863   2.302  15.788 -0.4393 -0.2342 -0.2773
 5363SOL    HW127551   1.819   2.270  15.709 -0.4242 -3.3903  1.0396
 5363SOL    HW227552   1.784   2.328  15.836  1.0794 -0.3318  2.2427
 5364SOL     OW27553   0.899   3.935   7.838  0.2108 -0.3673 -0.4471
 5364SOL    HW127554   0.944   3.990   7.902  0.5656 -2.9888  1.5577
 5364SOL    HW227555   0.915   3.974   7.752  4.1287 -2.6191 -0.7484
 5365SOL     OW27556   3.195   0.331  15.630 -0.1892 -0.1245 -0.1196
 5365SOL    HW127557   3.287   0.325  15.655 -0.1679  0.7169  0.0036
 5365SOL    HW227558   3.157   0.319  15.717  2.0964 -0.5382  0.8110
 5366SOL     OW27559   1.438   1.866  10.231  0.5512 -0.1986 -0.5892
 5366SOL    HW127560   1.413   1.890  10.142  0.4738 -1.2409 -0.8476
 5366SOL    HW227561   1.359   1.878  10.283  2.0378 -1.5902  2.0564
 5367SOL     OW27562   4.691   3.005   5.063  0.6065 -0.0588  0.2052
 5367SOL    HW127563   4.636   3.072   5.105 -0.1935  1.2508 -2.9401
 5367SOL    HW227564   0.038   3.054   5.020 -0.9143 -0.4807 -2.7610
 5368SOL     OW27565   4.025   4.265   3.037  0.1329 -0.3258  0.2953
 5368SOL    HW127566   4.064   4.299   2.956  0.8205 -1.4186  0.1632
 5368SOL    HW227567   4.092   4.206   3.073  1.3988  0.5639 -0.6084
 5369SOL     OW27568   1.902   2.256  15.349 -0.3344 -0.5969  0.9420
 5369SOL    HW127569   1.815   2.225  15.375 -1.6137  1.8883 -0.5246
 5369SOL    HW227570   1.955   2.237  15.427  0.6577 -0.7815  0.2272
 5370SOL     OW27571   1.479   0.928   6.461  0.0628 -0.4726 -0.0896
 5370SOL    HW127572   1.472   0.936   6.556 -2.9406 -2.4249 -0.1543
 5370SOL    HW227573   1.389   0.934   6.428  0.5445  0.8309 -1.1618
 5371SOL     OW27574   1.298   0.939   5.036  0.1523  0.1758  0.4307
 5371SOL    HW127575   1.235   0.870   5.059  0.2545 -0.1765 -0.3411
 5371SOL    HW227576   1.354   0.927   5.113  0.3198 -0.1595  0.2585
 5372SOL     OW27577   2.869   3.404  13.515  0.6273  0.1075  0.1433
 5372SOL    HW127578   2.881   3.446  13.430  3.0573 -2.4237 -0.7775
 5372SOL    HW227579   2.802   3.338  13.499 -1.9914  2.4582  1.4804
 5373SOL     OW27580   4.437   1.313   2.344  0.4692 -0.2101 -0.4671
 5373SOL    HW127581   4.494   1.355   2.408  0.1034  0.2704 -0.4584
 5373SOL    HW227582   4.487   1.320   2.263  1.6156 -0.2045  0.2430
 5374SOL     OW27583   3.594   4.088   4.257 -0.0643  0.0257  0.0642
 5374SOL    HW127584   3.505   4.092   4.223 -0.1964  0.1213  0.4246
 5374SOL    HW227585   3.617   4.005   4.215 -0.9038 -0.4035  0.4371
 5375SOL     OW27586   2.006   4.082   7.140 -0.1515 -0.1926  0.3976
 5375SOL    HW127587   1.984   4.059   7.050 -0.5466 -4.5186  1.6265
 5375SOL    HW227588   1.915   4.074   7.169 -0.7755 -1.7885 -1.9969
 5376SOL     OW27589   3.436   4.045   3.404 -0.3242 -0.1677  0.0048
 5376SOL    HW127590   3.483   4.079   3.328  1.8942  0.5473  1.7161
 5376SOL    HW227591   3.348   4.081   3.393 -0.5289 -0.0457  1.9630
 5377SOL     OW27592   1.572   0.983   3.003  0.1053 -0.2542  0.2256
 5377SOL    HW127593   1.628   1.045   2.956 -2.3053  0.5194 -1.6550
 5377SOL    HW227594   1.560   0.910   2.942  0.7089 -0.2233  0.0621
 5378SOL     OW27595   0.317   3.174   5.537  0.5881 -0.5881 -0.0040
 5378SOL    HW127596   0.409   3.177   5.564  0.3741  0.5238  0.6214
 5378SOL    HW227597   0.316   3.096   5.482  2.1788 -1.3340  1.0378
 5379SOL     OW27598   2.288   2.270   2.746  0.2525 -0.0237  0.5881
 5379SOL    HW127599   2.320   2.208   2.812  0.0115  0.9974  1.6808
 5379SOL    HW227600   2.303   2.348   2.800 -1.1999  0.7262 -0.0898
 5380SOL     OW27601   0.190   0.434   9.362  0.1179  0.2769  0.5542
 5380SOL    HW127602   0.150   0.485   9.432 -1.2057 -2.1268  1.5848
 5380SOL    HW227603   0.166   0.489   9.287 -0.3104  0.9072  1.1676
 5381SOL     OW27604   3.053   3.006   4.003  0.1947  0.0063  0.0731
 5381SOL    HW127605   3.014   2.949   4.070  2.3984  0.3235  1.6233
 5381SOL    HW227606   3.058   3.089   4.050 -1.4920  0.9319 -1.3932
 5382SOL     OW27607   0.595   1.549   6.191 -0.0025 -0.2707 -0.2266
 5382SOL    HW127608   0.532   1.609   6.152 -0.5034  0.4547  1.6698
 5382SOL    HW227609   0.568   1.553   6.283 -0.1962  0.7559 -0.3298
 5383SOL     OW27610   4.357   1.948   4.749 -0.3610  0.3941  0.0031
 5383SOL    HW127611   4.267   1.918   4.763  0.3238 -1.6673 -0.0520
 5383SOL    HW227612   4.399   1.862   4.752  1.4332  1.3291  2.0832
 5384SOL     OW27613   2.847   0.266   7.505 -0.1164 -0.4599 -0.0701
 5384SOL    HW127614   2.771   0.209   7.492 -0.6590  0.5552 -1.3367
 5384SOL    HW227615   2.808   0.332   7.563  0.2710 -0.1427 -0.1726
 5385SOL     OW27616   2.888   2.222   4.281 -0.3417  0.0606 -1.0309
 5385SOL    HW127617   2.923   2.173   4.206  1.8664  1.6393 -0.9961
 5385SOL    HW227618   2.901   2.314   4.259 -1.0577  0.8915  2.0076
 5386SOL     OW27619   3.341   2.113   4.713 -0.3695  0.0554 -0.1642
 5386SOL    HW127620   3.394   2.176   4.664  1.2127 -1.0141  0.1639
 5386SOL    HW227621   3.417   2.066   4.748 -1.1030 -1.4782 -0.6102
 5387SOL     OW27622   2.949   3.138   7.884  0.0327 -0.9599  0.0766
 5387SOL    HW127623   2.956   3.230   7.911  1.8827 -0.5397 -1.8802
 5387SOL    HW227624   3.036   3.106   7.907  0.8662  0.6601 -0.8060
 5388SOL     OW27625   3.622   3.053   4.261  0.5670  0.0252 -0.6022
 5388SOL    HW127626   3.624   3.024   4.170  1.7608  0.8063 -0.8252
 5388SOL    HW227627   3.702   3.104   4.271 -0.3645  0.6757  3.9039
 5389SOL     OW27628   0.727   2.450  14.537 -0.2963  0.2475  0.0667
 5389SOL    HW127629   0.661   2.384  14.518 -1.1428  1.6020 -1.6972
 5389SOL    HW227630   0.677   2.486  14.611 -3.3179 -3.2033 -0.2873
 5390SOL     OW27631   2.581   0.133   2.262 -0.4777  0.5741  0.1877
 5390SOL    HW127632   2.621   0.086   2.336  0.8038  0.0402 -0.8360
 5390SOL    HW227633   2.570   0.223   2.292 -0.1552  0.4477  0.6982
 5391SOL     OW27634   4.419   2.281   5.546 -0.6560 -0.5075  0.4473
 5391SOL    HW127635   4.401   2.310   5.635  1.1692 -0.0696  0.6651
 5391SOL    HW227636   4.415   2.188   5.567 -0.8041 -0.1415  2.0688
 5392SOL     OW27637   1.902   2.531  13.158 -0.1429  0.2416 -0.2022
 5392SOL    HW127638   1.943   2.492  13.081  2.1750  1.7963  0.2237
 5392SOL    HW227639   1.848   2.589  13.104 -2.0849  0.8909  2.4403
 5393SOL     OW27640   0.908   0.716   8.391 -0.2174  0.4433 -0.0106
 5393SOL    HW127641   0.997   0.681   8.389  0.6174  2.4981  0.3934
 5393SOL    HW227642   0.875   0.681   8.473  0.4930 -0.6558 -0.2006
 5394SOL     OW27643   0.423   1.998  11.072  0.1607  0.2527 -0.4681
 5394SOL    HW127644   0.469   2.082  11.077 -1.1030  1.0326 -1.8697
 5394SOL    HW227645   0.389   2.001  10.982 -0.2412 -1.4987 -0.3800
 5395SOL     OW27646   0.010   1.896   2.259 -0.2131  0.4525  0.4333
 5395SOL    HW127647   4.643   1.863   2.264  0.9460 -3.0532 -1.7167
 5395SOL    HW227648   0.034   1.862   2.173  0.2061 -1.1276  1.1777
 5396SOL     OW27649   0.486   2.079   8.660 -0.0581 -0.6324  0.5298
 5396SOL    HW127650   0.512   2.164   8.695 -1.1163  0.2665 -0.8613
 5396SOL    HW227651   0.391   2.087   8.669  0.4579  2.3570  3.2444
 5397SOL     OW27652   4.390   4.279   6.792 -0.4576  0.2113 -0.0055
 5397SOL    HW127653   4.431   4.339   6.855 -1.4536  0.5351  0.3265
 5397SOL    HW227654   4.436   4.310   6.714  2.0179 -1.0542  0.9491
 5398SOL     OW27655   1.145   4.152  10.337 -1.0213  0.3322 -0.0530
 5398SOL    HW127656   1.083   4.128  10.406 -1.5465  0.7320 -0.3838
 5398SOL    HW227657   1.125   4.245  10.331 -1.6282  0.2341  0.4991
 5399SOL     OW27658   1.677   4.558  12.830 -0.0025 -0.1207  0.2381
 5399SOL    HW127659   1.760   4.530  12.868  0.2272  1.1125  0.6399
 5399SOL    HW227660   1.682   4.650  12.804 -2.6719 -0.6375 -2.1144
 5400SOL     OW27661   1.926   1.621   5.382 -0.0538  0.1357 -0.1868
 5400SOL    HW127662   1.977   1.579   5.312 -1.6515 -2.2208  0.0610
 5400SOL    HW227663   1.962   1.710   5.379  0.0677  0.0968  0.1312
 5401SOL     OW27664   2.591   0.030  12.070 -0.0867 -0.4744 -0.5420
 5401SOL    HW127665   2.588   4.684  12.004  0.6555 -0.6893 -0.3539
 5401SOL    HW227666   2.686   0.046  12.068 -0.2615  0.6365 -0.1784
 5402SOL     OW27667   2.631   1.165   6.036 -0.1221 -0.1789  0.6101
 5402SOL    HW127668   2.653   1.255   6.012 -0.4492 -0.0780  0.6794
 5402SOL    HW227669   2.579   1.185   6.114  0.3471  1.4840  0.4997
 5403SOL     OW27670   1.167   2.258   1.553  0.1756  0.3073  0.1516
 5403SOL    HW127671   1.221   2.332   1.524  2.1924 -0.9178  0.7513
 5403SOL    HW227672   1.114   2.236   1.477  0.0509  0.5477  0.1690
 5404SOL     OW27673   4.684   4.621   4.308  0.0609 -0.5776 -0.0957
 5404SOL    HW127674   4.617   4.687   4.324  2.8218  2.1508  0.0589
 5404SOL    HW227675   4.720   4.653   4.226  1.9677 -0.6129  0.7440
 5405SOL     OW27676   1.153   0.971   3.103 -0.0820  0.3208  0.2072
 5405SOL    HW127677   1.063   0.981   3.134 -1.5247 -1.2057 -3.4122
 5405SOL    HW227678   1.149   0.884   3.063 -1.2084  0.6049 -0.3174
 5406SOL     OW27679   0.739   2.440   6.285  0.0463 -0.2775  0.1845
 5406SOL    HW127680   0.666   2.503   6.281  0.0821 -0.2947 -0.7153
 5406SOL    HW227681   0.729   2.405   6.197 -1.5671  2.7500 -0.8721
 5407SOL     OW27682   0.000   2.207   0.438 -0.6137 -0.6207 -0.0768
 5407SOL    HW127683   0.024   2.115   0.451 -1.0814 -0.6834  0.3388
 5407SOL    HW227684   4.628   2.198   0.442 -0.4328 -2.3747  0.4762
 5408SOL     OW27685   4.144   1.890  13.120  0.4464 -0.4706 -0.4041
 5408SOL    HW127686   4.182   1.806  13.147 -0.8035 -1.0482 -0.4256
 5408SOL    HW227687   4.056   1.869  13.152  1.0947 -3.0207 -0.2658
 5409SOL     OW27688   3.203   1.917  11.370 -0.1065 -0.2127 -0.1294
 5409SOL    HW127689   3.239   1.982  11.430  2.3255 -2.5536  0.9285
 5409SOL    HW227690   3.228   1.837  11.415 -1.7695  0.0888  1.3406
 5410SOL     OW27691   0.907   1.553   8.000  0.4176  0.8816 -0.3414
 5410SOL    HW127692   0.974   1.572   8.066 -0.5067 -0.0502  0.8624
 5410SOL    HW227693   0.916   1.457   8.000 -0.4362  0.8008 -1.2507
 5411SOL     OW27694   4.031   1.045  14.711 -0.3144 -0.4053  0.1921
 5411SOL    HW127695   3.993   0.965  14.674  2.3864 -1.6897  0.1805
 5411SOL    HW227696   4.060   1.025  14.800  0.2721 -0.3555  0.0154
 5412SOL     OW27697   1.327   0.681   7.312  0.2098 -0.2092 -0.0836
 5412SOL    HW127698   1.366   0.728   7.386 -1.7560 -0.9727  1.4327
 5412SOL    HW227699   1.281   0.613   7.361  1.5535 -1.5667 -0.7166
 5413SOL     OW27700   2.569   4.310   2.247 -0.0730  0.4437  0.3551
 5413SOL    HW127701   2.589   4.393   2.204 -1.5658  0.5938 -0.0418
 5413SOL    HW227702   2.556   4.245   2.178  1.9183  0.6763 -0.2191
 5414SOL     OW27703   4.137   2.184  12.949 -0.3246  0.1813 -0.2759
 5414SOL    HW127704   4.046   2.154  12.958 -0.9614  1.3685 -2.7577
 5414SOL    HW227705   4.146   2.213  12.858  0.3808  0.5908 -0.0711
 5415SOL     OW27706   3.828   1.625  12.025 -0.4117  0.1429 -0.3588
 5415SOL    HW127707   3.836   1.585  12.112 -0.8497  1.2547  0.1900
 5415SOL    HW227708   3.747   1.582  11.996 -0.3590 -0.5315  0.5057
 5416SOL     OW27709   0.488   1.471  14.353 -0.3617 -0.3055 -0.3165
 5416SOL    HW127710   0.402   1.510  14.334 -0.9079 -0.2324  2.2815
 5416SOL    HW227711   0.474   1.416  14.429  0.3529  1.4922  1.1113
 5417SOL     OW27712   3.182   1.979   7.005  0.6137 -0.3230  0.1853
 5417SOL    HW127713   3.274   1.962   7.026  0.7695  0.3417  0.0265
 5417SOL    HW227714   3.161   2.052   7.063 -0.5515 -2.1945  2.1329
 5418SOL     OW27715   1.787   3.590   2.209  0.1135 -0.9000  0.0999
 5418SOL    HW127716   1.880   3.609   2.208  0.1099 -0.8071  1.3100
 5418SOL    HW227717   1.761   3.674   2.247 -0.3686 -0.0344 -2.1487
 5419SOL     OW27718   4.449   2.583  16.100 -0.7742 -0.3827 -0.3678
 5419SOL    HW127719   4.403   2.663  16.074  4.6313  2.0883 -2.3799
 5419SOL    HW227720   4.478   2.608  16.188 -1.9048 -1.6769  0.3634
 5420SOL     OW27721   4.197   3.795   0.661 -0.2724 -0.0095  0.5528
 5420SOL    HW127722   4.244   3.759   0.586  2.4401  1.3015  1.6126
 5420SOL    HW227723   4.269   3.816   0.721  0.8083 -0.7415 -0.4851
 5421SOL     OW27724   1.813   1.053   6.318  0.2619 -0.1692 -0.1431
 5421SOL    HW127725   1.891   1.032   6.267 -0.0519  0.4627 -0.8927
 5421SOL    HW227726   1.785   1.137   6.279 -1.3453 -0.3183  0.6874
 5422SOL     OW27727   1.069   1.670   4.382 -0.4488 -0.4165 -0.4507
 5422SOL    HW127728   1.112   1.606   4.326 -2.1605 -2.1221  0.1557
 5422SOL    HW227729   1.039   1.733   4.317  0.1630  0.6534  0.2927
 5423SOL     OW27730   4.291   4.358   3.775  0.0466  0.1330  0.5777
 5423SOL    HW127731   4.239   4.399   3.844  0.4860 -1.8039  2.0341
 5423SOL    HW227732   4.359   4.319   3.829 -0.5468 -1.5541  0.1142
 5424SOL     OW27733   1.174   3.005  16.403  0.0710 -0.4300 -0.9981
 5424SOL    HW127734   1.217   2.927  16.371 -0.1126 -0.7672 -0.4223
 5424SOL    HW227735   1.136   2.965  16.482  0.8454 -0.5166 -0.6754
 5425SOL     OW27736   3.264   3.738   4.112  0.0717  0.1765 -0.4278
 5425SOL    HW127737   3.294   3.675   4.177 -0.6846 -0.6880 -0.9172
 5425SOL    HW227738   3.344   3.785   4.088  0.2538  0.9239  1.6487
 5426SOL     OW27739   2.875   0.848   0.127 -0.4551  0.6581  0.1203
 5426SOL    HW127740   2.808   0.913   0.108 -2.4729 -1.2589  0.6766
 5426SOL    HW227741   2.871   0.784   0.056 -3.0978 -0.2769  1.1316
 5427SOL     OW27742   2.294   4.569  15.139  0.2875 -0.2334  0.0582
 5427SOL    HW127743   2.350   4.496  15.165 -2.6817 -2.2916  0.6171
 5427SOL    HW227744   2.292   4.634  15.210  0.3279 -1.4003  1.1295
 5428SOL     OW27745   4.406   1.003   3.827  0.0695  0.2375 -0.3642
 5428SOL    HW127746   4.376   0.916   3.800 -1.6491  1.3221 -1.9568
 5428SOL    HW227747   4.408   1.054   3.746  1.0697  0.7832 -0.0073
 5429SOL     OW27748   0.294   4.204   4.107  0.0909 -0.1276 -0.2980
 5429SOL    HW127749   0.201   4.182   4.105 -0.0591  0.3075  1.5278
 5429SOL    HW227750   0.337   4.138   4.161 -1.7027 -1.7223 -0.8385
 5430SOL     OW27751   2.515   3.264   7.778  0.4453  0.3456 -0.0190
 5430SOL    HW127752   2.500   3.354   7.806  1.6267  0.0987  1.3993
 5430SOL    HW227753   2.497   3.206   7.852  0.2524 -1.1163 -1.2212
 5431SOL     OW27754   2.376   3.820   8.255 -1.0427 -0.1917 -0.0681
 5431SOL    HW127755   2.355   3.738   8.210 -2.0458  0.1452 -0.2105
 5431SOL    HW227756   2.432   3.781   8.322 -1.8125 -0.5505  0.3659
 5432SOL     OW27757   4.200   3.639   8.032  0.0514  0.1362 -0.3632
 5432SOL    HW127758   4.161   3.555   8.007  3.0367 -1.1034 -0.7960
 5432SOL    HW227759   4.132   3.694   7.993 -1.2049  0.1369  1.8175
 5433SOL     OW27760   2.496   0.067   6.459  0.8484 -0.7101 -0.1507
 5433SOL    HW127761   2.406   0.059   6.491  0.5853  0.3943 -0.6035
 5433SOL    HW227762   2.519   4.707   6.417  0.2637 -0.5544 -0.7762
 5434SOL     OW27763   0.489   0.586   4.159  0.2563  0.6250  0.6409
 5434SOL    HW127764   0.398   0.559   4.146  0.0188  1.0366  1.4163
 5434SOL    HW227765   0.512   0.540   4.239 -0.6463  0.0708  0.5828
 5435SOL     OW27766   0.830   4.516  10.034 -0.0187 -0.6033  0.2601
 5435SOL    HW127767   0.865   4.540   9.948  1.6127  1.8761  1.6084
 5435SOL    HW227768   0.895   4.449  10.052  0.3178 -0.7155 -1.3671
 5436SOL     OW27769   1.072   1.732   2.305  0.2634  0.2031 -0.0929
 5436SOL    HW127770   1.112   1.799   2.362 -0.3478 -0.1185  0.7105
 5436SOL    HW227771   1.111   1.748   2.219 -1.3552 -0.8443 -1.0176
 5437SOL     OW27772   0.743   0.110   8.865  1.0026  0.6655 -0.2429
 5437SOL    HW127773   0.768   0.021   8.841  0.9484  0.1064  1.7455
 5437SOL    HW227774   0.786   0.130   8.948  2.0699  1.7628 -1.0601
 5438SOL     OW27775   0.551   0.967   1.515  0.0180 -0.2042  0.0580
 5438SOL    HW127776   0.466   1.009   1.499  0.4299  1.4623  2.2312
 5438SOL    HW227777   0.546   0.876   1.486  1.7213  0.3786 -2.1062
 5439SOL     OW27778   1.039   4.283   8.097 -0.5719  0.2835 -0.4728
 5439SOL    HW127779   0.966   4.257   8.153 -1.0175 -2.3542 -2.2667
 5439SOL    HW227780   1.030   4.378   8.103  0.8638  0.4782 -1.2137
 5440SOL     OW27781   0.843   1.610  16.705 -0.5193  0.3722  0.5623
 5440SOL    HW127782   0.910   1.568  16.758  2.3501  2.1310 -1.6696
 5440SOL    HW227783   0.767   1.568  16.744  1.1079 -1.6626  1.4853
 5441SOL     OW27784   0.575   0.230  16.586 -0.4791 -0.3333 -0.2994
 5441SOL    HW127785   0.597   0.190  16.501 -1.6558  3.0671 -2.2288
 5441SOL    HW227786   0.564   0.153  16.642 -0.7605 -0.8935 -1.1221
 5442SOL     OW27787   2.283   3.675   3.269  0.3926  0.2844 -0.3079
 5442SOL    HW127788   2.357   3.620   3.247 -0.0066  0.6668 -2.6470
 5442SOL    HW227789   2.256   3.646   3.356  1.9892 -0.0576  0.0645
 5443SOL     OW27790   4.421   1.683   7.194  0.0091 -0.1252  0.4066
 5443SOL    HW127791   4.426   1.654   7.285  0.6339 -0.8818  0.1308
 5443SOL    HW227792   4.331   1.659   7.173  0.1830 -0.5376  0.1406
 5444SOL     OW27793   3.184   3.504   6.419 -0.0900  0.3204  0.1259
 5444SOL    HW127794   3.106   3.533   6.373 -1.7654  0.9434  3.3182
 5444SOL    HW227795   3.200   3.577   6.479 -1.7857  1.0040 -0.2647
 5445SOL     OW27796   1.098   1.840   6.529 -0.1859  0.0844 -0.2852
 5445SOL    HW127797   1.143   1.875   6.607  0.7422  0.7043 -1.0996
 5445SOL    HW227798   1.007   1.820   6.548 -0.2828  0.1817 -0.6656
 5446SOL     OW27799   1.095   3.180   3.172 -0.1950  0.1882  0.0257
 5446SOL    HW127800   1.187   3.194   3.191 -0.4173 -2.2180  2.7744
 5446SOL    HW227801   1.080   3.086   3.175 -0.3989  0.2324  0.4285
 5447SOL     OW27802   0.196   1.355   6.757 -0.1831 -0.3333 -0.3900
 5447SOL    HW127803   0.134   1.295   6.799 -0.7425  1.5974  1.5538
 5447SOL    HW227804   0.205   1.323   6.667 -0.0072  2.2955 -1.2866
 5448SOL     OW27805   0.939   2.618   3.761  0.0531 -0.2202  0.0101
 5448SOL    HW127806   1.017   2.627   3.817  0.9315  1.8800 -1.5288
 5448SOL    HW227807   0.952   2.534   3.718  0.3110  0.2248 -0.7891
 5449SOL     OW27808   1.884   2.276   1.623 -0.4188  0.1538  0.6208
 5449SOL    HW127809   1.802   2.300   1.579  1.2166 -2.5138 -3.8234
 5449SOL    HW227810   1.931   2.272   1.540 -0.7106  1.3856  0.3865
 5450SOL     OW27811   0.870   3.842   9.264  0.2590 -0.6073 -0.2893
 5450SOL    HW127812   0.852   3.922   9.215 -0.7042 -1.6995 -1.6971
 5450SOL    HW227813   0.921   3.867   9.341 -0.4664  2.0160 -0.6640
 5451SOL     OW27814   0.634   0.538   6.544  0.1239 -0.6050 -0.1567
 5451SOL    HW127815   0.716   0.586   6.530 -1.0004  1.1766 -0.6173
 5451SOL    HW227816   0.611   0.569   6.632 -3.0204  0.4644 -1.3381
 5452SOL     OW27817   4.539   4.271  14.648  0.3526  0.2120  0.3751
 5452SOL    HW127818   4.526   4.241  14.738  1.3099  2.7993  1.3492
 5452SOL    HW227819   4.627   4.240  14.628  0.1275  1.0387 -1.9992
 5453SOL     OW27820   0.383   3.553   5.422 -0.1809 -0.2359 -0.1759
 5453SOL    HW127821   0.398   3.483   5.357 -1.0534  0.5110 -1.1884
 5453SOL    HW227822   0.296   3.589   5.403  0.1775 -0.5071 -2.3441
 5454SOL     OW27823   3.142   4.008   7.290 -0.2097  0.4320  0.3283
 5454SOL    HW127824   3.222   4.006   7.238  1.3325 -0.4335  2.7262
 5454SOL    HW227825   3.175   4.031   7.377  2.3149 -0.6941 -0.3140
 5455SOL     OW27826   3.986   1.946   3.937 -0.3977 -0.1470 -0.0819
 5455SOL    HW127827   4.011   1.881   4.002 -0.7656 -1.4390 -1.2290
 5455SOL    HW227828   4.013   2.025   3.984 -1.4544  0.4055 -0.3977
 5456SOL     OW27829   3.408   2.763   4.812 -0.5799 -0.0091  0.1303
 5456SOL    HW127830   3.457   2.791   4.890  0.0536  1.8964 -0.9717
 5456SOL    HW227831   3.393   2.850   4.776 -2.2522 -0.2118  0.3126
 5457SOL     OW27832   3.154   3.832  12.046 -0.0231  0.1089 -0.8882
 5457SOL    HW127833   3.202   3.814  12.126 -0.3376  0.8841 -0.5190
 5457SOL    HW227834   3.195   3.916  12.024  0.6019 -0.1043 -0.5394
 5458SOL     OW27835   3.270   2.994  13.216 -0.9788  0.1436  1.1564
 5458SOL    HW127836   3.278   3.073  13.161 -1.9320  0.5131  1.5389
 5458SOL    HW227837   3.187   3.010  13.261 -0.9304 -0.0015  1.2943
 5459SOL     OW27838   0.078   1.071   5.251  0.3259 -0.1551  0.0026
 5459SOL    HW127839   0.077   0.976   5.267 -0.7188 -0.2753 -0.7754
 5459SOL    HW227840   0.026   1.076   5.171 -0.0336  1.4330  0.3340
 5460SOL     OW27841   3.965   3.932   3.692  0.5217  0.0047  0.5754
 5460SOL    HW127842   4.000   4.012   3.653 -1.8350  0.6723 -0.1917
 5460SOL    HW227843   3.999   3.858   3.642 -1.0234  0.2656 -0.8571
 5461SOL     OW27844   0.387   1.008  12.173 -0.2970  0.7416 -0.4003
 5461SOL    HW127845   0.330   1.023  12.098 -1.0615 -1.3011 -0.2337
 5461SOL    HW227846   0.391   1.096  12.210 -0.4225  0.6306 -0.1159
 5462SOL     OW27847   2.256   0.567   6.936 -0.4172 -0.1841  0.3137
 5462SOL    HW127848   2.206   0.500   6.888  2.8105 -0.6612 -2.4190
 5462SOL    HW227849   2.194   0.640   6.934 -1.5864 -1.1850  0.1434
 5463SOL     OW27850   2.556   1.856   6.289 -0.2816  0.3406 -0.2325
 5463SOL    HW127851   2.574   1.855   6.383 -2.0717  0.5394  0.1026
 5463SOL    HW227852   2.461   1.858   6.295 -0.0281  0.6806  3.9958
 5464SOL     OW27853   0.931   1.050  15.515  0.2663  0.3246 -0.1091
 5464SOL    HW127854   0.989   0.988  15.470  1.9804  1.7479  0.1236
 5464SOL    HW227855   1.000   1.116  15.516 -0.3749  1.0136 -1.6801
 5465SOL     OW27856   1.023   0.643   4.802 -0.1147  0.1750 -0.3090
 5465SOL    HW127857   0.932   0.669   4.818 -1.0007 -2.7439 -0.5827
 5465SOL    HW227858   1.023   0.563   4.853  1.5364  1.4287  1.6323
 5466SOL     OW27859   1.792   4.104   5.871  0.5208 -0.1012  0.9642
 5466SOL    HW127860   1.759   4.193   5.882  0.4995  0.2651 -2.0884
 5466SOL    HW227861   1.718   4.065   5.918  0.4466 -0.0099  0.9223
 5467SOL     OW27862   2.587   2.055   9.482 -0.5393  0.3372 -0.2674
 5467SOL    HW127863   2.493   2.036   9.482 -0.7259  1.2459 -0.3086
 5467SOL    HW227864   2.581   2.140   9.526 -2.7467 -0.6587  1.3748
 5468SOL     OW27865   1.164   2.371   6.495  0.1843  0.6105  0.2326
 5468SOL    HW127866   1.158   2.401   6.404 -0.9276 -0.7193 -0.1289
 5468SOL    HW227867   1.195   2.281   6.488 -0.5167  0.0661  4.1160
 5469SOL     OW27868   0.089   1.752  16.199  0.3173  0.0061 -0.3808
 5469SOL    HW127869   0.055   1.772  16.286  2.8858 -1.5357  0.9916
 5469SOL    HW227870   0.022   1.797  16.148 -0.3728  0.3834  0.8411
 5470SOL     OW27871   3.706   4.495  16.246  0.3053 -0.3732  0.4009
 5470SOL    HW127872   3.749   4.579  16.264  0.2160  0.0125 -1.1867
 5470SOL    HW227873   3.781   4.436  16.236 -0.0857 -0.8596  0.3427
 5471SOL     OW27874   4.720   4.640  16.814  0.0025 -0.0471  0.0980
 5471SOL    HW127875   4.676   4.587  16.747 -1.4377 -1.8549  2.4572
 5471SOL    HW227876   4.683   0.004  16.800 -2.0015 -0.7403  1.1812
 5472SOL     OW27877   0.315   0.159   3.942  0.0223 -0.0878 -0.3703
 5472SOL    HW127878   0.410   0.149   3.953  0.0345  0.4368  0.0072
 5472SOL    HW227879   0.277   0.078   3.907  0.8996 -0.2637 -0.9172
 5473SOL     OW27880   2.687   2.630   5.635  0.2594 -0.5558  0.1945
 5473SOL    HW127881   2.620   2.565   5.656  1.6960 -2.6624 -1.8324
 5473SOL    HW227882   2.731   2.583   5.564 -1.1297  2.0877 -2.3645
 5474SOL     OW27883   4.213   3.371   4.337 -0.2586  0.5331  0.3546
 5474SOL    HW127884   4.240   3.384   4.428 -2.9856  1.4120  1.0414
 5474SOL    HW227885   4.154   3.299   4.359 -0.4697  0.8106  0.7026
 5475SOL     OW27886   1.916   2.987   5.439  0.1685 -0.1472 -0.2426
 5475SOL    HW127887   1.823   2.970   5.428 -0.4219  1.0878  3.0175
 5475SOL    HW227888   1.945   2.981   5.348 -0.4270 -1.7728 -0.3216
 5476SOL     OW27889   3.824   3.410   6.744 -0.0141  0.3646 -0.1583
 5476SOL    HW127890   3.773   3.389   6.666  0.7688  0.9507 -0.8340
 5476SOL    HW227891   3.793   3.500   6.749 -0.5486  0.1508  0.3778
 5477SOL     OW27892   2.319   1.952  12.196 -0.3391 -0.2498 -0.1154
 5477SOL    HW127893   2.377   1.904  12.136 -0.2396  0.2019 -0.3798
 5477SOL    HW227894   2.235   1.949  12.150 -0.3882  1.1369 -0.0984
 5478SOL     OW27895   0.706   3.865   2.982  0.1444  0.6889 -0.4447
 5478SOL    HW127896   0.620   3.906   2.991 -1.4975 -2.4297 -1.9168
 5478SOL    HW227897   0.765   3.937   3.001 -1.2731  1.4431  1.1447
 5479SOL     OW27898   0.991   3.210   7.485  0.5743 -0.8460 -0.2193
 5479SOL    HW127899   1.035   3.139   7.438  0.9719 -1.5930  1.2843
 5479SOL    HW227900   0.960   3.263   7.412  0.3363 -0.6974 -0.0050
 5480SOL     OW27901   1.174   2.273   4.690  0.4989 -0.0609 -0.0246
 5480SOL    HW127902   1.228   2.314   4.757  0.7732 -1.3080  0.5157
 5480SOL    HW227903   1.159   2.189   4.733 -4.3202  1.3233  0.9657
 5481SOL     OW27904   4.274   2.033  10.946 -0.3596 -0.0743  0.2389
 5481SOL    HW127905   4.220   2.094  10.896  3.3053  2.5212 -0.5526
 5481SOL    HW227906   4.250   1.949  10.909 -1.4574  0.5341 -0.4494
 5482SOL     OW27907   4.077   1.502   4.078  0.7133  0.3074 -0.1189
 5482SOL    HW127908   3.996   1.452   4.078  1.0741 -0.2655  0.6558
 5482SOL    HW227909   4.098   1.496   3.984  1.3056 -1.0358  0.1012
 5483SOL     OW27910   1.105   2.623   8.634 -0.0981  0.4274  0.3654
 5483SOL    HW127911   1.060   2.699   8.670 -1.7131 -0.4335  0.1428
 5483SOL    HW227912   1.046   2.553   8.661 -0.1220  1.3658  2.6869
 5484SOL     OW27913   3.917   4.547   0.110  0.0837  0.1609  0.8053
 5484SOL    HW127914   3.872   4.513   0.032  0.5731 -1.3448  1.1825
 5484SOL    HW227915   3.849   4.606   0.143  0.0829  0.3413  0.4875
 5485SOL     OW27916   3.454   3.739   3.413  0.3334 -0.2722 -0.1488
 5485SOL    HW127917   3.465   3.833   3.399  0.7072 -0.2628  0.2158
 5485SOL    HW227918   3.360   3.732   3.399  0.2836 -1.3377  0.7074
 5486SOL     OW27919   2.620   2.746   0.868  0.0877  0.3772  0.0904
 5486SOL    HW127920   2.677   2.823   0.859 -0.0835  0.3549 -1.2655
 5486SOL    HW227921   2.533   2.777   0.842 -0.5058 -1.9775 -0.7052
 5487SOL     OW27922   2.373   2.113  13.010 -0.2687 -0.5302 -0.4695
 5487SOL    HW127923   2.453   2.110  13.063 -1.6331  2.7674  1.7802
 5487SOL    HW227924   2.397   2.179  12.945 -0.8432 -0.6989 -0.8480
 5488SOL     OW27925   1.456   3.821   0.055  1.3965 -0.0414 -0.2829
 5488SOL    HW127926   1.486   3.816  17.657  1.5403 -0.4516 -0.2151
 5488SOL    HW227927   1.369   3.783   0.043  1.3262  0.8515 -2.6214
 5489SOL     OW27928   0.505   0.533   2.781  0.0549 -0.0467 -0.0099
 5489SOL    HW127929   0.556   0.499   2.708 -0.6154 -0.5217 -0.2578
 5489SOL    HW227930   0.444   0.460   2.787 -1.0780  1.1212  2.8845
 5490SOL     OW27931   2.402   3.334  11.294 -0.5713  0.7710  0.2102
 5490SOL    HW127932   2.421   3.328  11.201  0.2518 -0.2640  0.4462
 5490SOL    HW227933   2.324   3.390  11.293 -0.8000  0.4812  1.5519
 5491SOL     OW27934   0.709   2.894   1.825 -0.2216  0.5695 -0.2745
 5491SOL    HW127935   0.725   2.971   1.771  0.5201  0.5672 -0.0704
 5491SOL    HW227936   0.619   2.901   1.857  0.0505  0.2661  0.5534
 5492SOL     OW27937   4.501   3.637   2.845 -0.2551 -0.3657  0.2191
 5492SOL    HW127938   4.528   3.680   2.927 -0.0347  2.6705 -1.4478
 5492SOL    HW227939   4.550   3.555   2.850 -0.5956 -0.7886 -3.7987
 5493SOL     OW27940   2.129   1.083   5.753  0.8766 -0.0961  0.7340
 5493SOL    HW127941   2.145   1.099   5.846 -2.2336  0.0607  1.2369
 5493SOL    HW227942   2.165   0.994   5.744  0.4066 -0.0022 -1.8465
 5494SOL     OW27943   0.233   3.483   2.648  0.0179  0.7579  0.2731
 5494SOL    HW127944   0.284   3.413   2.688  0.0223 -0.7000 -2.2803
 5494SOL    HW227945   0.149   3.440   2.630  1.0688 -1.0107 -0.3634
 5495SOL     OW27946   4.184   4.519   8.048  0.0641 -0.2240  0.1045
 5495SOL    HW127947   4.252   4.578   8.084 -0.6751  1.9154 -2.0156
 5495SOL    HW227948   4.229   4.438   8.071 -0.3272  0.3865  3.0462
 5496SOL     OW27949   3.967   0.680   6.320  0.3612 -0.6403  0.3646
 5496SOL    HW127950   3.979   0.767   6.356 -0.0133 -0.4361 -0.0022
 5496SOL    HW227951   3.896   0.652   6.378  1.2661 -0.1251  1.6922
 5497SOL     OW27952   1.898   1.152   1.256 -0.3498  0.3419 -0.6913
 5497SOL    HW127953   1.944   1.165   1.173 -1.6075  2.4748 -1.0453
 5497SOL    HW227954   1.903   1.236   1.301 -0.2533  0.4068 -0.8223
 5498SOL     OW27955   0.744   1.083   6.686 -0.0045 -0.0957  0.5091
 5498SOL    HW127956   0.656   1.072   6.651  0.4975 -3.0508  0.1691
 5498SOL    HW227957   0.767   1.165   6.642 -1.1393 -0.3991 -0.6537
 5499SOL     OW27958   3.100   0.122   0.213 -0.2666  0.4663 -0.0155
 5499SOL    HW127959   3.034   0.147   0.149 -0.7679  2.4864  1.2720
 5499SOL    HW227960   3.070   0.163   0.295 -0.9700  0.9499 -0.5147
 5500SOL     OW27961   3.422   1.666   0.013  0.3234  0.3095 -0.0852
 5500SOL    HW127962   3.352   1.715  17.663  1.1752  2.6772  1.1973
 5500SOL    HW227963   3.404   1.579  17.670  0.3479  0.6282 -0.8515
 5501SOL     OW27964   3.357   0.541   0.850 -0.3233 -0.3819 -0.1893
 5501SOL    HW127965   3.429   0.564   0.908 -1.4742 -1.0502  1.5019
 5501SOL    HW227966   3.301   0.503   0.918 -1.7027  1.2100 -0.4212
 5502SOL     OW27967   3.611   2.189  14.341 -0.7919 -0.3712  1.2397
 5502SOL    HW127968   3.552   2.233  14.280 -1.3698 -0.1895  1.9351
 5502SOL    HW227969   3.607   2.095  14.327 -2.4233  0.0590 -1.2587
 5503SOL     OW27970   2.715   2.748   9.947  0.0018  0.3017 -0.1235
 5503SOL    HW127971   2.667   2.683   9.998  0.4498 -0.2263 -0.3783
 5503SOL    HW227972   2.690   2.833   9.983 -1.0429  0.2144 -0.6646
 5504SOL     OW27973   3.435   2.257   9.821 -0.1895 -0.6806  0.5717
 5504SOL    HW127974   3.353   2.258   9.771  2.3631  1.9598 -3.4949
 5504SOL    HW227975   3.459   2.165   9.813  1.1887 -0.3000  0.4800
 5505SOL     OW27976   1.447   3.772  10.582 -0.0051 -0.4160  0.2092
 5505SOL    HW127977   1.399   3.723  10.515 -0.3865 -1.5814  1.3423
 5505SOL    HW227978   1.431   3.710  10.652  1.0892 -2.6573 -1.5182
 5506SOL     OW27979   1.433   1.650   4.549 -0.3895  0.3030  0.1713
 5506SOL    HW127980   1.428   1.630   4.455 -0.7654 -1.9116  0.6732
 5506SOL    HW227981   1.431   1.558   4.573  0.1069 -0.2826 -1.9818
 5507SOL     OW27982   2.337   4.480  12.180  0.1966 -0.1094  0.2154
 5507SOL    HW127983   2.410   4.437  12.225  0.3600  0.3477  0.3831
 5507SOL    HW227984   2.264   4.442  12.229 -0.6026 -0.1984 -1.0296
 5508SOL     OW27985   3.632   3.914  14.717 -0.0172 -0.1586  0.4554
 5508SOL    HW127986   3.609   3.956  14.634  3.3749  2.6473  0.9259
 5508SOL    HW227987   3.565   3.945  14.777  1.7473  1.2555  1.6934
 5509SOL     OW27988   3.513   0.511   2.023  0.4320 -0.0638 -0.0660
 5509SOL    HW127989   3.427   0.521   2.064  0.4208 -0.8390  0.0966
 5509SOL    HW227990   3.558   0.454   2.085  0.0038  1.3132  1.5362
 5510SOL     OW27991   3.081   1.249  16.137 -0.2239  0.4558  0.9031
 5510SOL    HW127992   3.038   1.279  16.057 -0.1504 -0.2423  0.6034
 5510SOL    HW227993   3.083   1.154  16.127 -0.3898  0.7897 -2.3341
 5511SOL     OW27994   2.521   2.589   4.278  0.1000  0.1128  0.0123
 5511SOL    HW127995   2.441   2.580   4.330 -1.1471 -3.6295 -2.5412
 5511SOL    HW227996   2.506   2.514   4.220 -0.8745  0.1335  0.2311
 5512SOL     OW27997   4.605   1.292   2.142 -0.1770  0.2894 -0.2399
 5512SOL    HW127998   4.570   1.215   2.098  1.5463  0.0420 -1.1669
 5512SOL    HW227999   4.670   1.251   2.198 -0.3492 -0.0390 -0.2839
 5513SOL     OW28000   4.500   0.033   6.626  0.0079  0.8704  0.2783
 5513SOL    HW128001   4.571   4.699   6.599  0.9092  1.3667  1.6026
 5513SOL    HW228002   4.445   0.009   6.551  0.5113  1.9306 -0.4179
 5514SOL     OW28003   4.013   1.691  11.585 -0.2602 -0.2260  0.1150
 5514SOL    HW128004   4.062   1.749  11.526  1.3373 -0.9524  0.7315
 5514SOL    HW228005   4.065   1.686  11.666  2.8187 -0.8927 -1.9091
 5515SOL     OW28006   2.004   3.469   6.959 -0.0884  0.1869  0.0442
 5515SOL    HW128007   1.930   3.487   7.018  0.0656 -1.2252  0.6667
 5515SOL    HW228008   1.989   3.375   6.968  1.3310 -0.0656 -0.2058
 5516SOL     OW28009   3.127   4.445   4.481 -0.2732 -0.6697 -0.4383
 5516SOL    HW128010   3.154   4.450   4.573 -1.4860 -1.3176 -0.0435
 5516SOL    HW228011   3.060   4.513   4.486 -0.3210 -0.7481  0.0201
 5517SOL     OW28012   2.203   3.564   1.678 -0.1843 -0.4671  0.3259
 5517SOL    HW128013   2.216   3.654   1.706 -1.9984 -0.8528  2.4585
 5517SOL    HW228014   2.243   3.577   1.592 -0.8355 -1.3122 -0.1069
 5518SOL     OW28015   1.531   3.566  11.621 -0.0068 -0.1685 -0.1909
 5518SOL    HW128016   1.545   3.647  11.572  1.4396 -0.9444 -1.0781
 5518SOL    HW228017   1.459   3.537  11.564 -1.1849 -0.2943  1.3604
 5519SOL     OW28018   1.389   4.269   9.156  0.0267 -0.1272  0.2906
 5519SOL    HW128019   1.466   4.254   9.210  0.4755 -0.8669 -0.5482
 5519SOL    HW228020   1.337   4.188   9.167  1.0044 -0.7874  0.0324
 5520SOL     OW28021   4.239   1.270   4.414  0.2919  0.0360 -0.4544
 5520SOL    HW128022   4.333   1.270   4.400  0.2315 -1.2608 -0.8037
 5520SOL    HW228023   4.240   1.339   4.481  1.4722  1.2171 -1.6861
 5521SOL     OW28024   3.883   3.238   3.879 -0.3559 -0.0230  0.0654
 5521SOL    HW128025   3.977   3.240   3.863 -0.8230 -0.5047 -2.7730
 5521SOL    HW228026   3.863   3.329   3.858 -1.1949  0.1387  1.5727
 5522SOL     OW28027   4.246   1.783   6.258  0.3254 -0.0857  0.6767
 5522SOL    HW128028   4.216   1.695   6.234  0.6909  0.0020 -0.0955
 5522SOL    HW228029   4.320   1.765   6.316  0.6349 -2.2493 -0.4089
 5523SOL     OW28030   1.681   0.087   0.108  0.1654 -0.2879  0.2767
 5523SOL    HW128031   1.739   0.155   0.075  0.1381 -1.3044 -1.8801
 5523SOL    HW228032   1.711   0.002   0.075 -0.2251  0.4028 -1.8333
 5524SOL     OW28033   3.911   4.112  13.282  0.7538 -0.0907  0.3784
 5524SOL    HW128034   3.931   4.201  13.310  0.4062 -0.1296  0.7505
 5524SOL    HW228035   3.888   4.118  13.189 -0.2759  0.8589  0.6990
 5525SOL     OW28036   2.972   2.072  10.919  0.0085 -0.2419  0.1385
 5525SOL    HW128037   3.037   2.097  10.852 -1.5146  1.4655 -0.6955
 5525SOL    HW228038   3.000   2.112  11.001 -0.7455  0.0057  0.2708
 5526SOL     OW28039   3.563   0.272   2.263 -0.2541  0.0188 -0.3218
 5526SOL    HW128040   3.625   0.339   2.293  0.8287 -0.9250 -0.4276
 5526SOL    HW228041   3.629   0.213   2.226  1.0138  1.6821 -0.7381
 5527SOL     OW28042   1.618   3.866   7.629  0.1177  0.1771 -0.5379
 5527SOL    HW128043   1.572   3.935   7.677 -0.3248 -2.4949  2.8488
 5527SOL    HW228044   1.584   3.866   7.540  0.8691  1.2177 -0.8289
 5528SOL     OW28045   0.621   2.337  15.831  0.5675  0.0830 -0.1014
 5528SOL    HW128046   0.683   2.406  15.807 -2.1181  2.6442  0.3870
 5528SOL    HW228047   0.563   2.334  15.755 -0.0280 -1.3454  0.4196
 5529SOL     OW28048   1.015   1.552   4.999  0.2645 -0.0949 -0.1333
 5529SOL    HW128049   0.967   1.624   4.958  0.6957  0.7726  0.9045
 5529SOL    HW228050   0.943   1.490   4.997 -1.2969  1.7233 -0.2157
 5530SOL     OW28051   0.441   3.199   3.421  0.4016 -0.3140 -0.1670
 5530SOL    HW128052   0.400   3.122   3.382  4.0778 -3.5346  2.2741
 5530SOL    HW228053   0.526   3.188   3.378 -0.3868 -0.6414 -1.6354
 5531SOL     OW28054   1.780   1.082   5.514 -0.1467 -0.1051 -0.6078
 5531SOL    HW128055   1.803   1.024   5.442 -0.6937 -0.6916 -0.3074
 5531SOL    HW228056   1.724   1.020   5.560 -0.2493  1.3376  1.2216
 5532SOL     OW28057   4.330   2.766   6.095  0.9229 -0.1281 -0.0383
 5532SOL    HW128058   4.307   2.798   6.182 -0.7378  1.0045 -0.8958
 5532SOL    HW228059   4.252   2.799   6.050  0.6042 -0.8239  0.0021
 5533SOL     OW28060   0.483   4.610   1.904  0.3511 -0.1897  0.0670
 5533SOL    HW128061   0.442   4.606   1.818  1.5806  0.2298 -0.5342
 5533SOL    HW228062   0.410   4.597   1.965 -0.7357 -1.7636 -1.5521
 5534SOL     OW28063   2.932   3.775   6.597 -0.0821 -1.0465 -0.4978
 5534SOL    HW128064   2.899   3.784   6.508  0.5948 -1.9190 -0.8376
 5534SOL    HW228065   2.953   3.868   6.603 -1.3071 -0.8310  0.4808
 5535SOL     OW28066   4.015   0.729  14.367  0.0994  0.6120 -0.0291
 5535SOL    HW128067   4.107   0.712  14.349  0.3954 -0.1686  2.1749
 5535SOL    HW228068   3.985   0.688  14.286  2.1779  1.0428 -1.0024
 5536SOL     OW28069   2.386   0.532  17.481  0.1317 -0.4548 -0.1331
 5536SOL    HW128070   2.459   0.575  17.435 -0.3275  0.3614 -0.1046
 5536SOL    HW228071   2.354   0.477  17.410  0.3659  1.1585 -1.4878
 5537SOL     OW28072   1.414   1.624   4.277 -0.7285 -0.6994 -0.2852
 5537SOL    HW128073   1.345   1.571   4.237 -1.2454 -0.3211  0.0986
 5537SOL    HW228074   1.387   1.715   4.261 -0.5490 -0.6573 -0.3422
 5538SOL     OW28075   0.587   1.628   8.636 -0.1008  0.1993 -0.2416
 5538SOL    HW128076   0.682   1.622   8.628 -0.0263  0.4710  0.4353
 5538SOL    HW228077   0.569   1.536   8.657 -3.2876  0.9049  0.1370
 5539SOL     OW28078   2.255   3.190   2.295 -0.1551  0.1699  0.4680
 5539SOL    HW128079   2.256   3.197   2.390 -1.0658  0.8761  0.4169
 5539SOL    HW228080   2.348   3.193   2.270 -0.4057 -0.4311 -0.5247
 5540SOL     OW28081   3.726   3.477   1.615  0.5968 -0.1261 -0.5021
 5540SOL    HW128082   3.777   3.542   1.567  2.1706 -1.0036 -0.0015
 5540SOL    HW228083   3.787   3.421   1.662  0.8319  1.1399  0.7109
 5541SOL     OW28084   0.904   4.165  15.345  0.4243 -0.4859  0.0962
 5541SOL    HW128085   0.965   4.099  15.310 -1.3936 -2.3521  0.4265
 5541SOL    HW228086   0.872   4.120  15.423 -2.2940 -1.6299 -1.6816
 5542SOL     OW28087   1.576   0.168   5.003 -0.3180 -0.0378 -0.0666
 5542SOL    HW128088   1.509   0.187   5.068  0.1072 -1.0189  0.6593
 5542SOL    HW228089   1.647   0.142   5.062 -0.6121  1.2150  0.8380
 5543SOL     OW28090   4.566   2.711   2.971 -0.0133 -0.0648 -0.2667
 5543SOL    HW128091   4.644   2.747   3.014  0.1047  1.7414 -2.0071
 5543SOL    HW228092   4.607   2.660   2.902  2.8173  1.6557  0.1412
 5544SOL     OW28093   2.484   1.665   0.734  0.1205  0.6386 -0.0379
 5544SOL    HW128094   2.393   1.691   0.726 -0.2685 -0.6497  0.2551
 5544SOL    HW228095   2.527   1.744   0.767  0.4143  0.3922  0.1660
 5545SOL     OW28096   2.347   4.466  11.885  0.6331 -0.4144  0.3681
 5545SOL    HW128097   2.337   4.462  11.980  0.3609 -0.7033  0.3289
 5545SOL    HW228098   2.300   4.546  11.862  1.4186 -0.3864 -1.2085
 5546SOL     OW28099   3.852   4.101  14.616 -0.2347 -0.1670 -0.1658
 5546SOL    HW128100   3.852   4.077  14.709 -0.3387  1.9203  0.3727
 5546SOL    HW228101   3.869   4.011  14.588 -0.3903 -0.4569  0.6836
 5547SOL     OW28102   1.216   3.430   7.837 -0.0960  0.0515  0.1127
 5547SOL    HW128103   1.209   3.514   7.883 -0.9514  0.4530 -0.7492
 5547SOL    HW228104   1.280   3.448   7.768 -1.1168  0.4023 -0.7392
 5548SOL     OW28105   0.990   0.322   9.985  0.3181 -0.1113  0.1961
 5548SOL    HW128106   1.072   0.372   9.987 -1.8914  3.4774  0.0416
 5548SOL    HW228107   0.923   0.389   9.998  1.4053  1.0892 -0.3988
 5549SOL     OW28108   1.855   1.782   0.117  0.1525 -0.1635 -0.0155
 5549SOL    HW128109   1.798   1.719   0.161  2.7127 -2.2978  0.2140
 5549SOL    HW228110   1.826   1.777   0.026 -4.5561  1.5253  1.3860
 5550SOL     OW28111   1.904   3.898   6.568 -0.2272  0.1803 -0.3072
 5550SOL    HW128112   1.963   3.860   6.503  0.9205  1.8289 -0.2226
 5550SOL    HW228113   1.963   3.908   6.642  0.3551  1.5239 -0.9511
 5551SOL     OW28114   4.240   3.587   3.326  0.2608  0.0527  0.1525
 5551SOL    HW128115   4.150   3.615   3.345  0.4291  0.1276  0.8514
 5551SOL    HW228116   4.239   3.493   3.308 -0.4246  0.4029 -1.7163
 5552SOL     OW28117   3.757   1.601   8.595 -0.6585 -0.9216  0.4536
 5552SOL    HW128118   3.679   1.547   8.603 -2.9244  2.2821  0.2807
 5552SOL    HW228119   3.836   1.557   8.627  0.2948  2.1382  2.3503
 5553SOL     OW28120   3.562   4.134   5.105 -0.2614 -0.3800  0.1290
 5553SOL    HW128121   3.594   4.047   5.082  0.5387  0.2414 -1.1399
 5553SOL    HW228122   3.582   4.131   5.198 -0.6532  1.4498  0.2793
 5554SOL     OW28123   0.622   3.154  14.860 -0.2894  0.0252 -0.1716
 5554SOL    HW128124   0.626   3.063  14.887  0.1593 -0.3479 -1.4812
 5554SOL    HW228125   0.712   3.169  14.833  0.2250  1.4554  2.3750
 5555SOL     OW28126   0.726   0.138  13.965 -0.2231 -0.0053  0.1205
 5555SOL    HW128127   0.780   0.187  14.028 -0.0673  1.4691 -1.1568
 5555SOL    HW228128   0.711   0.202  13.896  0.5355 -0.0456 -0.0876
 5556SOL     OW28129   3.574   3.385   9.166 -0.1277  0.4075  0.4771
 5556SOL    HW128130   3.633   3.321   9.126 -1.8611 -0.7031 -0.2987
 5556SOL    HW228131   3.626   3.462   9.144 -0.0275 -0.2103 -1.4561
 5557SOL     OW28132   4.519   2.747   2.449 -0.0196  0.2781 -0.1777
 5557SOL    HW128133   4.575   2.701   2.386 -0.8995 -1.0351  0.0120
 5557SOL    HW228134   4.540   2.839   2.430 -0.0457  0.5958  1.3016
 5558SOL     OW28135   4.371   1.118  17.385 -0.3511  0.7713  0.3238
 5558SOL    HW128136   4.462   1.120  17.356 -0.6959 -0.4848 -0.8564
 5558SOL    HW228137   4.388   1.034  17.427  2.1956  0.1549 -1.9170
 5559SOL     OW28138   1.249   3.029   5.901 -0.4636 -0.0153  0.2748
 5559SOL    HW128139   1.345   3.032   5.904 -0.4711  1.1679 -0.8093
 5559SOL    HW228140   1.237   2.935   5.894 -0.7316 -0.0511  1.1730
 5560SOL     OW28141   3.848   3.190   4.263 -0.3084 -0.2713 -0.1524
 5560SOL    HW128142   3.893   3.206   4.180  0.6982 -1.4723  0.1635
 5560SOL    HW228143   3.895   3.241   4.329 -0.3697 -0.7661  0.2706
 5561SOL     OW28144   1.214   1.500   8.658 -0.2990  0.5547 -0.4547
 5561SOL    HW128145   1.295   1.460   8.689 -0.7474  0.1438  0.2005
 5561SOL    HW228146   1.242   1.560   8.590 -1.7210  1.3723 -0.3125
 5562SOL     OW28147   1.534   3.773   2.595  0.1070  0.2443  0.2874
 5562SOL    HW128148   1.535   3.681   2.618  0.3501 -0.1729 -1.3473
 5562SOL    HW228149   1.471   3.802   2.661  0.6969  1.6253  0.2559
 5563SOL     OW28150   3.770   2.185  15.239 -0.3547  0.5787 -0.3213
 5563SOL    HW128151   3.792   2.097  15.272 -1.7345  0.8472  1.3066
 5563SOL    HW228152   3.743   2.223  15.322  0.2567  0.3765 -0.0256
 5564SOL     OW28153   0.741   4.552   8.835 -0.0143  0.1508  0.0817
 5564SOL    HW128154   0.722   4.508   8.752  1.6146 -3.5584  1.6639
 5564SOL    HW228155   0.833   4.572   8.820  0.2902 -0.9063  0.5437
 5565SOL     OW28156   1.864   2.365   5.787  0.0953 -0.2658 -0.0586
 5565SOL    HW128157   1.880   2.399   5.875  1.2105  0.1573 -0.4279
 5565SOL    HW228158   1.909   2.429   5.733  2.0835 -0.7981  0.9653
 5566SOL     OW28159   1.604   4.254   8.614 -0.3566  0.0791 -0.0759
 5566SOL    HW128160   1.585   4.215   8.529 -0.7770  0.8407 -0.3320
 5566SOL    HW228161   1.604   4.177   8.671 -3.2483 -1.9404 -2.7771
 5567SOL     OW28162   0.261   3.395   4.710  0.2199 -0.0824 -0.6631
 5567SOL    HW128163   0.257   3.480   4.754 -0.2681 -0.3040 -0.2754
 5567SOL    HW228164   0.174   3.400   4.671 -0.4401  1.5976  1.0025
 5568SOL     OW28165   1.126   3.986   6.377  0.1647 -1.1467 -0.2825
 5568SOL    HW128166   1.060   3.923   6.347 -0.9548 -0.8409  1.5690
 5568SOL    HW228167   1.201   3.962   6.323  0.3470  0.2998 -0.6690
 5569SOL     OW28168   1.904   3.773   2.005  0.0704  0.5664 -0.1400
 5569SOL    HW128169   1.969   3.765   1.935 -1.9854 -0.2861 -1.9437
 5569SOL    HW228170   1.877   3.682   2.002  0.9752  0.2627  0.6963
 5570SOL     OW28171   0.613   0.862   8.255  0.0718 -0.0787 -0.6376
 5570SOL    HW128172   0.672   0.796   8.221  1.1363 -0.6853  2.3394
 5570SOL    HW228173   0.580   0.904   8.176 -2.4358  2.6335  1.8253
 5571SOL     OW28174   2.830   3.665  14.053  0.0378  0.2707 -0.4315
 5571SOL    HW128175   2.784   3.734  14.100  0.8295 -0.1757  0.9850
 5571SOL    HW228176   2.886   3.721  13.999 -2.4064  2.3160 -0.8345
 5572SOL     OW28177   2.267   1.366   8.346 -0.5747  0.3786 -0.0899
 5572SOL    HW128178   2.317   1.417   8.282  0.6436 -1.4733 -0.6172
 5572SOL    HW228179   2.199   1.334   8.287 -0.1807 -0.5782 -0.0353
 5573SOL     OW28180   0.951   3.417   2.473 -0.4795 -0.2106 -0.3421
 5573SOL    HW128181   0.922   3.506   2.451  0.6260  0.3848  0.5815
 5573SOL    HW228182   0.905   3.411   2.557  0.9579 -0.1617  0.4531
 5574SOL     OW28183   2.751   4.245   5.079  0.3584  0.5963 -0.3615
 5574SOL    HW128184   2.790   4.165   5.113 -1.6024 -1.5331 -3.1015
 5574SOL    HW228185   2.656   4.232   5.086  0.3952 -0.6735 -2.1950
 5575SOL     OW28186   0.176   1.262   3.804  0.0346  0.0312  0.3558
 5575SOL    HW128187   0.269   1.253   3.827 -0.6737  1.1185  3.5529
 5575SOL    HW228188   0.148   1.331   3.864 -0.6395  0.4292 -0.4201
 5576SOL     OW28189   4.325   2.169   4.352 -0.7942 -0.0670 -0.0316
 5576SOL    HW128190   4.350   2.219   4.430  1.3065 -0.9341 -0.1460
 5576SOL    HW228191   4.382   2.093   4.363 -0.3551 -0.0944 -2.3669
 5577SOL     OW28192   0.342   1.692  16.929  0.1324  0.1983 -0.4975
 5577SOL    HW128193   0.248   1.677  16.927  0.0986  0.6810 -2.7463
 5577SOL    HW228194   0.349   1.759  16.997  2.8749 -1.2834  0.6730
 5578SOL     OW28195   2.921   4.546   5.419  0.7896  0.4651 -0.1323
 5578SOL    HW128196   2.996   4.539   5.361  1.4940  0.9555  0.7168
 5578SOL    HW228197   2.936   4.454   5.443 -0.3777  0.5100  0.7564
 5579SOL     OW28198   0.715   1.197  17.005 -0.8086  0.0852 -0.0006
 5579SOL    HW128199   0.726   1.211  17.099  1.5245 -0.3304 -0.2102
 5579SOL    HW228200   0.720   1.102  16.988  0.1888 -0.0919  1.2822
 5580SOL     OW28201   2.736   2.281   6.052  0.0894  0.4667  0.5822
 5580SOL    HW128202   2.689   2.363   6.068 -1.8897 -0.4160 -0.6978
 5580SOL    HW228203   2.727   2.237   6.136  2.9580  1.3902  1.3785
 5581SOL     OW28204   3.551   3.682   0.201 -0.0370  0.0681  0.2979
 5581SOL    HW128205   3.462   3.662   0.228  0.1442 -0.3078  0.6198
 5581SOL    HW228206   3.546   3.773   0.171 -0.1122  0.0636  0.2972
 5582SOL     OW28207   3.036   2.359   7.181 -0.8802  0.1146 -0.1236
 5582SOL    HW128208   3.120   2.321   7.153 -2.2139 -1.9433 -1.2907
 5582SOL    HW228209   3.058   2.453   7.173  3.8765 -0.7500  2.3810
 5583SOL     OW28210   3.341   0.221   6.353 -0.2118 -0.2525  0.2831
 5583SOL    HW128211   3.379   0.237   6.266 -0.8415  0.3788  0.1220
 5583SOL    HW228212   3.396   0.146   6.378 -0.4310 -0.9156 -1.2358
 5584SOL     OW28213   0.781   2.027   4.390 -0.2548  0.3628 -0.0085
 5584SOL    HW128214   0.765   2.081   4.467 -0.1075 -0.6504  0.7405
 5584SOL    HW228215   0.760   2.092   4.323  0.0169  0.3846 -0.0722
 5585SOL     OW28216   2.237   0.402  13.555 -0.1683  0.5280 -0.2164
 5585SOL    HW128217   2.241   0.493  13.524  1.6614 -0.6567 -3.5388
 5585SOL    HW228218   2.323   0.372  13.525  0.5131  0.8774  1.4147
 5586SOL     OW28219   2.036   2.698  11.475 -0.0264  0.5566 -0.4488
 5586SOL    HW128220   1.986   2.763  11.525  1.2020  0.0255  1.4710
 5586SOL    HW228221   1.997   2.696  11.388  0.8682 -1.6255 -0.7870
 5587SOL     OW28222   4.707   3.088   9.413 -0.4558 -0.1425 -0.6995
 5587SOL    HW128223   4.688   3.109   9.321 -0.1123 -3.0554 -1.4150
 5587SOL    HW228224   4.672   3.170   9.449  0.4509  0.8895 -2.1418
 5588SOL     OW28225   2.324   1.329  14.056 -0.9448  0.3256  0.5380
 5588SOL    HW128226   2.310   1.289  14.141 -0.3130 -2.7141 -0.7785
 5588SOL    HW228227   2.232   1.347  14.037 -1.0139  0.2643  0.8108
 5589SOL     OW28228   3.372   3.759   2.148  0.0552  0.1321  0.1144
 5589SOL    HW128229   3.406   3.814   2.077 -2.4293  0.2266 -0.9959
 5589SOL    HW228230   3.417   3.676   2.131 -0.3179 -0.3685  1.5942
 5590SOL     OW28231   2.993   1.642   6.396 -0.1432 -0.5386 -0.3733
 5590SOL    HW128232   2.958   1.582   6.330  0.4319 -0.7760 -0.4586
 5590SOL    HW228233   3.083   1.639   6.363 -0.3684  0.4556 -1.0556
 5591SOL     OW28234   3.662   2.472  12.563 -0.0792 -0.0493 -0.0158
 5591SOL    HW128235   3.750   2.438  12.546  0.9333  2.2337  0.6652
 5591SOL    HW228236   3.651   2.540  12.497 -0.9044  2.1859  2.4214
 5592SOL     OW28237   0.876   3.489   7.039  0.0658  0.8592  0.0974
 5592SOL    HW128238   0.788   3.461   7.012 -0.1022  1.4485  0.0474
 5592SOL    HW228239   0.922   3.406   7.029 -0.8965  0.2353  0.8244
 5593SOL     OW28240   1.564   1.441  16.944  0.0375 -0.6849  0.2238
 5593SOL    HW128241   1.607   1.407  17.022 -1.2933 -0.4671  1.0462
 5593SOL    HW228242   1.631   1.402  16.887 -0.5208 -1.6492  0.2299
 5594SOL     OW28243   0.460   4.554   3.009 -0.0278  0.0840  0.1578
 5594SOL    HW128244   0.555   4.558   3.022  0.1098  1.1379 -1.1695
 5594SOL    HW228245   0.430   4.526   3.095  1.0093 -1.2506  0.0881
 5595SOL     OW28246   2.993   1.627  17.188  0.3091 -0.1754  0.0583
 5595SOL    HW128247   3.017   1.669  17.271  2.5519 -2.1538  0.4289
 5595SOL    HW228248   2.900   1.618  17.207  0.2134 -0.2177 -0.4439
 5596SOL     OW28249   3.462   1.251   4.798  0.0170 -0.0705 -0.2169
 5596SOL    HW128250   3.500   1.279   4.714  0.2308  0.7822  0.1633
 5596SOL    HW228251   3.542   1.241   4.850 -0.0088 -1.3730 -0.4392
 5597SOL     OW28252   3.728   0.773  12.585  0.3839  0.1815  0.1329
 5597SOL    HW128253   3.655   0.834  12.571  0.2732  0.2406  0.9667
 5597SOL    HW228254   3.708   0.705  12.520  0.9640  0.5614 -0.4384
 5598SOL     OW28255   1.825   2.775   8.073 -0.9852 -0.0881  0.5998
 5598SOL    HW128256   1.884   2.713   8.117 -1.5385 -1.7364 -0.9688
 5598SOL    HW228257   1.740   2.747   8.105 -0.5688 -0.9738  0.9201
 5599SOL     OW28258   1.216   4.083   4.119 -0.2830  0.2473  0.7998
 5599SOL    HW128259   1.271   4.008   4.142  0.4695  0.7085  0.5017
 5599SOL    HW228260   1.130   4.043   4.106  1.6614 -2.7278 -2.7335
 5600SOL     OW28261   2.617   1.618  14.085 -0.0352  0.0408  0.0792
 5600SOL    HW128262   2.595   1.592  13.996  1.2139 -0.9183  0.0551
 5600SOL    HW228263   2.601   1.712  14.089  0.7189  0.2225 -1.0884
 5601SOL     OW28264   0.079   1.554  11.431 -0.1905  0.3054 -0.4329
 5601SOL    HW128265   4.713   1.588  11.433  0.0960  0.9419  1.3320
 5601SOL    HW228266   0.118   1.609  11.364 -0.5588 -0.2145 -1.0798
 5602SOL     OW28267   3.088   0.193   2.981  0.3818 -0.0459  0.3015
 5602SOL    HW128268   3.121   0.249   3.052  0.6003  1.7902 -1.2376
 5602SOL    HW228269   3.166   0.182   2.927  0.9581  2.9864  0.5066
 5603SOL     OW28270   3.381   3.745   7.588 -0.1670  0.3261  0.9114
 5603SOL    HW128271   3.306   3.785   7.632 -0.8685  0.4318 -0.4013
 5603SOL    HW228272   3.448   3.749   7.657 -0.9176  0.0370  1.6662
 5604SOL     OW28273   2.423   4.247  11.727 -0.8009  0.5490  0.0606
 5604SOL    HW128274   2.340   4.210  11.758 -0.3587  0.4015  1.0739
 5604SOL    HW228275   2.473   4.167  11.711 -0.7372  0.5882  0.0653
 5605SOL     OW28276   2.574   1.216  17.216 -0.3982 -0.2649  0.0678
 5605SOL    HW128277   2.614   1.137  17.181  1.5924 -0.1642  2.1218
 5605SOL    HW228278   2.506   1.246  17.156  0.9159  2.3552 -0.1345
 5606SOL     OW28279   3.693   1.705   7.780 -0.1478 -0.3742  0.1706
 5606SOL    HW128280   3.756   1.749   7.838  0.6527 -0.8028 -0.3628
 5606SOL    HW228281   3.705   1.611   7.794  1.7772 -0.3176 -1.0567
 5607SOL     OW28282   1.269   2.436   8.005  0.0047 -0.1611 -0.3632
 5607SOL    HW128283   1.329   2.385   8.058  1.5487  0.9374 -1.0644
 5607SOL    HW228284   1.280   2.391   7.921  0.5547  0.6412 -0.7065
 5608SOL     OW28285   4.540   3.411   4.768  0.4787  0.7026  0.3689
 5608SOL    HW128286   4.606   3.357   4.725 -0.4712 -1.3879  1.5427
 5608SOL    HW228287   4.496   3.350   4.827 -0.1950  0.1836 -0.6879
 5609SOL     OW28288   0.187   1.248   7.264 -0.1247 -0.1222  0.0446
 5609SOL    HW128289   0.253   1.181   7.242 -0.2523  0.2236 -1.4163
 5609SOL    HW228290   0.248   1.321   7.274  1.6034 -1.5444 -0.1219
 5610SOL     OW28291   0.757   1.778  15.083 -0.2677  0.6664  0.3749
 5610SOL    HW128292   0.849   1.787  15.110 -0.5112  0.8260  1.1639
 5610SOL    HW228293   0.750   1.863  15.041  0.4905 -0.1414 -1.3723
 5611SOL     OW28294   2.394   3.732   5.126  0.5974  1.1419 -0.0656
 5611SOL    HW128295   2.455   3.700   5.060 -0.4720 -3.1789  1.0033
 5611SOL    HW228296   2.313   3.691   5.096  0.7559  1.2008 -0.5668
 5612SOL     OW28297   0.380   4.454   4.210 -0.6742 -0.1597 -0.0208
 5612SOL    HW128298   0.426   4.468   4.293  0.5708 -1.4034 -0.5049
 5612SOL    HW228299   0.322   4.378   4.214 -1.1764  0.2792  0.9476
 5613SOL     OW28300   4.461   1.774   6.939 -0.5126 -0.7271 -0.5991
 5613SOL    HW128301   4.443   1.731   7.022 -0.4270  1.2518  0.4468
 5613SOL    HW228302   4.378   1.783   6.892 -1.2392 -1.9166  0.4680
 5614SOL     OW28303   1.785   0.439   4.925 -0.0513 -0.3429  0.6449
 5614SOL    HW128304   1.694   0.468   4.917  0.2556 -0.6202 -3.7298
 5614SOL    HW228305   1.781   0.425   5.020 -1.9244  1.4206  0.8293
 5615SOL     OW28306   0.015   2.088   9.981 -0.5225 -0.2238  0.0162
 5615SOL    HW128307   0.027   2.012   9.925 -0.4716  0.2675 -0.6376
 5615SOL    HW228308   4.652   2.066  10.017 -0.5966  0.3661  0.1984
 5616SOL     OW28309   2.721   1.258  12.049 -0.5121  0.0306  0.3289
 5616SOL    HW128310   2.692   1.176  12.008 -1.3201  0.4848 -0.0121
 5616SOL    HW228311   2.809   1.228  12.071 -0.3720 -0.4754 -0.8954
 5617SOL     OW28312   0.058   2.962   6.939 -0.3109  0.0025  0.0207
 5617SOL    HW128313   0.067   3.038   6.997  2.8057 -0.8651  0.7015
 5617SOL    HW228314   0.023   3.000   6.859  1.1190 -0.3769 -0.7886
 5618SOL     OW28315   1.183   3.645  13.525 -0.5370 -0.7182  0.2048
 5618SOL    HW128316   1.240   3.596  13.466 -1.2762 -1.6274  0.2584
 5618SOL    HW228317   1.242   3.686  13.589 -0.9426 -1.7394  1.2245
 5619SOL     OW28318   4.603   1.070   0.269  0.0576  0.1734  0.3857
 5619SOL    HW128319   4.613   1.145   0.327 -1.5411 -0.0941  1.0181
 5619SOL    HW228320   4.540   1.019   0.321 -1.1108 -0.3823 -1.5858
 5620SOL     OW28321   3.981   2.639   8.767 -0.8477 -0.2580 -0.4891
 5620SOL    HW128322   3.960   2.672   8.854 -0.0748 -0.6114 -0.1694
 5620SOL    HW228323   3.893   2.628   8.730 -0.7055 -1.8572 -0.3643
 5621SOL     OW28324   0.351   1.215   9.372 -0.0115  1.0182  0.0639
 5621SOL    HW128325   0.259   1.203   9.395  0.0241  0.4677 -0.0952
 5621SOL    HW228326   0.393   1.206   9.457  0.4273 -0.0752 -0.2716
 5622SOL     OW28327   0.776   3.066  13.543 -0.3809 -0.2879  0.2350
 5622SOL    HW128328   0.714   3.127  13.502 -1.2535 -0.4091  1.3886
 5622SOL    HW228329   0.759   3.078  13.636  2.6132 -2.2809  1.0295
 5623SOL     OW28330   0.647   2.083   6.473 -1.0396 -0.0970 -0.3528
 5623SOL    HW128331   0.722   2.106   6.417 -2.9653  1.4669 -2.2912
 5623SOL    HW228332   0.689   2.098   6.558  0.7532 -0.5590 -1.1481
 5624SOL     OW28333   1.263   1.460   4.703  0.7485  0.4042 -0.2021
 5624SOL    HW128334   1.332   1.461   4.768 -0.5854  1.2134  1.1901
 5624SOL    HW228335   1.197   1.522   4.734 -2.1483 -1.9577 -1.6491
 5625SOL     OW28336   4.441   1.433   4.093 -0.3832 -0.4128  0.5213
 5625SOL    HW128337   4.445   1.489   4.171  0.6272 -0.4075  0.4749
 5625SOL    HW228338   4.383   1.493   4.047  0.4253 -0.3074 -0.3825
 5626SOL     OW28339   3.029   4.362   5.765 -0.1364 -0.5491  0.4177
 5626SOL    HW128340   2.966   4.431   5.785 -0.0579 -0.7027  1.2160
 5626SOL    HW228341   2.968   4.289   5.760  1.2568 -1.6334 -0.7429
 5627SOL     OW28342   4.317   0.218   3.623  0.2275  0.4037 -0.4279
 5627SOL    HW128343   4.301   0.124   3.631 -0.1220  0.6213  1.3294
 5627SOL    HW228344   4.348   0.216   3.532 -0.9466 -0.6969 -0.8197
 5628SOL     OW28345   4.339   4.591  13.731 -0.3642  0.1119  0.1037
 5628SOL    HW128346   4.414   4.615  13.785 -0.2157  2.6917 -1.2485
 5628SOL    HW228347   4.378   4.566  13.647 -0.1893  0.6890  0.0189
 5629SOL     OW28348   0.051   2.384  14.449 -0.1172  0.2940  0.1975
 5629SOL    HW128349   4.695   2.420  14.409  0.3739  1.9866  0.7224
 5629SOL    HW228350   0.027   2.381  14.542  0.9905 -1.9639  0.3993
 5630SOL     OW28351   1.650   3.422   4.497 -0.2745 -0.2459  0.3631
 5630SOL    HW128352   1.624   3.491   4.436  1.3453 -1.9910 -2.2995
 5630SOL    HW228353   1.613   3.341   4.462  0.4722  0.5768 -2.2956
 5631SOL     OW28354   3.035   1.661   7.173  0.3042  0.4417 -0.2646
 5631SOL    HW128355   3.112   1.683   7.225 -0.1795  0.2151  0.5658
 5631SOL    HW228356   3.069   1.640   7.086 -0.8294  1.8977 -1.0519
 5632SOL     OW28357   4.289   0.532   2.903  0.0011  0.2912 -0.2347
 5632SOL    HW128358   4.271   0.625   2.888  1.2352  0.6808  0.7093
 5632SOL    HW228359   4.350   0.536   2.977 -1.3741  0.4863  0.8827
 5633SOL     OW28360   0.561   0.396  16.817  0.1595  0.3352  0.3080
 5633SOL    HW128361   0.482   0.358  16.854 -0.3659 -0.8905 -2.0548
 5633SOL    HW228362   0.584   0.335  16.747 -0.0849  0.0379  0.4854
 5634SOL     OW28363   4.100   2.852  13.121  0.4961  0.2975  0.2522
 5634SOL    HW128364   4.159   2.899  13.180  0.3170  3.3049 -1.9525
 5634SOL    HW228365   4.137   2.871  13.035  0.4108 -1.1270 -0.0964
 5635SOL     OW28366   0.185   4.422   6.605 -0.4832 -0.7787 -0.1834
 5635SOL    HW128367   0.230   4.363   6.544 -1.6882 -1.4005 -0.4794
 5635SOL    HW228368   0.159   4.356   6.670  0.9134 -2.7469 -1.6157
 5636SOL     OW28369   0.785   1.347  13.943 -0.4426 -0.2072  0.1266
 5636SOL    HW128370   0.803   1.291  13.867 -0.6738 -0.8021  0.5085
 5636SOL    HW228371   0.733   1.287  13.997  0.0663 -1.9546 -1.3191
 5637SOL     OW28372   1.752   2.913   2.144 -0.2084  0.0296 -0.2990
 5637SOL    HW128373   1.688   2.906   2.214  0.7602  2.0526  0.7945
 5637SOL    HW228374   1.736   2.830   2.099 -1.5277 -0.6212  1.4163
 5638SOL     OW28375   3.362   0.342   9.477 -0.0415 -0.3059 -0.4056
 5638SOL    HW128376   3.457   0.349   9.466  0.4732 -1.1598  3.5845
 5638SOL    HW228377   3.348   0.286   9.553  0.3551  0.7555  0.4399
 5639SOL     OW28378   0.605   3.430  14.295 -0.3936  0.6726  0.2992
 5639SOL    HW128379   0.626   3.496  14.229  0.5214 -1.5176 -1.6022
 5639SOL    HW228380   0.509   3.427  14.285 -0.0937  0.8012 -2.5842
 5640SOL     OW28381   0.002   4.402  13.590 -0.4484 -0.2545  0.1477
 5640SOL    HW128382   0.084   4.433  13.551 -0.5498 -0.6978 -0.4251
 5640SOL    HW228383   4.659   4.442  13.534 -3.1211 -3.8909  0.7171
 5641SOL     OW28384   4.026   0.290  17.278 -0.2400  0.1049 -0.1697
 5641SOL    HW128385   3.948   0.340  17.257 -0.7245 -0.3047  0.6491
 5641SOL    HW228386   4.014   0.280  17.372  1.8625  1.1046  0.1951
 5642SOL     OW28387   3.154   3.111  11.095 -0.1928  0.2747 -0.2860
 5642SOL    HW128388   3.073   3.156  11.115 -1.3263 -1.6126 -0.6640
 5642SOL    HW228389   3.182   3.101  11.186  0.9371 -3.3664 -1.0316
 5643SOL     OW28390   0.229   0.088   9.169 -0.2064  0.2926  0.0911
 5643SOL    HW128391   0.266   0.015   9.119 -3.7763 -0.8807 -0.8543
 5643SOL    HW228392   0.296   0.157   9.172 -3.4795  3.4216  0.3623
 5644SOL     OW28393   1.291   0.328  13.946  0.4905 -0.3850  0.1392
 5644SOL    HW128394   1.259   0.275  14.019 -0.9145 -0.5177 -0.5781
 5644SOL    HW228395   1.378   0.335  13.984  0.3196  1.9649  0.0867
 5645SOL     OW28396   0.711   4.302   7.381 -0.0962 -0.1651  0.2710
 5645SOL    HW128397   0.686   4.221   7.424  0.5194 -1.1968 -1.3044
 5645SOL    HW228398   0.647   4.372   7.394 -0.1589 -0.4474  1.4382
 5646SOL     OW28399   2.904   1.573  16.739 -0.3308 -0.0276  0.1674
 5646SOL    HW128400   2.932   1.534  16.822  1.0836  0.4686 -0.0841
 5646SOL    HW228401   2.975   1.636  16.730  0.4437 -1.0524 -0.8183
 5647SOL     OW28402   1.299   2.606  17.329 -0.0205 -0.0339 -0.0156
 5647SOL    HW128403   1.302   2.700  17.351 -0.3961 -0.4678  1.9102
 5647SOL    HW228404   1.298   2.603  17.234 -1.6771  2.2499 -0.0680
 5648SOL     OW28405   3.539   2.482  15.192 -0.2548  0.2035  0.2875
 5648SOL    HW128406   3.460   2.480  15.138 -0.1543 -1.5595  0.1989
 5648SOL    HW228407   3.609   2.513  15.135 -0.0107 -0.0420  0.4526
 5649SOL     OW28408   0.415   4.554   8.263 -0.3184  0.3055 -0.1145
 5649SOL    HW128409   0.377   4.589   8.344 -0.2720 -0.7436  0.3534
 5649SOL    HW228410   0.463   4.631   8.230  0.4863 -0.6878 -1.2586
 5650SOL     OW28411   0.153   2.089   4.946 -0.0801 -0.0349 -0.1784
 5650SOL    HW128412   0.063   2.092   4.914  0.0031 -0.6590 -0.4645
 5650SOL    HW228413   0.195   2.015   4.903 -0.9963 -0.2283 -0.7411
 5651SOL     OW28414   0.925   4.156   3.593  0.1060  0.1134  0.1114
 5651SOL    HW128415   0.996   4.102   3.559  2.0231  1.5594  1.8031
 5651SOL    HW228416   0.912   4.217   3.521  0.3323 -0.0371 -0.0554
 5652SOL     OW28417   3.872   2.475  16.180  0.0364 -0.7015 -0.1249
 5652SOL    HW128418   3.822   2.509  16.254 -2.7406 -0.3245 -2.1676
 5652SOL    HW228419   3.883   2.384  16.208  0.1283 -0.6401  0.0400
 5653SOL     OW28420   1.602   2.890   4.220 -0.0582 -0.7185 -0.5101
 5653SOL    HW128421   1.562   2.914   4.304  0.1593  0.6574 -0.8010
 5653SOL    HW228422   1.600   2.976   4.178  2.3960 -1.1509 -1.5399
 5654SOL     OW28423   4.286   4.422  14.623  0.2757  0.6525 -0.4221
 5654SOL    HW128424   4.350   4.372  14.673 -0.3524  0.2560 -0.0082
 5654SOL    HW228425   4.206   4.372  14.635  1.1654 -0.4580  0.8563
 5655SOL     OW28426   2.682   2.197   3.798 -0.2804 -0.5386 -0.1762
 5655SOL    HW128427   2.776   2.178   3.790 -0.2537 -0.5080  0.0642
 5655SOL    HW228428   2.647   2.118   3.838 -1.3572  0.1197  0.1654
 5656SOL     OW28429   3.275   1.746  16.029 -0.0934  0.0253  0.1225
 5656SOL    HW128430   3.227   1.752  16.112 -1.2416  0.6907 -0.5924
 5656SOL    HW228431   3.259   1.836  16.001  0.0445 -0.3287 -1.0714
 5657SOL     OW28432   2.422   2.817  13.576 -0.1222 -0.2441 -0.2181
 5657SOL    HW128433   2.488   2.840  13.641 -1.5114  0.0073  1.0930
 5657SOL    HW228434   2.354   2.783  13.634  1.4191  2.4276  3.1570
 5658SOL     OW28435   0.783   2.845   8.044  0.1181 -0.1016  0.1166
 5658SOL    HW128436   0.848   2.913   8.023  0.1459  0.4197  1.8830
 5658SOL    HW228437   0.795   2.832   8.138 -0.8725  1.0771  0.4062
 5659SOL     OW28438   0.579   3.189   5.626  0.7343 -0.5291  0.3739
 5659SOL    HW128439   0.601   3.248   5.698 -3.2371  0.3748  0.8495
 5659SOL    HW228440   0.670   3.167   5.608  1.0833  0.5539  0.7887
 5660SOL     OW28441   2.744   1.758   9.594  0.4666 -0.6011 -0.4057
 5660SOL    HW128442   2.714   1.787   9.508  4.6727 -1.3218 -2.1168
 5660SOL    HW228443   2.823   1.714   9.562  0.0989 -0.2728 -1.7582
 5661SOL     OW28444   2.313   0.976   0.249 -0.7155  0.0425 -0.6665
 5661SOL    HW128445   2.292   0.884   0.267 -1.9761  0.5137  0.2585
 5661SOL    HW228446   2.284   0.994   0.159 -1.3060  1.3393 -0.2114
 5662SOL     OW28447   3.795   2.368   5.191  0.1646  0.1087  0.2539
 5662SOL    HW128448   3.737   2.430   5.233 -0.1197  0.7223 -1.0547
 5662SOL    HW228449   3.879   2.414   5.185  1.3766 -1.9877  0.9333
 5663SOL     OW28450   1.846   2.273   6.582 -0.3000 -0.4056 -0.3049
 5663SOL    HW128451   1.939   2.288   6.566  0.3554 -1.6142  2.3298
 5663SOL    HW228452   1.853   2.214   6.657 -0.9837 -1.3735 -1.0046
 5664SOL     OW28453   3.644   2.416   2.697  0.0801  0.1882 -0.0205
 5664SOL    HW128454   3.614   2.328   2.672  1.6657 -0.5929  0.8347
 5664SOL    HW228455   3.725   2.429   2.649  0.1255  3.3133  0.9108
 5665SOL     OW28456   0.643   1.653  11.828 -0.0266  0.0001 -0.4479
 5665SOL    HW128457   0.658   1.568  11.786 -2.3976 -0.6363 -0.0063
 5665SOL    HW228458   0.548   1.654  11.822 -0.1131  2.4518  1.9273
 5666SOL     OW28459   1.266   4.219  17.547 -0.1167  0.5933  0.4674
 5666SOL    HW128460   1.360   4.227  17.532  0.0387 -0.8616  0.6619
 5666SOL    HW228461   1.210   4.272  17.490 -1.1508 -0.1341  0.8067
 5667SOL     OW28462   3.746   4.500   5.423 -0.4214 -0.0269 -0.2579
 5667SOL    HW128463   3.724   4.532   5.511  1.1116  1.2439 -0.3493
 5667SOL    HW228464   3.659   4.472   5.395  0.5062 -1.0935 -2.0790
 5668SOL     OW28465   0.585   2.878   4.913  0.1785 -0.1046  0.4459
 5668SOL    HW128466   0.514   2.915   4.860  0.1725  0.7446  1.0455
 5668SOL    HW228467   0.625   2.840   4.834  0.6874  1.1049  0.1260
 5669SOL     OW28468   0.390   2.163  14.646  0.8396  0.0588 -0.4420
 5669SOL    HW128469   0.334   2.172  14.723 -0.1642  1.0109 -1.2788
 5669SOL    HW228470   0.435   2.079  14.658 -2.4336 -1.4823  0.9832
 5670SOL     OW28471   3.500   0.566   4.230  0.0832  0.4075  0.0323
 5670SOL    HW128472   3.468   0.656   4.230 -1.5015 -0.1402 -0.6109
 5670SOL    HW228473   3.564   0.580   4.299  0.1533  1.0513 -0.1609
 5671SOL     OW28474   0.309   0.676   0.343 -0.5108 -0.3509 -0.0044
 5671SOL    HW128475   0.277   0.602   0.394 -1.1090 -1.1516 -1.5243
 5671SOL    HW228476   0.383   0.640   0.296 -0.1375  0.6610 -0.1977
 5672SOL     OW28477   2.454   0.812  15.916 -0.2035 -0.4412  0.5026
 5672SOL    HW128478   2.373   0.812  15.865  1.3794  1.6717 -2.0023
 5672SOL    HW228479   2.463   0.900  15.952  1.7260 -0.7842  0.8588
 5673SOL     OW28480   2.538   0.309   9.393  0.1743 -0.0352  0.1797
 5673SOL    HW128481   2.493   0.300   9.477 -0.1886  1.4960  0.1525
 5673SOL    HW228482   2.611   0.248   9.404 -0.4952 -0.8308  0.1709
 5674SOL     OW28483   1.496   2.321   4.067 -0.0130  0.5426 -0.0048
 5674SOL    HW128484   1.473   2.330   3.975 -1.3511  2.1037  0.4911
 5674SOL    HW228485   1.416   2.343   4.114 -0.9350 -1.4114 -0.6521
 5675SOL     OW28486   0.858   1.759   4.868 -0.3857  0.3856 -0.4375
 5675SOL    HW128487   0.825   1.848   4.871  2.7324  1.6107 -2.5036
 5675SOL    HW228488   0.798   1.727   4.801 -1.1210 -2.6837  1.6655
 5676SOL     OW28489   2.517   0.334   5.497  0.2587  0.5255 -0.6177
 5676SOL    HW128490   2.586   0.330   5.563 -0.0857  0.3262 -0.2689
 5676SOL    HW228491   2.504   0.241   5.484  2.1007  0.4772 -2.1819
 5677SOL     OW28492   1.827   2.882   5.025 -0.7591 -0.3814  0.1555
 5677SOL    HW128493   1.750   2.936   5.011 -0.3716  0.1208 -0.0158
 5677SOL    HW228494   1.885   2.924   4.962 -0.7430  0.0417  0.4511
 5678SOL     OW28495   0.285   4.311   2.092  0.6029 -0.4424  0.6482
 5678SOL    HW128496   0.286   4.406   2.084 -0.1210 -0.4661  0.2673
 5678SOL    HW228497   0.284   4.287   2.000  0.9165  0.1663  0.4828
 5679SOL     OW28498   3.366   4.316  10.200 -0.0614  0.2744  0.2484
 5679SOL    HW128499   3.334   4.375  10.132  1.3880  0.2503 -0.4544
 5679SOL    HW228500   3.295   4.318  10.264  0.6533  1.1426  1.0206
 5680SOL     OW28501   2.877   0.132  10.749 -0.4888  0.5794 -0.0890
 5680SOL    HW128502   2.966   0.103  10.767 -0.0365  2.1170  0.0988
 5680SOL    HW228503   2.865   0.079  10.670 -2.8773  1.8207 -0.5520
 5681SOL     OW28504   4.184   2.886   8.955  0.5645  0.1166  0.6200
 5681SOL    HW128505   4.182   2.963   9.011  2.3560  1.1560 -0.7278
 5681SOL    HW228506   4.118   2.831   8.997  1.0075 -2.0503 -1.4839
 5682SOL     OW28507   0.531   0.000  16.327  0.5860 -0.5416  0.2165
 5682SOL    HW128508   0.579   4.653  16.370  1.9406 -0.0980 -0.5832
 5682SOL    HW228509   0.444   4.690  16.348  0.0910 -0.6306 -1.9541
 5683SOL     OW28510   1.564   2.935  10.993 -0.6401 -0.8000  0.1855
 5683SOL    HW128511   1.511   2.964  11.068 -0.2522 -0.8889  0.4929
 5683SOL    HW228512   1.591   3.018  10.954 -0.4718 -1.5665 -1.3093
 5684SOL     OW28513   4.095   1.842   7.258  0.3322  0.0842 -0.2149
 5684SOL    HW128514   4.039   1.889   7.196  1.4220  0.8431 -0.6099
 5684SOL    HW228515   4.119   1.916   7.315 -1.2916 -0.2825  0.9609
 5685SOL     OW28516   4.536   2.751  10.665  0.1984 -0.6283  0.2874
 5685SOL    HW128517   4.627   2.781  10.656 -0.7366  1.5111 -2.1351
 5685SOL    HW228518   4.493   2.824  10.620  2.6826  1.5834  1.4981
 5686SOL     OW28519   1.950   0.573  10.787 -0.0388 -0.2834 -0.0132
 5686SOL    HW128520   2.018   0.512  10.814  1.2461  0.9448 -0.5164
 5686SOL    HW228521   1.966   0.573  10.693 -0.2391  1.7897 -0.0404
 5687SOL     OW28522   2.915   4.188  14.957  0.6005  0.4378  0.0589
 5687SOL    HW128523   2.901   4.203  15.050  1.9616 -1.0734  0.5184
 5687SOL    HW228524   2.881   4.100  14.937  1.6933  0.0749 -0.2384
 5688SOL     OW28525   1.295   0.593   5.004 -0.6811 -0.0076  0.2726
 5688SOL    HW128526   1.368   0.630   4.955 -1.7423  0.7761 -0.7029
 5688SOL    HW228527   1.342   0.548   5.074  0.1356  1.6391  0.7778
 5689SOL     OW28528   0.063   0.087   8.427  0.1243 -0.6735  0.9482
 5689SOL    HW128529   4.703   0.132   8.409  1.0396  0.7399  0.2578
 5689SOL    HW228530   0.075   0.129   8.512 -0.7272  0.1539  0.6667
 5690SOL     OW28531   1.572   2.238   6.532 -0.1913 -0.3688 -0.6547
 5690SOL    HW128532   1.666   2.246   6.541 -0.2083 -0.3974 -0.4501
 5690SOL    HW228533   1.567   2.162   6.473 -3.5842  0.4726 -1.4600
 5691SOL     OW28534   1.469   3.421   3.212 -0.1675 -0.3415  0.1695
 5691SOL    HW128535   1.548   3.372   3.190 -1.1141 -2.2012  0.9157
 5691SOL    HW228536   1.517   3.490   3.257  0.6361 -0.1879 -0.9388
 5692SOL     OW28537   0.732   4.444   6.334  0.1731  0.2187 -0.4023
 5692SOL    HW128538   0.793   4.408   6.270  0.2026 -1.1857  0.4003
 5692SOL    HW228539   0.730   4.538   6.317  0.0581  0.1572 -0.7332
 5693SOL     OW28540   2.877   2.299  13.245 -0.3296 -0.5316  0.4152
 5693SOL    HW128541   2.821   2.297  13.323 -0.5821 -0.6169  0.2343
 5693SOL    HW228542   2.820   2.336  13.177  0.8113 -1.1962 -0.9011
 5694SOL     OW28543   0.573   4.524  10.102  0.1024 -0.8281 -0.5055
 5694SOL    HW128544   0.661   4.501  10.071  0.1535  0.1670 -1.0670
 5694SOL    HW228545   0.572   4.449  10.162  1.1988  0.2629  0.8953
 5695SOL     OW28546   2.263   2.069   7.225 -0.2019 -0.6605 -0.1278
 5695SOL    HW128547   2.316   1.992   7.204  2.7271  1.1761  0.5003
 5695SOL    HW228548   2.314   2.125   7.284  0.3357  1.0783 -2.2694
 5696SOL     OW28549   3.787   1.647   9.669  0.2604  0.3486 -0.1237
 5696SOL    HW128550   3.766   1.577   9.607 -3.3460  0.0451  1.4403
 5696SOL    HW228551   3.788   1.589   9.746  1.3875 -2.1604 -2.0150
 5697SOL     OW28552   2.210   0.954   2.278 -0.1821  0.0640 -0.0289
 5697SOL    HW128553   2.276   0.894   2.313 -1.1477  0.8181  3.0688
 5697SOL    HW228554   2.129   0.903   2.276 -0.5999  0.7029  0.8646
 5698SOL     OW28555   2.969   1.896   2.807  0.3858  0.3482  0.1486
 5698SOL    HW128556   3.061   1.917   2.820  0.6913 -1.4511  0.9402
 5698SOL    HW228557   2.981   1.880   2.713  1.4751 -0.5619  0.4401
 5699SOL     OW28558   2.150   1.739   3.677  0.0857 -0.0113  0.2996
 5699SOL    HW128559   2.193   1.747   3.762  0.0683 -0.0623  0.3131
 5699SOL    HW228560   2.161   1.645   3.662  1.3840  0.2510 -0.4007
 5700SOL     OW28561   2.898   2.514   6.330  0.6951  0.1064  0.4904
 5700SOL    HW128562   2.953   2.507   6.408 -1.5035 -0.0645  2.0316
 5700SOL    HW228563   2.957   2.545   6.262  2.2208 -0.6043  1.4797
 5701SOL     OW28564   3.063   2.528   1.865  0.1051  0.4072  0.1021
 5701SOL    HW128565   3.093   2.468   1.797  0.9275  0.9278  0.0125
 5701SOL    HW228566   3.049   2.610   1.817  0.7051  0.7949  0.5975
 5702SOL     OW28567   1.869   0.285  16.789  0.3117  0.0285 -0.0303
 5702SOL    HW128568   1.893   0.360  16.735 -2.8249 -0.3171 -1.9245
 5702SOL    HW228569   1.789   0.317  16.831 -0.9239  2.6506 -4.3875
 5703SOL     OW28570   2.143   3.576   5.493 -0.4171  0.6211  0.3769
 5703SOL    HW128571   2.091   3.584   5.413  1.6068  0.6952 -0.9408
 5703SOL    HW228572   2.089   3.608   5.565  0.1662 -0.0845  1.1252
 5704SOL     OW28573   2.511   1.767   8.177  0.3843 -0.2017  0.1272
 5704SOL    HW128574   2.532   1.860   8.180  1.6334 -0.4583 -0.6646
 5704SOL    HW228575   2.589   1.726   8.214 -0.1449 -1.2028  0.1387
 5705SOL     OW28576   3.675   3.719   5.322  0.0857 -0.1414 -0.0216
 5705SOL    HW128577   3.596   3.730   5.375  1.8303  0.6722  2.4143
 5705SOL    HW228578   3.658   3.637   5.275  1.9387 -0.2817 -0.4280
 5706SOL     OW28579   0.629   4.264  10.176  0.1198  0.5333 -0.2377
 5706SOL    HW128580   0.571   4.192  10.201  0.2129 -0.1521 -2.0142
 5706SOL    HW228581   0.695   4.257  10.246 -0.6193  2.9264  0.7145
 5707SOL     OW28582   2.868   0.638   6.632  0.1883 -0.6546 -0.2651
 5707SOL    HW128583   2.947   0.658   6.682 -0.0688 -0.8569  0.2202
 5707SOL    HW228584   2.807   0.644   6.705  0.6118  1.6162 -0.0951
 5708SOL     OW28585   0.148   0.867  17.587 -0.3374 -0.4142 -0.2119
 5708SOL    HW128586   0.177   0.871  17.678  1.0472  1.8765 -0.7723
 5708SOL    HW228587   0.196   0.786  17.569  0.5554  0.0671  0.0389
 5709SOL     OW28588   2.592   3.766   2.484  0.8940 -0.7621 -0.0955
 5709SOL    HW128589   2.553   3.844   2.443  0.8192 -0.2226  0.9906
 5709SOL    HW228590   2.604   3.799   2.573 -1.4609  0.4271 -0.1988
 5710SOL     OW28591   3.368   0.228   2.004  0.1228  0.6401 -0.3660
 5710SOL    HW128592   3.324   0.271   1.931  1.4968 -1.8019 -2.6310
 5710SOL    HW228593   3.362   0.295   2.073 -1.9635 -0.9313  1.0085
 5711SOL     OW28594   3.852   3.408  16.441 -0.1429 -0.1693 -0.8185
 5711SOL    HW128595   3.916   3.475  16.418 -1.1919  1.4361  0.9347
 5711SOL    HW228596   3.870   3.401  16.534  0.8267 -0.9549 -1.0648
 5712SOL     OW28597   0.439   3.824   0.374  0.5958  0.2472 -0.5561
 5712SOL    HW128598   0.528   3.824   0.339  0.7406  0.2036 -0.1870
 5712SOL    HW228599   0.438   3.731   0.395 -1.0546  0.5893  0.8120
 5713SOL     OW28600   2.749   3.754  11.243 -0.0263 -0.3682 -0.1773
 5713SOL    HW128601   2.829   3.802  11.220  0.1840 -0.5006  0.2628
 5713SOL    HW228602   2.777   3.682  11.299  1.2828  0.4518  0.2130
 5714SOL     OW28603   3.147   4.143   3.659  0.5328 -0.3035 -0.0909
 5714SOL    HW128604   3.205   4.170   3.730  0.9909 -0.4901 -0.3996
 5714SOL    HW228605   3.073   4.111   3.712 -0.2467 -1.9484 -2.1503
 5715SOL     OW28606   4.601   0.694   6.196 -0.2527 -0.3421  0.1076
 5715SOL    HW128607   4.634   0.617   6.149  0.8629  1.4407 -2.0589
 5715SOL    HW228608   4.621   0.668   6.285 -2.7724 -1.0209  0.4690
 5716SOL     OW28609   2.517   1.772  10.215 -0.1993  0.1145  0.3116
 5716SOL    HW128610   2.587   1.837  10.228  2.1143 -1.7289 -2.6721
 5716SOL    HW228611   2.518   1.761  10.120 -0.7816 -1.0754  0.4485
 5717SOL     OW28612   1.409   1.678   8.980  0.7194  0.1811  0.4516
 5717SOL    HW128613   1.389   1.761   8.939  4.1823  0.0322 -1.5676
 5717SOL    HW228614   1.437   1.631   8.902 -1.9042 -2.3965  1.0776
 5718SOL     OW28615   0.162   2.587   6.084 -0.3275 -0.9106 -0.5885
 5718SOL    HW128616   0.214   2.642   6.026  2.6901 -0.8697  2.2031
 5718SOL    HW228617   0.183   2.626   6.169 -0.3964  1.3141 -1.5984
 5719SOL     OW28618   3.862   1.882   7.920 -0.2790  0.2378  0.0717
 5719SOL    HW128619   3.912   1.949   7.967  0.3353  0.2433 -0.5983
 5719SOL    HW228620   3.775   1.908   7.950 -0.6599 -0.8959 -0.0608
 5720SOL     OW28621   1.579   4.329   3.849  0.8338 -0.5564 -0.0479
 5720SOL    HW128622   1.573   4.242   3.810 -1.9908 -0.4474  0.1528
 5720SOL    HW228623   1.497   4.334   3.899  0.0639 -0.8525 -1.2918
 5721SOL     OW28624   3.774   4.047  11.136  0.1712 -0.3302 -0.1265
 5721SOL    HW128625   3.822   3.965  11.145  0.9791  0.0466 -1.0086
 5721SOL    HW228626   3.782   4.082  11.225 -0.3940  1.2437 -0.6938
 5722SOL     OW28627   0.908   0.009  10.772  0.4822 -0.1797  0.4278
 5722SOL    HW128628   0.842   4.664  10.785  0.4319 -0.4102 -1.0337
 5722SOL    HW228629   0.902   0.069  10.847 -0.3496 -0.4849  0.5985
 5723SOL     OW28630   1.854   0.025   1.594  0.0215 -0.5395  0.4522
 5723SOL    HW128631   1.909   0.099   1.569 -1.4404  0.8613  1.4655
 5723SOL    HW228632   1.782   0.031   1.531  1.5742 -0.5707 -1.3210
 5724SOL     OW28633   3.434   3.224   3.125 -0.0643 -0.2334 -0.3137
 5724SOL    HW128634   3.352   3.191   3.087 -1.1511  1.2691  0.7280
 5724SOL    HW228635   3.483   3.231   3.043 -0.8474 -2.8931 -1.0259
 5725SOL     OW28636   0.729   4.326   9.251  0.3656  0.1509 -0.7156
 5725SOL    HW128637   0.737   4.417   9.220 -1.9415  1.1732  1.6856
 5725SOL    HW228638   0.816   4.312   9.290  0.0859  2.2339  0.6472
 5726SOL     OW28639   0.660   0.419   2.344  0.4019 -0.0279 -0.3838
 5726SOL    HW128640   0.718   0.491   2.320 -0.8582  0.9897 -0.3936
 5726SOL    HW228641   0.709   0.352   2.297  0.9097  0.4286 -0.5042
 5727SOL     OW28642   3.213   4.047  15.186 -0.5138  0.3488  0.3548
 5727SOL    HW128643   3.236   4.037  15.093 -0.1747 -0.6788  0.5416
 5727SOL    HW228644   3.259   4.126  15.214 -0.4620  0.7807 -0.9358
 5728SOL     OW28645   4.025   0.333   5.938 -0.1489 -0.0541  0.2818
 5728SOL    HW128646   3.982   0.273   5.877 -0.7021  2.1280 -1.4855
 5728SOL    HW228647   4.063   0.401   5.883  1.3567 -1.3370 -0.2634
 5729SOL     OW28648   2.016   0.742  17.142 -0.1810 -0.4109  0.3437
 5729SOL    HW128649   1.961   0.762  17.218 -0.1118 -0.3357  0.3743
 5729SOL    HW228650   2.100   0.725  17.184  0.2377 -0.7153 -0.6375
 5730SOL     OW28651   0.858   4.252   0.298 -0.0229 -0.1064 -0.7060
 5730SOL    HW128652   0.842   4.312   0.226  0.3956  1.6871  0.6865
 5730SOL    HW228653   0.953   4.260   0.302  0.1328 -1.4467 -1.8251
 5731SOL     OW28654   0.184   3.708   5.245 -0.1094  0.3197 -0.1798
 5731SOL    HW128655   0.193   3.737   5.154  0.8694 -0.0995 -0.2192
 5731SOL    HW228656   0.091   3.689   5.258  1.0054 -4.4631  0.7888
 5732SOL     OW28657   3.577   2.166   2.541 -0.1070 -0.5735  0.0941
 5732SOL    HW128658   3.655   2.186   2.489  0.7422 -1.2427  1.0976
 5732SOL    HW228659   3.612   2.101   2.602 -2.0900 -1.8783 -0.1517
 5733SOL     OW28660   2.750   4.511  13.297  0.8393 -0.1330 -0.2015
 5733SOL    HW128661   2.696   4.478  13.226 -0.1598  0.5845  0.2351
 5733SOL    HW228662   2.830   4.534  13.249  0.4893 -0.7284 -1.0592
 5734SOL     OW28663   2.882   2.509   7.962  0.2933 -0.7855  0.2931
 5734SOL    HW128664   2.806   2.451   7.962 -0.6515  0.4261 -1.8205
 5734SOL    HW228665   2.841   2.594   7.944  2.1126  0.1690  0.7372
 5735SOL     OW28666   4.516   1.868   8.244 -0.4473 -0.4843  0.2301
 5735SOL    HW128667   4.521   1.881   8.150  1.4360 -0.5930  0.3124
 5735SOL    HW228668   4.524   1.961   8.263 -2.0067 -0.5262  1.0699
 5736SOL     OW28669   2.599   1.877   5.313 -0.4827 -0.8784 -0.1198
 5736SOL    HW128670   2.509   1.908   5.311 -0.0514  0.3178 -0.8730
 5736SOL    HW228671   2.612   1.896   5.406  4.2700  2.0372 -1.3822
 5737SOL     OW28672   3.479   0.874   2.306 -0.8131 -0.8596 -0.0262
 5737SOL    HW128673   3.488   0.901   2.397 -0.4426 -0.0416 -0.3004
 5737SOL    HW228674   3.562   0.830   2.293  0.4910  1.6311 -0.1948
 5738SOL     OW28675   3.663   4.135   2.077 -0.1420 -0.0525 -0.0934
 5738SOL    HW128676   3.681   4.079   2.153  1.4718  0.1183 -0.3647
 5738SOL    HW228677   3.636   4.216   2.121  0.4152  0.3833 -0.5618
 5739SOL     OW28678   3.316   3.803   4.561  0.8843  0.6678 -0.2773
 5739SOL    HW128679   3.269   3.857   4.496 -0.9713 -0.8437 -0.1949
 5739SOL    HW228680   3.268   3.807   4.643  0.0319 -0.2281 -0.7325
 5740SOL     OW28681   1.674   1.637   0.559  0.5777 -0.2386  0.6568
 5740SOL    HW128682   1.584   1.606   0.548  1.8765 -3.8590  0.4815
 5740SOL    HW228683   1.694   1.602   0.646  0.0511 -1.0999  0.4259
 5741SOL     OW28684   1.948   1.746  10.742 -0.3889 -0.1270 -0.3190
 5741SOL    HW128685   1.923   1.755  10.651 -1.6345  1.1642  0.1596
 5741SOL    HW228686   1.866   1.749  10.791  0.3467  0.7352  0.8661
 5742SOL     OW28687   4.423   2.892   9.872  0.2257  0.0527 -0.4009
 5742SOL    HW128688   4.406   2.885   9.778 -2.4131 -3.0623  0.3061
 5742SOL    HW228689   4.341   2.906   9.918 -0.2171  0.9296 -1.4645
 5743SOL     OW28690   2.421   0.808   4.695  0.4369  0.0919  0.0991
 5743SOL    HW128691   2.369   0.748   4.642 -0.8206  1.2753 -0.0066
 5743SOL    HW228692   2.360   0.877   4.719 -0.5395 -0.9389  0.5766
 5744SOL     OW28693   2.883   4.309  14.586  0.0026 -0.3950  0.0647
 5744SOL    HW128694   2.853   4.340  14.671 -2.3718  1.3133 -1.3705
 5744SOL    HW228695   2.797   4.278  14.559  0.7914 -3.1228  0.6588
 5745SOL     OW28696   2.922   1.361   9.826  0.4569  0.5862 -0.2095
 5745SOL    HW128697   2.925   1.424   9.897 -0.1397 -0.9124  1.1413
 5745SOL    HW228698   2.831   1.369   9.800 -0.0224 -0.3578  1.2122
 5746SOL     OW28699   2.701   2.977   3.523 -1.0341 -0.5323 -0.6469
 5746SOL    HW128700   2.767   3.020   3.468 -2.8538  0.1603 -2.2939
 5746SOL    HW228701   2.714   3.020   3.607  0.9400 -1.2078 -0.6085
 5747SOL     OW28702   0.848   4.301   5.532  0.1503 -0.3462 -0.7513
 5747SOL    HW128703   0.806   4.317   5.616  1.8476 -1.0662  0.2181
 5747SOL    HW228704   0.924   4.251   5.559  0.2059  0.1766  0.0420
 5748SOL     OW28705   4.236   1.516   2.935 -0.5827  0.0312  0.3218
 5748SOL    HW128706   4.188   1.529   2.853 -0.1868 -0.2809  0.0401
 5748SOL    HW228707   4.246   1.606   2.965  1.1539 -0.2070  0.4502
 5749SOL     OW28708   1.852   0.952   3.402 -0.2732  0.1305 -0.2320
 5749SOL    HW128709   1.922   0.924   3.342 -0.8245  0.0376 -0.8245
 5749SOL    HW228710   1.822   1.038   3.374 -0.0497 -0.9409 -3.7641
 5750SOL     OW28711   0.617   2.430   5.311  0.9530  0.5395 -0.0026
 5750SOL    HW128712   0.578   2.475   5.236  0.8048 -0.2880 -0.4310
 5750SOL    HW228713   0.711   2.438   5.294  0.7345  0.1292 -1.4420
 5751SOL     OW28714   2.873   1.320  15.121 -0.0166 -0.0867  0.4608
 5751SOL    HW128715   2.822   1.263  15.179  0.2422  1.1043  1.8412
 5751SOL    HW228716   2.892   1.258  15.050  3.6336 -0.1687  1.5609
 5752SOL     OW28717   3.394   1.821   8.750  0.4288 -0.7860 -0.4257
 5752SOL    HW128718   3.429   1.786   8.832 -0.5178  0.9468  0.7307
 5752SOL    HW228719   3.301   1.842   8.764  0.7064 -1.3394  2.2428
 5753SOL     OW28720   4.094   0.786   8.454  0.0580  0.3468  0.0787
 5753SOL    HW128721   4.053   0.744   8.378 -0.6899  2.5771 -0.7541
 5753SOL    HW228722   4.027   0.851   8.476  0.7635  1.1575 -0.1791
 5754SOL     OW28723   2.332   3.277   7.490 -0.1605  0.7473  0.0551
 5754SOL    HW128724   2.413   3.292   7.441  0.0232 -2.1336 -0.5585
 5754SOL    HW228725   2.360   3.214   7.557 -2.3794 -1.7779 -1.4073
 5755SOL     OW28726   3.482   3.325  13.563 -0.6848  0.4264 -0.3432
 5755SOL    HW128727   3.541   3.251  13.547  2.3686  2.1860  2.8277
 5755SOL    HW228728   3.398   3.283  13.582 -0.8416  1.6836  1.7472
 5756SOL     OW28729   2.575   1.284   4.018  0.1390 -0.2362 -0.2160
 5756SOL    HW128730   2.495   1.335   4.009  0.3886  0.1723 -0.1312
 5756SOL    HW228731   2.635   1.342   3.972  0.1168 -0.5854 -0.6843
 5757SOL     OW28732   2.702   4.380   0.995 -0.0247 -0.0206  0.0639
 5757SOL    HW128733   2.791   4.357   1.021 -0.1660 -0.9782 -0.3039
 5757SOL    HW228734   2.667   4.427   1.071 -3.0144  0.2417 -1.4561
 5758SOL     OW28735   4.044   2.249   6.172 -0.7743  0.1266 -0.0054
 5758SOL    HW128736   4.092   2.321   6.213  1.7036 -0.3224 -2.0990
 5758SOL    HW228737   4.110   2.181   6.163  0.4003  1.2279  0.2353
 5759SOL     OW28738   4.001   2.481   5.508 -0.2836 -0.2635 -0.2152
 5759SOL    HW128739   4.030   2.490   5.417  1.7441  0.5302  0.5286
 5759SOL    HW228740   4.079   2.489   5.562 -0.7967  3.6948 -0.0908
 5760SOL     OW28741   3.040   2.485   6.546  0.4172  0.6271  0.2856
 5760SOL    HW128742   3.067   2.421   6.612 -1.1610 -0.2471  0.0832
 5760SOL    HW228743   3.036   2.559   6.608 -1.5334 -0.5173  1.5226
 5761SOL     OW28744   4.648   1.205  14.341 -0.3156  0.9360  0.1942
 5761SOL    HW128745   4.623   1.234  14.429  0.6793 -2.5931  1.6383
 5761SOL    HW228746   4.720   1.142  14.344  0.1673  1.4821  0.0266
 5762SOL     OW28747   2.812   2.854   5.298 -0.7674 -0.5660 -0.1062
 5762SOL    HW128748   2.739   2.868   5.238 -0.3360 -1.0185 -0.7337
 5762SOL    HW228749   2.759   2.878   5.375  0.0029 -0.9187  0.5418
 5763SOL     OW28750   1.087   4.159   2.682 -0.3066 -0.9158 -0.0378
 5763SOL    HW128751   1.116   4.228   2.622  2.6839 -0.5135  1.8521
 5763SOL    HW228752   1.034   4.109   2.619 -3.5395  0.1486  1.8759
 5764SOL     OW28753   4.008   3.257  11.591  0.3104 -0.0287  0.5375
 5764SOL    HW128754   4.057   3.270  11.672 -0.1176 -0.1285  0.8176
 5764SOL    HW228755   3.949   3.333  11.593 -0.4570 -0.6208  0.2861
 5765SOL     OW28756   3.121   0.510   6.050  0.4330  0.6195  0.1116
 5765SOL    HW128757   3.132   0.449   6.122  1.7126  0.5994 -0.0954
 5765SOL    HW228758   3.052   0.572   6.074  0.5164  1.1778 -1.0677
 5766SOL     OW28759   4.387   2.268  13.600 -0.3413  0.0445 -0.1909
 5766SOL    HW128760   4.413   2.262  13.692 -1.0539 -1.7144 -0.0990
 5766SOL    HW228761   4.302   2.312  13.610 -0.0062  0.5996  0.2034
 5767SOL     OW28762   1.091   0.030   1.942  0.1290  0.1571  0.5099
 5767SOL    HW128763   1.176   0.048   1.983  0.4206  1.7324 -0.7557
 5767SOL    HW228764   1.040   0.010   2.020 -0.2513  1.9135  0.7294
 5768SOL     OW28765   1.613   3.096   2.797  0.2550 -0.4948  0.5048
 5768SOL    HW128766   1.518   3.110   2.790  0.4731 -1.3522 -3.6930
 5768SOL    HW228767   1.637   3.066   2.885  0.4999 -1.8396 -0.0289
 5769SOL     OW28768   4.028   1.422  10.276  0.2573 -0.0015  0.0302
 5769SOL    HW128769   3.962   1.358  10.303 -2.3281  2.4470 -0.5532
 5769SOL    HW228770   4.035   1.393  10.185 -0.4495  0.7366 -0.2617
 5770SOL     OW28771   1.000   2.100   8.772  0.6947  0.5492  1.1118
 5770SOL    HW128772   0.966   2.090   8.861  1.9708 -1.5338  1.3640
 5770SOL    HW228773   1.077   2.157   8.775  1.1461  0.0008 -0.1990
 5771SOL     OW28774   2.396   2.350   0.450 -0.5522 -0.0752 -0.1481
 5771SOL    HW128775   2.449   2.288   0.400  0.6425  0.6638  0.2202
 5771SOL    HW228776   2.454   2.426   0.445  1.6601 -1.8052 -0.8340
 5772SOL     OW28777   3.017   2.297   7.533  0.2843  0.0954  0.8185
 5772SOL    HW128778   2.933   2.332   7.501  1.2517  1.1341 -0.6056
 5772SOL    HW228779   3.020   2.238   7.457 -0.8111  1.8353 -0.5760
 5773SOL     OW28780   4.089   1.019   1.326  0.0901  0.3336 -0.8094
 5773SOL    HW128781   4.044   0.987   1.248 -0.2070 -0.5339 -0.2880
 5773SOL    HW228782   4.180   0.993   1.312  0.0787 -0.1827  0.0845
 5774SOL     OW28783   0.879   1.668   2.966  0.1091 -0.2898 -0.3719
 5774SOL    HW128784   0.818   1.731   2.928  0.9405  0.4035 -0.5656
 5774SOL    HW228785   0.836   1.585   2.949 -0.4282  0.0050 -0.4402
 5775SOL     OW28786   0.884   0.604  13.464  0.3414  0.4762 -0.3048
 5775SOL    HW128787   0.834   0.655  13.529 -3.4564  0.6586 -3.3641
 5775SOL    HW228788   0.916   0.682  13.419 -0.8011 -0.3117 -2.4842
 5776SOL     OW28789   4.643   0.730   3.754 -0.0222 -0.2669  0.1666
 5776SOL    HW128790   4.713   0.700   3.697 -0.1201  0.0226 -0.1062
 5776SOL    HW228791   4.695   0.797   3.799 -2.0421  1.5874 -0.2490
 5777SOL     OW28792   3.257   1.696  11.540 -0.4605  0.4111  0.1753
 5777SOL    HW128793   3.340   1.675  11.584  1.1148  1.9260 -2.0593
 5777SOL    HW228794   3.203   1.618  11.541  1.3269 -0.8151  1.2403
 5778SOL     OW28795   0.665   3.097   9.827  0.9073  0.4167 -0.1754
 5778SOL    HW128796   0.684   3.047   9.907  0.1025  1.5408  0.7087
 5778SOL    HW228797   0.661   3.024   9.764  0.2901 -0.3877  0.7934
 5779SOL     OW28798   3.365   2.302   9.384  0.2206 -0.1730  0.1113
 5779SOL    HW128799   3.336   2.286   9.294 -0.2272 -2.3597  0.6556
 5779SOL    HW228800   3.446   2.352   9.373  1.0629 -2.1491 -2.6275
 5780SOL     OW28801   3.175   1.721  13.873  0.3222 -0.5824  0.3533
 5780SOL    HW128802   3.249   1.716  13.934  0.6754 -0.0276 -0.0296
 5780SOL    HW228803   3.115   1.668  13.926  0.3012 -1.5032 -0.6015
 5781SOL     OW28804   3.280   0.952  17.421 -0.0738 -0.8338  0.2127
 5781SOL    HW128805   3.228   1.031  17.414  0.2663 -0.6544 -0.3087
 5781SOL    HW228806   3.277   0.937  17.515  1.3848  1.1374  0.5609
 5782SOL     OW28807   3.146   3.346   2.653  0.5999  0.6179 -0.0886
 5782SOL    HW128808   3.222   3.359   2.596 -0.5753 -2.3948 -2.3487
 5782SOL    HW228809   3.183   3.394   2.728  1.2988  2.4928 -1.6186
 5783SOL     OW28810   4.019   0.174  13.228 -0.0683 -0.2889 -0.2219
 5783SOL    HW128811   4.016   0.263  13.265  0.5062  0.5287 -2.1136
 5783SOL    HW228812   4.054   0.130  13.305 -0.7279 -0.1970  0.1315
 5784SOL     OW28813   1.144   0.462  11.216  0.0760  0.3236  0.6117
 5784SOL    HW128814   1.125   0.418  11.133  0.9847  0.1398  0.5005
 5784SOL    HW228815   1.212   0.404  11.250  0.8672 -0.1638 -1.7587
 5785SOL     OW28816   1.746   2.100   5.415 -0.4673 -0.2676  0.3336
 5785SOL    HW128817   1.810   2.076   5.482  0.9088 -2.5292 -1.8097
 5785SOL    HW228818   1.701   2.015   5.414 -1.4576  0.2662  0.0053
 5786SOL     OW28819   2.962   0.491   6.927  0.0612 -0.1604  0.1613
 5786SOL    HW128820   2.883   0.521   6.972 -0.4473  2.2434 -2.3525
 5786SOL    HW228821   2.925   0.417   6.880 -1.1323  1.3353 -1.2426
 5787SOL     OW28822   0.716   1.630  10.355  0.4145  0.2556  0.2659
 5787SOL    HW128823   0.764   1.617  10.437  0.3143  0.4293  0.3523
 5787SOL    HW228824   0.646   1.567  10.371  0.5717 -0.5948 -2.4646
 5788SOL     OW28825   0.051   2.510   3.438 -0.0524  0.8772 -0.2288
 5788SOL    HW128826   0.138   2.472   3.421 -0.1377  0.8505 -0.6238
 5788SOL    HW228827   4.719   2.433   3.454  0.2422 -0.1990 -4.3105
 5789SOL     OW28828   1.628   4.686  10.284  0.2940 -0.3338 -0.3821
 5789SOL    HW128829   1.697   0.030  10.286  0.2866 -0.3638  1.0582
 5789SOL    HW228830   1.655   4.637  10.362 -1.5554 -1.3339 -0.3694
 5790SOL     OW28831   1.354   3.041  11.134  0.2801 -0.1852 -0.3749
 5790SOL    HW128832   1.396   3.071  11.215 -0.9649  0.3067  0.0987
 5790SOL    HW228833   1.263   3.070  11.148 -0.1272 -2.7729  2.2911
 5791SOL     OW28834   3.133   3.173  17.320  0.5179  0.0124 -0.0366
 5791SOL    HW128835   3.200   3.117  17.282  0.8352  1.4334 -1.5613
 5791SOL    HW228836   3.076   3.109  17.362  0.1461  1.0846  1.1291
 5792SOL     OW28837   2.645   2.602   6.445  0.2141  0.2314 -0.0915
 5792SOL    HW128838   2.728   2.615   6.399  0.2546  2.3055  0.5610
 5792SOL    HW228839   2.619   2.685   6.487 -1.0218  0.6822 -1.7286
 5793SOL     OW28840   0.221   1.213   8.869 -0.9855 -0.2245  0.6196
 5793SOL    HW128841   0.273   1.201   8.789  0.0352 -1.6474  1.4955
 5793SOL    HW228842   0.146   1.157   8.847 -2.0106  1.5020 -0.2799
 5794SOL     OW28843   3.596   2.577   2.325  0.0843  0.0693 -0.6997
 5794SOL    HW128844   3.672   2.519   2.328  0.2090  0.2940  0.5279
 5794SOL    HW228845   3.574   2.585   2.232  3.0701  1.3050 -1.2962
 5795SOL     OW28846   4.689   1.219   6.637  0.4464  0.1116  0.0890
 5795SOL    HW128847   4.642   1.227   6.554  0.2692  0.7152  0.2486
 5795SOL    HW228848   4.633   1.275   6.691  0.9951  0.6671  0.0879
 5796SOL     OW28849   2.779   0.374   1.474  0.0567 -0.3437  0.6582
 5796SOL    HW128850   2.802   0.456   1.519 -0.9969 -0.8885  2.2014
 5796SOL    HW228851   2.831   0.312   1.524  2.3411  0.7384 -0.4148
 5797SOL     OW28852   3.217   4.263  12.741  0.1417  0.1880 -0.1783
 5797SOL    HW128853   3.252   4.174  12.731  2.3438  1.0766 -0.4341
 5797SOL    HW228854   3.259   4.301  12.663  1.3688  0.8207  0.7967
 5798SOL     OW28855   3.911   2.655  13.099  0.7910  0.1782  0.2973
 5798SOL    HW128856   3.958   2.573  13.084 -1.6416 -0.8725 -1.5699
 5798SOL    HW228857   3.985   2.714  13.114  0.7263  0.1632  0.6821
 5799SOL     OW28858   1.624   3.803  13.096 -0.3196  0.6047 -0.0982
 5799SOL    HW128859   1.584   3.825  13.180 -0.9429  0.5960 -0.3935
 5799SOL    HW228860   1.591   3.873  13.039 -1.3495  1.0392  1.0210
 5800SOL     OW28861   1.861   3.653   1.604 -0.1248  0.0260  0.2387
 5800SOL    HW128862   1.938   3.690   1.646  0.7491 -0.4829 -0.9483
 5800SOL    HW228863   1.791   3.709   1.640  1.2249  0.6402  1.9071
 5801SOL     OW28864   3.609   4.328  17.603 -0.2412 -0.3732  0.2903
 5801SOL    HW128865   3.624   4.422  17.619  0.0472 -0.3320 -0.2346
 5801SOL    HW228866   3.698   4.295  17.610  1.0061  2.1348 -3.6177
 5802SOL     OW28867   1.938   1.047   5.271  0.3594  0.4625 -0.0276
 5802SOL    HW128868   2.022   1.008   5.247  0.0109 -0.4363  0.2076
 5802SOL    HW228869   1.961   1.110   5.340 -3.2295  1.4081  0.2957
 5803SOL     OW28870   2.896   2.413  11.869  0.1110 -0.6837  0.0895
 5803SOL    HW128871   2.841   2.461  11.807 -2.2360 -1.0490  1.8801
 5803SOL    HW228872   2.961   2.479  11.893  0.7636 -1.6940  1.1173
 5804SOL     OW28873   3.855   0.071   2.760  0.3273 -0.8314 -0.4725
 5804SOL    HW128874   3.830   0.047   2.849 -0.9365  2.0209 -0.0482
 5804SOL    HW228875   3.844   4.709   2.717 -0.3366  0.1168 -2.1956
 5805SOL     OW28876   2.208   1.383  17.214  0.3699  0.2288 -0.7914
 5805SOL    HW128877   2.270   1.325  17.169  2.0355 -0.0088  1.8168
 5805SOL    HW228878   2.130   1.368  17.161  1.2787 -2.2779 -1.4203
 5806SOL     OW28879   0.036   0.652   1.925  0.1002  0.1734  0.7911
 5806SOL    HW128880   0.114   0.619   1.970 -0.9761 -0.7532  1.9965
 5806SOL    HW228881   0.051   0.626   1.834 -0.4754  1.9979  0.1785
 5807SOL     OW28882   0.035   4.410  10.511 -0.4379 -0.6968  0.1311
 5807SOL    HW128883   0.050   4.494  10.554 -1.1138 -1.4390  1.7939
 5807SOL    HW228884   0.047   4.429  10.418  1.5022 -0.1901  0.4884
 5808SOL     OW28885   2.570   2.481   7.482  0.1575 -0.1661 -0.4050
 5808SOL    HW128886   2.582   2.534   7.404  1.2341 -1.3121 -1.0082
 5808SOL    HW228887   2.657   2.483   7.522 -0.2071  0.8290  0.3442
 5809SOL     OW28888   0.834   1.653   8.643 -0.3228 -0.2357  0.3883
 5809SOL    HW128889   0.906   1.702   8.682 -1.1448  1.4069 -0.1409
 5809SOL    HW228890   0.877   1.579   8.600 -0.5643  0.4686 -1.0888
 5810SOL     OW28891   3.832   1.593  10.824  0.1292  0.8606 -0.2447
 5810SOL    HW128892   3.925   1.614  10.831  0.5560 -0.8743 -0.7013
 5810SOL    HW228893   3.830   1.605  10.729  0.6828  3.5700  0.0787
 5811SOL     OW28894   2.885   3.036  15.702 -0.5996 -0.2370 -0.0359
 5811SOL    HW128895   2.876   3.089  15.781  0.3783  0.5981 -0.4863
 5811SOL    HW228896   2.844   3.094  15.637 -1.3692  0.5572  1.1625
 5812SOL     OW28897   0.720   3.109  13.801 -0.1824  0.1955  0.0944
 5812SOL    HW128898   0.756   3.148  13.881 -0.0202  2.1572 -0.9325
 5812SOL    HW228899   0.667   3.181  13.767 -0.4028  0.5433  1.1812
 5813SOL     OW28900   3.750   1.775   5.510  0.1315  0.0597 -0.4854
 5813SOL    HW128901   3.674   1.827   5.538  1.0674  0.9924  0.2865
 5813SOL    HW228902   3.792   1.747   5.591  1.7764  0.6066 -1.1455
 5814SOL     OW28903   0.154   1.265   8.261  0.0849  0.9615 -0.2137
 5814SOL    HW128904   0.218   1.194   8.261  0.7918  1.6348  2.9387
 5814SOL    HW228905   0.080   1.203   8.256  0.5042  0.3330  1.3224
 5815SOL     OW28906   2.919   2.301  17.259  0.3835  0.1884 -0.0970
 5815SOL    HW128907   2.903   2.395  17.248 -0.9977 -0.2237 -1.6882
 5815SOL    HW228908   2.854   2.262  17.200  1.9061 -2.1666 -0.2056
 5816SOL     OW28909   2.630   4.398  10.470  0.2356 -0.1091  0.1633
 5816SOL    HW128910   2.572   4.324  10.488 -1.9397  1.6701  0.5365
 5816SOL    HW228911   2.567   4.469  10.478  0.5689  0.5956 -3.7299
 5817SOL     OW28912   0.726   2.688  13.797  0.5020 -0.2849 -0.4898
 5817SOL    HW128913   0.679   2.604  13.801 -1.1898  0.7804  1.6722
 5817SOL    HW228914   0.793   2.663  13.733  1.4098  1.6437 -0.2641
 5818SOL     OW28915   0.939   0.529   0.301 -0.0343 -0.3530 -0.0051
 5818SOL    HW128916   1.034   0.522   0.311  0.0030  0.9943  0.6696
 5818SOL    HW228917   0.917   0.537   0.394 -0.9096  2.2179 -0.4388
 5819SOL     OW28918   2.707   4.021   0.575  0.4544 -0.3119  0.6775
 5819SOL    HW128919   2.776   4.063   0.524 -0.6138 -0.3805 -0.7915
 5819SOL    HW228920   2.701   4.087   0.644 -1.6048 -0.5043  0.6650
 5820SOL     OW28921   3.474   3.425   5.601  0.1151  0.2398 -0.9865
 5820SOL    HW128922   3.511   3.378   5.675 -1.8476 -0.1509 -0.2636
 5820SOL    HW228923   3.543   3.483   5.568 -0.8603  1.8223 -0.2671
 5821SOL     OW28924   2.025   4.693   5.216 -0.0845 -0.9683  0.4546
 5821SOL    HW128925   1.965   0.028   5.169  0.0329 -0.2916  1.1413
 5821SOL    HW228926   2.020   4.613   5.164  0.8234 -0.8602  0.1909
 5822SOL     OW28927   3.427   2.320   4.544  0.1527  0.2241 -0.3010
 5822SOL    HW128928   3.497   2.324   4.609  0.1922  2.9704 -0.5089
 5822SOL    HW228929   3.402   2.413   4.548  1.6066  0.5539  1.3633
 5823SOL     OW28930   0.249   2.715   2.344  0.3783  0.3501 -0.3560
 5823SOL    HW128931   0.293   2.725   2.260  0.7982 -3.1680 -0.5637
 5823SOL    HW228932   0.158   2.698   2.319  0.5284 -2.9470  1.2638
 5824SOL     OW28933   2.485   2.229   8.355  0.3905 -0.3433  0.1727
 5824SOL    HW128934   2.390   2.227   8.340  0.5192  2.0794 -1.0675
 5824SOL    HW228935   2.483   2.224   8.450  0.4817  3.7601  0.4014
 5825SOL     OW28936   3.822   4.494  10.099 -0.8479  0.0046  0.3443
 5825SOL    HW128937   3.879   4.568  10.119  0.3256 -1.5828  2.9050
 5825SOL    HW228938   3.848   4.436  10.170  1.0348  0.5115  0.0727
 5826SOL     OW28939   1.440   0.362  10.829 -0.1381  0.4059 -0.2560
 5826SOL    HW128940   1.437   0.309  10.908 -1.6922  1.3469  0.3199
 5826SOL    HW228941   1.432   0.450  10.866 -3.9837 -0.7845  1.7837
 5827SOL     OW28942   3.354   4.283   2.978 -0.0415  0.3833 -0.3531
 5827SOL    HW128943   3.293   4.303   2.906 -0.0892  0.1069 -0.3882
 5827SOL    HW228944   3.401   4.213   2.932 -0.4813  0.2142 -0.5454
 5828SOL     OW28945   3.661   0.318   1.392 -0.2910 -0.1571 -0.0425
 5828SOL    HW128946   3.665   0.272   1.308  1.7054  1.6498 -0.9290
 5828SOL    HW228947   3.755   0.309   1.409 -0.4369 -2.6891 -0.5970
 5829SOL     OW28948   1.418   2.326   3.772 -0.5527  0.1653 -0.4941
 5829SOL    HW128949   1.363   2.382   3.718  0.7720  1.0692 -0.9170
 5829SOL    HW228950   1.389   2.235   3.771 -1.1890  0.3709 -1.0228
 5830SOL     OW28951   0.150   1.838   2.949  0.7012 -0.3313  0.0666
 5830SOL    HW128952   0.064   1.854   2.988  0.8901  1.3230 -0.1820
 5830SOL    HW228953   0.137   1.758   2.897 -1.1894  0.4092 -0.6315
 5831SOL     OW28954   2.432   1.632   3.309 -0.1248 -0.1857 -0.3244
 5831SOL    HW128955   2.473   1.596   3.230  0.8399 -0.8670  0.4862
 5831SOL    HW228956   2.369   1.682   3.257  2.5832 -0.1543 -3.5701
 5832SOL     OW28957   1.473   2.697   3.568  0.1844 -0.3560 -0.8376
 5832SOL    HW128958   1.466   2.758   3.641  1.6638 -1.3690  0.1464
 5832SOL    HW228959   1.532   2.639   3.616 -0.9348 -0.2425  0.6561
 5833SOL     OW28960   2.591   1.767  11.703  0.0638 -0.0069  0.3057
 5833SOL    HW128961   2.571   1.851  11.661  1.7758 -1.6870 -3.8853
 5833SOL    HW228962   2.553   1.705  11.640  0.8557 -1.4500  1.2342
 5834SOL     OW28963   2.854   1.770  15.150 -0.3910 -0.4248 -0.5817
 5834SOL    HW128964   2.912   1.697  15.128 -2.3950 -1.9285 -0.8908
 5834SOL    HW228965   2.875   1.832  15.080  0.3362  0.4319  0.3926
 5835SOL     OW28966   4.538   1.354   9.268  0.2637  0.2761  0.0019
 5835SOL    HW128967   4.543   1.346   9.364 -1.7895 -1.7762 -0.0743
 5835SOL    HW228968   4.632   1.353   9.250  0.1148  1.8535 -0.8364
 5836SOL     OW28969   0.568   2.348   2.344  0.6285 -0.1040 -0.8909
 5836SOL    HW128970   0.624   2.419   2.376 -1.7595  1.8369 -1.0541
 5836SOL    HW228971   0.549   2.382   2.257  2.0554 -0.3714 -1.3141
 5837SOL     OW28972   1.254   3.688   5.489  0.0125 -0.2601  0.5946
 5837SOL    HW128973   1.225   3.731   5.409  0.9002 -1.5505 -0.4244
 5837SOL    HW228974   1.260   3.598   5.458 -0.4824  0.9845 -3.1765
 5838SOL     OW28975   2.924   3.902   7.427 -0.4410  0.0944 -0.6815
 5838SOL    HW128976   2.968   3.934   7.348  1.1562 -2.1841 -0.7132
 5838SOL    HW228977   2.994   3.846   7.459 -1.6856 -0.6625  0.7398
 5839SOL     OW28978   0.959   0.283  17.010 -0.5079  0.1018 -0.5353
 5839SOL    HW128979   0.972   0.291  17.105  1.2836  2.2068 -0.9557
 5839SOL    HW228980   0.918   0.367  16.988  0.4132  0.8079  0.4840
 5840SOL     OW28981   1.346   3.600   0.654 -0.9177  0.5280 -0.0223
 5840SOL    HW128982   1.378   3.580   0.566 -0.2715  1.3435  0.0357
 5840SOL    HW228983   1.255   3.621   0.630 -1.6865 -2.4413  0.2748
 5841SOL     OW28984   2.503   4.362   5.249 -0.1636 -0.2919  0.1918
 5841SOL    HW128985   2.496   4.317   5.165 -0.8369 -1.6770  1.0054
 5841SOL    HW228986   2.457   4.297   5.301  0.2342 -2.2698 -1.9411
 5842SOL     OW28987   1.454   2.914  13.088 -0.5607 -0.3410 -0.2200
 5842SOL    HW128988   1.458   2.988  13.149  2.1364 -0.2427 -0.5037
 5842SOL    HW228989   1.399   2.854  13.138 -0.7894  0.6325  0.6822
 5843SOL     OW28990   1.798   0.776   6.801 -0.0111  0.0658 -0.1181
 5843SOL    HW128991   1.776   0.689   6.835  2.6836 -0.3016  0.7010
 5843SOL    HW228992   1.734   0.822   6.855 -0.9832  0.1565 -1.3487
 5844SOL     OW28993   2.952   1.319   6.783 -1.0735 -0.1808  0.1429
 5844SOL    HW128994   2.877   1.346   6.836 -1.4863 -1.6852  0.3256
 5844SOL    HW228995   2.930   1.376   6.709 -0.0135  0.7245  0.5224
 5845SOL     OW28996   4.449   2.983   9.062  0.4773  0.4978 -0.4379
 5845SOL    HW128997   4.380   3.020   9.117  0.6405  2.1199 -1.3374
 5845SOL    HW228998   4.517   3.046   9.086  0.9311  0.0514 -0.5673
 5846SOL     OW28999   2.105   3.256   8.261 -0.1143  0.2256  0.2142
 5846SOL    HW129000   2.118   3.166   8.231 -1.3212 -0.5965  2.1932
 5846SOL    HW229001   2.074   3.247   8.351 -0.8253 -1.3267 -0.1827
 5847SOL     OW29002   0.478   0.443   9.943  0.3634  0.3681 -0.2668
 5847SOL    HW129003   0.464   0.507  10.012  2.5820  0.4764  0.0948
 5847SOL    HW229004   0.541   0.387   9.987 -0.6227 -0.9867 -0.5938
 5848SOL     OW29005   0.827   0.319   8.103  0.1459 -0.3919 -0.0766
 5848SOL    HW129006   0.836   0.279   8.190  2.7311 -0.3150 -0.3070
 5848SOL    HW229007   0.814   0.242   8.048  0.8505 -0.3521 -0.2949
 5849SOL     OW29008   0.599   1.870   3.363 -0.5812  0.4942 -0.3845
 5849SOL    HW129009   0.626   1.956   3.331  0.2756 -0.1537 -1.4110
 5849SOL    HW229010   0.682   1.823   3.363 -1.5385 -1.1959 -1.9706
 5850SOL     OW29011   4.135   0.506   1.437  0.1268  0.5399 -0.1793
 5850SOL    HW129012   4.080   0.546   1.504  1.5361  0.4713  1.0251
 5850SOL    HW229013   4.089   0.424   1.421  0.8347 -0.0551  0.8258
 5851SOL     OW29014   0.452   3.179   8.594 -0.3627 -0.3956 -0.3398
 5851SOL    HW129015   0.540   3.147   8.612 -0.1490 -0.6555 -1.8272
 5851SOL    HW229016   0.445   3.226   8.677 -0.4497 -2.5316  0.8604
 5852SOL     OW29017   2.034   2.816   3.971 -0.2921 -0.0955 -0.6108
 5852SOL    HW129018   2.109   2.760   3.952  0.2946  0.0785  1.2460
 5852SOL    HW229019   2.062   2.895   3.926 -1.0364  0.1077 -0.7256
 5853SOL     OW29020   2.081   2.761   2.154 -0.7330 -0.4601  0.2802
 5853SOL    HW129021   2.153   2.699   2.167 -0.2989  0.2799  1.3878
 5853SOL    HW229022   2.017   2.718   2.210 -0.3975  0.8019  1.6496
 5854SOL     OW29023   1.429   1.385   3.993  1.2790  0.3831 -0.1230
 5854SOL    HW129024   1.409   1.378   4.087  1.4412 -1.1919 -0.1921
 5854SOL    HW229025   1.411   1.477   3.978  0.2143 -0.0861 -1.6907
 5855SOL     OW29026   2.854   4.092   8.319  0.4389  0.0811  0.3875
 5855SOL    HW129027   2.781   4.152   8.303 -0.6008 -1.3344 -0.1697
 5855SOL    HW229028   2.918   4.134   8.261 -0.3291 -2.0320 -1.9676
 5856SOL     OW29029   3.133   0.248  12.764 -0.0845 -0.3785  0.7597
 5856SOL    HW129030   3.206   0.269  12.823 -1.1512 -0.3002  2.0457
 5856SOL    HW229031   3.145   0.307  12.690  0.0267  0.7042  1.6303
 5857SOL     OW29032   3.191   0.392  13.376 -0.4055  0.4114 -0.2054
 5857SOL    HW129033   3.193   0.422  13.285  1.1749 -0.9043 -0.6199
 5857SOL    HW229034   3.280   0.414  13.405 -1.1067  2.7417  0.2360
 5858SOL     OW29035   3.794   1.244   7.344 -0.1789 -0.2004  0.0988
 5858SOL    HW129036   3.727   1.285   7.289 -0.3504 -0.5937  0.0116
 5858SOL    HW229037   3.806   1.295   7.424 -0.5888 -1.6341  1.0882
 5859SOL     OW29038   4.703   1.428   3.385  0.6087 -0.3000 -0.2367
 5859SOL    HW129039   0.045   1.365   3.354  1.6476 -0.9112  3.2172
 5859SOL    HW229040   0.007   1.451   3.474 -0.1345  1.3841 -0.4385
 5860SOL     OW29041   0.406   2.889  14.647  0.0568 -0.1862 -0.6213
 5860SOL    HW129042   0.406   2.981  14.675  1.7247 -0.1625 -0.6843
 5860SOL    HW229043   0.364   2.903  14.562 -0.0922  1.3223 -0.2920
 5861SOL     OW29044   2.644   4.565  16.769 -0.0521  0.6936 -0.1914
 5861SOL    HW129045   2.570   4.505  16.759  0.2030  0.1777  1.0446
 5861SOL    HW229046   2.613   4.621  16.840 -0.8739 -4.5826  3.6012
 5862SOL     OW29047   1.659   2.356   2.374 -0.2283 -0.6663 -0.1117
 5862SOL    HW129048   1.634   2.410   2.449  1.1150 -0.5138  0.2351
 5862SOL    HW229049   1.745   2.328   2.407 -0.7056 -0.3625  1.3992
 5863SOL     OW29050   0.979   3.041   5.919 -0.2394 -0.1738 -0.2331
 5863SOL    HW129051   0.972   3.132   5.948  1.7022  0.0347 -0.4290
 5863SOL    HW229052   1.073   3.032   5.906 -0.1584  0.0178  0.2310
 5864SOL     OW29053   2.560   1.199   7.492 -0.5091 -0.1601 -0.3810
 5864SOL    HW129054   2.467   1.212   7.474 -0.1390  1.3009 -1.1943
 5864SOL    HW229055   2.571   1.105   7.476 -0.4909  0.1425 -2.2268
 5865SOL     OW29056   1.177   3.211  12.457 -0.7229  0.2931 -0.0209
 5865SOL    HW129057   1.130   3.192  12.377 -1.4365 -0.1803  0.5133
 5865SOL    HW229058   1.142   3.295  12.488  1.1525  0.7979  0.7390
 5866SOL     OW29059   3.838   1.371  10.547  0.4614  0.1142  0.1678
 5866SOL    HW129060   3.857   1.322  10.627 -0.9688  1.1474  1.1400
 5866SOL    HW229061   3.860   1.463  10.565 -1.3915  0.5123  0.4185
 5867SOL     OW29062   3.242   4.200   4.549 -0.4073 -0.3456 -0.0068
 5867SOL    HW129063   3.217   4.272   4.492 -0.2665  1.3618  2.0714
 5867SOL    HW229064   3.235   4.243   4.635  0.9478  0.1927 -0.1671
 5868SOL     OW29065   3.450   0.699  12.795 -0.8128  0.1506  0.2770
 5868SOL    HW129066   3.443   0.611  12.758 -2.7544  1.3116 -2.0642
 5868SOL    HW229067   3.437   0.667  12.884 -1.0833 -0.4907  0.0102
 5869SOL     OW29068   1.805   4.285   0.343  0.7462  0.3347 -0.7600
 5869SOL    HW129069   1.754   4.226   0.398  0.5540  0.0112 -1.2779
 5869SOL    HW229070   1.810   4.239   0.259  2.9187  1.0114 -0.9899
 5870SOL     OW29071   0.438   4.535   6.157 -0.5422 -0.5053  0.3043
 5870SOL    HW129072   0.506   4.597   6.184 -1.7797  0.5244  1.0601
 5870SOL    HW229073   0.426   4.555   6.064 -0.8433 -0.9849  0.2373
 5871SOL     OW29074   3.074   4.390  16.483  0.9544 -0.5918 -0.3487
 5871SOL    HW129075   3.030   4.418  16.402  1.2821 -1.8929 -0.9749
 5871SOL    HW229076   3.002   4.370  16.542 -0.1320 -0.1199 -1.4928
 5872SOL     OW29077   3.808   0.952   5.750 -0.1744  0.2292 -0.0141
 5872SOL    HW129078   3.743   0.931   5.817  0.0627  0.8017  0.3923
 5872SOL    HW229079   3.853   1.013   5.808  0.0231  1.0980 -1.0740
 5873SOL     OW29080   0.180   1.472  16.415  0.4448  0.2572  0.0702
 5873SOL    HW129081   0.270   1.495  16.439  0.8273 -1.3013  0.1077
 5873SOL    HW229082   0.182   1.499  16.323 -2.8534  0.0839 -0.0322
 5874SOL     OW29083   0.314   1.056   5.765 -0.5410 -0.3735 -0.4690
 5874SOL    HW129084   0.363   1.034   5.844  0.6708 -1.9357 -1.6613
 5874SOL    HW229085   0.290   0.970   5.732 -1.0999  0.1221 -1.3731
 5875SOL     OW29086   3.778   3.163   2.648 -0.1591 -0.4289  0.0074
 5875SOL    HW129087   3.753   3.117   2.727 -0.9694 -0.1075 -0.0634
 5875SOL    HW229088   3.821   3.240   2.685 -2.0043  1.2699 -1.3637
 5876SOL     OW29089   0.019   1.977   9.115  0.2397  0.1079  0.3276
 5876SOL    HW129090   4.721   1.920   9.189 -0.9259 -0.5822 -0.5323
 5876SOL    HW229091   0.100   2.026   9.131 -0.3588  2.1283 -2.9078
 5877SOL     OW29092   0.006   2.440   2.242  0.4300  0.5040  0.3850
 5877SOL    HW129093   0.080   2.406   2.192 -0.2693  0.6299 -0.7261
 5877SOL    HW229094   4.651   2.385   2.231 -0.2919  1.1976  1.9597
 5878SOL     OW29095   2.918   1.424   4.821  0.3661  0.5559 -0.2523
 5878SOL    HW129096   2.837   1.474   4.830 -0.4736 -0.9621  0.6120
 5878SOL    HW229097   2.884   1.338   4.845  0.5215  0.7091  0.5286
 5879SOL     OW29098   0.965   2.865  13.669 -0.6292  0.3167  0.1959
 5879SOL    HW129099   0.918   2.947  13.686 -1.0986  0.3664 -1.3382
 5879SOL    HW229100   1.040   2.900  13.717 -1.1302 -0.5302  1.5759
 5880SOL     OW29101   2.357   1.521   1.242  0.7156  0.7411 -0.2306
 5880SOL    HW129102   2.383   1.607   1.277  2.0824  1.0512 -2.0108
 5880SOL    HW229103   2.308   1.549   1.165  1.7282  2.5738 -0.2061
 5881SOL     OW29104   1.517   4.615  11.078 -0.2911  0.3071  0.3063
 5881SOL    HW129105   1.477   4.621  10.991  0.2274  1.4945  0.1496
 5881SOL    HW229106   1.609   4.599  11.059 -0.7215 -2.3043  0.4487
 5882SOL     OW29107   2.399   2.661   8.504 -0.3735  0.0143 -0.1335
 5882SOL    HW129108   2.446   2.604   8.443  1.1098 -0.6011  1.5836
 5882SOL    HW229109   2.310   2.626   8.502  0.1043 -1.1177 -1.3555
 5883SOL     OW29110   3.921   2.630   4.086  0.2821 -0.2572 -0.5221
 5883SOL    HW129111   3.886   2.581   4.011 -0.9584  1.9390 -1.3868
 5883SOL    HW229112   3.845   2.689   4.083  0.2746 -0.3180 -1.7335
 5884SOL     OW29113   2.385   0.160  15.714 -0.0560  0.2101 -0.7999
 5884SOL    HW129114   2.455   0.145  15.650  1.7336 -1.5898  1.5633
 5884SOL    HW229115   2.313   0.137  15.656 -0.8159  2.0421 -0.5976
 5885SOL     OW29116   0.213   0.151   2.622 -0.4786 -0.1235  0.5921
 5885SOL    HW129117   0.144   0.205   2.583 -0.8989  0.4989  2.1911
 5885SOL    HW229118   0.203   0.069   2.573  1.5953 -0.9454  1.5606
 5886SOL     OW29119   3.588   2.958   1.695 -0.5096 -0.2770 -0.4380
 5886SOL    HW129120   3.594   3.042   1.648  1.1972 -0.5729 -0.7468
 5886SOL    HW229121   3.508   2.932   1.651 -1.0952 -0.1222  0.5483
 5887SOL     OW29122   0.997   0.790   9.778 -0.6279 -0.4532 -0.2881
 5887SOL    HW129123   0.927   0.829   9.831 -0.1233 -0.9750  0.7619
 5887SOL    HW229124   0.958   0.707   9.752  0.0557 -1.2886  1.3802
 5888SOL     OW29125   2.881   4.201   3.771  0.0838 -0.0703  0.0283
 5888SOL    HW129126   2.823   4.190   3.846 -1.8262 -3.2371 -1.9584
 5888SOL    HW229127   2.952   4.258   3.803  1.3852 -0.1598 -2.6452
 5889SOL     OW29128   2.759   3.317   6.948  0.2474  0.3926  0.1222
 5889SOL    HW129129   2.685   3.294   6.892  0.7168 -1.6068  0.3167
 5889SOL    HW229130   2.816   3.364   6.888  0.4953 -1.0817 -0.8021
 5890SOL     OW29131   0.036   4.555   5.259  0.3014 -0.2836 -0.0049
 5890SOL    HW129132   4.710   4.482   5.296 -1.5614  0.5174 -0.9203
 5890SOL    HW229133   0.028   4.620   5.328  0.7141 -1.3027  1.0106
 5891SOL     OW29134   4.040   4.498   0.372 -0.2595  0.1115 -0.3506
 5891SOL    HW129135   4.033   4.402   0.368 -0.3353  0.0521  0.9282
 5891SOL    HW229136   4.018   4.513   0.280 -0.0224 -1.1482 -0.6111
 5892SOL     OW29137   3.847   4.215   3.514  0.0501 -0.3337 -0.2092
 5892SOL    HW129138   3.755   4.186   3.512  0.3491 -1.5459  3.1763
 5892SOL    HW229139   3.846   4.252   3.602  0.6251 -0.7587 -0.0262
 5893SOL     OW29140   2.423   1.231   3.007 -0.1524 -0.4878 -0.3789
 5893SOL    HW129141   2.455   1.174   2.936  1.9310  0.3044 -0.0640
 5893SOL    HW229142   2.505   1.277   3.023 -0.1926 -0.3901 -0.4515
 5894SOL     OW29143   2.668   0.425   4.991  0.2656 -0.0376  0.3920
 5894SOL    HW129144   2.750   0.376   4.979 -0.0253 -0.6550  0.9003
 5894SOL    HW229145   2.599   0.359   4.991  0.8677 -0.6682  3.5750
 5895SOL     OW29146   2.480   1.013   2.821 -0.3292 -0.1243 -0.0394
 5895SOL    HW129147   2.505   1.021   2.729  2.6735  1.8082  0.9518
 5895SOL    HW229148   2.540   0.942   2.845 -1.8252 -1.6828 -0.8539
 5896SOL     OW29149   1.983   2.250   7.636 -0.2955  0.2774  0.0963
 5896SOL    HW129150   2.008   2.325   7.689  1.1419  0.0968 -0.3371
 5896SOL    HW229151   1.927   2.292   7.571  0.7205  1.5051  0.0235
 5897SOL     OW29152   0.692   1.484   5.726 -0.0334 -0.7193 -0.5829
 5897SOL    HW129153   0.764   1.484   5.662  0.4270 -1.4178 -0.0677
 5897SOL    HW229154   0.641   1.404   5.713 -0.4247 -0.5798  0.1253
 5898SOL     OW29155   3.134   2.471   7.783 -0.8315  0.0566 -0.0149
 5898SOL    HW129156   3.069   2.451   7.715 -2.3414  2.9218  0.5825
 5898SOL    HW229157   3.073   2.477   7.856 -0.0755  1.8332  0.4817
 5899SOL     OW29158   1.999   4.591   3.773 -0.4731 -0.1987 -0.0039
 5899SOL    HW129159   1.912   4.565   3.805 -0.8894  0.9055 -0.2352
 5899SOL    HW229160   2.020   4.525   3.707 -1.5473  0.2692 -0.8281
 5900SOL     OW29161   3.322   3.081   5.259  0.0884 -0.0993 -0.1897
 5900SOL    HW129162   3.265   3.136   5.312 -2.3195 -1.9465 -0.8457
 5900SOL    HW229163   3.265   3.029   5.202 -0.0581  1.7328 -1.7307
 5901SOL     OW29164   0.306   3.865   3.107  0.3851 -0.0588  0.7771
 5901SOL    HW129165   0.288   3.794   3.046 -0.2875  0.9285 -0.1859
 5901SOL    HW229166   0.272   3.940   3.058 -2.4732 -0.9639  1.3844
 5902SOL     OW29167   4.294   2.946   1.238  0.3615 -0.2546 -0.5155
 5902SOL    HW129168   4.370   2.978   1.189 -0.4361  0.6987 -1.1073
 5902SOL    HW229169   4.224   2.994   1.196 -1.1346 -2.9642 -1.1317
 5903SOL     OW29170   0.517   4.000   3.847  0.0280  0.1336  0.2105
 5903SOL    HW129171   0.558   3.915   3.831 -0.4265 -0.3521  1.6204
 5903SOL    HW229172   0.561   4.048   3.917 -0.0852  0.5132  0.0181
 5904SOL     OW29173   1.610   3.665  17.077 -0.5040 -0.1010 -0.5006
 5904SOL    HW129174   1.548   3.619  17.021 -1.7396  1.4687 -0.4096
 5904SOL    HW229175   1.678   3.598  17.084 -0.3040  0.1559  0.0480
 5905SOL     OW29176   1.429   4.343  10.266  0.1037  0.3706 -0.2949
 5905SOL    HW129177   1.383   4.316  10.345 -0.1061 -0.5678 -0.7365
 5905SOL    HW229178   1.404   4.435  10.260 -0.9777  0.0693 -0.4558
 5906SOL     OW29179   3.471   2.886   7.571 -0.4812  0.1416 -0.6193
 5906SOL    HW129180   3.563   2.886   7.545  0.0103 -1.8672  1.1374
 5906SOL    HW229181   3.430   2.941   7.504  0.6555  0.2051 -1.2660
 5907SOL     OW29182   1.379   3.228   1.541 -0.1657  0.1872 -0.1438
 5907SOL    HW129183   1.344   3.316   1.524  0.0142  0.4291  0.7567
 5907SOL    HW229184   1.470   3.253   1.529 -0.4832  0.6500 -1.6878
 5908SOL     OW29185   0.242   0.176   3.213 -0.6172  0.1389  0.7558
 5908SOL    HW129186   0.247   0.152   3.120  0.4386  1.8530  0.3468
 5908SOL    HW229187   0.176   0.244   3.200  0.8928  1.4855  0.0589
 5909SOL     OW29188   2.514   3.118   1.269 -0.3604  0.3109  0.0003
 5909SOL    HW129189   2.534   3.102   1.177 -0.3607 -0.5840  0.1557
 5909SOL    HW229190   2.601   3.114   1.308  0.1392 -0.5684 -1.2008
 5910SOL     OW29191   0.156   3.538  15.841  0.2883  0.2335 -0.5711
 5910SOL    HW129192   0.157   3.459  15.896  4.2407  0.7253  0.0765
 5910SOL    HW229193   0.063   3.557  15.826 -0.0582  1.4675  3.0190
 5911SOL     OW29194   1.753   0.101  13.634 -0.0408 -0.1696 -0.2928
 5911SOL    HW129195   1.700   0.054  13.698 -2.6879  3.5411  0.2420
 5911SOL    HW229196   1.839   0.087  13.672  0.1806  1.0528 -0.3660
 5912SOL     OW29197   1.778   3.726   6.783  0.0469 -0.8495  0.4317
 5912SOL    HW129198   1.868   3.750   6.763  0.0450 -1.0442  0.1937
 5912SOL    HW229199   1.765   3.634   6.759  0.6128 -0.5950 -0.7944
 5913SOL     OW29200   1.114   0.112   4.435  0.1134  0.0171 -0.7870
 5913SOL    HW129201   1.145   0.145   4.350  0.1442 -1.7917 -1.4814
 5913SOL    HW229202   1.180   0.047   4.459  1.4199  1.4586 -0.4730
 5914SOL     OW29203   3.402   1.469   4.145  0.3946 -0.1185 -0.7358
 5914SOL    HW129204   3.345   1.432   4.077 -1.1719 -2.2849  1.7301
 5914SOL    HW229205   3.444   1.536   4.091  2.7876 -1.3450 -0.3988
 5915SOL     OW29206   1.972   1.744   2.063 -0.0751  0.6234 -0.1916
 5915SOL    HW129207   1.906   1.687   2.025  0.8763  0.0711 -0.9929
 5915SOL    HW229208   2.021   1.777   1.988 -3.9673  1.2042 -2.5163
 5916SOL     OW29209   1.821   3.223   7.285 -0.2557 -0.0706  0.0738
 5916SOL    HW129210   1.912   3.236   7.310  0.1101 -0.2000 -1.2059
 5916SOL    HW229211   1.775   3.265   7.358  1.8811 -0.5257  1.6671
 5917SOL     OW29212   3.254   3.943   5.767  0.3514 -0.3910  0.0552
 5917SOL    HW129213   3.292   3.972   5.850 -1.9497 -0.2027  1.0480
 5917SOL    HW229214   3.299   3.859   5.758 -0.4602 -0.7520 -0.6682
 5918SOL     OW29215   1.557   1.639   3.680  0.7694 -0.7735  0.0249
 5918SOL    HW129216   1.550   1.562   3.623 -1.1567 -0.4113 -0.2298
 5918SOL    HW229217   1.565   1.706   3.613  1.2070 -0.7184  0.1309
 5919SOL     OW29218   4.091   3.622   7.734  0.6280 -0.6991  0.0422
 5919SOL    HW129219   4.116   3.663   7.651  0.4786  0.2630  0.4668
 5919SOL    HW229220   4.005   3.665   7.738  0.5169 -1.0654  1.4787
 5920SOL     OW29221   2.660   4.291   4.020 -0.4259  0.2993 -0.2247
 5920SOL    HW129222   2.722   4.362   4.037  1.6445 -1.4062 -0.6899
 5920SOL    HW229223   2.715   4.213   4.023  0.6899  1.1498  1.6410
 5921SOL     OW29224   1.855   0.578   6.245 -0.1139 -0.5036  0.4438
 5921SOL    HW129225   1.904   0.615   6.172  0.3353 -3.4708 -0.7496
 5921SOL    HW229226   1.796   0.526   6.191  1.4197 -3.2011  1.3459
 5922SOL     OW29227   2.850   2.584   6.030  0.1334 -0.5308 -0.2477
 5922SOL    HW129228   2.910   2.653   6.061 -2.2575  0.3629  2.3719
 5922SOL    HW229229   2.773   2.580   6.087 -0.8294  2.0332 -1.3724
 5923SOL     OW29230   3.484   2.281   4.042 -0.3175  0.2307 -0.1105
 5923SOL    HW129231   3.445   2.210   3.990  1.5589 -0.0695 -1.0988
 5923SOL    HW229232   3.545   2.315   3.976 -1.6769  2.9072 -0.0305
 5924SOL     OW29233   2.553   0.902   5.954 -0.1001 -0.2899  0.3161
 5924SOL    HW129234   2.594   0.989   5.957 -0.6246  0.0375 -2.1205
 5924SOL    HW229235   2.594   0.867   6.033 -0.2481 -1.1353  0.0108
 5925SOL     OW29236   1.846   0.032   7.512  0.0344  0.0475  0.2360
 5925SOL    HW129237   1.865   0.106   7.455  0.5941  0.1647  0.5774
 5925SOL    HW229238   1.754   0.016   7.490  0.1834 -0.4632 -0.0231
 5926SOL     OW29239   0.554   0.095   3.646  0.6171  0.6966 -0.0226
 5926SOL    HW129240   0.594   0.159   3.587  1.2659  0.3016 -0.0010
 5926SOL    HW229241   0.571   0.134   3.731  0.8025  0.6190 -0.0240
 5927SOL     OW29242   0.644   4.040   2.415 -0.1789  0.4441  0.0623
 5927SOL    HW129243   0.584   4.052   2.489 -2.2227 -0.4543 -1.4326
 5927SOL    HW229244   0.598   3.962   2.383  1.7968 -0.1889 -1.2414
 5928SOL     OW29245   2.066   3.645  10.729  1.1077  0.1516  0.3332
 5928SOL    HW129246   1.978   3.624  10.697  1.2882  0.6350 -0.4748
 5928SOL    HW229247   2.066   3.589  10.806 -0.4750 -3.8265 -2.5314
 5929SOL     OW29248   1.740   2.515   7.424 -0.1791 -0.1398 -0.2220
 5929SOL    HW129249   1.656   2.493   7.382 -2.1970  1.1653  3.1453
 5929SOL    HW229250   1.800   2.449   7.389  1.1665  1.0351 -0.1066
 5930SOL     OW29251   2.542   1.224   7.791  0.2848  0.0329  0.1574
 5930SOL    HW129252   2.539   1.239   7.696  0.3317 -1.4934 -0.0818
 5930SOL    HW229253   2.450   1.218   7.818 -0.4990  2.6850 -1.8788
 5931SOL     OW29254   0.323   3.335   0.391  0.3348  0.1031  0.3154
 5931SOL    HW129255   0.244   3.380   0.422  0.8226  1.0427  0.1852
 5931SOL    HW229256   0.284   3.249   0.378 -1.5424  0.7078  1.9289
 5932SOL     OW29257   2.459   1.293   0.744 -0.3027 -0.0405 -0.5091
 5932SOL    HW129258   2.406   1.311   0.822  0.7653  3.2589 -0.5752
 5932SOL    HW229259   2.548   1.309   0.775  0.2821 -1.7029 -1.3421
 5933SOL     OW29260   2.512   0.846   5.530  0.3272 -0.0562  0.3632
 5933SOL    HW129261   2.569   0.923   5.539  0.3077 -0.3689  3.1064
 5933SOL    HW229262   2.532   0.788   5.604  2.3201  0.0186 -0.1161
 5934SOL     OW29263   4.452   2.351   5.826 -0.2793  0.3677 -0.2062
 5934SOL    HW129264   4.498   2.281   5.872 -0.4487 -0.3226 -1.0949
 5934SOL    HW229265   4.516   2.419   5.846 -1.0675  1.0904 -0.1221
 5935SOL     OW29266   2.256   4.671  11.718  0.2236 -0.0055  0.5417
 5935SOL    HW129267   2.268   0.025  11.774  2.8602 -0.5434  0.7322
 5935SOL    HW229268   2.160   4.675  11.713  0.3030 -1.7887 -2.5561
 5936SOL     OW29269   3.975   1.164   6.676  0.7489 -0.4452  0.2494
 5936SOL    HW129270   3.988   1.253   6.711 -1.4305  0.4042 -1.0953
 5936SOL    HW229271   4.034   1.115   6.734 -0.7350  0.3380  2.4457
 5937SOL     OW29272   3.729   1.619   2.084 -0.8082 -0.3824 -0.0741
 5937SOL    HW129273   3.743   1.666   2.001  0.6570 -0.1513  0.2997
 5937SOL    HW229274   3.639   1.640   2.110 -0.4635  1.8023 -0.6714
 5938SOL     OW29275   3.525   0.528  13.296  0.0634 -0.3035  0.8529
 5938SOL    HW129276   3.507   0.458  13.233 -1.0171  0.1512  0.6637
 5938SOL    HW229277   3.504   0.472  13.371  1.6267 -3.3051 -0.9266
 5939SOL     OW29278   1.128   1.580  15.637 -1.1432  0.0977  0.0162
 5939SOL    HW129279   1.038   1.586  15.603 -1.6566  0.4478  1.4483
 5939SOL    HW229280   1.138   1.491  15.669  0.0138  0.4961  0.7335
 5940SOL     OW29281   3.582   4.141   9.402 -0.3923  0.2380 -0.2874
 5940SOL    HW129282   3.589   4.193   9.481 -2.4801  1.1492 -0.7086
 5940SOL    HW229283   3.575   4.054   9.441  1.3111  0.7008  1.0555
 5941SOL     OW29284   0.248   1.362   7.634  0.2379 -0.0318 -0.0322
 5941SOL    HW129285   0.212   1.428   7.693  1.3652 -0.6573  1.3755
 5941SOL    HW229286   0.340   1.382   7.613  1.1248 -2.5399  1.5256
 5942SOL     OW29287   0.450   0.635   9.277  0.3690  0.0190 -0.0692
 5942SOL    HW129288   0.443   0.627   9.372  0.0668  1.2935  0.0269
 5942SOL    HW229289   0.533   0.682   9.270 -0.1927  1.3437  2.0815
 5943SOL     OW29290   3.579   0.987  13.397 -0.2487  0.3616  0.2517
 5943SOL    HW129291   3.495   1.032  13.388 -0.0597  0.8559  0.9425
 5943SOL    HW229292   3.553   0.900  13.366  1.0750  1.7650 -4.7556
 5944SOL     OW29293   2.012   0.602   6.016  0.7882  0.2328 -0.2983
 5944SOL    HW129294   1.999   0.679   5.960  0.2347 -1.6197 -2.7236
 5944SOL    HW229295   2.107   0.589   6.016  0.6126 -1.0445  0.2338
 5945SOL     OW29296   1.014   4.554   3.517 -0.6239  0.3308  0.4601
 5945SOL    HW129297   1.037   4.599   3.436  1.1516 -2.4457 -0.5864
 5945SOL    HW229298   0.950   4.495   3.477 -0.8031  1.3647 -0.7776
 5946SOL     OW29299   1.895   3.419   1.452  0.2576 -0.2798 -0.0825
 5946SOL    HW129300   1.867   3.488   1.511  0.7249 -0.3763  0.2446
 5946SOL    HW229301   1.976   3.459   1.421  0.6695 -2.4870 -1.8505
 5947SOL     OW29302   4.120   0.718   5.994  0.0395  0.3308 -0.0989
 5947SOL    HW129303   4.083   0.740   6.079 -0.4066  1.0801 -0.4880
 5947SOL    HW229304   4.165   0.635   6.010 -2.4640 -0.3553  3.3588
 5948SOL     OW29305   3.229   2.272   9.633 -0.4602  0.3339  0.2882
 5948SOL    HW129306   3.291   2.289   9.562 -0.7778  1.3838  0.2528
 5948SOL    HW229307   3.165   2.209   9.600  0.3633 -1.1159  1.4500
 5949SOL     OW29308   2.127   2.555   5.047  0.3460  0.4092  0.1668
 5949SOL    HW129309   2.206   2.526   5.003 -0.2233 -1.2487  0.2571
 5949SOL    HW229310   2.110   2.631   4.991 -2.0240 -1.5310 -1.7396
 5950SOL     OW29311   1.013   0.116   3.970  0.3308  0.4751  0.3432
 5950SOL    HW129312   0.919   0.115   3.990  0.2939 -1.1428  0.1331
 5950SOL    HW229313   0.999   0.070   3.888 -0.9852  1.4300  0.0338
 5951SOL     OW29314   2.327   1.757   5.588  0.0355 -0.7739  0.0092
 5951SOL    HW129315   2.235   1.772   5.612  0.0236 -0.8878  0.0375
 5951SOL    HW229316   2.321   1.737   5.494  1.3819  3.0107 -0.8439
 5952SOL     OW29317   0.513   1.430   8.199  0.2531 -0.1461 -0.2761
 5952SOL    HW129318   0.419   1.444   8.189  0.4216  0.3372 -1.1863
 5952SOL    HW229319   0.549   1.519   8.197  1.8274 -0.7773 -0.2270
 5953SOL     OW29320   2.208   2.151   6.091  0.2274  0.8235 -0.2271
 5953SOL    HW129321   2.198   2.225   6.031  1.9658  2.3851  1.4089
 5953SOL    HW229322   2.298   2.164   6.120 -0.6224  2.9801  1.4757
 5954SOL     OW29323   1.291   1.174   8.986 -0.3923 -0.0363  0.0206
 5954SOL    HW129324   1.290   1.147   9.078 -1.8126 -0.5365 -0.1340
 5954SOL    HW229325   1.370   1.126   8.964  0.8511  1.2872  1.5649
 5955SOL     OW29326   2.282   4.212  12.005  0.5628 -0.2319  0.3604
 5955SOL    HW129327   2.304   4.266  11.929 -0.7392 -1.1868 -0.7109
 5955SOL    HW229328   2.187   4.222  12.000  0.4505 -0.4443  2.0887
 5956SOL     OW29329   2.040   1.112  17.341 -0.0918  0.1903 -0.1234
 5956SOL    HW129330   2.001   1.199  17.351  0.4163  0.4164 -0.1269
 5956SOL    HW229331   1.996   1.084  17.261 -1.6430  1.9308  0.1322
 5957SOL     OW29332   2.118   1.429   0.738 -0.0077 -0.0864 -0.4611
 5957SOL    HW129333   2.152   1.457   0.653 -0.1889  1.7744  0.0684
 5957SOL    HW229334   2.086   1.510   0.777  2.1004  0.6362 -0.2149
 5958SOL     OW29335   0.403   2.960   4.700 -0.3055 -0.6560  0.7422
 5958SOL    HW129336   0.363   3.042   4.726  1.0840  0.1334  0.4133
 5958SOL    HW229337   0.456   2.984   4.624 -0.6785  0.9409  0.9964
 5959SOL     OW29338   2.289   4.602  11.413  1.0883  0.5350  0.1626
 5959SOL    HW129339   2.245   4.686  11.427 -1.1956 -0.6599  0.2278
 5959SOL    HW229340   2.252   4.572  11.329  1.2953 -1.7640  0.8919
 5960SOL     OW29341   0.737   3.223  12.065  0.0461 -0.0584 -0.0097
 5960SOL    HW129342   0.796   3.257  11.997 -0.9952 -2.8446 -2.3173
 5960SOL    HW229343   0.666   3.287  12.066 -2.8762 -3.3320  0.9598
 5961SOL     OW29344   3.949   2.849   5.309 -0.2260 -0.4382  0.1159
 5961SOL    HW129345   4.037   2.885   5.311 -0.3039 -0.2098 -0.9673
 5961SOL    HW229346   3.933   2.878   5.220  0.7751  0.7072  0.3074
 5962SOL     OW29347   3.178   3.114   6.861  0.0554  0.3335  0.2380
 5962SOL    HW129348   3.195   3.020   6.865 -0.3265  0.1666 -1.6381
 5962SOL    HW229349   3.182   3.132   6.767  0.9302 -0.5072  0.1093
 5963SOL     OW29350   2.596   1.464  11.584  0.2069  0.0001  0.0757
 5963SOL    HW129351   2.584   1.445  11.677  0.5378 -1.8124 -0.2457
 5963SOL    HW229352   2.658   1.394  11.562 -0.9577 -1.2261  0.6466
 5964SOL     OW29353   0.210   2.605   5.602 -0.0362  0.1862  0.9770
 5964SOL    HW129354   0.127   2.643   5.629 -0.4937  2.5634 -3.8278
 5964SOL    HW229355   0.187   2.522   5.644  2.0479 -1.4211 -1.0756
 5965SOL     OW29356   1.130   2.686   4.655  0.4517 -0.4476 -0.3603
 5965SOL    HW129357   1.203   2.742   4.682 -1.9828  2.3471  0.4017
 5965SOL    HW229358   1.055   2.742   4.677  1.0878 -0.6901  2.4955
 5966SOL     OW29359   2.555   3.757   5.357 -0.7425 -0.4186 -0.3788
 5966SOL    HW129360   2.497   3.746   5.282 -3.1614  2.7510  1.0233
 5966SOL    HW229361   2.569   3.851   5.353 -2.0912 -0.2004 -0.2180
 5967SOL     OW29362   1.662   3.048   1.533 -0.3084 -0.0013 -0.1159
 5967SOL    HW129363   1.653   2.990   1.457 -1.8693 -1.1152  0.9105
 5967SOL    HW229364   1.648   3.132   1.489  2.3659  0.7359  0.4816
 5968SOL     OW29365   3.503   2.280  12.420 -0.5025 -0.2685  0.0611
 5968SOL    HW129366   3.534   2.335  12.492  0.8260  0.8817 -1.3808
 5968SOL    HW229367   3.588   2.239  12.405  1.0042  3.1079 -0.6440
 5969SOL     OW29368   1.084   3.558   5.109 -0.4910  0.3111 -0.0886
 5969SOL    HW129369   1.052   3.609   5.184 -0.6381 -0.2914  0.2629
 5969SOL    HW229370   1.129   3.484   5.151 -2.6433 -1.6917 -1.3117
 5970SOL     OW29371   1.677   1.305   8.802 -0.1608 -0.2571 -0.1596
 5970SOL    HW129372   1.725   1.310   8.885  0.8238  0.8562 -0.7904
 5970SOL    HW229373   1.660   1.211   8.794  3.7175 -1.0551  0.6552
 5971SOL     OW29374   4.409   3.101   4.546 -0.7754  0.1170 -0.4908
 5971SOL    HW129375   4.313   3.096   4.545 -0.6664 -2.0899 -0.1397
 5971SOL    HW229376   4.425   3.113   4.453  0.3550 -0.5942 -0.3853
 5972SOL     OW29377   0.907   4.118  16.003  0.1375 -0.2090  0.2717
 5972SOL    HW129378   0.821   4.151  16.028  0.6956  0.3751  1.3971
 5972SOL    HW229379   0.958   4.198  16.014  0.3366 -0.2894 -0.0662
 5973SOL     OW29380   4.562   0.733   2.090  0.2268 -0.2973  0.2821
 5973SOL    HW129381   4.641   0.734   2.036  1.0048  3.1831  1.4416
 5973SOL    HW229382   4.565   0.652   2.141 -0.7156 -1.8625 -2.1584
 5974SOL     OW29383   4.467   0.959   8.829 -0.0943  0.3472 -0.4349
 5974SOL    HW129384   4.405   0.935   8.897  3.2612 -0.4372  2.3432
 5974SOL    HW229385   4.485   1.050   8.851  0.5162  0.0760  0.1879
 5975SOL     OW29386   4.194   2.464  13.319 -0.0056  0.0366 -0.5858
 5975SOL    HW129387   4.154   2.405  13.382 -3.0438  3.0291  0.2985
 5975SOL    HW229388   4.168   2.551  13.349 -1.9412 -1.1882  1.2383
 5976SOL     OW29389   2.839   0.441  14.544  0.2403 -0.2427 -0.4216
 5976SOL    HW129390   2.909   0.503  14.566 -0.1902  0.7155 -1.7248
 5976SOL    HW229391   2.888   0.361  14.563  0.6478 -0.4319 -2.2117
 5977SOL     OW29392   3.091   4.109   5.568  0.3194  0.4276  0.1645
 5977SOL    HW129393   3.036   4.040   5.533  2.2465 -0.2176 -1.6178
 5977SOL    HW229394   3.137   4.053   5.630  0.5528 -0.9884 -1.2857
 5978SOL     OW29395   1.469   1.459   7.670 -0.5088 -0.2280  0.1012
 5978SOL    HW129396   1.384   1.504   7.670 -0.5648 -0.3322 -0.4760
 5978SOL    HW229397   1.519   1.540   7.677 -1.4257  0.1106  2.7101
 5979SOL     OW29398   4.426   4.039  15.161 -0.6093  0.3913 -0.1511
 5979SOL    HW129399   4.358   4.105  15.179 -0.1148  0.6605  0.7113
 5979SOL    HW229400   4.496   4.098  15.131  0.1653 -0.1136  0.6910
 5980SOL     OW29401   3.509   2.894  13.237  0.6921  0.1972 -0.4262
 5980SOL    HW129402   3.490   2.867  13.327  3.1396  1.9004  0.5852
 5980SOL    HW229403   3.423   2.934  13.223 -0.5228 -1.7671  1.2788
 5981SOL     OW29404   2.948   3.723   2.951 -0.7543 -0.2887  0.3196
 5981SOL    HW129405   2.903   3.799   2.988  0.2878 -0.0372  1.0792
 5981SOL    HW229406   2.925   3.714   2.858  1.3042 -0.5423 -0.1773
 5982SOL     OW29407   3.901   1.795   5.251  0.0168  0.2943  0.1332
 5982SOL    HW129408   3.853   1.762   5.175  0.5781 -0.1642 -0.0218
 5982SOL    HW229409   3.834   1.805   5.318  1.0524 -2.1672  1.5637
 5983SOL     OW29410   0.664   0.911   3.249 -0.4554 -0.0752  0.1832
 5983SOL    HW129411   0.587   0.930   3.195  1.0941  2.3412 -1.1883
 5983SOL    HW229412   0.732   0.898   3.183  0.3072  2.2326  0.5204
 5984SOL     OW29413   1.544   1.217   6.589  1.1661 -0.3863  0.2089
 5984SOL    HW129414   1.460   1.187   6.624  0.9458 -1.2329 -1.0667
 5984SOL    HW229415   1.598   1.139   6.595 -0.1865 -1.1811  2.1408
 5985SOL     OW29416   3.356   3.588   4.367  0.2155 -0.2760 -0.3387
 5985SOL    HW129417   3.384   3.589   4.458  0.4608  1.3558 -0.4392
 5985SOL    HW229418   3.418   3.524   4.333 -0.7103 -1.6973  0.6389
 5986SOL     OW29419   0.299   0.917   6.971 -0.1572  0.2155 -0.0172
 5986SOL    HW129420   0.294   0.823   6.956  1.9023  0.0159  0.6046
 5986SOL    HW229421   0.213   0.947   6.942 -0.4616 -0.7088 -0.0598
 5987SOL     OW29422   2.704   3.508   5.830 -0.1399  0.2499  0.4098
 5987SOL    HW129423   2.700   3.413   5.836 -4.6594  0.5331  2.0845
 5987SOL    HW229424   2.689   3.524   5.737  1.2237  0.9270  0.3079
 5988SOL     OW29425   3.851   3.167   5.315  0.3896 -0.1285  0.2965
 5988SOL    HW129426   3.789   3.125   5.256 -0.6289 -1.1133  2.0588
 5988SOL    HW229427   3.861   3.103   5.385 -2.5704 -0.7793  0.1102
 5989SOL     OW29428   4.439   0.481   3.163 -0.3812 -0.1592  0.5496
 5989SOL    HW129429   4.527   0.512   3.143 -0.6018 -0.0857 -0.3108
 5989SOL    HW229430   4.418   0.558   3.217 -0.6634  0.5158 -0.5093
 5990SOL     OW29431   0.620   0.417   9.506 -0.4410 -0.0942 -0.6918
 5990SOL    HW129432   0.589   0.342   9.557 -0.7523  0.5538  0.0667
 5990SOL    HW229433   0.568   0.485   9.549  1.3398  1.9785 -1.8569
 5991SOL     OW29434   1.984   0.045  10.859  0.2157 -0.0392 -0.1756
 5991SOL    HW129435   1.959   0.115  10.920 -1.1480 -0.4197 -0.2965
 5991SOL    HW229436   1.915   4.706  10.883  0.3088 -0.3927 -0.8429
 5992SOL     OW29437   0.308   4.254   6.453 -0.1401 -0.0989  0.2394
 5992SOL    HW129438   0.399   4.278   6.472 -0.8978  0.3638  3.2502
 5992SOL    HW229439   0.313   4.167   6.411  4.2248 -0.2716  1.0303
 5993SOL     OW29440   2.878   1.627   2.575 -0.5138  0.4249 -0.1578
 5993SOL    HW129441   2.910   1.625   2.485  0.5874  1.7849  0.1931
 5993SOL    HW229442   2.789   1.656   2.556  0.0201  3.7040  2.2976
 5994SOL     OW29443   2.020   2.394   4.127 -0.2278  0.8748 -0.4585
 5994SOL    HW129444   2.069   2.346   4.061  0.1787 -0.4622  0.7989
 5994SOL    HW229445   1.981   2.326   4.182 -1.1158  2.6469  1.0991
 5995SOL     OW29446   2.736   3.599  10.552 -0.5259 -0.0390 -0.0226
 5995SOL    HW129447   2.764   3.681  10.593 -0.1015 -0.8079  1.2165
 5995SOL    HW229448   2.655   3.633  10.514  0.1096 -0.3973 -1.7268
 5996SOL     OW29449   0.346   4.481   9.111  0.3707  0.3360 -0.7032
 5996SOL    HW129450   0.420   4.538   9.091  0.5432  0.8862  1.4625
 5996SOL    HW229451   0.291   4.487   9.033 -2.6864  0.3320  1.4421
 5997SOL     OW29452   3.115   0.898   4.944  0.0390 -0.5814 -0.2018
 5997SOL    HW129453   3.074   0.839   5.007 -1.4120  0.7844  0.1410
 5997SOL    HW229454   3.180   0.950   4.991 -1.2377 -0.3931  1.3378
 5998SOL     OW29455   4.257   2.316  16.777 -0.0742 -0.5367 -0.1829
 5998SOL    HW129456   4.208   2.394  16.750 -2.2894 -2.1747 -0.9776
 5998SOL    HW229457   4.184   2.268  16.816 -0.9530  0.8819 -0.0841
 5999SOL     OW29458   4.309   0.754   8.068 -0.5856 -0.1707  0.2969
 5999SOL    HW129459   4.298   0.827   8.129  0.1672 -0.2589  0.5430
 5999SOL    HW229460   4.321   0.692   8.140  1.3530 -2.1607 -1.7880
 6000SOL     OW29461   1.971   1.850  15.843 -0.1480  0.6301  0.2111
 6000SOL    HW129462   2.003   1.937  15.818  0.7343  0.5263  0.9699
 6000SOL    HW229463   1.895   1.874  15.896 -0.1702  0.8362  0.0839
 6001SOL     OW29464   0.121   0.519   5.391 -0.1092 -0.3965 -0.1099
 6001SOL    HW129465   0.099   0.433   5.426  0.5956 -0.0006  1.3198
 6001SOL    HW229466   0.103   0.490   5.302 -1.9713  0.7353 -0.1153
 6002SOL     OW29467   0.297   2.628   6.855  0.2038 -0.6334  0.2412
 6002SOL    HW129468   0.327   2.718   6.840  0.3854 -1.0336 -1.7319
 6002SOL    HW229469   0.366   2.581   6.809  0.6293  0.9597 -0.7571
 6003SOL     OW29470   1.218   2.243   2.658  0.6356 -0.2351 -0.2437
 6003SOL    HW129471   1.296   2.194   2.686 -0.0733 -0.6991  0.9075
 6003SOL    HW229472   1.240   2.335   2.673  0.2156 -0.2057  0.1764
 6004SOL     OW29473   4.689   4.284   2.783 -0.0383  0.2375 -0.3147
 6004SOL    HW129474   0.007   4.368   2.805  0.7774 -0.4303  0.7090
 6004SOL    HW229475   4.622   4.320   2.724  0.5504  0.2275 -0.9956
 6005SOL     OW29476   0.432   0.303   9.236  0.1142  0.0823 -0.2235
 6005SOL    HW129477   0.389   0.307   9.321  0.2317 -1.8433 -0.0800
 6005SOL    HW229478   0.462   0.392   9.217  1.6323 -0.4391 -0.2929
 6006SOL     OW29479   2.167   2.817  10.977 -0.1587  0.0181 -0.2481
 6006SOL    HW129480   2.255   2.827  11.014 -0.1687 -0.1712 -0.1780
 6006SOL    HW229481   2.150   2.904  10.941  1.1284  0.7401  0.8769
 6007SOL     OW29482   2.028   2.538   4.350  0.3772 -0.0221 -0.7007
 6007SOL    HW129483   1.959   2.604   4.341 -0.3172 -0.8916 -1.8053
 6007SOL    HW229484   2.034   2.500   4.262  1.5445 -0.5797 -0.3839
 6008SOL     OW29485   0.970   0.518   8.577 -0.0771 -0.2280 -0.2510
 6008SOL    HW129486   1.011   0.536   8.662  0.8478 -0.0061 -0.7360
 6008SOL    HW229487   0.986   0.424   8.569 -0.8114 -0.3551 -0.1999
 6009SOL     OW29488   1.677   2.413   8.839  0.1944  0.1620  0.1424
 6009SOL    HW129489   1.585   2.412   8.864 -0.4474 -1.8642 -2.2745
 6009SOL    HW229490   1.677   2.368   8.755  0.8168 -0.8977  0.7123
 6010SOL     OW29491   4.293   0.716   3.246 -0.1900 -0.0289 -0.4683
 6010SOL    HW129492   4.244   0.785   3.201 -1.0308 -2.2341 -2.9075
 6010SOL    HW229493   4.347   0.773   3.300 -0.0597 -1.3584  0.7922
 6011SOL     OW29494   2.782   1.295   3.612  0.0880  0.4673  0.1136
 6011SOL    HW129495   2.773   1.377   3.661  3.1750  0.2919  0.9589
 6011SOL    HW229496   2.875   1.275   3.624 -0.3292 -0.6530  1.5299
 6012SOL     OW29497   1.854   3.630  10.583  0.2795 -0.5302  0.4802
 6012SOL    HW129498   1.844   3.604  10.491  0.8766 -3.0236  1.1221
 6012SOL    HW229499   1.835   3.544  10.621  0.4445 -1.0979 -0.7143
 6013SOL     OW29500   2.860   1.436   7.766  0.1663 -0.2019  0.5794
 6013SOL    HW129501   2.953   1.454   7.774  0.3417 -0.1013 -1.6670
 6013SOL    HW229502   2.857   1.405   7.675  0.2350 -1.4824  1.0132
 6014SOL     OW29503   1.402   0.929   2.575 -0.1027 -0.6902 -0.6272
 6014SOL    HW129504   1.319   0.896   2.541 -0.5570 -0.7783  0.5656
 6014SOL    HW229505   1.458   0.854   2.557  1.2223 -0.2666  1.7198
 6015SOL     OW29506   4.602   0.420   9.228  0.2216  0.2376  0.2929
 6015SOL    HW129507   4.685   0.407   9.182 -0.1390  3.0311 -1.1201
 6015SOL    HW229508   4.559   0.489   9.178  2.0709  0.4675 -0.9999
 6016SOL     OW29509   0.503   3.704   7.988 -0.0799 -0.0211 -0.2600
 6016SOL    HW129510   0.597   3.690   7.989 -0.4229 -2.1487  1.1232
 6016SOL    HW229511   0.497   3.730   7.896 -0.8731  1.0352  0.0880
 6017SOL     OW29512   4.282   2.146  13.387 -0.4153  0.1467 -0.1122
 6017SOL    HW129513   4.301   2.201  13.464 -1.9772  0.0320  0.3580
 6017SOL    HW229514   4.216   2.085  13.419  1.6060 -0.8280  2.1503
 6018SOL     OW29515   0.649   4.184   9.016 -0.2297 -0.1074 -0.0497
 6018SOL    HW129516   0.684   4.230   9.093 -1.1936 -0.4971  0.6229
 6018SOL    HW229517   0.650   4.092   9.044 -0.6723 -0.2488 -0.4985
 6019SOL     OW29518   2.463   2.496   6.602 -0.4413 -0.1061 -0.3033
 6019SOL    HW129519   2.532   2.513   6.538 -3.3588  1.9565 -2.9101
 6019SOL    HW229520   2.440   2.408   6.574 -1.3332 -0.5626  1.8628
 6020SOL     OW29521   0.697   2.667   7.852 -0.2667  0.1598 -0.0032
 6020SOL    HW129522   0.782   2.658   7.809 -0.0747  0.4910  0.3026
 6020SOL    HW229523   0.720   2.734   7.917  0.3696 -0.5650  0.5231
 6021SOL     OW29524   0.358   4.250  10.971  0.0949  0.1333  0.0967
 6021SOL    HW129525   0.269   4.277  10.950  0.7100  1.2618 -1.0655
 6021SOL    HW229526   0.348   4.158  10.995  3.0059 -0.4102 -0.8190
 6022SOL     OW29527   2.681   1.055   5.548 -0.2079 -0.1916 -0.3274
 6022SOL    HW129528   2.776   1.052   5.561 -0.1429  1.5235 -0.4597
 6022SOL    HW229529   2.657   1.137   5.590 -0.1036  0.1983 -1.0281
 6023SOL     OW29530   1.932   2.483   6.037  0.0493  0.7735  0.1323
 6023SOL    HW129531   1.872   2.553   6.014  0.4604  1.2181  0.4074
 6023SOL    HW229532   1.888   2.448   6.115  1.0310 -0.9116 -0.0738
 6024SOL     OW29533   2.502   2.433   5.825 -0.1008 -0.1140  0.1327
 6024SOL    HW129534   2.451   2.367   5.872 -1.4454  1.6271  1.0928
 6024SOL    HW229535   2.524   2.381   5.748 -1.3636 -0.4017 -0.0324
 6025SOL     OW29536   3.147   1.464   7.845 -0.4826 -0.5836 -0.5253
 6025SOL    HW129537   3.217   1.423   7.794 -2.2296 -0.1834 -3.2532
 6025SOL    HW229538   3.192   1.548   7.856 -3.1808  0.8272 -0.2765
 6026SOL     OW29539   0.731   2.677   5.614 -0.0572 -0.1645 -0.1001
 6026SOL    HW129540   0.637   2.677   5.629 -0.2877 -1.6144 -1.5757
 6026SOL    HW229541   0.737   2.703   5.522  1.6712 -2.2744 -0.5884
 6027SOL     OW29542   0.985   1.587  15.919 -0.3072 -0.2622  0.5782
 6027SOL    HW129543   1.051   1.590  15.850  1.6946 -0.1424  2.5153
 6027SOL    HW229544   1.034   1.620  15.994 -1.0563 -0.9017  1.3576
 6028SOL     OW29545   1.348   3.177   2.747 -0.6846 -0.4023 -0.2309
 6028SOL    HW129546   1.272   3.233   2.730  0.0121  1.6226  3.3179
 6028SOL    HW229547   1.422   3.222   2.707  0.2723 -2.2313 -0.5009
 6029SOL     OW29548   1.256   2.982   2.318 -0.7236 -0.8433  0.4971
 6029SOL    HW129549   1.348   3.006   2.332 -0.7682 -0.7605  0.6470
 6029SOL    HW229550   1.232   3.007   2.229 -0.7048 -0.5033  0.5879
 6030SOL     OW29551   3.918   0.949   6.291  0.3898  0.4831 -0.2391
 6030SOL    HW129552   3.873   1.006   6.354  0.1975  1.6577 -1.4391
 6030SOL    HW229553   3.999   0.992   6.265 -0.5705  0.1059 -3.8163
 6031SOL     OW29554   0.541   4.473   5.672 -0.0023  0.6601  0.1750
 6031SOL    HW129555   0.614   4.517   5.628 -0.7269  1.7225  0.0355
 6031SOL    HW229556   0.465   4.482   5.615  0.4289  0.4723 -0.4333
 6032SOL     OW29557   2.985   2.851   9.610 -0.2053  0.1695  0.3752
 6032SOL    HW129558   3.080   2.843   9.598 -0.3412 -1.3539  0.3237
 6032SOL    HW229559   2.953   2.766   9.580  0.1130  0.8655 -1.9521
 6033SOL     OW29560   2.117   0.551   7.760  0.3280  0.0998  0.4426
 6033SOL    HW129561   2.183   0.484   7.741  1.0905  0.2676  2.5741
 6033SOL    HW229562   2.171   0.592   7.827 -1.3704  1.9522  0.6637
 6034SOL     OW29563   3.685   0.337  14.526 -0.1082 -0.4713 -0.1948
 6034SOL    HW129564   3.765   0.360  14.572 -0.2055  0.7545 -0.6165
 6034SOL    HW229565   3.659   0.424  14.494 -2.1955 -1.4436 -1.1771
 6035SOL     OW29566   4.385   1.340   3.703  0.5523  0.3371  0.2176
 6035SOL    HW129567   4.317   1.332   3.770 -0.4367 -1.3200 -0.9834
 6035SOL    HW229568   4.320   1.316   3.637 -1.8041  1.0896  2.2376
 6036SOL     OW29569   3.754   1.295   0.567  0.2015 -0.6286  0.4386
 6036SOL    HW129570   3.795   1.307   0.653  1.9293  0.4725 -0.5293
 6036SOL    HW229571   3.769   1.381   0.527 -0.7481 -0.0575  1.2923
 6037SOL     OW29572   3.268   1.059  15.879 -0.0064  0.0971 -0.4390
 6037SOL    HW129573   3.290   0.966  15.876  1.1456  0.3568 -0.0096
 6037SOL    HW229574   3.273   1.081  15.972  0.2767  0.4958 -0.5495
 6038SOL     OW29575   4.264   1.233   9.456 -0.2129 -0.6195  0.5086
 6038SOL    HW129576   4.180   1.278   9.458 -1.1015 -2.1227 -2.1412
 6038SOL    HW229577   4.246   1.148   9.415 -0.6748 -1.2131  1.9617
 6039SOL     OW29578   3.505   3.909   8.505 -0.0156  0.1716 -0.1133
 6039SOL    HW129579   3.416   3.936   8.483 -0.6482 -1.4790  0.4342
 6039SOL    HW229580   3.494   3.865   8.589  2.9142 -2.5741 -1.1816
 6040SOL     OW29581   0.659   2.941   4.569 -0.0882 -0.0595 -0.6590
 6040SOL    HW129582   0.707   3.021   4.552  0.5647  0.0184  1.5193
 6040SOL    HW229583   0.663   2.897   4.484  2.7699 -1.2635  0.0952
 6041SOL     OW29584   1.727   3.844   6.252  0.1537  0.4440  0.0748
 6041SOL    HW129585   1.668   3.797   6.311  0.0251  1.3279  0.6524
 6041SOL    HW229586   1.811   3.797   6.251  1.5029  2.8954 -1.3718
 6042SOL     OW29587   1.800   1.357   7.699 -0.3458 -0.7662  0.4701
 6042SOL    HW129588   1.718   1.345   7.650 -0.2476 -0.4466  0.2288
 6042SOL    HW229589   1.858   1.371   7.624 -0.1306 -1.2200  0.5508
 6043SOL     OW29590   1.308   4.109   5.057  0.0420  0.1285  0.4824
 6043SOL    HW129591   1.366   4.146   4.991 -0.4546  0.8749  0.4533
 6043SOL    HW229592   1.225   4.145   5.025 -0.0993 -0.1137  0.5748
 6044SOL     OW29593   4.089   2.882   6.006 -0.7509  0.1047  0.1897
 6044SOL    HW129594   4.036   2.810   6.040 -0.9781 -0.9401 -2.3831
 6044SOL    HW229595   4.026   2.902   5.937  0.7780  0.7121 -1.0269
 6045SOL     OW29596   0.107   0.297   7.012  0.1054  0.3808 -0.1804
 6045SOL    HW129597   0.061   0.342   7.083  0.4648 -1.9401  1.5143
 6045SOL    HW229598   0.178   0.360   7.000  1.6302 -0.9408  1.8689
 6046SOL     OW29599   2.615   0.195  16.550  0.2540  0.0323  0.2571
 6046SOL    HW129600   2.665   0.269  16.515  2.1128 -0.3754  2.0459
 6046SOL    HW229601   2.523   0.219  16.538  0.2879  0.3945  0.7070
 6047SOL     OW29602   4.209   0.994   4.027 -0.4565  0.1213 -0.1267
 6047SOL    HW129603   4.141   0.944   3.981  0.1162 -0.9412  0.1787
 6047SOL    HW229604   4.286   0.968   3.977  0.1334  1.9595 -0.1573
 6048SOL     OW29605   1.176   4.592  12.861 -0.1998  0.4357  0.4202
 6048SOL    HW129606   1.154   4.587  12.768  1.6359  2.5916 -0.1254
 6048SOL    HW229607   1.257   4.541  12.867 -0.6892 -0.4778 -0.7040
 6049SOL     OW29608   2.632   2.133   1.858  0.7547  0.1390  0.5055
 6049SOL    HW129609   2.592   2.122   1.944  0.4311 -1.4725  0.1452
 6049SOL    HW229610   2.622   2.047   1.817  0.2656  0.2842  0.3142
 6050SOL     OW29611   3.728   2.940   7.463  0.1628 -0.3834 -0.4453
 6050SOL    HW129612   3.719   2.917   7.370 -2.9062  0.2658 -0.2937
 6050SOL    HW229613   3.823   2.941   7.473 -0.1362 -0.1150  2.3323
 6051SOL     OW29614   1.848   4.128   5.577  0.1723  0.0703 -0.7862
 6051SOL    HW129615   1.925   4.166   5.620  0.8631 -2.0603 -0.1661
 6051SOL    HW229616   1.817   4.094   5.661  1.4811  1.2070  0.1661
 6052SOL     OW29617   4.305   2.464  15.897 -0.0116 -0.3694 -0.1512
 6052SOL    HW129618   4.366   2.499  15.962  0.6858 -1.3285 -0.2932
 6052SOL    HW229619   4.240   2.535  15.895 -0.2297 -0.5677 -0.0626
 6053SOL     OW29620   3.361   3.657  14.664  0.6569  0.0618 -0.0771
 6053SOL    HW129621   3.439   3.676  14.611 -1.1068  1.0971 -2.2837
 6053SOL    HW229622   3.371   3.719  14.736 -2.5142 -0.4517  0.7825
 6054SOL     OW29623   4.068   1.563  10.956 -0.1433  0.2357 -0.2641
 6054SOL    HW129624   4.078   1.471  10.934  0.7104  0.3749 -0.4413
 6054SOL    HW229625   4.069   1.554  11.052  4.4273 -1.9073 -0.4870
 6055SOL     OW29626   2.525   2.023  11.492  0.7676 -0.0447  0.2426
 6055SOL    HW129627   2.612   2.055  11.516 -0.1016  1.9669  0.7164
 6055SOL    HW229628   2.528   2.043  11.399 -3.0114 -0.2869  0.0525
 6056SOL     OW29629   3.389   0.073  14.350  0.3816 -0.1696 -0.2909
 6056SOL    HW129630   3.410   4.703  14.344  1.2027 -0.1270  1.9469
 6056SOL    HW229631   3.378   0.090  14.444  0.5789  1.5619 -0.5683
 6057SOL     OW29632   0.564   2.406  11.417 -0.0101  0.5329 -0.7221
 6057SOL    HW129633   0.479   2.450  11.411  0.9709  2.3175 -1.4347
 6057SOL    HW229634   0.617   2.477  11.451  1.1575 -0.7971  0.2323
 6058SOL     OW29635   1.255   4.674   1.078 -0.8195 -0.3564 -0.0299
 6058SOL    HW129636   1.174   4.663   1.127 -0.1061 -1.5771  0.8681
 6058SOL    HW229637   1.317   4.656   1.148  1.5141  0.2632 -1.9361
 6059SOL     OW29638   0.894   0.337  13.181  0.1039  0.2950  0.5062
 6059SOL    HW129639   0.948   0.362  13.106 -1.0489 -1.4701 -0.8991
 6059SOL    HW229640   0.814   0.312  13.135 -0.0990  1.0829  0.4297
 6060SOL     OW29641   1.424   0.177   5.808  0.5856  0.1180  0.0405
 6060SOL    HW129642   1.406   0.153   5.899  2.5701 -0.2477  0.3491
 6060SOL    HW229643   1.371   0.106   5.771 -1.8567  1.2748  1.3132
 6061SOL     OW29644   1.389   0.531   8.974  0.3283 -0.0798 -0.5050
 6061SOL    HW129645   1.312   0.477   8.955  0.2759 -0.4349  0.7390
 6061SOL    HW229646   1.354   0.620   8.979 -1.0499 -0.6476 -0.0651
 6062SOL     OW29647   0.243   0.295   3.465 -0.3268 -0.1424  0.3544
 6062SOL    HW129648   0.228   0.280   3.372  0.9547 -2.1544  0.4502
 6062SOL    HW229649   0.314   0.358   3.464 -1.4221  1.1443  4.3689
 6063SOL     OW29650   2.469   4.138   2.069 -0.1214  0.3968 -0.5520
 6063SOL    HW129651   2.383   4.096   2.079 -0.2514  0.7862 -0.0246
 6063SOL    HW229652   2.484   4.125   1.975  0.5237  0.8582 -0.5122
 6064SOL     OW29653   3.995   0.851   5.210  0.6446 -1.3304  0.3849
 6064SOL    HW129654   4.039   0.838   5.126  1.1467  1.2461  0.2522
 6064SOL    HW229655   4.049   0.920   5.247 -2.6352  0.7779  1.1996
 6065SOL     OW29656   1.000   1.372   7.685  0.4181 -0.0316 -0.5895
 6065SOL    HW129657   0.973   1.317   7.758 -0.2131  1.5445  0.3700
 6065SOL    HW229658   1.092   1.347   7.691  0.1101 -1.2630 -1.0514
 6066SOL     OW29659   2.844   2.877   7.663 -0.6551 -0.1889 -0.2789
 6066SOL    HW129660   2.809   2.963   7.639 -1.0932 -0.6601 -1.3078
 6066SOL    HW229661   2.934   2.885   7.631 -0.3235  1.4424  1.0152
 6067SOL     OW29662   4.596   1.954   6.584  0.1653 -0.2731  0.5032
 6067SOL    HW129663   4.568   2.045   6.574 -0.0721 -0.2558  1.2996
 6067SOL    HW229664   4.514   1.906   6.596  0.0833 -0.8639 -2.3901
 6068SOL     OW29665   2.824   2.453   2.947 -0.3972 -0.1251  0.2690
 6068SOL    HW129666   2.826   2.392   2.872  2.8409  0.9116 -0.4825
 6068SOL    HW229667   2.782   2.393   3.009 -1.7950  0.2063 -0.3655
 6069SOL     OW29668   2.888   4.107   9.755  0.0354  0.4429 -0.7901
 6069SOL    HW129669   2.936   4.025   9.745 -0.4026  0.0621  0.2242
 6069SOL    HW229670   2.794   4.091   9.753 -0.2261  1.6475  1.7421
 6070SOL     OW29671   0.072   4.079   4.954  0.4078 -0.1957 -0.3783
 6070SOL    HW129672   0.078   4.164   4.911 -3.6598  1.1214  1.6430
 6070SOL    HW229673   4.708   4.053   4.925 -0.2816  2.9902 -1.2527
 6071SOL     OW29674   0.292   2.747   5.897 -0.0914  0.4925 -0.2555
 6071SOL    HW129675   0.215   2.804   5.887  0.2472  1.0369  0.2615
 6071SOL    HW229676   0.329   2.754   5.809 -2.0402 -0.2561 -1.1561
 6072SOL     OW29677   1.043   1.956   5.250 -0.7466 -0.2966  0.3042
 6072SOL    HW129678   1.111   1.890   5.262 -1.0306 -0.6634 -0.1532
 6072SOL    HW229679   0.977   1.904   5.296 -0.3522 -0.7891  0.3104
 6073SOL     OW29680   2.744   3.523   6.575 -0.1703 -0.0244 -0.1881
 6073SOL    HW129681   2.717   3.538   6.665  1.2725 -0.8357  0.3734
 6073SOL    HW229682   2.741   3.612   6.541  0.7955  0.0092 -0.1823
 6074SOL     OW29683   4.141   3.694  16.686  0.5217  0.6182 -0.1593
 6074SOL    HW129684   4.144   3.779  16.642  0.4585  0.4330 -0.5245
 6074SOL    HW229685   4.089   3.717  16.763  2.7777 -0.8826  1.8024
 6075SOL     OW29686   1.625   4.242   1.136  0.1427 -1.0591  0.4717
 6075SOL    HW129687   1.654   4.218   1.048 -0.2775 -2.7861  0.8022
 6075SOL    HW229688   1.701   4.269   1.186  1.1683  0.9169 -2.1233
 6076SOL     OW29689   4.328   4.256  12.583  0.0697  0.1105  0.1832
 6076SOL    HW129690   4.418   4.288  12.595  0.0636  1.4017 -3.3684
 6076SOL    HW229691   4.317   4.303  12.500  2.3186  0.1905 -0.0675
 6077SOL     OW29692   2.159   3.365   3.284  0.2294 -0.3825 -0.1050
 6077SOL    HW129693   2.245   3.365   3.326 -0.4807 -0.9440  1.3414
 6077SOL    HW229694   2.174   3.307   3.210  0.0035 -0.2222 -0.2784
 6078SOL     OW29695   1.123   1.423   2.670  0.5610 -0.0554  0.1485
 6078SOL    HW129696   1.083   1.337   2.683  3.0310 -1.2115  0.1796
 6078SOL    HW229697   1.123   1.431   2.575 -0.2284  3.1277  0.4130
 6079SOL     OW29698   0.646   1.668  13.029  0.0138  0.2590 -0.2106
 6079SOL    HW129699   0.701   1.666  12.950  0.4922  0.0904  0.1234
 6079SOL    HW229700   0.564   1.694  12.988 -0.4264 -1.2079 -0.2798
 6080SOL     OW29701   4.539   1.677   2.898 -0.5023 -0.8755 -0.1408
 6080SOL    HW129702   4.597   1.642   2.965 -0.5819 -3.0679 -1.2095
 6080SOL    HW229703   4.476   1.715   2.960  0.8269 -0.1672  0.7709
 6081SOL     OW29704   0.384   0.828   8.918  0.4353 -0.2721  0.2229
 6081SOL    HW129705   0.429   0.900   8.963 -1.1911  0.0106  1.3809
 6081SOL    HW229706   0.418   0.826   8.829 -1.1118 -2.1573 -0.3152
 6082SOL     OW29707   4.528   2.953   3.464 -0.2926 -0.4020 -0.4157
 6082SOL    HW129708   4.589   2.888   3.431  3.0826  2.1039  0.8787
 6082SOL    HW229709   4.547   2.956   3.558  1.0265  2.0136 -0.7766
 6083SOL     OW29710   2.173   0.458   3.494  0.3844 -0.2282  0.1083
 6083SOL    HW129711   2.230   0.475   3.569 -1.1038 -1.8837  1.6449
 6083SOL    HW229712   2.220   0.380   3.464 -1.1678 -1.0577 -0.1797
 6084SOL     OW29713   2.110   2.996   3.773 -0.5161  0.2753 -0.1117
 6084SOL    HW129714   2.078   2.914   3.734  2.3037 -0.7327 -0.3526
 6084SOL    HW229715   2.205   2.994   3.759 -0.7689 -0.8042 -1.7455
 6085SOL     OW29716   1.067   0.975  12.338 -0.1720 -0.3983 -0.0979
 6085SOL    HW129717   1.026   1.047  12.386 -2.9830 -0.8499 -1.7891
 6085SOL    HW229718   1.064   1.007  12.248  3.1298  1.8390  0.5667
 6086SOL     OW29719   3.491   1.054   6.992 -0.0689 -0.2031  0.5314
 6086SOL    HW129720   3.430   1.126   6.983 -0.2243 -0.1697  1.8484
 6086SOL    HW229721   3.454   0.989   6.932  1.7085 -1.2017  0.5091
 6087SOL     OW29722   4.132   3.758   8.475  0.4092 -0.6741 -0.0863
 6087SOL    HW129723   4.218   3.794   8.454 -0.3432  1.2119  0.0694
 6087SOL    HW229724   4.164   3.704   8.547  0.3001 -1.2619 -0.4761
 6088SOL     OW29725   2.894   2.714   3.059 -0.4483  0.8534 -0.3699
 6088SOL    HW129726   2.928   2.661   3.131  1.7000  2.8200  0.0433
 6088SOL    HW229727   2.850   2.649   3.004  0.6775 -0.7640  0.6298
 6089SOL     OW29728   4.227   4.364  17.519  0.1552  0.7805  0.1919
 6089SOL    HW129729   4.272   4.420  17.582  0.8786  0.4730 -0.0483
 6089SOL    HW229730   4.276   4.381  17.439  1.0472 -2.8498 -0.0438
 6090SOL     OW29731   2.759   3.062   2.558 -0.2291 -0.1192 -0.1596
 6090SOL    HW129732   2.831   3.014   2.519 -1.1479  0.7489 -2.9371
 6090SOL    HW229733   2.768   3.059   2.653 -1.1871  1.0517 -0.0357
 6091SOL     OW29734   3.298   0.142   2.773 -0.0076 -0.2288  0.4000
 6091SOL    HW129735   3.377   0.177   2.731  0.0808  1.0193  1.6291
 6091SOL    HW229736   3.323   0.049   2.775 -2.2666 -0.8720 -1.4614
 6092SOL     OW29737   2.657   1.504   8.107 -0.4557 -0.0922  0.2496
 6092SOL    HW129738   2.686   1.421   8.067 -0.7288  0.6216 -1.4242
 6092SOL    HW229739   2.700   1.574   8.058 -0.2323  1.4394  2.6522
 6093SOL     OW29740   2.020   1.145   7.499  0.7232  0.2209 -0.0728
 6093SOL    HW129741   2.015   1.055   7.532 -2.8414 -0.3513 -2.1503
 6093SOL    HW229742   1.984   1.184   7.578  1.8548  2.1429 -0.5070
 6094SOL     OW29743   2.346   0.690   6.569  0.1549 -0.1828  0.3564
 6094SOL    HW129744   2.436   0.720   6.555  0.2734 -1.7517 -2.2475
 6094SOL    HW229745   2.336   0.703   6.663  0.3242  0.2296  0.3182
 6095SOL     OW29746   0.447   0.940   8.045 -0.2166  0.0027 -0.5514
 6095SOL    HW129747   0.390   0.980   8.110 -0.2810 -0.5145 -0.2890
 6095SOL    HW229748   0.391   0.957   7.969  0.3217 -0.3287 -1.0239
 6096SOL     OW29749   1.300   1.522  11.160  0.4304  0.0409  0.5288
 6096SOL    HW129750   1.276   1.472  11.082  1.4950 -0.4374  0.5104
 6096SOL    HW229751   1.245   1.599  11.150 -0.1999 -0.7070 -1.6065
 6097SOL     OW29752   3.547   2.410  12.181  0.9321  0.0422 -0.1788
 6097SOL    HW129753   3.535   2.503  12.200 -0.6097 -0.2131  0.0896
 6097SOL    HW229754   3.506   2.379  12.262 -1.3598 -1.1681 -1.7968
 6098SOL     OW29755   4.167   0.895  10.361 -0.2359  0.2265  0.1037
 6098SOL    HW129756   4.144   0.829  10.427  2.4519 -0.5197  0.2963
 6098SOL    HW229757   4.089   0.950  10.363  0.4117  1.2191 -2.3860
 6099SOL     OW29758   1.128   0.991   2.036  0.0070  0.5016 -0.5474
 6099SOL    HW129759   1.052   1.010   1.981  0.3158  0.5670 -0.9453
 6099SOL    HW229760   1.159   0.904   2.010 -0.6799 -0.1933  0.9170
 6100SOL     OW29761   3.030   0.680  15.970  0.1202 -0.0076 -0.1582
 6100SOL    HW129762   3.048   0.707  15.880 -2.2779  0.0672 -0.6178
 6100SOL    HW229763   3.112   0.638  15.995 -0.3223 -1.1525 -0.6470
 6101SOL     OW29764   3.556   4.317  10.976 -0.3213  0.1103  0.3749
 6101SOL    HW129765   3.620   4.251  10.950 -0.5241  0.3231 -0.6786
 6101SOL    HW229766   3.564   4.366  10.893  2.4485 -1.0493 -0.0423
 6102SOL     OW29767   2.921   2.237   3.599 -0.0062 -0.0031  0.8347
 6102SOL    HW129768   2.890   2.327   3.611  0.1579 -0.0350  1.4699
 6102SOL    HW229769   2.983   2.216   3.668 -0.4439  0.1606  1.2787
 6103SOL     OW29770   0.381   1.872   8.286  0.0721  0.0616  0.1098
 6103SOL    HW129771   0.427   1.841   8.364  1.7902 -1.7794 -1.6237
 6103SOL    HW229772   0.456   1.918   8.249 -1.1444  1.0019 -1.1451
 6104SOL     OW29773   3.295   4.302  15.275 -0.1750 -0.3803 -0.6976
 6104SOL    HW129774   3.371   4.344  15.317  0.0178 -1.5152  0.0950
 6104SOL    HW229775   3.228   4.370  15.285  0.5849  0.4442 -1.1935
 6105SOL     OW29776   1.281   1.944   8.436  0.3052  0.8940  0.3237
 6105SOL    HW129777   1.187   1.956   8.446 -0.1009 -1.4641 -0.7418
 6105SOL    HW229778   1.328   1.956   8.519  1.5713 -1.7250  0.0010
 6106SOL     OW29779   1.365   4.332   9.744  0.5410 -0.3128  0.1084
 6106SOL    HW129780   1.312   4.263   9.705  0.0332  0.0711  0.1195
 6106SOL    HW229781   1.372   4.299   9.834 -0.3463 -0.7869  0.0039
 6107SOL     OW29782   1.403   0.919   5.271 -0.2114  0.5301  0.0694
 6107SOL    HW129783   1.426   0.852   5.335 -1.1592 -1.1316 -1.3374
 6107SOL    HW229784   1.366   0.983   5.331 -0.2621  0.7928 -0.2451
 6108SOL     OW29785   1.294   4.678   4.554  0.4190 -0.0288  0.1097
 6108SOL    HW129786   1.353   4.719   4.618  0.7962  0.5510 -0.6102
 6108SOL    HW229787   1.273   4.597   4.601  0.0183 -0.9568 -1.6945
 6109SOL     OW29788   4.082   4.190   9.384  0.3353  0.3545  0.4544
 6109SOL    HW129789   4.000   4.141   9.374  0.6504 -0.1340  0.2946
 6109SOL    HW229790   4.137   4.141   9.324 -0.3047 -0.9209  0.8940
 6110SOL     OW29791   1.696   3.193  10.880  0.3743 -0.5312 -0.1089
 6110SOL    HW129792   1.736   3.119  10.834  0.1866 -0.7508  0.0844
 6110SOL    HW229793   1.747   3.187  10.960  0.2744  4.0372  0.3110
 6111SOL     OW29794   0.932   0.920  12.088 -0.1316 -0.0411 -0.0166
 6111SOL    HW129795   0.961   0.842  12.135  0.1295 -0.3199 -0.6400
 6111SOL    HW229796   0.970   0.900  12.002 -0.0420  3.8589 -0.9117
 6112SOL     OW29797   4.665   3.447   5.725  0.0736  0.4750  0.1227
 6112SOL    HW129798   4.589   3.414   5.678  0.0740  1.3373 -0.4927
 6112SOL    HW229799   0.008   3.449   5.656  1.7464  1.6686  1.7480
 6113SOL     OW29800   0.937   3.017   6.196  0.0303 -0.3106 -0.1072
 6113SOL    HW129801   0.847   3.018   6.227 -0.5836  0.1836 -1.9099
 6113SOL    HW229802   0.928   3.044   6.105  1.2126 -1.0614 -0.4478
 6114SOL     OW29803   2.884   3.338   6.163 -0.1808  0.6152  0.2926
 6114SOL    HW129804   2.833   3.417   6.146 -2.4268 -1.1949 -1.3830
 6114SOL    HW229805   2.917   3.324   6.074  3.0921 -0.2155  1.6229
 6115SOL     OW29806   2.779   1.671   2.862  0.2208 -0.3862 -0.0229
 6115SOL    HW129807   2.861   1.647   2.905  0.6244  1.1632  0.0656
 6115SOL    HW229808   2.798   1.648   2.771  2.3004 -3.1464  1.1042
 6116SOL     OW29809   0.169   3.017   8.077 -0.1261 -0.3539 -0.3104
 6116SOL    HW129810   0.226   2.941   8.085  1.1397  0.8780  2.3320
 6116SOL    HW229811   0.231   3.085   8.103  0.1965  0.0090 -2.0091
 6117SOL     OW29812   0.796   0.964   7.145  0.2053  0.1510  0.3527
 6117SOL    HW129813   0.704   0.950   7.169 -0.5693  1.4111 -1.9358
 6117SOL    HW229814   0.792   0.976   7.051  1.1201  1.8812  0.5414
 6118SOL     OW29815   1.582   3.777   5.032  0.3020  0.5076 -0.6799
 6118SOL    HW129816   1.581   3.685   5.007  0.3090  0.1814  0.5265
 6118SOL    HW229817   1.494   3.802   5.006  0.3957 -0.3412 -1.7872
 6119SOL     OW29818   3.330   2.558   4.631  0.1017  0.1346  0.2477
 6119SOL    HW129819   3.334   2.506   4.711 -0.8546 -1.5314 -0.7853
 6119SOL    HW229820   3.333   2.645   4.672 -0.4913  1.0106 -1.5252
 6120SOL     OW29821   1.967   0.412   2.422  0.3728  0.2904  0.1914
 6120SOL    HW129822   2.025   0.407   2.346 -0.0256 -0.4712 -0.0615
 6120SOL    HW229823   1.883   0.395   2.379 -0.5299 -0.6022  2.2982
 6121SOL     OW29824   4.157   0.898   2.578  0.4748  0.5870  0.2767
 6121SOL    HW129825   4.197   0.914   2.492 -0.7970  0.6650 -0.2997
 6121SOL    HW229826   4.160   0.803   2.584  2.3466  0.5698 -0.9249
 6122SOL     OW29827   4.462   2.107   9.858  0.8319 -0.3939 -0.4088
 6122SOL    HW129828   4.484   2.087   9.949  0.4603 -2.2941 -0.7246
 6122SOL    HW229829   4.367   2.094   9.856  0.9771 -1.2801 -1.7825
 6123SOL     OW29830   0.810   3.937  16.890  0.0935 -0.4334 -0.0962
 6123SOL    HW129831   0.765   3.876  16.948 -0.1284  1.7509  2.0496
 6123SOL    HW229832   0.797   3.892  16.807 -1.9411 -0.5805  0.2936
 6124SOL     OW29833   4.591   0.471   7.441  0.5518 -0.2105 -0.0343
 6124SOL    HW129834   4.516   0.478   7.501  0.8075  1.4413  0.0928
 6124SOL    HW229835   4.651   0.509   7.505 -0.7056  0.2457  0.8704
 6125SOL     OW29836   2.433   3.174  14.620  0.0627  0.5056  0.1971
 6125SOL    HW129837   2.387   3.256  14.641 -0.6776 -0.3629  1.9683
 6125SOL    HW229838   2.465   3.185  14.531  0.0590  1.0377  0.2585
 6126SOL     OW29839   3.352   1.567   4.785  0.0232  0.2886  0.3974
 6126SOL    HW129840   3.384   1.641   4.733 -0.3130 -2.1111 -3.2370
 6126SOL    HW229841   3.430   1.531   4.827  1.1576  2.4276  0.0985
 6127SOL     OW29842   4.117   2.844   4.026 -0.2449 -0.2865  0.1340
 6127SOL    HW129843   4.047   2.858   4.090 -0.3750 -0.1343 -0.0396
 6127SOL    HW229844   4.101   2.753   4.002 -1.0476 -0.5452  1.6830
 6128SOL     OW29845   3.851   4.425   9.829  0.5746  0.1922 -0.0249
 6128SOL    HW129846   3.942   4.417   9.856  1.0975 -1.3731 -2.2337
 6128SOL    HW229847   3.822   4.469   9.908  1.3696 -1.0853  0.9748
 6129SOL     OW29848   1.518   1.983   7.857  0.1506 -0.1966  1.2399
 6129SOL    HW129849   1.452   1.986   7.927 -0.3555  0.9927  0.6928
 6129SOL    HW229850   1.586   2.032   7.902 -1.0684  2.1280  0.5458
 6130SOL     OW29851   1.566   3.228   6.406 -0.3017  0.7682  0.2459
 6130SOL    HW129852   1.558   3.241   6.312 -1.4809 -1.5455  0.0366
 6130SOL    HW229853   1.480   3.192   6.426  0.2306 -0.8892 -0.3856
 6131SOL     OW29854   2.763   0.610  16.000  0.4875 -0.3123  0.4831
 6131SOL    HW129855   2.853   0.633  15.979  0.2836 -0.1026 -0.1523
 6131SOL    HW229856   2.725   0.572  15.921 -1.1427  0.4065  0.9140
 6132SOL     OW29857   1.572   2.023  10.946 -0.3766  0.0484  0.6213
 6132SOL    HW129858   1.559   2.114  10.971  1.7235  0.8340 -1.1645
 6132SOL    HW229859   1.532   1.975  11.019 -2.8329 -1.4476 -1.6831
 6133SOL     OW29860   0.138   1.914   8.418 -0.2028 -0.1522  0.0927
 6133SOL    HW129861   0.112   1.978   8.353  2.7499  2.2734  1.3195
 6133SOL    HW229862   0.216   1.877   8.377 -0.9783 -0.1664 -1.3521
 6134SOL     OW29863   0.598   4.425   7.810  0.0719  0.2107 -0.2643
 6134SOL    HW129864   0.672   4.390   7.761 -2.7670 -2.2111 -2.7559
 6134SOL    HW229865   0.615   4.379   7.892 -1.4865 -2.0582 -1.2300
 6135SOL     OW29866   3.186   3.327  13.414  0.8309  0.1919 -0.7318
 6135SOL    HW129867   3.196   3.311  13.508  1.1462  2.7160 -0.3499
 6135SOL    HW229868   3.103   3.375  13.419 -0.2758 -1.6051 -1.5552
 6136SOL     OW29869   0.699   3.654  10.496 -0.1263  1.0687 -0.0541
 6136SOL    HW129870   0.728   3.563  10.488 -0.2505  1.1339 -1.1509
 6136SOL    HW229871   0.728   3.688  10.411  3.2601  1.7952  1.3709
 6137SOL     OW29872   3.714   0.270   0.707  0.2394  0.3032 -0.3544
 6137SOL    HW129873   3.782   0.336   0.694  0.2594  0.5791  1.1284
 6137SOL    HW229874   3.660   0.300   0.780  0.7765  1.6426 -0.4967
 6138SOL     OW29875   1.302   0.077   4.860  0.1828 -0.0569  0.4814
 6138SOL    HW129876   1.294   0.169   4.836  0.2805 -0.6040 -1.6431
 6138SOL    HW229877   1.270   0.078   4.950 -1.8807  1.2286 -0.2474
 6139SOL     OW29878   3.544   2.162   5.143 -0.6586 -0.1893  0.2694
 6139SOL    HW129879   3.587   2.223   5.203  0.6958 -1.2241  0.3308
 6139SOL    HW229880   3.530   2.211   5.062 -0.8624  1.4613  1.3071
 6140SOL     OW29881   3.424   0.319  15.781  0.3603  0.4607  0.4864
 6140SOL    HW129882   3.491   0.335  15.714  0.1319  1.6929  0.5456
 6140SOL    HW229883   3.435   0.225  15.797  1.0517  0.3609 -0.5259
 6141SOL     OW29884   1.252   4.137   9.593 -0.2506 -0.2563 -0.5556
 6141SOL    HW129885   1.278   4.094   9.512 -0.2227  0.7902 -1.1065
 6141SOL    HW229886   1.197   4.067   9.627  0.3707 -0.2775  0.4061
 6142SOL     OW29887   1.242   2.098  14.677 -0.4675  0.0174  0.1333
 6142SOL    HW129888   1.189   2.033  14.632 -1.1008  1.2605 -0.9090
 6142SOL    HW229889   1.326   2.053  14.672 -0.8316 -0.1017 -4.5688
 6143SOL     OW29890   3.981   3.716   3.250  0.7986  0.2611 -0.0352
 6143SOL    HW129891   3.887   3.719   3.231  0.5524 -0.5545  0.9947
 6143SOL    HW229892   4.013   3.755   3.170 -0.0240 -0.8289 -0.9013
 6144SOL     OW29893   1.705   1.055   2.334  0.2028  0.3265 -0.1971
 6144SOL    HW129894   1.764   1.125   2.363 -0.1985 -0.7872  3.2811
 6144SOL    HW229895   1.624   1.105   2.325  0.4284  1.1107  2.0301
 6145SOL     OW29896   2.640   1.909  10.471  0.0784  0.6627  0.0296
 6145SOL    HW129897   2.550   1.942  10.472 -0.6667 -1.3440 -1.9443
 6145SOL    HW229898   2.663   1.932  10.381 -1.9808  0.9354 -0.4319
 6146SOL     OW29899   2.846   2.816  11.019 -0.8306  0.2955  0.6252
 6146SOL    HW129900   2.753   2.795  11.026 -0.4621 -1.6085 -0.0513
 6146SOL    HW229901   2.839   2.901  10.977 -1.3866 -0.1004 -0.0909
 6147SOL     OW29902   1.143   2.324   1.963 -0.0104 -0.0003  0.0266
 6147SOL    HW129903   1.120   2.384   1.892 -1.0796  0.6572  0.9271
 6147SOL    HW229904   1.056   2.316   2.001 -0.0669  2.4382  0.3802
 6148SOL     OW29905   1.495   3.678  14.271  0.5842  0.0114 -0.0285
 6148SOL    HW129906   1.560   3.679  14.341 -1.5173 -0.8606  1.9273
 6148SOL    HW229907   1.534   3.729  14.200  0.9966 -1.4566 -0.8527
 6149SOL     OW29908   4.663   2.362   5.432  0.4315  0.4842 -0.3667
 6149SOL    HW129909   4.579   2.332   5.468  1.0399 -0.9257 -0.1249
 6149SOL    HW229910   4.701   2.400   5.511  0.6869 -1.1002  0.2683
 6150SOL     OW29911   1.730   2.941   6.222 -0.4956 -0.0415 -0.1343
 6150SOL    HW129912   1.697   3.020   6.179  1.2769 -0.1077 -1.6248
 6150SOL    HW229913   1.648   2.891   6.221 -0.7389  0.4072 -2.5593
 6151SOL     OW29914   1.465   4.087   8.439 -0.1177  0.1698  0.3319
 6151SOL    HW129915   1.370   4.100   8.445 -0.1749 -0.5736  1.1358
 6151SOL    HW229916   1.479   3.994   8.422 -2.6665 -0.5317  1.9320
 6152SOL     OW29917   0.158   2.681  13.561 -0.2234  0.1750 -0.1480
 6152SOL    HW129918   0.227   2.746  13.576  2.8645 -3.2065  0.4445
 6152SOL    HW229919   0.092   2.749  13.546 -0.0938  0.2644 -0.3130
 6153SOL     OW29920   3.258   0.456   1.870  0.5304  0.7420  0.0522
 6153SOL    HW129921   3.166   0.451   1.897  0.8694 -0.2363  1.0442
 6153SOL    HW229922   3.272   0.551   1.863 -1.6023  0.7319 -3.9929
 6154SOL     OW29923   2.430   3.092   1.749  0.5491  0.1528 -0.0538
 6154SOL    HW129924   2.486   3.068   1.824 -0.0344  0.7544  0.5735
 6154SOL    HW229925   2.346   3.062   1.782 -0.0260  2.0563  0.2168
 6155SOL     OW29926   2.859   2.224   7.319 -0.0192  0.1221  0.4052
 6155SOL    HW129927   2.896   2.293   7.264 -0.9997 -1.6794 -2.4830
 6155SOL    HW229928   2.913   2.149   7.293 -1.6839 -0.0005 -2.5390
 6156SOL     OW29929   2.607   1.700   2.479 -0.3637 -0.5724 -0.2016
 6156SOL    HW129930   2.569   1.704   2.567  0.2099 -2.9323  0.1536
 6156SOL    HW229931   2.554   1.751   2.419 -2.6220 -1.1075  1.3494
 6157SOL     OW29932   1.801   2.109   3.450  0.1789 -0.3384  0.3575
 6157SOL    HW129933   1.756   2.089   3.368  1.1917  1.0065 -0.5267
 6157SOL    HW229934   1.880   2.140   3.407 -0.0816  1.7095  1.3305
 6158SOL     OW29935   0.111   4.284   5.830 -0.7129 -0.5101  0.5321
 6158SOL    HW129936   0.071   4.245   5.907  0.0544 -0.5379  0.9199
 6158SOL    HW229937   0.086   4.375   5.850  1.5119  0.2264  0.0020
 6159SOL     OW29938   2.372   4.654   5.059  0.2288  0.5782  0.0619
 6159SOL    HW129939   2.383   4.651   5.154 -1.2049 -2.2516  0.1342
 6159SOL    HW229940   2.458   4.626   5.027  0.1409 -2.0071  2.0426
 6160SOL     OW29941   3.096   1.292  10.560 -0.4824  0.3557 -0.3797
 6160SOL    HW129942   3.052   1.222  10.610 -1.4540  0.6108 -0.8857
 6160SOL    HW229943   3.115   1.366  10.618 -1.8756  0.2290  0.2502
 6161SOL     OW29944   1.062   2.241   7.893 -0.1155 -0.2880  0.5096
 6161SOL    HW129945   1.117   2.168   7.921  0.5346  1.0249  2.7446
 6161SOL    HW229946   0.995   2.238   7.961 -2.7717  1.5666 -2.0395
 6162SOL     OW29947   3.471   3.245   1.846 -0.5500 -0.3277 -0.4184
 6162SOL    HW129948   3.506   3.209   1.765 -1.7426 -1.1723 -0.5690
 6162SOL    HW229949   3.456   3.337   1.825  2.9147 -0.2174 -2.4187
 6163SOL     OW29950   1.389   1.646   3.933 -0.1792 -0.2258 -0.0412
 6163SOL    HW129951   1.470   1.647   3.882 -0.1487  0.4013  0.0106
 6163SOL    HW229952   1.332   1.668   3.860 -0.5286  0.0252  0.3031
 6164SOL     OW29953   1.174   1.118   4.502  0.3307 -0.2984 -0.0422
 6164SOL    HW129954   1.092   1.069   4.493 -0.4252  1.1571 -0.9472
 6164SOL    HW229955   1.171   1.152   4.591 -2.0178  2.0056 -1.0016
 6165SOL     OW29956   2.387   1.484   1.729  0.3214  0.0235  0.3084
 6165SOL    HW129957   2.292   1.500   1.730  0.3110  0.0324 -0.8020
 6165SOL    HW229958   2.409   1.402   1.772  0.2893  0.3225  0.8962
 6166SOL     OW29959   1.315   0.367   4.835 -0.2401  0.2956 -0.0102
 6166SOL    HW129960   1.274   0.443   4.875 -1.0886  0.6445 -1.5829
 6166SOL    HW229961   1.409   0.388   4.829 -0.0687  0.2450  2.6266
 6167SOL     OW29962   2.032   3.794   3.192  0.1137  0.5421  0.2819
 6167SOL    HW129963   2.116   3.764   3.228 -0.6881 -0.3331  1.4325
 6167SOL    HW229964   1.976   3.733   3.241 -0.2814 -0.0213 -0.8739
 6168SOL     OW29965   3.789   3.995   6.662 -0.1122  0.3854  0.5294
 6168SOL    HW129966   3.712   4.007   6.718 -0.8354 -0.3514 -0.3304
 6168SOL    HW229967   3.814   4.079   6.623 -0.2465  0.1564 -0.0395
 6169SOL     OW29968   3.611   2.084  11.450 -0.0411 -0.2785  0.0799
 6169SOL    HW129969   3.588   2.135  11.372 -1.1949 -1.6449 -0.4686
 6169SOL    HW229970   3.525   2.065  11.488 -0.2910  0.5354 -0.0793
 6170SOL     OW29971   0.298   4.035   0.802 -0.3265  0.0488  0.0496
 6170SOL    HW129972   0.371   4.054   0.743 -0.2206 -1.2854 -0.2319
 6170SOL    HW229973   0.297   3.940   0.798  1.9595 -0.0460  1.6438
 6171SOL     OW29974   0.341   0.290   9.763  0.3968 -0.4139  0.0554
 6171SOL    HW129975   0.396   0.338   9.824  1.5386 -0.6459 -0.7896
 6171SOL    HW229976   0.324   0.214   9.818  0.7527 -1.5468 -1.4242
 6172SOL     OW29977   3.874   1.127   8.666 -0.0904  0.7625  0.1747
 6172SOL    HW129978   3.906   1.112   8.577 -2.4193 -0.9130 -0.3909
 6172SOL    HW229979   3.794   1.075   8.658  1.7969 -2.0532 -0.3070
 6173SOL     OW29980   4.182   4.037  10.445 -0.1334 -0.2571  0.3187
 6173SOL    HW129981   4.275   4.018  10.453  0.1324  0.7654 -0.4292
 6173SOL    HW229982   4.146   4.027  10.534 -0.0522  0.4248  0.4284
 6174SOL     OW29983   4.036   0.491   3.677  0.0783 -0.0899 -0.5763
 6174SOL    HW129984   4.047   0.555   3.607 -0.8425  1.6960  0.9093
 6174SOL    HW229985   4.010   0.549   3.749  0.4776 -0.7165  0.0765
 6175SOL     OW29986   3.559   3.251   5.806 -0.1564 -0.2018  0.4544
 6175SOL    HW129987   3.637   3.247   5.861  1.5121 -0.4472 -1.9566
 6175SOL    HW229988   3.558   3.162   5.769  0.0833 -0.4904  1.1489
 6176SOL     OW29989   3.025   1.289   8.399  0.3597 -0.3270  0.6855
 6176SOL    HW129990   2.934   1.259   8.397  1.1122 -2.3925 -3.3797
 6176SOL    HW229991   3.036   1.327   8.311  3.4951 -2.0533  0.3301
 6177SOL     OW29992   4.479   1.709   3.631 -0.7179  0.4496  0.1618
 6177SOL    HW129993   4.463   1.742   3.542 -1.6506  0.6795  0.4178
 6177SOL    HW229994   4.546   1.773   3.653  0.0527  0.3967 -1.9378
 6178SOL     OW29995   4.233   0.772   3.611 -0.4980  0.4199 -0.4132
 6178SOL    HW129996   4.263   0.729   3.692 -0.8024  0.6086 -0.1996
 6178SOL    HW229997   4.147   0.794   3.647 -1.7916 -2.6130 -1.6543
 6179SOL     OW29998   3.317   2.816   3.088 -0.0913 -0.3376  0.8579
 6179SOL    HW129999   3.408   2.835   3.069  0.2979 -0.0558  2.9854
 6179SOL    HW230000   3.327   2.801   3.182  0.7288 -2.5563  0.4186
 6180SOL     OW30001   1.242   0.120   4.186 -0.1568  0.4983 -0.1127
 6180SOL    HW130002   1.335   0.135   4.170 -0.0582  2.7258  2.4764
 6180SOL    HW230003   1.192   0.126   4.105  0.9899  1.4036 -0.7504
 6181SOL     OW30004   0.904   3.656  12.555  0.2695  0.4058 -0.1819
 6181SOL    HW130005   0.834   3.718  12.576 -0.0782  0.0779 -0.3788
 6181SOL    HW230006   0.971   3.719  12.529 -0.9559  3.5507  4.1211
 6182SOL     OW30007   2.107   1.890   1.862  0.4925  0.1302  0.3261
 6182SOL    HW130008   2.097   1.853   1.774  3.2188 -0.0388  0.0951
 6182SOL    HW230009   2.034   1.952   1.869 -0.9783 -1.6770  0.8181
 6183SOL     OW30010   1.238   4.659  11.104  0.3825  0.4079  0.1109
 6183SOL    HW130011   1.328   4.625  11.109  0.6644  0.6225 -3.5063
 6183SOL    HW230012   1.194   4.626  11.182  2.0400 -0.8258  0.5206
 6184SOL     OW30013   4.425   3.223   4.291 -0.2559  0.3437  0.0279
 6184SOL    HW130014   4.493   3.280   4.254 -0.0199  0.0074 -0.0553
 6184SOL    HW230015   4.344   3.274   4.282  0.2168  0.5635 -3.0206
 6185SOL     OW30016   3.113   0.882   2.339 -0.1800 -0.0484 -0.0948
 6185SOL    HW130017   3.192   0.914   2.296 -0.3817 -0.9706 -1.1586
 6185SOL    HW230018   3.048   0.876   2.269 -1.1827  1.7068  0.6828
 6186SOL     OW30019   4.147   0.500   5.041  0.5489 -0.3419  0.1865
 6186SOL    HW130020   4.061   0.479   5.003  0.9936 -1.8936  0.0485
 6186SOL    HW230021   4.155   0.594   5.026  0.3452 -0.3256  0.1840
 6187SOL     OW30022   0.802   0.083   6.720 -0.5209 -0.0730 -0.2389
 6187SOL    HW130023   0.895   0.084   6.696 -0.1820 -0.7295  0.9927
 6187SOL    HW230024   0.804   0.005   6.775  0.9338  0.0259 -0.1561
 6188SOL     OW30025   4.257   0.288   8.227 -0.1675  0.1314  0.5726
 6188SOL    HW130026   4.229   0.241   8.305  0.5736 -0.6938  0.3383
 6188SOL    HW230027   4.339   0.241   8.211 -1.0139 -1.1120 -0.1279
 6189SOL     OW30028   0.687   3.543   8.235  0.0476  0.5865 -0.5339
 6189SOL    HW130029   0.669   3.617   8.293 -0.1959 -1.1749  1.6684
 6189SOL    HW230030   0.782   3.535   8.239 -0.3398 -1.7532  3.5747
 6190SOL     OW30031   3.028   2.318   4.726  0.2770 -0.0363  0.0279
 6190SOL    HW130032   3.119   2.289   4.737 -0.5327 -2.2170  0.9349
 6190SOL    HW230033   3.027   2.389   4.791 -0.6507  1.3304 -1.4750
 6191SOL     OW30034   1.014   2.344   3.821  0.3691  0.9285 -0.2627
 6191SOL    HW130035   0.935   2.302   3.855  0.3129  2.4893  1.5310
 6191SOL    HW230036   1.058   2.378   3.899  0.8835 -4.4888  1.8550
 6192SOL     OW30037   4.488   1.181   0.544 -0.0989 -0.0568  0.5407
 6192SOL    HW130038   4.497   1.269   0.581  2.4322 -0.7348  1.5365
 6192SOL    HW230039   4.395   1.169   0.564 -0.5580  0.5501 -1.2491
 6193SOL     OW30040   4.236   3.001  11.647 -0.6114 -0.1811  0.0649
 6193SOL    HW130041   4.210   3.090  11.669 -0.1262 -0.0579  0.1499
 6193SOL    HW230042   4.260   2.976  11.736 -0.1011  0.5692  0.1355
 6194SOL     OW30043   4.656   1.301  16.775  0.3971  0.1966 -0.1711
 6194SOL    HW130044   4.649   1.383  16.823 -0.2625 -1.2074  2.1153
 6194SOL    HW230045   4.610   1.239  16.832  2.6120 -2.5511 -1.3616
 6195SOL     OW30046   0.103   0.039   0.153  0.3529 -0.1078 -0.0740
 6195SOL    HW130047   0.024   0.056   0.205 -0.1482 -0.7875 -0.6228
 6195SOL    HW230048   0.117   0.133   0.135 -0.1032 -0.0119  0.0745
 6196SOL     OW30049   3.554   2.858   2.517 -0.7462  0.4526  0.2094
 6196SOL    HW130050   3.544   2.851   2.612  2.5647  0.1470  0.5544
 6196SOL    HW230051   3.648   2.857   2.498 -1.0855 -0.1433 -1.3747
 6197SOL     OW30052   0.542   2.900   2.974 -0.4001 -0.3249 -0.5601
 6197SOL    HW130053   0.461   2.940   2.943 -0.8977  0.6824  2.0781
 6197SOL    HW230054   0.536   2.816   2.927 -0.9633  0.4081 -1.8030
 6198SOL     OW30055   4.186   2.503   6.095  0.4021  0.2441 -0.3924
 6198SOL    HW130056   4.233   2.574   6.139 -2.1239  1.9449 -0.4265
 6198SOL    HW230057   4.112   2.557   6.067  0.0966 -0.4858 -0.9775
 6199SOL     OW30058   1.566   2.654   7.055  0.2718  0.5396 -0.6482
 6199SOL    HW130059   1.507   2.646   6.981 -0.3426  0.4764 -0.1532
 6199SOL    HW230060   1.649   2.675   7.013 -0.4962 -0.9864 -2.8972
 6200SOL     OW30061   2.123   3.330   1.780  0.2011 -0.0626 -0.4267
 6200SOL    HW130062   2.164   3.416   1.775 -2.6046  1.2246 -1.1574
 6200SOL    HW230063   2.144   3.283   1.700  0.4146 -2.2884  0.9228
 6201SOL     OW30064   3.829   0.169  12.051 -0.1684  0.4998  0.2754
 6201SOL    HW130065   3.758   0.127  12.100 -1.7500  0.3864 -2.0515
 6201SOL    HW230066   3.903   0.138  12.102  1.3411 -2.4337 -3.7137
 6202SOL     OW30067   4.265   3.428   2.733  0.4294 -0.8528  0.1138
 6202SOL    HW130068   4.344   3.477   2.710 -0.1042  0.4262  0.9546
 6202SOL    HW230069   4.209   3.505   2.747  2.1755  0.4806 -0.1209
 6203SOL     OW30070   4.376   3.448   5.287 -0.2542  0.0339  0.4044
 6203SOL    HW130071   4.282   3.453   5.303 -0.0206  4.1142  0.3709
 6203SOL    HW230072   4.374   3.417   5.196  2.5917  0.1842  0.2908
 6204SOL     OW30073   0.792   0.618   4.539 -0.4099 -0.1527  0.0303
 6204SOL    HW130074   0.838   0.562   4.601  0.7315  1.6462  0.8093
 6204SOL    HW230075   0.775   0.694   4.594 -0.0456 -0.5911  0.7547
 6205SOL     OW30076   2.816   0.561  14.302  0.2629  0.1241 -0.1595
 6205SOL    HW130077   2.900   0.600  14.278 -0.2240  1.2933  0.0816
 6205SOL    HW230078   2.842   0.505  14.375  0.0959  0.9582  0.5353
 6206SOL     OW30079   1.428   0.284   7.621 -0.0542 -0.3024  0.2451
 6206SOL    HW130080   1.338   0.293   7.590  1.0230  0.8071 -2.5989
 6206SOL    HW230081   1.419   0.280   7.716  0.7839 -1.9512  0.2582
 6207SOL     OW30082   0.434   3.407   1.938  0.5387 -0.0690 -0.1516
 6207SOL    HW130083   0.427   3.341   2.007  2.7959 -0.7310 -0.5371
 6207SOL    HW230084   0.494   3.359   1.881  2.6426  1.0776  1.1135
 6208SOL     OW30085   2.693   3.642  15.003  0.1302  0.2972  0.3764
 6208SOL    HW130086   2.686   3.592  14.921 -1.7016  2.5244 -0.8043
 6208SOL    HW230087   2.726   3.574  15.062  1.9439  1.5397  0.7911
 6209SOL     OW30088   2.804   1.317   4.367  0.1802 -0.0090  0.3159
 6209SOL    HW130089   2.710   1.297   4.369  0.5405 -1.6971  0.5374
 6209SOL    HW230090   2.799   1.377   4.442 -0.2163  0.2789  0.0583
 6210SOL     OW30091   2.846   0.718   2.636  0.3098 -0.2756 -0.6225
 6210SOL    HW130092   2.826   0.768   2.557  1.4712  1.4278  0.1462
 6210SOL    HW230093   2.893   0.643   2.598 -3.5174 -2.2531 -1.3710
 6211SOL     OW30094   3.097   1.737   6.901 -0.4758  0.6287  0.1335
 6211SOL    HW130095   3.088   1.740   6.806 -0.5044 -0.6754  0.0939
 6211SOL    HW230096   3.119   1.827   6.925  0.6522  0.1810  0.8290
 6212SOL     OW30097   3.324   3.312  13.172 -0.2776  0.7697 -0.0786
 6212SOL    HW130098   3.359   3.399  13.188 -0.1116  0.8792 -1.0341
 6212SOL    HW230099   3.269   3.298  13.249 -1.8946 -0.6386 -1.4855
 6213SOL     OW30100   1.990   3.003   6.828 -0.0357  0.1275  0.6966
 6213SOL    HW130101   2.045   3.066   6.781 -2.3973  0.9219 -1.0277
 6213SOL    HW230102   1.929   3.051   6.884 -1.9873  0.2408 -1.5191
 6214SOL     OW30103   1.475   1.618  13.160  0.3929 -0.5189  0.1387
 6214SOL    HW130104   1.418   1.667  13.219  1.5578 -0.1045  0.9143
 6214SOL    HW230105   1.556   1.622  13.211  0.2386 -1.1369  0.4290
 6215SOL     OW30106   1.766   0.583  12.683  0.1331 -0.3311 -0.7125
 6215SOL    HW130107   1.835   0.561  12.746  0.6456  2.1537 -0.4258
 6215SOL    HW230108   1.778   0.678  12.687  0.3748 -0.3588 -0.7581
 6216SOL     OW30109   2.866   4.694   7.328 -0.5736 -0.1550 -0.1135
 6216SOL    HW130110   2.937   4.669   7.269  0.8453  3.0468  0.2271
 6216SOL    HW230111   2.816   0.020   7.263  0.1169  1.0322  0.2587
 6217SOL     OW30112   2.241   1.502   5.689 -0.2079  0.1202  0.2109
 6217SOL    HW130113   2.207   1.464   5.609  0.0335 -2.0981  1.1721
 6217SOL    HW230114   2.203   1.588   5.668 -0.4774  0.2215  1.1046
 6218SOL     OW30115   3.692   2.872   4.685 -0.2736 -0.0102  0.1944
 6218SOL    HW130116   3.621   2.899   4.626  1.3593  0.6517 -1.4733
 6218SOL    HW230117   3.636   2.837   4.754 -1.0466 -0.2110 -0.5386
 6219SOL     OW30118   4.570   3.999   6.692  0.1112 -0.0408 -0.6127
 6219SOL    HW130119   4.508   4.009   6.765  2.3960 -2.4277  1.6339
 6219SOL    HW230120   4.515   3.975   6.618 -0.5189 -1.6135  0.3840
 6220SOL     OW30121   2.162   3.707   7.915  0.2117 -0.7671 -0.7173
 6220SOL    HW130122   2.186   3.674   8.002 -1.0871 -0.7837 -0.3602
 6220SOL    HW230123   2.091   3.644   7.900 -0.3490 -0.5988  1.2965
 6221SOL     OW30124   2.616   1.526  12.386 -0.5773 -0.0892 -0.2227
 6221SOL    HW130125   2.583   1.459  12.326  0.8098 -1.6350  0.7229
 6221SOL    HW230126   2.682   1.569  12.332  0.3313 -2.3972 -0.9510
 6222SOL     OW30127   3.908   4.400   9.398 -0.2805  0.2038  0.1047
 6222SOL    HW130128   3.959   4.319   9.409  0.3588  0.6054  0.0821
 6222SOL    HW230129   3.854   4.384   9.320  0.8861  0.0568 -0.6793
 6223SOL     OW30130   4.394   4.027  10.769 -0.3976  0.4513 -0.9925
 6223SOL    HW130131   4.338   4.101  10.747  0.2902  0.7178 -1.8934
 6223SOL    HW230132   4.428   4.011  10.681 -0.2458 -2.0270 -0.4704
 6224SOL     OW30133   3.700   1.430   5.171 -0.5553 -0.2895  0.2461
 6224SOL    HW130134   3.794   1.411   5.163  0.2943  3.3741  1.3542
 6224SOL    HW230135   3.678   1.392   5.256 -1.3354  0.1953  0.2687
 6225SOL     OW30136   0.895   2.624   5.825  0.0186 -0.4449  0.1838
 6225SOL    HW130137   0.828   2.619   5.757  0.8980  2.2409 -0.8824
 6225SOL    HW230138   0.836   2.673   5.883  0.5689  1.2815 -0.7094
 6226SOL     OW30139   1.356   4.545   9.560 -0.2687  0.3485  0.2160
 6226SOL    HW130140   1.371   4.457   9.594 -3.3217  0.2596  1.4115
 6226SOL    HW230141   1.345   4.524   9.468 -3.5226  0.0414  0.6672
 6227SOL     OW30142   3.943   3.844   0.313  0.2078 -0.8305 -0.1108
 6227SOL    HW130143   4.008   3.775   0.324  4.0809  2.4933 -2.0697
 6227SOL    HW230144   3.893   3.836   0.394 -0.9153 -1.0361 -0.8340
 6228SOL     OW30145   0.854   4.073   4.118 -0.0867  0.4551 -0.1518
 6228SOL    HW130146   0.841   4.055   4.025  1.3506 -1.5224  0.0212
 6228SOL    HW230147   0.883   3.988   4.151 -0.8022  1.5131  3.1759
 6229SOL     OW30148   4.642   3.245   1.132 -0.2087  0.7472  0.0932
 6229SOL    HW130149   4.637   3.278   1.221  1.5509 -0.1327  0.5253
 6229SOL    HW230150   0.014   3.252   1.120 -0.1112  1.0503  1.0767
 6230SOL     OW30151   4.084   4.272  11.638 -0.0084 -0.5492 -0.4537
 6230SOL    HW130152   4.135   4.277  11.558  0.3951  3.0006  0.0024
 6230SOL    HW230153   4.151   4.231  11.692  2.1609  1.9095 -1.3234
 6231SOL     OW30154   4.543   3.950   4.539 -0.6946 -0.4768  0.5412
 6231SOL    HW130155   4.496   4.027   4.572  0.4088 -1.1515  3.6683
 6231SOL    HW230156   4.500   3.948   4.453 -1.3236 -2.3026  0.9139
 6232SOL     OW30157   0.085   2.248  10.445  0.3859 -0.1985  0.0134
 6232SOL    HW130158   0.011   2.296  10.406 -0.3601  0.0401  1.7336
 6232SOL    HW230159   0.129   2.207  10.371  1.1064  1.5234 -0.5164
 6233SOL     OW30160   3.365   4.539   9.196  0.4521 -0.2777  0.4338
 6233SOL    HW130161   3.299   4.604   9.174 -0.6929 -1.8558 -0.7427
 6233SOL    HW230162   3.441   4.568   9.145 -0.8162  1.6158 -0.3574
 6234SOL     OW30163   2.560   1.887  14.093  0.5680  0.6305 -0.2492
 6234SOL    HW130164   2.533   1.947  14.024  0.0500 -0.2466 -0.7961
 6234SOL    HW230165   2.486   1.877  14.153  1.2528 -0.8549  0.3454
 6235SOL     OW30166   0.288   3.381  10.693  0.5609 -0.0456  0.0016
 6235SOL    HW130167   0.369   3.335  10.675 -0.5671 -2.2680  0.6533
 6235SOL    HW230168   0.255   3.321  10.760 -2.0207  1.3848  0.0284
 6236SOL     OW30169   4.430   2.404   7.914 -0.7955  0.2433 -0.0208
 6236SOL    HW130170   4.369   2.339   7.950 -1.6932  1.3962  0.5125
 6236SOL    HW230171   4.499   2.397   7.979 -0.2274 -1.3988 -0.7894
 6237SOL     OW30172   2.885   2.586   9.621  1.0648  0.0950 -0.0989
 6237SOL    HW130173   2.948   2.569   9.691  1.9592 -0.5492 -1.0601
 6237SOL    HW230174   2.812   2.631   9.663  1.5722  0.0009  0.9050
 6238SOL     OW30175   1.154   2.982   4.928  0.0547  0.1640  0.0219
 6238SOL    HW130176   1.094   2.908   4.939 -0.7504  0.4860 -2.2388
 6238SOL    HW230177   1.095   3.057   4.922  0.2341  0.3247  0.2772
 6239SOL     OW30178   0.493   0.656   7.937 -0.2221 -0.6124 -1.1123
 6239SOL    HW130179   0.526   0.612   8.015  2.5471  0.8064 -1.4938
 6239SOL    HW230180   0.542   0.739   7.935  0.4169 -0.9635  0.1144
 6240SOL     OW30181   2.380   2.647   7.623  0.1346 -0.2782 -0.6527
 6240SOL    HW130182   2.434   2.725   7.608  1.3340 -0.8802  0.5357
 6240SOL    HW230183   2.442   2.584   7.586 -0.5788 -0.1378 -2.0967
 6241SOL     OW30184   0.417   3.580  14.579 -0.2921 -0.1922  0.5496
 6241SOL    HW130185   0.450   3.508  14.633  0.8727  0.1284  0.2704
 6241SOL    HW230186   0.391   3.655  14.632 -2.8138  1.4211 -2.9726
 6242SOL     OW30187   3.768   0.844  16.092 -0.4356 -0.1952 -0.2464
 6242SOL    HW130188   3.745   0.917  16.150  0.5637 -0.6293  0.6999
 6242SOL    HW230189   3.837   0.876  16.034 -0.2612  1.4155  0.8623
 6243SOL     OW30190   1.737   4.547   2.892 -0.3624 -0.4595 -0.2619
 6243SOL    HW130191   1.778   4.476   2.941 -1.4330 -0.4581  0.6308
 6243SOL    HW230192   1.720   4.495   2.814 -0.2240 -0.7963 -0.0675
 6244SOL     OW30193   2.085   0.610   0.156 -0.0558  0.3907  0.2808
 6244SOL    HW130194   1.997   0.638   0.180 -0.5143  0.5443 -1.6395
 6244SOL    HW230195   2.061   0.541   0.094  2.8909 -1.1067  0.7836
 6245SOL     OW30196   1.002   2.426  12.914 -0.0130  0.1118 -0.2118
 6245SOL    HW130197   0.970   2.500  12.861  1.8026  0.4272 -0.8691
 6245SOL    HW230198   1.009   2.359  12.846 -1.4222 -0.9112  0.6586
 6246SOL     OW30199   0.123   2.525  12.643  0.8034 -0.0710  0.5674
 6246SOL    HW130200   0.201   2.500  12.593  0.0994 -1.2481  0.0612
 6246SOL    HW230201   0.156   2.527  12.733 -0.2242  0.6076  0.9331
 6247SOL     OW30202   0.760   1.375   4.962 -0.2412  0.4933 -0.0176
 6247SOL    HW130203   0.792   1.372   4.871  1.4225  4.2235  0.4435
 6247SOL    HW230204   0.813   1.307   5.005 -0.5884 -1.1775 -2.2138
 6248SOL     OW30205   1.987   2.828   4.558 -0.4960 -0.6013 -0.1366
 6248SOL    HW130206   1.896   2.825   4.529 -0.2092 -0.4322 -1.0397
 6248SOL    HW230207   2.023   2.761   4.501  0.5619 -0.4697  0.3770
 6249SOL     OW30208   3.229   2.858   6.743  0.4461  0.3785 -0.7477
 6249SOL    HW130209   3.304   2.840   6.687  1.1641  1.6500 -0.1771
 6249SOL    HW230210   3.195   2.779   6.784 -0.4113 -0.3823 -2.9112
 6250SOL     OW30211   1.542   2.061  16.424 -0.3334 -0.9520 -0.1550
 6250SOL    HW130212   1.463   2.111  16.447 -0.2090 -1.4715  1.4345
 6250SOL    HW230213   1.546   1.986  16.484  2.1362 -0.1818  0.6483
 6251SOL     OW30214   4.056   2.656  13.480 -0.1105  0.1605  0.2632
 6251SOL    HW130215   3.982   2.716  13.474 -0.6907 -0.6012 -0.0815
 6251SOL    HW230216   4.073   2.662  13.574  0.0461  0.3889  0.2207
 6252SOL     OW30217   2.764   3.896   8.128 -0.0165  0.0483  0.3691
 6252SOL    HW130218   2.783   3.957   8.200  3.5284  0.3841 -0.8341
 6252SOL    HW230219   2.797   3.945   8.053  0.8514  1.7519  1.8594
 6253SOL     OW30220   1.873   0.645  15.042  0.2019  0.2231  0.7289
 6253SOL    HW130221   1.791   0.693  15.055  0.8883  1.8694 -1.1102
 6253SOL    HW230222   1.849   0.555  15.063 -0.5915  0.6743  1.7547
 6254SOL     OW30223   3.195   3.306   9.200 -0.0322 -0.3494  0.2897
 6254SOL    HW130224   3.157   3.219   9.209  2.5725 -1.3416  1.5823
 6254SOL    HW230225   3.280   3.295   9.243 -0.4267 -1.1866  0.8528
 6255SOL     OW30226   4.300   2.009   5.120 -0.3009  0.0118  0.0343
 6255SOL    HW130227   4.330   2.084   5.069 -2.1162 -0.1836 -1.3155
 6255SOL    HW230228   4.206   2.009   5.102 -0.2642 -0.6318 -0.1781
 6256SOL     OW30229   2.631   0.175  17.326 -0.0657  0.3290  0.1444
 6256SOL    HW130230   2.610   0.082  17.317  1.6491  0.0200 -0.5161
 6256SOL    HW230231   2.619   0.189  17.233  1.3082  0.7718  0.0429
 6257SOL     OW30232   2.497   0.751   0.188  0.1969  0.3960  0.2208
 6257SOL    HW130233   2.427   0.720   0.132 -1.1374 -0.3700  2.2933
 6257SOL    HW230234   2.562   0.682   0.172 -0.5650 -0.3943  0.5076
 6258SOL     OW30235   2.493   1.315  13.515 -0.0604 -0.1619  0.6145
 6258SOL    HW130236   2.419   1.357  13.559  0.4624  1.0124  0.3459
 6258SOL    HW230237   2.457   1.281  13.433  0.2432  0.7190  0.1227
 6259SOL     OW30238   0.497   1.655   7.572  0.2469  0.3538  0.0512
 6259SOL    HW130239   0.489   1.637   7.666 -2.1376  0.1197 -0.2117
 6259SOL    HW230240   0.516   1.749   7.583 -2.7136  0.7999  1.2922
 6260SOL     OW30241   2.638   4.158   3.575  0.0647 -0.5180  0.5000
 6260SOL    HW130242   2.662   4.236   3.525  0.2597 -0.7658  0.2093
 6260SOL    HW230243   2.716   4.157   3.630 -1.3063 -0.9515  2.4710
 6261SOL     OW30244   4.696   1.682   6.876  0.4224 -0.9467 -0.0204
 6261SOL    HW130245   4.611   1.723   6.890  0.0693 -1.5750 -0.3127
 6261SOL    HW230246   0.001   1.678   6.968  0.3141 -2.2932 -0.0427
 6262SOL     OW30247   2.006   4.010   0.810  0.2182  0.0907 -0.4077
 6262SOL    HW130248   1.990   4.083   0.751 -0.1501 -0.7855 -1.4032
 6262SOL    HW230249   1.937   3.949   0.783  0.4431 -0.1933 -0.3462
 6263SOL     OW30250   4.018   3.062   4.855  0.5102 -0.0053  0.0846
 6263SOL    HW130251   3.960   3.125   4.814 -1.0101 -1.6864 -0.3493
 6263SOL    HW230252   4.058   3.008   4.786  0.9561  1.1058 -0.5325
 6264SOL     OW30253   0.511   4.125  13.346  0.0334 -0.5683 -0.3394
 6264SOL    HW130254   0.558   4.081  13.417 -2.2290  0.4872  1.7918
 6264SOL    HW230255   0.462   4.188  13.399 -1.6708 -3.2142  1.2589
 6265SOL     OW30256   3.235   1.920   6.118 -0.2130  0.0121  0.9666
 6265SOL    HW130257   3.258   1.986   6.184  0.9146  1.8412 -1.2629
 6265SOL    HW230258   3.140   1.927   6.105  0.1863 -0.2934 -1.9597
 6266SOL     OW30259   3.008   0.044   4.488 -0.1007  0.4211 -0.9405
 6266SOL    HW130260   2.967   0.123   4.522  0.5824  0.0287  0.8232
 6266SOL    HW230261   3.094   0.051   4.528  0.4119 -0.4436 -1.8967
 6267SOL     OW30262   2.300   3.393   4.759  0.2971 -0.2448 -0.3455
 6267SOL    HW130263   2.355   3.446   4.702 -1.8171  1.2071 -1.0237
 6267SOL    HW230264   2.375   3.359   4.808 -0.4151  0.1843  1.0643
 6268SOL     OW30265   1.463   3.816   5.649 -0.1931  0.3833  0.2812
 6268SOL    HW130266   1.549   3.816   5.607 -0.9380 -2.9229 -1.2619
 6268SOL    HW230267   1.413   3.767   5.584  1.9517 -0.7887 -0.4690
 6269SOL     OW30268   3.415   2.122   3.830  0.1284  0.3265  0.5772
 6269SOL    HW130269   3.393   2.180   3.758  1.3756 -2.1631 -1.7802
 6269SOL    HW230270   3.371   2.044   3.797  1.4883 -0.4875  0.6984
 6270SOL     OW30271   2.069   4.005  15.988  0.4472 -0.1529  0.2027
 6270SOL    HW130272   2.082   4.006  16.083  3.5186 -0.4861 -0.2272
 6270SOL    HW230273   1.981   3.967  15.986 -0.2833  1.6352 -1.0459
 6271SOL     OW30274   4.284   2.768   3.421 -0.1252  0.2302  0.1584
 6271SOL    HW130275   4.354   2.790   3.482  1.2985 -0.3474 -1.2589
 6271SOL    HW230276   4.325   2.813   3.346 -1.1231 -0.8264 -1.0190
 6272SOL     OW30277   2.349   2.099   5.044 -0.2459 -0.4321 -0.8612
 6272SOL    HW130278   2.440   2.108   5.016 -0.3193 -2.9346 -1.9033
 6272SOL    HW230279   2.299   2.096   4.962 -0.0687  2.3227 -1.0607
 6273SOL     OW30280   0.287   1.677  14.263 -0.1171 -0.4676 -0.0220
 6273SOL    HW130281   0.240   1.740  14.209  1.5098 -1.0301 -2.0735
 6273SOL    HW230282   0.312   1.729  14.340  3.3400 -0.2060 -1.3522
 6274SOL     OW30283   2.499   0.699   4.381  0.4445  0.7810  0.1239
 6274SOL    HW130284   2.467   0.624   4.329 -0.4191  1.2496 -0.0245
 6274SOL    HW230285   2.433   0.684   4.449 -0.2631  2.5204 -0.1857
 6275SOL     OW30286   1.733   2.705  11.029 -0.1601  0.3198 -0.2618
 6275SOL    HW130287   1.691   2.789  11.011 -1.9509 -0.4061  0.5873
 6275SOL    HW230288   1.747   2.712  11.123  0.0126 -2.0280 -0.1268
 6276SOL     OW30289   3.290   3.805   4.856 -1.0835  0.2972  0.3188
 6276SOL    HW130290   3.296   3.746   4.932  1.5301  0.2870  0.0993
 6276SOL    HW230291   3.382   3.832   4.861 -0.9011 -0.2868  0.0472
 6277SOL     OW30292   3.562   1.928   5.640  0.1349 -0.5882  0.0112
 6277SOL    HW130293   3.546   1.974   5.722  1.2424 -1.4271  0.7029
 6277SOL    HW230294   3.518   1.971   5.567  1.2424 -0.0398 -0.3424
 6278SOL     OW30295   1.078   3.553   4.455 -0.5631 -0.5057  0.1764
 6278SOL    HW130296   1.012   3.615   4.484 -0.4908  0.0692 -0.8845
 6278SOL    HW230297   1.037   3.526   4.373 -2.3432  2.1006  0.2201
 6279SOL     OW30298   0.909   1.366   6.868 -0.3217 -0.4372  0.1356
 6279SOL    HW130299   0.846   1.374   6.797  0.5354 -2.2011 -0.8059
 6279SOL    HW230300   0.849   1.372   6.942 -0.7003 -1.2655 -0.1077
 6280SOL     OW30301   1.174   4.032   8.630  0.5358  0.1022 -0.1964
 6280SOL    HW130302   1.256   4.057   8.673 -0.6213 -0.1983  2.1458
 6280SOL    HW230303   1.141   3.952   8.671 -0.4718  0.5179 -0.1993
 6281SOL     OW30304   0.653   3.061   6.925 -0.2402  0.2928 -0.0082
 6281SOL    HW130305   0.672   3.099   7.011 -3.3634  1.8318 -0.0144
 6281SOL    HW230306   0.692   3.123   6.863  1.9516  0.5545  1.6509
 6282SOL     OW30307   2.451   4.005   6.098 -1.0792  0.1713 -0.1049
 6282SOL    HW130308   2.455   4.097   6.071 -0.2231 -0.2787 -1.5136
 6282SOL    HW230309   2.373   3.983   6.047 -0.8212  0.5596 -0.6666
 6283SOL     OW30310   1.437   1.799  15.370 -0.3253  0.0730  0.1050
 6283SOL    HW130311   1.379   1.818  15.444  0.2963 -0.3821  0.7088
 6283SOL    HW230312   1.389   1.840  15.297  2.5579  0.6173 -1.4601
 6284SOL     OW30313   3.523   2.873   4.422 -0.3627  0.3741 -0.0801
 6284SOL    HW130314   3.478   2.811   4.366  2.3292  0.6082 -2.5090
 6284SOL    HW230315   3.554   2.947   4.369 -1.0016  1.8657  1.5971
 6285SOL     OW30316   2.624   4.248   5.537 -0.2022 -0.0966  0.0684
 6285SOL    HW130317   2.673   4.259   5.618  0.0333  0.9209 -0.2133
 6285SOL    HW230318   2.694   4.237   5.472 -0.8529  3.7183 -1.3002
 6286SOL     OW30319   2.675   4.502  14.584 -0.2786 -0.0651 -0.0776
 6286SOL    HW130320   2.643   4.424  14.629  1.0943 -1.1865 -1.0468
 6286SOL    HW230321   2.666   4.569  14.652  0.9388 -0.2744  0.3012
 6287SOL     OW30322   1.795   3.416   5.893  0.1524  0.3902 -0.3856
 6287SOL    HW130323   1.806   3.468   5.973 -1.1765  2.0530 -1.2745
 6287SOL    HW230324   1.801   3.327   5.927 -0.1134  0.2943 -0.5841
 6288SOL     OW30325   0.465   0.257  13.180 -0.2831  0.0064  0.2843
 6288SOL    HW130326   0.442   0.350  13.171 -1.2925 -0.5229 -2.6729
 6288SOL    HW230327   0.412   0.243  13.258  1.2914 -2.9366  0.8180
 6289SOL     OW30328   0.010   2.771   5.667 -0.2614 -0.0647  0.4093
 6289SOL    HW130329   0.005   2.856   5.623 -0.0327  0.7243  1.9179
 6289SOL    HW230330   4.655   2.781   5.722 -1.1407 -0.8414 -0.6791
 6290SOL     OW30331   0.766   2.611  10.416  0.1967  0.3150  0.2867
 6290SOL    HW130332   0.801   2.568  10.493 -1.0184 -1.0222  0.0913
 6290SOL    HW230333   0.697   2.664  10.455 -0.2772  0.6603 -1.0060
 6291SOL     OW30334   3.140   0.333   8.673  0.2431  0.6424  0.5101
 6291SOL    HW130335   3.155   0.311   8.765  1.8983  0.1367  0.1098
 6291SOL    HW230336   3.057   0.290   8.655 -0.0763  2.0735 -1.3698
 6292SOL     OW30337   4.491   1.952  15.384  0.6102  0.4779  0.3493
 6292SOL    HW130338   4.449   1.920  15.304  1.4366 -0.7474  0.3972
 6292SOL    HW230339   4.489   2.047  15.373  1.4693  0.4531 -0.0183
 6293SOL     OW30340   2.070   3.483  16.359 -0.2912 -0.0982 -0.0582
 6293SOL    HW130341   2.136   3.477  16.290  0.5869  0.7083  0.7245
 6293SOL    HW230342   2.062   3.391  16.384 -0.1290 -0.1950 -0.3637
 6294SOL     OW30343   1.427   3.147   9.007  0.2763 -0.5664 -0.2873
 6294SOL    HW130344   1.410   3.065   8.962 -0.7751 -0.6621  0.2736
 6294SOL    HW230345   1.348   3.194   8.979  1.0806  0.3468 -1.0503
 6295SOL     OW30346   4.147   1.138   6.271 -0.1016 -0.1535 -0.3012
 6295SOL    HW130347   4.109   1.213   6.316  0.9196 -0.5432  1.2286
 6295SOL    HW230348   4.157   1.172   6.182 -4.1944  2.7153  0.3628
 6296SOL     OW30349   2.387   2.986   1.507  0.0065 -0.1003  0.2904
 6296SOL    HW130350   2.413   3.041   1.433  0.4567 -1.0723 -0.2647
 6296SOL    HW230351   2.386   3.049   1.579  0.6369  2.3752 -1.8425
 6297SOL     OW30352   3.167   1.043   3.391  0.3353 -0.3104  0.4646
 6297SOL    HW130353   3.171   0.963   3.444  1.6916 -0.7670 -0.3275
 6297SOL    HW230354   3.163   1.018   3.299 -0.8764  2.5132 -0.2432
 6298SOL     OW30355   1.072   4.457   8.580  0.4262 -0.0903  0.1490
 6298SOL    HW130356   1.023   4.415   8.650 -2.2354  1.3112 -0.8683
 6298SOL    HW230357   1.155   4.409   8.576  0.4978  0.0629 -0.2224
 6299SOL     OW30358   1.844   0.700   4.791 -0.1335 -0.0474  0.1738
 6299SOL    HW130359   1.765   0.737   4.830  0.5796  0.8701  0.7331
 6299SOL    HW230360   1.843   0.610   4.823 -1.3804 -0.3501 -0.7043
 6300SOL     OW30361   2.115   2.572   6.495 -0.3203 -0.6993 -0.2295
 6300SOL    HW130362   2.024   2.602   6.488  0.0523  0.5719  0.4468
 6300SOL    HW230363   2.169   2.651   6.496 -0.4463 -0.6283  1.8738
 6301SOL     OW30364   2.361   2.233  13.576  0.3559 -0.0298  0.2562
 6301SOL    HW130365   2.344   2.243  13.482  0.1399  2.1044  0.5202
 6301SOL    HW230366   2.316   2.151  13.596  1.4164 -0.7273 -0.2287
 6302SOL     OW30367   2.399   3.456  14.644  0.0140 -0.0698 -0.4611
 6302SOL    HW130368   2.398   3.506  14.563 -1.4114  3.6031  1.8313
 6302SOL    HW230369   2.493   3.460  14.661 -0.1016  0.4772  0.0420
 6303SOL     OW30370   0.001   0.144  11.984  0.0591  0.4103 -0.0696
 6303SOL    HW130371   0.028   0.222  11.936 -0.8157  0.6440 -0.1857
 6303SOL    HW230372   0.054   0.151  12.063 -3.0357 -0.1562  2.0592
 6304SOL     OW30373   2.861   1.787   1.345  0.0790  0.2684 -0.9203
 6304SOL    HW130374   2.766   1.777   1.342  0.1048 -0.4673  0.6510
 6304SOL    HW230375   2.890   1.851   1.280  0.1308 -0.1230 -1.2859
 6305SOL     OW30376   0.428   4.630   7.826 -0.2611  0.0807 -0.1657
 6305SOL    HW130377   0.445   4.663   7.738 -1.3014  1.1119  0.0165
 6305SOL    HW230378   0.505   4.573   7.830  1.4431  2.2217 -2.2193
 6306SOL     OW30379   0.892   0.302   1.193 -0.3411 -0.0847 -0.5743
 6306SOL    HW130380   0.868   0.272   1.280  2.2813  1.6683  0.7342
 6306SOL    HW230381   0.913   0.393   1.209  0.1019 -0.5577  1.4722
 6307SOL     OW30382   4.435   2.480   8.974 -0.1823 -0.1620 -0.4007
 6307SOL    HW130383   4.426   2.514   9.063  0.2177  1.0554 -0.8332
 6307SOL    HW230384   4.350   2.480   8.929 -0.6803 -2.5086  0.4908
 6308SOL     OW30385   3.466   2.982   7.055  0.1137  0.7232  0.0788
 6308SOL    HW130386   3.439   2.894   7.029  0.4842  0.7182 -0.3076
 6308SOL    HW230387   3.558   2.966   7.032  0.3557  1.2015  0.7325
 6309SOL     OW30388   3.280   0.759   2.995 -0.0390  0.0578 -0.4304
 6309SOL    HW130389   3.187   0.737   3.006 -0.0133  0.5597  0.8078
 6309SOL    HW230390   3.279   0.854   2.988 -2.9158  0.1249  0.8291
 6310SOL     OW30391   3.566   4.177   8.054 -0.2835 -0.1310 -0.1629
 6310SOL    HW130392   3.520   4.245   8.004  0.1056 -0.9022 -1.5830
 6310SOL    HW230393   3.570   4.225   8.136  2.1935 -1.0043  0.2178
 6311SOL     OW30394   3.769   3.897  14.126 -1.1493  0.0170 -0.3090
 6311SOL    HW130395   3.682   3.863  14.146 -1.5333  1.0812 -0.1760
 6311SOL    HW230396   3.807   3.890  14.214 -1.8212 -1.6066 -0.1460
 6312SOL     OW30397   4.339   2.410  17.230  0.3029 -0.0815  0.2196
 6312SOL    HW130398   4.358   2.455  17.313  0.4522  0.2074  0.0292
 6312SOL    HW230399   4.372   2.482  17.176 -0.5289  0.7612  0.8414
 6313SOL     OW30400   4.289   3.374  10.238 -0.0354  0.0960 -0.0389
 6313SOL    HW130401   4.323   3.455  10.276  0.4006  1.3855 -3.2403
 6313SOL    HW230402   4.226   3.406  10.174  0.2634  1.0155  0.1250
 6314SOL     OW30403   3.343   2.145   2.739 -0.1089 -0.1883  0.7130
 6314SOL    HW130404   3.412   2.079   2.735 -2.7033 -2.8122 -0.0076
 6314SOL    HW230405   3.291   2.121   2.663 -1.2551  1.3749  0.9812
 6315SOL     OW30406   0.935   3.021   4.013 -0.0056  0.0795  0.1008
 6315SOL    HW130407   1.030   3.025   4.011 -0.0939  2.2959  0.8270
 6315SOL    HW230408   0.911   3.014   4.106 -0.9080  0.8238 -0.0731
 6316SOL     OW30409   2.749   1.215  11.622  0.0222 -0.2550  0.5716
 6316SOL    HW130410   2.828   1.253  11.659  1.3481 -0.1669 -2.3749
 6316SOL    HW230411   2.737   1.143  11.685  2.2772 -0.8141  0.3577
 6317SOL     OW30412   1.263   3.597   4.641  0.0451 -0.3242  0.3817
 6317SOL    HW130413   1.334   3.652   4.609 -0.9935  1.2285  0.7563
 6317SOL    HW230414   1.211   3.573   4.564 -1.3181 -0.2227  1.2599
 6318SOL     OW30415   1.335   4.410   8.919  0.2930  0.1634 -0.4729
 6318SOL    HW130416   1.411   4.466   8.907  1.5279 -0.7912  3.0458
 6318SOL    HW230417   1.362   4.377   9.004  0.6801 -2.4079 -1.5903
 6319SOL     OW30418   3.440   1.850   7.017 -0.2723 -0.0325  0.1260
 6319SOL    HW130419   3.475   1.906   6.948  1.7439  0.1613  1.3067
 6319SOL    HW230420   3.522   1.825   7.058 -0.7898 -0.3591  0.9641
 6320SOL     OW30421   0.087   0.419   3.633 -0.0894 -0.2079  0.2297
 6320SOL    HW130422   0.144   0.463   3.696  2.5557 -0.9784 -1.6322
 6320SOL    HW230423   0.156   0.378   3.580 -0.1181  0.6673 -0.4806
 6321SOL     OW30424   0.938   0.329   3.451 -0.1924 -0.2489  0.0391
 6321SOL    HW130425   1.020   0.348   3.498 -1.4761 -0.3844  2.3155
 6321SOL    HW230426   0.952   0.363   3.363  0.7891  1.7379  0.9465
 6322SOL     OW30427   0.223   1.434   9.599  0.2503  0.1035  0.1376
 6322SOL    HW130428   0.182   1.454   9.683 -4.2349  1.4926 -2.3394
 6322SOL    HW230429   0.308   1.412   9.636 -0.1221  3.7194  3.0868
 6323SOL     OW30430   3.250   1.096   5.082  0.3293 -0.6070  0.0833
 6323SOL    HW130431   3.336   1.075   5.119  0.3070  0.3532  0.6840
 6323SOL    HW230432   3.202   1.122   5.161  2.0354  0.0229  0.8999
 6324SOL     OW30433   3.337   1.093   8.761 -0.0833 -0.0906  0.1575
 6324SOL    HW130434   3.276   1.159   8.727  0.2054 -0.5065 -1.1727
 6324SOL    HW230435   3.301   1.017   8.715 -1.2684  1.4763 -1.5449
 6325SOL     OW30436   0.017   2.549   7.799 -0.0475  0.1393  0.1018
 6325SOL    HW130437   4.684   2.506   7.733  0.0317 -1.2107  0.9133
 6325SOL    HW230438   4.686   2.540   7.878  1.3706  0.6537  1.1248
 6326SOL     OW30439   0.575   1.287  11.910 -0.4332 -0.2412  0.3047
 6326SOL    HW130440   0.640   1.240  11.961  1.2133  0.5702 -1.0352
 6326SOL    HW230441   0.621   1.334  11.841  1.8391 -1.5241  0.9670
 6327SOL     OW30442   0.617   1.687   8.143 -0.4438 -0.5775 -0.2868
 6327SOL    HW130443   0.707   1.674   8.173 -0.1360  1.2748 -0.3952
 6327SOL    HW230444   0.628   1.777   8.112 -0.6556  0.1112  1.5898
 6328SOL     OW30445   4.478   1.385  17.332 -0.3388  0.2629 -0.2840
 6328SOL    HW130446   4.450   1.375  17.241  1.0496  0.3636 -0.7213
 6328SOL    HW230447   4.543   1.315  17.341 -0.9523 -0.2432  0.1369
 6329SOL     OW30448   2.650   0.738   2.889 -0.1026 -0.0420  0.1062
 6329SOL    HW130449   2.615   0.672   2.829 -0.1172 -0.1158  0.1955
 6329SOL    HW230450   2.738   0.706   2.913 -0.5938  0.4396  2.6025
 6330SOL     OW30451   0.119   0.510  13.001 -0.1220 -0.5476  0.0159
 6330SOL    HW130452   0.080   0.594  12.978  2.9403  1.1577  1.0491
 6330SOL    HW230453   0.164   0.488  12.919  0.4103 -0.5615  0.3065
 6331SOL     OW30454   3.470   0.378   8.940  0.0959 -0.5465  0.2840
 6331SOL    HW130455   3.441   0.301   8.890 -1.6168  1.1950 -1.3694
 6331SOL    HW230456   3.410   0.445   8.909  1.8496  1.1354  0.5509
 6332SOL     OW30457   4.611   0.354  17.419  0.5202 -1.0266 -0.2454
 6332SOL    HW130458   4.706   0.339  17.418  0.7357  0.2929  0.3702
 6332SOL    HW230459   4.589   0.359  17.325  0.1026 -0.6920 -0.1321
 6333SOL     OW30460   2.544   3.270  14.850 -0.0617 -0.1385  0.9281
 6333SOL    HW130461   2.602   3.329  14.801  0.1022  1.3637  2.9307
 6333SOL    HW230462   2.514   3.217  14.776  0.4028  0.5565  0.2338
 6334SOL     OW30463   4.337   4.567   1.731 -0.5264  0.3501  0.1956
 6334SOL    HW130464   4.252   4.593   1.765 -1.2150 -1.1760 -0.3571
 6334SOL    HW230465   4.309   4.492   1.679 -0.8374  1.4698 -1.2592
 6335SOL     OW30466   4.100   2.394   4.623 -0.3299  0.0252  0.4568
 6335SOL    HW130467   4.021   2.396   4.571  0.1201  0.0586 -0.2229
 6335SOL    HW230468   4.106   2.489   4.633 -0.6501  0.2789 -1.7616
 6336SOL     OW30469   0.139   2.997   6.327 -0.1053  0.2235 -0.2712
 6336SOL    HW130470   0.076   3.062   6.358 -0.4178  0.5545 -1.5795
 6336SOL    HW230471   0.175   2.954   6.405 -0.1569  1.6551  0.5330
 6337SOL     OW30472   0.326   0.975   7.398  0.0582  0.1231 -0.3644
 6337SOL    HW130473   0.258   1.023   7.350 -0.5544 -1.4829 -1.1096
 6337SOL    HW230474   0.384   0.965   7.323 -1.3694  3.7888 -1.9418
 6338SOL     OW30475   1.357   0.939   5.981  0.6749  0.8896  0.3521
 6338SOL    HW130476   1.435   0.970   6.027  0.7484 -0.9037  1.4462
 6338SOL    HW230477   1.287   0.985   6.027  1.2527  0.2450  1.8647
 6339SOL     OW30478   2.343   1.696   6.117 -0.2483 -0.3540  0.5296
 6339SOL    HW130479   2.308   1.613   6.151  0.4929 -0.9650 -0.1956
 6339SOL    HW230480   2.360   1.742   6.199 -1.5380  1.9813 -0.5341
 6340SOL     OW30481   0.726   3.983   6.155 -0.4609 -0.0178 -0.5106
 6340SOL    HW130482   0.669   4.052   6.189 -2.6814 -1.9534 -0.2729
 6340SOL    HW230483   0.682   3.967   6.072 -0.7557  0.9616 -0.5388
 6341SOL     OW30484   1.492   1.659  11.011 -0.3431 -0.1264  0.2568
 6341SOL    HW130485   1.416   1.715  11.027  0.6952  1.7081 -1.3631
 6341SOL    HW230486   1.473   1.591  11.076  2.2906 -0.7608  0.3417
 6342SOL     OW30487   2.661   3.797  10.813 -0.6018  0.6587 -0.5490
 6342SOL    HW130488   2.567   3.802  10.794 -0.7153  2.1139  0.3903
 6342SOL    HW230489   2.674   3.891  10.823  0.4586  0.4903 -0.3476
 6343SOL     OW30490   2.348   1.090   1.685 -0.1263 -0.0893 -0.0614
 6343SOL    HW130491   2.352   1.155   1.755  2.1313  0.5963 -0.8170
 6343SOL    HW230492   2.268   1.121   1.642  1.0159  0.7179 -1.6081
 6344SOL     OW30493   0.791   2.716   3.197 -0.4490 -0.3541  0.0302
 6344SOL    HW130494   0.784   2.812   3.197  3.0744 -0.0909 -0.7690
 6344SOL    HW230495   0.883   2.705   3.219 -0.9059 -3.7978  0.1405
 6345SOL     OW30496   4.495   4.440   8.377 -0.0760  0.5668 -0.5192
 6345SOL    HW130497   4.560   4.378   8.409 -4.3944 -3.3394  0.8174
 6345SOL    HW230498   4.540   4.510   8.330 -0.4746 -0.0568 -1.8121
 6346SOL     OW30499   1.440   4.219   7.320  0.8460  0.1949  0.0713
 6346SOL    HW130500   1.457   4.143   7.266 -0.9117  0.9643 -1.5533
 6346SOL    HW230501   1.396   4.282   7.263  0.8422 -0.1462 -0.2952
 6347SOL     OW30502   2.436   4.597  10.472  0.1707  0.0842 -0.2280
 6347SOL    HW130503   2.475   4.624  10.555  0.9922 -0.2779 -0.5064
 6347SOL    HW230504   2.342   4.578  10.484 -0.0444  0.9492 -0.5364
 6348SOL     OW30505   2.451   0.941   6.916 -0.2018  0.1127 -0.4251
 6348SOL    HW130506   2.517   0.976   6.856  0.9721  1.3130  1.5640
 6348SOL    HW230507   2.396   0.899   6.850  0.4780  0.7296 -1.3973
 6349SOL     OW30508   1.672   1.722   2.960 -0.2469 -0.2855 -0.1325
 6349SOL    HW130509   1.747   1.665   2.945 -0.8618 -0.5329 -2.2892
 6349SOL    HW230510   1.622   1.667   3.021  0.5356  0.2580  1.0063
 6350SOL     OW30511   4.168   2.085   7.719 -0.2506  0.1592 -0.0241
 6350SOL    HW130512   4.261   2.071   7.735 -0.3938  0.6469  1.2757
 6350SOL    HW230513   4.168   2.179   7.698  2.0165  0.1600  0.0266
 6351SOL     OW30514   1.541   1.367   0.694 -0.2716 -0.2589 -0.0799
 6351SOL    HW130515   1.539   1.391   0.787 -0.7995 -3.3659  0.7113
 6351SOL    HW230516   1.635   1.354   0.683 -0.8822 -1.8384 -3.4266
 6352SOL     OW30517   1.720   1.024   6.593 -1.1243 -0.4714  0.2104
 6352SOL    HW130518   1.674   0.942   6.573  0.6306 -1.1976 -0.7824
 6352SOL    HW230519   1.770   1.045   6.514  0.0571 -1.9976  0.5414
 6353SOL     OW30520   2.704   2.853  14.125 -0.9086 -0.2385 -0.1183
 6353SOL    HW130521   2.628   2.877  14.072 -0.6927 -0.2560 -0.4348
 6353SOL    HW230522   2.688   2.759  14.134 -1.1989 -0.3005 -1.2748
 6354SOL     OW30523   2.517   2.593  13.447 -0.2997  0.4587  0.4962
 6354SOL    HW130524   2.427   2.563  13.437 -0.2158 -0.0727  1.3281
 6354SOL    HW230525   2.492   2.665  13.504 -4.1259 -1.0492  0.7076
 6355SOL     OW30526   1.176   1.071  11.713  0.3643  0.6097  0.4384
 6355SOL    HW130527   1.092   1.030  11.733  1.0194 -0.0121  1.9463
 6355SOL    HW230528   1.166   1.123  11.634 -1.1274  0.6056  0.6244
 6356SOL     OW30529   1.398   2.387  12.821  0.3239 -0.0229  0.2857
 6356SOL    HW130530   1.342   2.314  12.850 -0.7023  1.5810  2.3398
 6356SOL    HW230531   1.352   2.460  12.862 -0.0452 -0.5158  0.7553
 6357SOL     OW30532   0.243   3.717  16.072  0.4424 -0.5637  0.6397
 6357SOL    HW130533   0.226   3.655  16.001  1.2105 -2.6484  2.2602
 6357SOL    HW230534   0.179   3.783  16.047  1.2527  0.2598  0.7384
 6358SOL     OW30535   3.141   3.293   6.616  0.1924  0.2230 -0.0304
 6358SOL    HW130536   3.154   3.345   6.537  0.2623  1.0427  0.5186
 6358SOL    HW230537   3.104   3.361   6.672  1.6460  1.5080 -0.6411
 6359SOL     OW30538   2.168   1.699   1.452  0.0016  0.7267  0.0324
 6359SOL    HW130539   2.103   1.694   1.381 -0.8831 -2.4989  1.0509
 6359SOL    HW230540   2.221   1.622   1.431 -0.2365  0.4298  0.5120
 6360SOL     OW30541   0.831   3.377   1.406  0.4236 -0.0845  0.2522
 6360SOL    HW130542   0.786   3.294   1.393 -0.7369  0.4590  0.7893
 6360SOL    HW230543   0.874   3.379   1.321  2.3156 -2.7532  1.1408
 6361SOL     OW30544   0.072   1.553   7.152 -0.0661  0.5549  0.1890
 6361SOL    HW130545   4.717   1.507   7.121 -1.6347  0.3578  4.3562
 6361SOL    HW230546   0.066   1.535   7.246 -2.8308  1.6447  0.2392
 6362SOL     OW30547   0.508   4.533   4.480  0.0399 -0.7010 -0.4707
 6362SOL    HW130548   0.474   4.613   4.518 -1.3369 -0.9157 -1.2680
 6362SOL    HW230549   0.511   4.473   4.554  0.0048  0.4530  0.4571
 6363SOL     OW30550   1.926   1.444   7.473 -0.1123  0.0266 -0.5046
 6363SOL    HW130551   1.982   1.474   7.402 -0.4445 -0.4963 -0.9835
 6363SOL    HW230552   1.844   1.491   7.459 -0.1256  0.4249  0.8320
 6364SOL     OW30553   2.522   2.855   4.764 -0.1383 -0.0835 -0.3648
 6364SOL    HW130554   2.475   2.850   4.681 -0.1959  2.8939 -0.4884
 6364SOL    HW230555   2.529   2.950   4.762  1.1419 -0.2072 -1.6318
 6365SOL     OW30556   0.548   2.944   7.921  0.0079 -0.2814 -0.1161
 6365SOL    HW130557   0.483   2.912   7.985 -0.8535  1.9670  0.1566
 6365SOL    HW230558   0.627   2.921   7.970  0.4092  0.5555 -0.3644
 6366SOL     OW30559   4.468   0.155  11.960  0.3539  0.0810  0.4621
 6366SOL    HW130560   4.562   0.144  11.974  0.7895 -0.2024 -2.5983
 6366SOL    HW230561   4.434   0.095  12.026  0.2905  1.7178  1.9363
 6367SOL     OW30562   3.130   0.343   6.479  0.3803  0.5697  0.2091
 6367SOL    HW130563   3.205   0.293   6.446  0.5898  0.0780  1.4519
 6367SOL    HW230564   3.087   0.368   6.397 -2.9759  0.1321  1.8705
 6368SOL     OW30565   1.133   3.355   2.736  0.2467 -0.0347 -0.7014
 6368SOL    HW130566   1.171   3.437   2.704  0.4584  0.4159  0.7012
 6368SOL    HW230567   1.128   3.368   2.831 -1.1089 -1.8737 -0.5204
 6369SOL     OW30568   3.002   4.300   7.430  0.1733  0.7413 -0.4801
 6369SOL    HW130569   3.085   4.297   7.478 -0.6243  0.8276  0.8904
 6369SOL    HW230570   2.975   4.390   7.447  0.3441  0.2852  2.0872
 6370SOL     OW30571   3.536   4.525   9.643  0.4942  0.3643 -0.3883
 6370SOL    HW130572   3.565   4.434   9.640  1.9320  0.8538 -1.1484
 6370SOL    HW230573   3.526   4.546   9.736 -1.7718  0.6064 -0.6841
 6371SOL     OW30574   0.798   1.334   7.127 -0.7483  0.7568 -0.1606
 6371SOL    HW130575   0.735   1.405   7.137 -1.8135 -0.0122 -1.4135
 6371SOL    HW230576   0.771   1.278   7.199  0.7009 -0.9313 -0.9115
 6372SOL     OW30577   1.334   0.083   6.098  0.3600  0.1066 -0.4221
 6372SOL    HW130578   1.311   4.717   6.125 -1.4721  0.9527  0.7592
 6372SOL    HW230579   1.253   0.104   6.053 -1.0958  1.4169  2.8143
 6373SOL     OW30580   2.118   2.415  10.355  0.2966 -0.0603  0.0769
 6373SOL    HW130581   2.151   2.504  10.358 -1.3984  0.6143 -1.5101
 6373SOL    HW230582   2.156   2.393  10.270 -0.7325  0.4511 -0.5177
 6374SOL     OW30583   2.501   0.785  14.406  0.3973  0.2033  0.0460
 6374SOL    HW130584   2.534   0.815  14.491  0.3811  0.4587 -0.0368
 6374SOL    HW230585   2.408   0.768  14.418  0.3263 -0.2588 -1.2021
 6375SOL     OW30586   0.564   2.580   8.922 -0.4321 -0.1895 -0.3429
 6375SOL    HW130587   0.585   2.657   8.974 -2.7546  0.9783 -1.1511
 6375SOL    HW230588   0.518   2.534   8.992  1.5562 -1.5815  0.0473
 6376SOL     OW30589   0.049   4.265  16.385  0.4905  0.1160  0.3066
 6376SOL    HW130590   0.022   4.347  16.343  2.5646  1.1363  0.9612
 6376SOL    HW230591   0.144   4.278  16.391  0.3573  0.6413  1.3744
 6377SOL     OW30592   1.790   3.425   6.405 -0.1086 -0.3078  1.4087
 6377SOL    HW130593   1.763   3.464   6.321  0.5876 -3.2956 -0.2088
 6377SOL    HW230594   1.714   3.366   6.411  0.6787 -1.3375  1.1766
 6378SOL     OW30595   4.413   3.395   5.623  0.1290  0.1772  0.0996
 6378SOL    HW130596   4.390   3.471   5.570  0.8381  0.3281  0.0102
 6378SOL    HW230597   4.369   3.319   5.585 -0.2325  0.4158  0.0321
 6379SOL     OW30598   1.952   0.265  12.777  0.0365  0.4714  0.0167
 6379SOL    HW130599   1.972   0.358  12.764  0.2713  0.5159  0.7135
 6379SOL    HW230600   1.952   0.260  12.873  0.2182 -0.2511 -0.0196
 6380SOL     OW30601   2.456   1.882   2.358 -0.3426 -0.0282  0.4142
 6380SOL    HW130602   2.481   1.973   2.376 -1.0005  0.2832 -0.2555
 6380SOL    HW230603   2.372   1.875   2.403 -0.3079 -0.3047  0.4336
 6381SOL     OW30604   2.977   0.066   8.114  0.1343 -0.4289  0.4397
 6381SOL    HW130605   2.894   0.110   8.094 -0.0828 -1.5985 -1.1881
 6381SOL    HW230606   2.945   4.711   8.159 -0.1346  0.5064  1.8907
 6382SOL     OW30607   2.366   4.180   2.379  0.3261 -0.2943  0.6519
 6382SOL    HW130608   2.356   4.256   2.437  1.1077 -0.4987  1.0530
 6382SOL    HW230609   2.458   4.189   2.355 -0.2979  2.3622 -0.7118
 6383SOL     OW30610   2.905   3.813  17.649 -0.8282  0.1302 -0.7282
 6383SOL    HW130611   2.811   3.826  17.637 -1.1930 -1.5641  0.2553
 6383SOL    HW230612   2.906   3.749  17.577 -0.7399 -3.4644  2.4723
 6384SOL     OW30613   3.866   1.654   0.031  0.4056  0.0891 -0.4373
 6384SOL    HW130614   3.939   1.708   0.061  0.1846  0.7298 -1.0474
 6384SOL    HW230615   3.789   1.710   0.036 -0.0513 -0.5048 -0.7357
 6385SOL     OW30616   2.421   4.077   3.445 -0.3361  0.2921 -0.1903
 6385SOL    HW130617   2.510   4.074   3.480 -1.4741 -0.5971  2.6090
 6385SOL    HW230618   2.419   4.018   3.369 -1.2729  1.1889 -0.8570
 6386SOL     OW30619   0.031   0.797   0.863 -0.1439 -0.2713  0.0705
 6386SOL    HW130620   0.015   0.845   0.782 -2.6119 -1.0055  0.1189
 6386SOL    HW230621   0.126   0.810   0.866 -0.1860  0.6275 -3.0089
 6387SOL     OW30622   4.348   4.007   6.850  0.2435  0.7231  0.4100
 6387SOL    HW130623   4.263   4.002   6.807  0.2015  0.3027  0.5422
 6387SOL    HW230624   4.359   4.100   6.869 -0.9249  0.6925  1.2429
 6388SOL     OW30625   2.714   0.546   3.985 -0.7313  0.3953 -0.1208
 6388SOL    HW130626   2.618   0.550   3.978 -1.0180 -2.2954  2.5238
 6388SOL    HW230627   2.737   0.638   4.002  0.9710  0.1222 -0.9817
 6389SOL     OW30628   2.382   3.364   8.668 -0.0995  0.0978 -0.1730
 6389SOL    HW130629   2.476   3.347   8.661 -0.4994 -2.1175  0.0711
 6389SOL    HW230630   2.372   3.452   8.632 -1.5206 -0.7337 -1.7774
 6390SOL     OW30631   4.132   1.359   7.483 -0.5976 -0.3849 -0.0342
 6390SOL    HW130632   4.131   1.319   7.396  2.1742 -2.1711  0.7328
 6390SOL    HW230633   4.149   1.289   7.546  2.1738 -1.1297 -1.5806
 6391SOL     OW30634   3.723   2.913  15.936  0.0999 -0.4505 -0.3035
 6391SOL    HW130635   3.664   2.863  15.879 -0.1833 -1.1362  0.5918
 6391SOL    HW230636   3.797   2.854  15.952  1.8006  1.4591 -1.3067
 6392SOL     OW30637   3.686   3.882   3.738 -0.4067 -0.1741 -0.7572
 6392SOL    HW130638   3.780   3.894   3.731 -0.2243 -0.1577  2.1354
 6392SOL    HW230639   3.681   3.797   3.694 -2.0986  0.4505 -1.7987
 6393SOL     OW30640   2.162   0.984  16.008  0.1830 -0.3206 -0.2843
 6393SOL    HW130641   2.251   1.006  16.035 -1.0477  0.1836  3.2242
 6393SOL    HW230642   2.167   0.889  15.994  1.9133 -0.4650  1.3950
 6394SOL     OW30643   1.306   1.150  10.086  0.0120 -0.0293 -0.0188
 6394SOL    HW130644   1.360   1.223  10.118  0.6887 -1.0289  1.0988
 6394SOL    HW230645   1.298   1.099  10.166  1.3888  0.3928  0.3976
 6395SOL     OW30646   4.036   3.192   7.412 -0.3613  0.1142  0.3346
 6395SOL    HW130647   4.003   3.164   7.498 -1.0660  0.0480  0.0403
 6395SOL    HW230648   4.109   3.250   7.434 -2.1120  1.5786  2.4159
 6396SOL     OW30649   3.848   3.712   1.949  0.0107 -0.5102 -0.8493
 6396SOL    HW130650   3.824   3.778   2.014  0.4435  0.0917 -1.2909
 6396SOL    HW230651   3.944   3.709   1.946  0.1598  3.3450 -0.1108
 6397SOL     OW30652   4.066   3.969   4.334 -0.3670  0.1397 -0.3673
 6397SOL    HW130653   3.989   4.003   4.379 -0.9310  0.5146 -1.5970
 6397SOL    HW230654   4.014   3.941   4.258  1.8944 -0.3299 -1.7505
 6398SOL     OW30655   1.072   4.285  11.274  0.0459 -0.0767  0.2449
 6398SOL    HW130656   1.068   4.381  11.277 -1.2091 -0.3012  4.5316
 6398SOL    HW230657   1.158   4.274  11.233 -0.3996 -1.0946 -0.4194
 6399SOL     OW30658   0.470   4.446   7.387  0.1284 -0.0419  0.4317
 6399SOL    HW130659   0.421   4.384   7.440  0.0279  0.1666  0.5798
 6399SOL    HW230660   0.411   4.474   7.317 -1.0741  1.4472  2.0452
 6400SOL     OW30661   1.984   0.647   5.116  0.2515  0.6816  0.4175
 6400SOL    HW130662   2.009   0.684   5.201 -0.1144  1.3432  0.2456
 6400SOL    HW230663   1.889   0.637   5.119  0.5501 -2.7298 -2.1245
 6401SOL     OW30664   4.396   3.317   3.952  0.4439 -0.1027 -0.2476
 6401SOL    HW130665   4.439   3.307   4.037  1.2780 -0.3309 -0.6993
 6401SOL    HW230666   4.391   3.412   3.941 -1.6319 -0.2450 -0.4697
 6402SOL     OW30667   0.111   0.123   5.943 -0.2537  0.1860 -0.1031
 6402SOL    HW130668   0.066   0.140   6.026  1.3700 -0.8828  0.9980
 6402SOL    HW230669   0.043   0.132   5.877  0.8068  0.3036 -1.1800
 6403SOL     OW30670   0.261   1.400   2.491 -0.4655 -1.1176 -0.7762
 6403SOL    HW130671   0.189   1.458   2.515  0.3124  0.2464 -1.6946
 6403SOL    HW230672   0.301   1.452   2.422  0.5374 -1.1401 -0.2235
 6404SOL     OW30673   1.239   3.860   3.675  0.3084 -0.3271 -0.0215
 6404SOL    HW130674   1.147   3.836   3.682  0.3696 -0.7641 -0.6576
 6404SOL    HW230675   1.285   3.778   3.694  0.5567 -0.2726 -0.3787
 6405SOL     OW30676   2.904   1.936   5.572  0.6045 -0.6034 -0.9922
 6405SOL    HW130677   2.906   2.026   5.540 -1.6396  0.2819  1.3485
 6405SOL    HW230678   2.809   1.924   5.576  0.6433 -1.1726 -1.8244
 6406SOL     OW30679   3.475   3.284   3.986 -0.3704 -0.0334  0.5656
 6406SOL    HW130680   3.528   3.206   3.967 -1.1325 -0.4692  0.2413
 6406SOL    HW230681   3.392   3.239   4.002  2.5933 -4.6787  3.3659
 6407SOL     OW30682   0.990   1.450   5.856 -0.3586 -0.5710 -0.2612
 6407SOL    HW130683   1.033   1.531   5.882 -1.6331  0.4206 -1.2440
 6407SOL    HW230684   1.043   1.416   5.784  0.3506  0.5914 -0.2737
 6408SOL     OW30685   4.171   3.531  16.210  0.1819 -0.2111 -0.5478
 6408SOL    HW130686   4.194   3.613  16.167 -2.6038  1.1317  0.4555
 6408SOL    HW230687   4.108   3.560  16.277  2.8317  0.9288  1.4688
 6409SOL     OW30688   1.144   2.455   1.121  0.4670  0.2067 -0.0152
 6409SOL    HW130689   1.216   2.392   1.117  1.5313  1.3620  0.8515
 6409SOL    HW230690   1.188   2.539   1.109 -0.9467  0.8998 -0.2519
 6410SOL     OW30691   4.569   0.440   2.338 -0.1783  0.5089  0.3099
 6410SOL    HW130692   4.568   0.495   2.417 -0.2800  0.9326  0.0185
 6410SOL    HW230693   4.653   0.467   2.302  0.4361 -1.8883 -0.0476
 6411SOL     OW30694   3.822   0.452   5.356  0.0210 -0.0421  0.2643
 6411SOL    HW130695   3.732   0.443   5.388 -0.7769  1.8892 -1.4152
 6411SOL    HW230696   3.813   0.524   5.293  1.6181 -0.7043 -0.7253
 6412SOL     OW30697   1.579   0.888  17.113  0.1490  0.8065  0.4961
 6412SOL    HW130698   1.653   0.925  17.065  1.3947  0.8685  2.4336
 6412SOL    HW230699   1.506   0.907  17.054 -0.0630  1.3883  0.9327
 6413SOL     OW30700   1.625   0.911   7.014 -0.1604  0.1164 -0.5784
 6413SOL    HW130701   1.633   0.847   7.084  1.8066  0.8581 -0.1315
 6413SOL    HW230702   1.682   0.980   7.046 -0.4617  0.0717  0.0426
 6414SOL     OW30703   3.634   3.078  13.510  0.3278 -0.2035 -0.2824
 6414SOL    HW130704   3.710   3.049  13.459  0.1643  1.6949 -1.6088
 6414SOL    HW230705   3.582   2.997  13.507  1.1423 -0.7939  1.3201
 6415SOL     OW30706   2.271   3.387   6.768 -0.0316 -0.0427  0.3698
 6415SOL    HW130707   2.313   3.404   6.852  0.8705 -1.7167  0.2509
 6415SOL    HW230708   2.339   3.407   6.703  0.2783 -0.3634  0.5956
 6416SOL     OW30709   2.663   1.939   3.933 -0.2667 -0.0421 -0.2144
 6416SOL    HW130710   2.615   1.894   4.002  2.3623 -0.2433  1.4830
 6416SOL    HW230711   2.748   1.955   3.974 -1.0426  0.3684  1.2145
 6417SOL     OW30712   1.827   0.627   2.164  0.1552  0.1374  0.2938
 6417SOL    HW130713   1.757   0.681   2.201 -1.2915 -1.6534  0.1325
 6417SOL    HW230714   1.862   0.686   2.096 -0.5644 -0.4222 -0.5625
 6418SOL     OW30715   4.246   4.592  12.211  0.2978 -0.0580  0.4005
 6418SOL    HW130716   4.275   4.574  12.301 -1.4147 -0.2438  0.9199
 6418SOL    HW230717   4.313   4.655  12.187  0.1622  0.6185  1.8160
 6419SOL     OW30718   1.206   0.395   3.533 -0.4442 -0.6648  0.3912
 6419SOL    HW130719   1.231   0.442   3.613  0.1411 -0.4595  0.0843
 6419SOL    HW230720   1.243   0.448   3.463  0.2427  0.9385  1.9608
 6420SOL     OW30721   0.141   4.134  15.165 -0.3228 -0.7208  0.0394
 6420SOL    HW130722   0.164   4.172  15.080 -0.3632  0.2094  0.4559
 6420SOL    HW230723   0.048   4.137  15.142 -0.3455 -0.7981  0.1204
 6421SOL     OW30724   0.375   1.588   1.109 -0.2912  0.0049 -0.1855
 6421SOL    HW130725   0.315   1.551   1.174 -0.1309 -1.2231 -0.7265
 6421SOL    HW230726   0.426   1.654   1.156 -0.9487  1.6511 -1.7658
 6422SOL     OW30727   0.213   0.533  12.742  0.1228  0.1160 -0.2193
 6422SOL    HW130728   0.162   0.498  12.669 -1.7841 -1.3640  1.8616
 6422SOL    HW230729   0.175   0.621  12.747  2.5822  1.3184 -2.7252
 6423SOL     OW30730   3.195   0.475  12.571 -0.5097  0.1175  0.2817
 6423SOL    HW130731   3.270   0.450  12.518 -0.6611  1.3325 -0.5034
 6423SOL    HW230732   3.150   0.524  12.502 -0.5498 -0.7942 -0.3335
 6424SOL     OW30733   2.435   3.258   5.779  0.0867 -0.2851 -0.1147
 6424SOL    HW130734   2.513   3.216   5.741 -0.3705  2.0763 -3.7287
 6424SOL    HW230735   2.369   3.188   5.784  0.3578 -0.7420 -2.7131
 6425SOL     OW30736   0.204   2.081  13.183 -0.3212  0.5400 -0.1629
 6425SOL    HW130737   0.283   2.027  13.182  0.5809  1.8336  0.8710
 6425SOL    HW230738   0.140   2.025  13.228  0.3660 -0.8228 -0.8964
 6426SOL     OW30739   1.932   0.381   5.888 -0.1827  0.0683  0.5812
 6426SOL    HW130740   1.839   0.385   5.911  0.1244  2.6491  1.3498
 6426SOL    HW230741   1.970   0.458   5.930  0.6811 -1.2658  2.2213
 6427SOL     OW30742   0.493   3.640   7.716 -0.4035  0.1055  0.0983
 6427SOL    HW130743   0.570   3.594   7.683  0.8859  3.2846 -1.2801
 6427SOL    HW230744   0.432   3.603   7.652  1.1956 -2.9962  0.3304
 6428SOL     OW30745   0.888   1.894   6.168 -0.4005  0.3465  0.0774
 6428SOL    HW130746   0.939   1.965   6.130 -1.4322  0.5377 -0.9400
 6428SOL    HW230747   0.911   1.816   6.118  1.0284  0.9461 -0.1840
 6429SOL     OW30748   3.907   1.111   3.189  0.2204  0.1735  0.2887
 6429SOL    HW130749   3.927   1.202   3.167 -2.0124  1.2371  2.6653
 6429SOL    HW230750   3.878   1.078   3.104 -2.0201  1.4509  0.5657
 6430SOL     OW30751   3.824   2.377   8.925  0.6401 -0.6812  0.4944
 6430SOL    HW130752   3.867   2.386   9.009 -3.2341 -1.4626  2.5808
 6430SOL    HW230753   3.827   2.281   8.919 -0.9694 -0.7047 -0.2140
 6431SOL     OW30754   4.364   0.823   4.777  0.3231 -0.0475 -0.0142
 6431SOL    HW130755   4.385   0.869   4.695  2.0363 -0.5937  0.1216
 6431SOL    HW230756   4.358   0.732   4.747  2.5176  0.0464 -0.7394
 6432SOL     OW30757   3.744   3.741   0.875  0.1138 -0.3581  0.0077
 6432SOL    HW130758   3.778   3.652   0.865 -0.5153 -0.4974 -0.9345
 6432SOL    HW230759   3.657   3.732   0.915 -0.4736  0.1751 -1.1840
 6433SOL     OW30760   0.050   2.892   6.060  0.0329 -0.2251 -0.0651
 6433SOL    HW130761   0.011   2.805   6.069 -3.2320  1.2629  0.2783
 6433SOL    HW230762   0.086   2.914   6.146  2.2309 -0.5837 -0.8918
 6434SOL     OW30763   0.821   4.429   2.784  0.5292 -0.0556  0.5065
 6434SOL    HW130764   0.774   4.460   2.706 -0.7091 -1.1179  0.8227
 6434SOL    HW230765   0.908   4.467   2.773 -0.5408  2.1550 -0.5253
 6435SOL     OW30766   2.747   1.916  14.299 -0.5906 -0.4006  0.3545
 6435SOL    HW130767   2.693   1.912  14.221  0.8938  1.0408 -0.7329
 6435SOL    HW230768   2.833   1.883  14.273 -1.4374 -1.3860 -1.1793
 6436SOL     OW30769   2.917   1.663  14.029  0.4186 -0.4715 -0.2544
 6436SOL    HW130770   2.838   1.621  14.063  0.6522 -1.2685 -0.6986
 6436SOL    HW230771   2.891   1.656  13.937  1.9093  0.3234 -0.7332
 6437SOL     OW30772   2.401   2.949   0.805  0.7740 -0.1075 -0.1465
 6437SOL    HW130773   2.375   2.857   0.804  0.2271  0.0233  2.2263
 6437SOL    HW230774   2.347   2.974   0.880  0.5199  1.4859 -0.8433
 6438SOL     OW30775   2.076   3.230   7.381 -0.0776  0.1686  0.5046
 6438SOL    HW130776   2.162   3.253   7.416  0.3120  0.6556 -0.7740
 6438SOL    HW230777   2.073   3.139   7.410  0.6127 -0.5127 -1.5376
 6439SOL     OW30778   1.207   3.935   7.883  0.6874 -0.5551 -0.3544
 6439SOL    HW130779   1.147   4.009   7.884  2.0166  0.5157 -0.6592
 6439SOL    HW230780   1.285   3.973   7.845 -1.1638  2.0422 -1.5439
 6440SOL     OW30781   2.475   1.970   7.098  0.3011  0.3379 -0.2526
 6440SOL    HW130782   2.497   1.878   7.108  1.9996  0.8083  0.4104
 6440SOL    HW230783   2.534   2.018   7.156  2.0864  0.8079 -2.4341
 6441SOL     OW30784   4.529   0.858   9.453 -0.4115  0.0455  0.0777
 6441SOL    HW130785   4.566   0.863   9.365 -0.2027 -0.5512  0.1381
 6441SOL    HW230786   4.438   0.869   9.424 -0.3240 -0.2473 -0.3104
 6442SOL     OW30787   3.382   3.294   2.217  0.8347 -0.3346  0.2150
 6442SOL    HW130788   3.374   3.209   2.262 -1.2580  0.4565  1.3197
 6442SOL    HW230789   3.293   3.324   2.204  0.8993  0.4496  1.6080
 6443SOL     OW30790   2.474   2.242   5.282  0.7131  0.2515 -0.3753
 6443SOL    HW130791   2.527   2.300   5.229  0.9290  2.1586  1.9216
 6443SOL    HW230792   2.423   2.190   5.219 -0.2429  2.9956 -1.8519
 6444SOL     OW30793   2.124   3.350   6.407  0.0963  0.0122 -0.2547
 6444SOL    HW130794   2.217   3.329   6.417  0.2791 -0.2199 -2.4601
 6444SOL    HW230795   2.097   3.390   6.489 -0.6971 -1.3163  0.1330
 6445SOL     OW30796   2.698   0.913  12.801  0.0802  0.0336 -0.4031
 6445SOL    HW130797   2.696   0.873  12.714 -2.9516 -0.1912 -0.2470
 6445SOL    HW230798   2.729   1.002  12.786 -1.7202  0.4876 -1.4425
 6446SOL     OW30799   3.595   1.321   2.467 -0.4795 -0.6177 -0.1406
 6446SOL    HW130800   3.602   1.265   2.544  1.2851  0.4240  0.4702
 6446SOL    HW230801   3.503   1.345   2.476 -0.5985 -0.9310 -0.5778
 6447SOL     OW30802   0.343   1.867   9.121  0.1743  0.2450  0.3092
 6447SOL    HW130803   0.397   1.844   9.045 -2.0301 -1.7322 -0.6736
 6447SOL    HW230804   0.261   1.823   9.096 -0.1141  3.1466 -3.8496
 6448SOL     OW30805   0.273   0.192  12.029 -0.1431  0.2001 -0.0712
 6448SOL    HW130806   0.296   0.150  11.946 -2.5755 -1.3021 -0.0065
 6448SOL    HW230807   0.363   0.201  12.062  0.4079  1.2066 -1.8750
 6449SOL     OW30808   4.287   2.807   2.962 -0.2163 -0.1902 -0.5664
 6449SOL    HW130809   4.367   2.766   2.996  0.3737  2.4370  1.2047
 6449SOL    HW230810   4.238   2.727   2.945  1.6802 -1.9677  2.2523
 6450SOL     OW30811   1.608   3.902   3.231 -0.2667 -0.1128 -0.2669
 6450SOL    HW130812   1.607   3.961   3.156  0.4915  0.3789  0.1108
 6450SOL    HW230813   1.536   3.937   3.283  1.9383 -0.6322  3.1221
 6451SOL     OW30814   1.633   3.201  15.810 -0.3648 -0.3937  0.3564
 6451SOL    HW130815   1.626   3.106  15.820 -1.1440 -0.0536  3.0591
 6451SOL    HW230816   1.596   3.212  15.722  0.0880 -1.4361  0.0328
 6452SOL     OW30817   3.398   4.561   3.759  0.1136 -0.2516  0.3138
 6452SOL    HW130818   3.394   4.650   3.725  0.6319 -0.4151 -0.1840
 6452SOL    HW230819   3.424   4.516   3.678 -1.3893  0.9373 -0.8244
 6453SOL     OW30820   3.657   0.103  16.216 -0.0456 -0.2439 -0.5608
 6453SOL    HW130821   3.654   0.164  16.291 -1.4717 -2.5225  1.2513
 6453SOL    HW230822   3.748   0.075  16.219 -0.5700 -2.0476 -1.7202
 6454SOL     OW30823   3.790   1.057  13.960 -0.2354 -0.2706 -0.8490
 6454SOL    HW130824   3.783   1.095  13.872 -1.3068 -0.0937 -0.6807
 6454SOL    HW230825   3.884   1.075  13.968 -0.5834  0.2581  2.1831
 6455SOL     OW30826   1.779   0.362   2.201 -0.0387 -0.2317 -0.5650
 6455SOL    HW130827   1.816   0.449   2.181  0.3172 -0.4627 -0.9087
 6455SOL    HW230828   1.790   0.318   2.117 -0.6506 -0.7610 -0.3700
 6456SOL     OW30829   3.700   3.665   2.336 -0.2111  0.1523 -0.1199
 6456SOL    HW130830   3.636   3.630   2.273  0.2692 -0.5338 -0.2239
 6456SOL    HW230831   3.643   3.704   2.402  1.5582 -1.9099  2.6226
 6457SOL     OW30832   1.700   4.604   4.888 -0.4378  0.4834  0.2032
 6457SOL    HW130833   1.781   4.649   4.864  0.5440 -0.7428  1.2499
 6457SOL    HW230834   1.739   4.517   4.888  0.3813  0.8437  0.4134
 6458SOL     OW30835   0.915   1.971  12.123  0.3874 -0.3342  0.1628
 6458SOL    HW130836   0.916   1.903  12.056  1.5186 -2.7950  2.7049
 6458SOL    HW230837   1.003   2.007  12.119 -0.0960  0.5866 -2.3931
 6459SOL     OW30838   2.649   3.321   2.943  0.0462  0.1942  0.3417
 6459SOL    HW130839   2.678   3.301   3.032 -3.3180  0.5795  1.5042
 6459SOL    HW230840   2.560   3.356   2.946  0.0693  0.0479  2.5620
 6460SOL     OW30841   3.204   1.628  14.247 -0.2200  0.3097  0.2601
 6460SOL    HW130842   3.259   1.659  14.175  0.2457  0.4171  0.6599
 6460SOL    HW230843   3.160   1.555  14.203  0.9278 -0.7458  0.8351
 6461SOL     OW30844   0.324   4.475  10.803  0.2018 -0.0917 -0.0076
 6461SOL    HW130845   0.357   4.451  10.716 -1.1555 -0.6179 -0.3726
 6461SOL    HW230846   0.243   4.424  10.808 -0.4696  0.7078 -2.8411
 6462SOL     OW30847   2.700   3.117   7.641  0.2169 -0.2400  0.8977
 6462SOL    HW130848   2.609   3.144   7.658  0.5660  1.3486  0.2799
 6462SOL    HW230849   2.741   3.161   7.715 -0.6441  1.2820  0.4661
 6463SOL     OW30850   1.513   4.702   0.743 -0.2859  0.5098 -0.0634
 6463SOL    HW130851   1.552   0.065   0.725  0.9724 -0.3313 -1.3100
 6463SOL    HW230852   1.582   4.648   0.705 -0.7051 -0.9166  1.1957
 6464SOL     OW30853   1.804   2.066   6.762 -0.3283  0.0452  0.1615
 6464SOL    HW130854   1.731   2.018   6.801 -1.4015  1.2895 -0.3164
 6464SOL    HW230855   1.794   2.035   6.672  0.6669 -1.3844  0.5490
 6465SOL     OW30856   3.166   0.815   3.544  0.0607  0.2340  0.0224
 6465SOL    HW130857   3.077   0.792   3.517 -0.3364  0.8160  0.8350
 6465SOL    HW230858   3.209   0.732   3.524  0.4159  0.9217 -2.0135
 6466SOL     OW30859   3.695   3.604  14.814 -0.5336  0.0944 -0.7766
 6466SOL    HW130860   3.603   3.629  14.821 -0.3861  0.8712 -1.5765
 6466SOL    HW230861   3.698   3.527  14.870  0.2292  1.0278  0.4815
 6467SOL     OW30862   1.043   0.111   6.582 -0.4726 -0.7833 -0.2455
 6467SOL    HW130863   1.009   0.085   6.496 -0.3938  1.3012 -0.9163
 6467SOL    HW230864   1.103   0.179   6.552 -0.1843 -1.0787 -0.3372
 6468SOL     OW30865   4.344   2.544   8.202  0.6192  0.2163  0.0927
 6468SOL    HW130866   4.257   2.510   8.182 -0.0958  1.5352  0.9192
 6468SOL    HW230867   4.339   2.636   8.174  1.8930 -0.0984 -1.1594
 6469SOL     OW30868   1.842   0.203   0.470  0.1802  1.1316  0.0256
 6469SOL    HW130869   1.775   0.145   0.434  0.7506 -0.1539  1.0309
 6469SOL    HW230870   1.881   0.233   0.387  1.2376 -0.9934 -0.2384
 6470SOL     OW30871   2.763   1.079   3.014 -0.1894  0.1718  0.2765
 6470SOL    HW130872   2.752   1.133   2.936  0.8861  0.3367  0.2390
 6470SOL    HW230873   2.858   1.081   3.024 -0.1422 -1.2844  0.2302
 6471SOL     OW30874   2.129   3.381   2.148 -0.3010 -0.4209  0.0486
 6471SOL    HW130875   2.206   3.370   2.091 -0.7932  1.1303 -0.9162
 6471SOL    HW230876   2.150   3.317   2.216 -1.5026  0.2477  1.0409
 6472SOL     OW30877   4.115   1.697   8.456  0.4245 -0.1620 -0.1041
 6472SOL    HW130878   4.095   1.760   8.387  0.1150 -1.5497 -1.3014
 6472SOL    HW230879   4.088   1.611   8.422 -0.2595  0.3601 -0.8595
 6473SOL     OW30880   1.599   0.814   1.830 -0.0163 -0.4534  0.4215
 6473SOL    HW130881   1.659   0.784   1.762 -1.5197 -1.3627 -0.5119
 6473SOL    HW230882   1.648   0.878   1.881  2.3535 -1.5444 -0.4888
 6474SOL     OW30883   2.995   3.233   7.619 -0.0549  0.7232  0.5735
 6474SOL    HW130884   2.972   3.172   7.689  1.5938  2.0070  2.2480
 6474SOL    HW230885   3.090   3.243   7.614  0.0680 -1.4748 -1.4708
 6475SOL     OW30886   1.138   0.145  11.650  0.2601  0.0396  0.2536
 6475SOL    HW130887   1.232   0.128  11.646  0.4546  0.9531  1.0294
 6475SOL    HW230888   1.138   0.238  11.628  0.0031  0.6606  2.9355
 6476SOL     OW30889   2.562   3.619   3.198  0.0216  0.5084  0.4212
 6476SOL    HW130890   2.634   3.556   3.205  1.3928  1.9322 -1.2184
 6476SOL    HW230891   2.545   3.625   3.104 -1.9539 -2.6997  0.5364
 6477SOL     OW30892   1.020   0.362  10.912 -0.3869 -0.0389 -0.2416
 6477SOL    HW130893   0.959   0.307  10.962 -0.0392 -1.1392 -1.0088
 6477SOL    HW230894   1.099   0.310  10.933  0.6963  1.5687 -0.3678
 6478SOL     OW30895   3.912   3.907   2.130 -0.0533 -0.0396  0.0416
 6478SOL    HW130896   4.004   3.883   2.121 -0.3157  0.1313 -3.2289
 6478SOL    HW230897   3.912   3.961   2.209 -0.4045  0.0097  0.0090
 6479SOL     OW30898   2.387   4.259   6.993 -1.4056 -0.0258  0.1765
 6479SOL    HW130899   2.397   4.251   7.088 -1.9203  2.1574  0.4220
 6479SOL    HW230900   2.417   4.172   6.965 -0.4316 -0.2889  2.0387
 6480SOL     OW30901   0.646   1.276   5.419  0.1775  0.4881  0.3214
 6480SOL    HW130902   0.578   1.216   5.448  0.6747 -0.0615  0.3410
 6480SOL    HW230903   0.707   1.208   5.390  0.4142  1.4820 -1.4982
 6481SOL     OW30904   0.960   3.284   6.889 -0.6074  0.0209  0.1158
 6481SOL    HW130905   1.013   3.358   6.858  1.1448 -2.0020 -1.6719
 6481SOL    HW230906   0.931   3.240   6.809 -1.0874  0.5817 -0.0179
 6482SOL     OW30907   4.345   4.053  16.290 -0.1702  0.1210  0.7834
 6482SOL    HW130908   4.421   4.031  16.345 -1.4246  1.1014  2.9442
 6482SOL    HW230909   4.394   4.072  16.210 -3.0738  0.4834 -0.8694
 6483SOL     OW30910   2.925   1.478   1.665 -0.0772  0.2221  0.1901
 6483SOL    HW130911   2.835   1.510   1.674 -0.2381 -0.5001  1.1365
 6483SOL    HW230912   2.932   1.387   1.694  0.3827  0.7539  1.7651
 6484SOL     OW30913   1.032   0.738   0.657 -0.4190  0.5679 -0.0755
 6484SOL    HW130914   1.034   0.830   0.684 -1.7882  0.9758 -1.3543
 6484SOL    HW230915   1.111   0.705   0.699 -1.3775 -0.8819  0.6071
 6485SOL     OW30916   1.647   2.191   3.001 -0.3558  0.2098  0.1039
 6485SOL    HW130917   1.691   2.138   2.934  0.9444  0.4586  0.7638
 6485SOL    HW230918   1.687   2.278   2.996 -1.0578  0.5055 -0.5226
 6486SOL     OW30919   1.816   2.857   6.494  0.2380 -0.1970  0.5485
 6486SOL    HW130920   1.905   2.878   6.521 -0.1503  1.7695  0.3197
 6486SOL    HW230921   1.822   2.872   6.399  1.1722  0.6856  0.7465
 6487SOL     OW30922   1.144   1.335  14.921 -0.4267  0.5233  0.3825
 6487SOL    HW130923   1.200   1.298  14.853  1.4508  0.7103  1.8129
 6487SOL    HW230924   1.057   1.313  14.888  0.1298  0.7277 -1.2079
 6488SOL     OW30925   1.846   1.962  10.896  0.1416 -0.5013 -0.6348
 6488SOL    HW130926   1.873   1.907  10.969 -0.2704  3.3636  2.4412
 6488SOL    HW230927   1.758   1.990  10.921  0.7278  1.3738 -0.6387
 6489SOL     OW30928   1.442   1.446   2.833 -0.5864  0.0106  0.5617
 6489SOL    HW130929   1.410   1.388   2.764  1.5768 -0.8315  0.2432
 6489SOL    HW230930   1.495   1.381   2.882  0.7821  0.4346 -0.3525
 6490SOL     OW30931   2.968   1.617   8.158 -0.2266 -0.4034  0.4537
 6490SOL    HW130932   2.984   1.674   8.233  1.2111 -0.5164  0.2308
 6490SOL    HW230933   2.902   1.667   8.109 -0.2177 -0.8143  0.0257
 6491SOL     OW30934   0.224   2.377   2.725 -0.1670  0.2777  0.2215
 6491SOL    HW130935   0.152   2.398   2.666  0.2991  1.3680  0.0333
 6491SOL    HW230936   0.295   2.359   2.664  0.0981  0.7250  0.3954
 6492SOL     OW30937   4.436   3.340   3.061  0.2248  0.0396 -0.1492
 6492SOL    HW130938   4.491   3.396   3.117  0.2550 -0.3621  0.2256
 6492SOL    HW230939   4.358   3.338   3.116  0.5196  1.3025  0.3302
 6493SOL     OW30940   0.488   3.644   2.062 -0.1761  0.4729 -0.7594
 6493SOL    HW130941   0.481   3.552   2.038  0.9850  0.1181  0.2847
 6493SOL    HW230942   0.496   3.686   1.977 -1.7523  0.2377 -1.0351
 6494SOL     OW30943   0.513   0.927   9.617 -0.2852  0.6669 -0.1751
 6494SOL    HW130944   0.462   1.006   9.597 -1.1932  0.3089  0.7932
 6494SOL    HW230945   0.604   0.949   9.594 -0.1367 -0.6964 -0.8883
 6495SOL     OW30946   1.354   1.739   9.832  0.0692 -0.2993  0.4832
 6495SOL    HW130947   1.268   1.698   9.839 -0.7250  1.3003  0.1948
 6495SOL    HW230948   1.350   1.802   9.903 -2.1971 -1.4255  1.3305
 6496SOL     OW30949   1.458   2.318   6.788  0.2544  0.1378  0.4572
 6496SOL    HW130950   1.392   2.249   6.795 -0.5348  0.7968 -0.6537
 6496SOL    HW230951   1.499   2.306   6.702 -0.1772  1.3783  0.0822
 6497SOL     OW30952   0.721   3.221   4.506  0.1918 -0.5719 -0.0535
 6497SOL    HW130953   0.680   3.266   4.580  1.2564 -1.1343  0.8880
 6497SOL    HW230954   0.773   3.289   4.465  0.6120 -1.8248 -1.5823
 6498SOL     OW30955   0.777   3.622   3.858 -0.6533 -0.2352  0.2481
 6498SOL    HW130956   0.690   3.643   3.822  0.0628 -0.1108 -1.4090
 6498SOL    HW230957   0.801   3.711   3.886 -0.9663  0.0079 -0.2505
 6499SOL     OW30958   0.613   0.120   3.050  0.0459 -0.1888 -0.0096
 6499SOL    HW130959   0.539   0.075   3.092 -0.4147  0.9375  0.3711
 6499SOL    HW230960   0.665   0.041   3.035  1.4066  0.1882  2.9310
 6500SOL     OW30961   1.767   0.562   3.269  1.1670  0.0131 -0.6116
 6500SOL    HW130962   1.700   0.631   3.268 -0.5064 -1.6217 -1.1629
 6500SOL    HW230963   1.792   0.575   3.360  2.4948 -1.0731 -0.8276
 6501SOL     OW30964   3.461   1.002   6.244  0.5474 -0.7074  0.8908
 6501SOL    HW130965   3.457   1.068   6.314 -0.7929  1.1584 -0.9323
 6501SOL    HW230966   3.505   0.932   6.291  0.4407  0.0321  2.1019
 6502SOL     OW30967   3.765   1.954  14.092  0.2003  0.0961  0.3639
 6502SOL    HW130968   3.701   1.899  14.138  1.3932  0.1878  2.1303
 6502SOL    HW230969   3.799   2.000  14.169 -0.3809 -0.4935  0.9799
 6503SOL     OW30970   3.665   3.638   9.547 -0.2898 -0.7546  0.7484
 6503SOL    HW130971   3.718   3.567   9.512  0.3692 -0.1063  0.4244
 6503SOL    HW230972   3.643   3.606   9.635  0.0582  1.6180  1.6990
 6504SOL     OW30973   3.772   3.911   2.559 -0.2205  0.3669 -0.2277
 6504SOL    HW130974   3.780   3.862   2.641  0.3370 -1.8545 -1.6017
 6504SOL    HW230975   3.827   3.987   2.576  0.7838 -0.0634 -1.5042
 6505SOL     OW30976   3.922   1.126  13.559  0.4351  0.4263  0.0079
 6505SOL    HW130977   3.871   1.170  13.626 -0.5264  1.6430 -1.5377
 6505SOL    HW230978   4.000   1.108  13.612 -0.7686  1.3069  2.0721
 6506SOL     OW30979   0.031   3.720   9.964 -0.1691  0.9364  0.2932
 6506SOL    HW130980   4.713   3.637   9.939 -0.2734  1.0471  0.0914
 6506SOL    HW230981   0.120   3.684   9.972 -0.1008  1.7396  2.9732
 6507SOL     OW30982   2.908   3.021   6.202 -0.1004  0.4412 -0.3418
 6507SOL    HW130983   2.895   3.114   6.182  2.3199  0.2323 -2.8738
 6507SOL    HW230984   2.903   3.029   6.297  0.1270 -3.0055 -0.0387
 6508SOL     OW30985   0.924   0.784   9.419 -0.3918  0.2319  0.1337
 6508SOL    HW130986   0.981   0.772   9.343  0.4419 -0.7459  0.9247
 6508SOL    HW230987   0.970   0.722   9.475 -0.4139  0.1075  0.0151
 6509SOL     OW30988   1.009   3.880   2.825 -0.1336 -0.4712  0.9414
 6509SOL    HW130989   1.074   3.895   2.893  1.9476  0.0997 -1.1555
 6509SOL    HW230990   1.032   3.963   2.784 -3.6066 -0.4722 -1.0207
 6510SOL     OW30991   3.779   0.117  17.341  0.0679 -0.4962  0.1840
 6510SOL    HW130992   3.805   0.199  17.299  0.8930 -1.6413 -1.4993
 6510SOL    HW230993   3.693   0.134  17.380  0.2994 -1.9648  1.3405
 6511SOL     OW30994   4.649   4.094  10.829  0.0479 -0.3477  0.1711
 6511SOL    HW130995   4.656   3.999  10.834  0.1479 -0.3104  0.7043
 6511SOL    HW230996   4.557   4.100  10.804 -0.2036  1.0082  1.4620
 6512SOL     OW30997   0.398   3.694  14.071  0.1459 -0.2327  0.2202
 6512SOL    HW130998   0.306   3.673  14.055  0.5106  0.1645 -2.2853
 6512SOL    HW230999   0.434   3.679  13.984 -0.4390 -3.0509  0.4722
 6513SOL     OW31000   0.488   0.320  12.897 -0.0222  0.3777  0.4870
 6513SOL    HW131001   0.569   0.370  12.890  1.1743 -1.4214  1.5743
 6513SOL    HW231002   0.474   0.331  12.991 -0.8028 -4.1161  0.8672
 6514SOL     OW31003   3.952   3.933   4.922 -0.5920  0.3041 -0.0939
 6514SOL    HW131004   3.929   4.016   4.962  0.0874  0.4597 -0.0315
 6514SOL    HW231005   3.948   3.957   4.829 -1.0214 -1.0673 -0.4376
 6515SOL     OW31006   1.034   3.474   1.883  0.4901  0.1723 -0.4880
 6515SOL    HW131007   1.026   3.546   1.945  0.8223  0.3942 -0.7081
 6515SOL    HW231008   0.951   3.427   1.891  0.9533 -0.1861  2.5010
 6516SOL     OW31009   3.226   2.592  12.055 -0.4681  0.4400 -0.8209
 6516SOL    HW131010   3.162   2.639  12.001 -2.9369 -1.7035  0.2572
 6516SOL    HW231011   3.258   2.652  12.123  4.6230 -2.9540 -0.2082
 6517SOL     OW31012   0.454   4.039   1.553  0.3046  0.4580  0.1672
 6517SOL    HW131013   0.460   4.131   1.580 -2.1923  0.6315  0.1621
 6517SOL    HW231014   0.362   4.034   1.526  0.4318  1.0750 -0.3751
 6518SOL     OW31015   0.483   3.469   3.597 -0.6960 -0.1568 -0.0643
 6518SOL    HW131016   0.443   3.476   3.510  0.5128  0.5943 -0.5494
 6518SOL    HW231017   0.565   3.427   3.574 -0.9322 -0.2240 -0.7803
 6519SOL     OW31018   3.626   0.084   5.838 -0.2816 -0.1486  0.0617
 6519SOL    HW131019   3.536   0.068   5.866 -0.4034  1.1109  0.3840
 6519SOL    HW231020   3.667   0.119   5.917 -1.4550  1.6600 -0.1421
 6520SOL     OW31021   0.625   2.107   3.756 -0.1753  0.0201  0.1400
 6520SOL    HW131022   0.603   2.022   3.795  0.5913 -0.3571 -0.2522
 6520SOL    HW231023   0.707   2.093   3.710 -0.1824 -1.6985  0.6312
 6521SOL     OW31024   0.520   3.634   3.826  0.6540 -0.2165  0.5919
 6521SOL    HW131025   0.503   3.567   3.759  2.9448 -1.4229  1.1790
 6521SOL    HW231026   0.431   3.660   3.847  0.1328  0.2868 -2.1852
 6522SOL     OW31027   2.350   3.237   0.130 -0.5851 -0.4851 -0.2177
 6522SOL    HW131028   2.320   3.324   0.157 -1.2448 -1.4400  2.1327
 6522SOL    HW231029   2.422   3.222   0.191  1.4121  1.3361 -2.1257
 6523SOL     OW31030   3.846   1.541  16.722  0.2808  0.1807  0.2465
 6523SOL    HW131031   3.778   1.545  16.655 -0.3292  0.3624  0.8789
 6523SOL    HW231032   3.814   1.605  16.785 -0.7834 -0.2039  0.0948
 6524SOL     OW31033   1.543   3.930  10.158 -0.5052  0.2144  0.5653
 6524SOL    HW131034   1.557   3.886  10.074 -2.6171  1.4502 -0.4376
 6524SOL    HW231035   1.449   3.911  10.160 -0.6323  1.0078  1.6367
 6525SOL     OW31036   2.518   4.114   1.801 -0.0131 -0.6020 -0.1655
 6525SOL    HW131037   2.444   4.174   1.806  1.5293  1.5314 -2.5146
 6525SOL    HW231038   2.487   4.052   1.735  0.7730 -1.6515  0.4510
 6526SOL     OW31039   0.981   4.093  11.425 -0.6879 -0.4172  0.1779
 6526SOL    HW131040   1.029   4.160  11.377 -0.9009 -0.9437 -0.7758
 6526SOL    HW231041   0.931   4.053  11.353 -2.5194  2.2812 -0.0728
 6527SOL     OW31042   2.335   0.337   4.362 -0.0405 -0.4363 -0.0404
 6527SOL    HW131043   2.240   0.346   4.353  0.0569 -0.1644 -0.7663
 6527SOL    HW231044   2.352   0.359   4.453 -1.2054  2.8677 -0.6413
 6528SOL     OW31045   2.714   3.648   8.373 -0.0183  0.1321  0.7838
 6528SOL    HW131046   2.722   3.696   8.290 -0.8036 -2.9955 -1.0720
 6528SOL    HW231047   2.742   3.564   8.338 -1.4141 -0.4053  0.9991
 6529SOL     OW31048   2.571   2.790   3.956 -0.2160 -0.3922 -0.3889
 6529SOL    HW131049   2.618   2.848   4.016 -0.8133 -1.5680  1.1900
 6529SOL    HW231050   2.614   2.712   3.990 -1.3600 -0.4780  0.8348
 6530SOL     OW31051   3.574   4.463   2.692  0.2166 -0.6744 -0.0893
 6530SOL    HW131052   3.553   4.370   2.685  0.2233 -0.5538 -1.6997
 6530SOL    HW231053   3.654   4.449   2.743  0.6927  2.3674  0.0358
 6531SOL     OW31054   4.146   0.708  15.324  0.2930 -0.1614  0.5424
 6531SOL    HW131055   4.109   0.680  15.408  2.5673  1.4274  2.0890
 6531SOL    HW231056   4.110   0.640  15.267  0.4273 -1.5620  2.1138
 6532SOL     OW31057   0.802   1.467   1.606  0.3069  0.0135  0.1956
 6532SOL    HW131058   0.717   1.445   1.644  0.9682  0.0743  1.7027
 6532SOL    HW231059   0.830   1.378   1.582 -0.0589  0.1617 -0.7736
 6533SOL     OW31060   1.032   0.762   7.101 -0.8448  0.1987  0.6038
 6533SOL    HW131061   1.036   0.775   7.195 -1.1131 -0.4922  0.7108
 6533SOL    HW231062   0.938   0.776   7.087 -0.7367 -1.1012 -1.4351
 6534SOL     OW31063   4.454   1.987   3.461 -0.3542 -0.2922  0.5769
 6534SOL    HW131064   4.422   2.017   3.376  0.9607  0.2657  0.2757
 6534SOL    HW231065   4.532   2.038   3.483  1.0912 -1.3738 -2.0306
 6535SOL     OW31066   2.810   3.669  12.350 -0.5017  0.0108  0.4247
 6535SOL    HW131067   2.771   3.582  12.343  2.0246 -1.0133 -1.1046
 6535SOL    HW231068   2.738   3.724  12.320 -0.2120 -0.3023 -0.8681
 6536SOL     OW31069   0.990   2.741   4.969 -0.5526 -0.2596 -0.1165
 6536SOL    HW131070   0.907   2.696   4.952 -0.3739  0.3338 -2.5213
 6536SOL    HW231071   1.051   2.667   4.973 -1.2592 -0.7969  0.5631
 6537SOL     OW31072   3.860   2.863   1.634  0.0384  0.3942  0.5508
 6537SOL    HW131073   3.897   2.793   1.688  0.2685  0.3219  0.2981
 6537SOL    HW231074   3.764   2.855   1.640  0.0085 -1.6790 -2.6271
 6538SOL     OW31075   0.791   3.795   4.745 -0.0058 -0.9901  0.5413
 6538SOL    HW131076   0.701   3.828   4.742 -0.1967 -1.7856 -2.2045
 6538SOL    HW231077   0.809   3.792   4.839  2.5926  0.4982  0.0959
 6539SOL     OW31078   3.370   2.416   4.847  0.0585 -0.0709  0.5912
 6539SOL    HW131079   3.292   2.377   4.886  0.3450  0.9168  2.1828
 6539SOL    HW231080   3.434   2.412   4.919  1.6419  1.4002 -0.7319
 6540SOL     OW31081   0.608   2.694   5.167 -0.4845 -0.1896  0.0995
 6540SOL    HW131082   0.635   2.777   5.128  0.5043 -0.2657  0.6252
 6540SOL    HW231083   0.585   2.638   5.093 -1.8784 -0.0443  0.4183
 6541SOL     OW31084   1.440   1.303  12.427  0.6646  0.2267  0.0169
 6541SOL    HW131085   1.493   1.329  12.352  0.5268  2.3385  0.6473
 6541SOL    HW231086   1.397   1.233  12.378  0.1437  0.0534  0.7129
 6542SOL     OW31087   1.822   2.329   4.792 -0.4557 -0.4244 -0.2582
 6542SOL    HW131088   1.907   2.361   4.761 -0.3336  0.4692  1.0058
 6542SOL    HW231089   1.814   2.360   4.882  0.6317 -0.8556 -0.0121
 6543SOL     OW31090   3.693   2.821   8.739 -0.4821  0.7057  0.2232
 6543SOL    HW131091   3.691   2.863   8.826 -0.8377 -2.0083  1.5131
 6543SOL    HW231092   3.705   2.730   8.765  3.4572  1.1022 -0.1508
 6544SOL     OW31093   0.474   4.018   7.191 -0.1186 -0.0868 -0.1061
 6544SOL    HW131094   0.481   4.097   7.137  0.4863  0.9040  1.3846
 6544SOL    HW231095   0.409   3.970   7.140 -0.1155 -1.4687  1.1981
 6545SOL     OW31096   4.085   2.057   4.337 -0.2575  0.1955  0.7712
 6545SOL    HW131097   4.090   2.119   4.264  1.6204 -0.0990  0.6505
 6545SOL    HW231098   4.162   2.081   4.389 -0.3008 -0.0560  0.9543
 6546SOL     OW31099   3.382   0.581  13.021  0.1983 -0.0241  0.0505
 6546SOL    HW131100   3.419   0.494  13.038 -1.7112 -0.7569  0.4788
 6546SOL    HW231101   3.289   0.559  13.033 -0.9437  3.8991 -1.5865
 6547SOL     OW31102   2.918   2.165   8.194  0.0220  0.0279 -0.0470
 6547SOL    HW131103   2.954   2.225   8.260  1.1746 -0.3260 -0.3560
 6547SOL    HW231104   2.978   2.169   8.119 -0.0293  1.6539 -0.0090
 6548SOL     OW31105   2.071   3.338  12.697 -0.1018 -0.0951  0.6555
 6548SOL    HW131106   2.068   3.419  12.749 -2.6176 -0.1128  0.5465
 6548SOL    HW231107   2.024   3.369  12.620 -0.7395  0.4890  1.2758
 6549SOL     OW31108   0.277   0.988   1.372  0.1887  0.3428  0.0973
 6549SOL    HW131109   0.193   0.988   1.419 -0.7558  1.4020 -1.5948
 6549SOL    HW231110   0.320   0.909   1.404 -0.9146 -0.4878 -0.4956
 6550SOL     OW31111   1.042   2.403   5.512 -0.5854 -0.3413 -0.2533
 6550SOL    HW131112   0.969   2.341   5.516 -1.7118  0.8738 -2.1139
 6550SOL    HW231113   1.041   2.406   5.417  0.4254 -1.3295 -0.2883
 6551SOL     OW31114   3.493   1.047   7.666  0.3606  0.1601  0.2501
 6551SOL    HW131115   3.539   0.979   7.615  0.7741 -0.2893  1.2321
 6551SOL    HW231116   3.435   1.076   7.595 -1.2073  0.2115  1.5507
 6552SOL     OW31117   0.532   3.656   8.715  0.1094 -0.2654 -0.2778
 6552SOL    HW131118   0.451   3.708   8.715  0.1705 -0.1726 -1.4169
 6552SOL    HW231119   0.535   3.640   8.809 -1.4930 -1.1032 -0.3559
 6553SOL     OW31120   2.312   1.982   5.337  0.2099  0.6130  0.1857
 6553SOL    HW131121   2.269   2.039   5.273  2.4690  1.3589 -0.6455
 6553SOL    HW231122   2.273   2.015   5.418 -0.2590  0.3451  0.0688
 6554SOL     OW31123   1.261   1.389   3.337  0.5072  0.5164  0.7049
 6554SOL    HW131124   1.339   1.379   3.281 -0.0190  0.5852 -0.0389
 6554SOL    HW231125   1.213   1.436   3.268 -1.9914 -0.1864  1.9833
 6555SOL     OW31126   4.192   2.535   0.321 -0.0233  0.6134 -0.3982
 6555SOL    HW131127   4.184   2.468   0.253  1.2571 -2.1058  2.1193
 6555SOL    HW231128   4.099   2.554   0.327 -0.1120  0.6176 -1.7346
 6556SOL     OW31129   0.323   4.151  17.227 -0.2306  0.5098  0.1341
 6556SOL    HW131130   0.389   4.199  17.178 -2.4918  1.6605 -1.7909
 6556SOL    HW231131   0.359   4.161  17.315 -1.7601  1.2735  0.6689
 6557SOL     OW31132   0.416   3.420  14.854  0.3903  0.0947  0.5376
 6557SOL    HW131133   0.386   3.506  14.884  0.6179  0.3345  0.0805
 6557SOL    HW231134   0.448   3.375  14.932  0.7616  0.2442  0.4741
 6558SOL     OW31135   0.325   3.767   7.353  0.2298  0.0697 -0.4705
 6558SOL    HW131136   0.286   3.730   7.274 -1.1125  0.1925  0.1260
 6558SOL    HW231137   0.334   3.858   7.324 -0.1319  0.8235  1.7394
 6559SOL     OW31138   4.147   3.646  17.553  0.3134 -0.4411  0.3612
 6559SOL    HW131139   4.136   3.701  17.475 -0.8139 -1.2476 -0.0495
 6559SOL    HW231140   4.100   3.564  17.539 -1.5808  0.6784  0.1191
 6560SOL     OW31141   1.334   3.779   7.639  0.3574 -0.2105  0.1540
 6560SOL    HW131142   1.396   3.776   7.713  1.9328 -2.4690 -1.2611
 6560SOL    HW231143   1.329   3.872   7.618 -0.3304 -0.0693  0.9308
 6561SOL     OW31144   2.591   1.001   4.006 -0.3301  0.2483 -0.1924
 6561SOL    HW131145   2.592   1.096   4.006  0.8345  0.2343  0.2704
 6561SOL    HW231146   2.525   0.983   3.939 -1.3384 -0.3019  0.9400
 6562SOL     OW31147   0.861   1.160   9.315 -0.2649 -0.5102 -0.5994
 6562SOL    HW131148   0.935   1.215   9.339 -1.2395  0.7323 -0.4724
 6562SOL    HW231149   0.877   1.146   9.222 -1.7811 -1.1274 -0.7708
 6563SOL     OW31150   2.974   2.140   5.839  0.0320 -0.0161 -0.1707
 6563SOL    HW131151   2.973   2.050   5.809 -0.1834  0.4864 -1.6858
 6563SOL    HW231152   2.969   2.134   5.935  2.1159  0.5413 -0.0266
 6564SOL     OW31153   0.548   4.333  11.376 -0.0002  0.7778 -0.0627
 6564SOL    HW131154   0.629   4.347  11.328  0.0776  2.1859  0.4784
 6564SOL    HW231155   0.577   4.256  11.425 -0.3740  1.2621  0.9322
 6565SOL     OW31156   1.167   2.940   2.724 -0.4886 -0.2339  0.1660
 6565SOL    HW131157   1.249   2.989   2.732 -1.0307  0.6207  0.5487
 6565SOL    HW231158   1.106   3.011   2.703  0.8307 -0.0485 -3.0056
 6566SOL     OW31159   2.927   3.569   9.779 -0.3396  0.9125  0.3561
 6566SOL    HW131160   2.835   3.588   9.757  0.2334  0.7248 -2.1763
 6566SOL    HW231161   2.917   3.514   9.856  1.1704 -2.5279 -1.8918
 6567SOL     OW31162   2.804   3.810   3.635  0.3589  0.1403 -0.6909
 6567SOL    HW131163   2.728   3.780   3.684  0.1650  3.4305  0.9431
 6567SOL    HW231164   2.756   3.875   3.584  2.9902  1.0301 -2.0621
 6568SOL     OW31165   2.447   1.217   0.000 -0.2945 -0.3537 -0.0779
 6568SOL    HW131166   2.414   1.127   0.008 -0.8682 -0.1815 -0.5284
 6568SOL    HW231167   2.407   1.244  17.611  0.9496 -1.5570 -1.0877
 6569SOL     OW31168   1.920   3.864   8.232  0.2991 -0.0794  0.4604
 6569SOL    HW131169   1.901   3.815   8.152  1.0283  0.7939 -0.2375
 6569SOL    HW231170   1.986   3.931   8.211 -0.4040  0.7467  0.9029
 6570SOL     OW31171   2.602   3.341   7.397 -0.4136 -0.6356 -0.1095
 6570SOL    HW131172   2.672   3.366   7.337 -0.7883  2.8090  0.8688
 6570SOL    HW231173   2.610   3.411   7.462  0.3677  1.0421 -1.9861
 6571SOL     OW31174   2.897   3.771  16.579  0.0306  0.1426 -0.2075
 6571SOL    HW131175   2.910   3.686  16.537 -0.3457 -0.6401  1.2528
 6571SOL    HW231176   2.979   3.786  16.626 -1.7119  0.9869  2.5805
 6572SOL     OW31177   4.535   4.461   7.578 -0.2777 -0.5238  0.2887
 6572SOL    HW131178   4.581   4.522   7.634 -2.3841  0.5350  0.8817
 6572SOL    HW231179   4.599   4.422   7.518  0.1470 -0.6770  0.8532
 6573SOL     OW31180   2.862   0.855  15.627  0.5126  0.4871 -0.3837
 6573SOL    HW131181   2.782   0.818  15.665  0.1507  1.4201 -0.2257
 6573SOL    HW231182   2.933   0.815  15.676  0.2892  0.0710 -0.3996
 6574SOL     OW31183   1.623   2.338   1.494 -0.1276 -0.1398 -0.7594
 6574SOL    HW131184   1.619   2.380   1.580  1.7739 -0.3043 -0.5881
 6574SOL    HW231185   1.594   2.252   1.523  0.4956 -1.6158 -4.5263
 6575SOL     OW31186   2.981   2.324  12.147 -0.2129 -0.6197  0.5188
 6575SOL    HW131187   2.921   2.317  12.073 -1.1208 -0.8071  1.2724
 6575SOL    HW231188   2.913   2.345  12.212 -0.1794  2.2824 -0.3738
 6576SOL     OW31189   1.572   4.038   7.120 -0.3634 -0.4989  0.5023
 6576SOL    HW131190   1.600   3.951   7.092 -0.1487 -0.4142  0.4482
 6576SOL    HW231191   1.569   4.080   7.034 -3.9403 -0.0609  0.8264
 6577SOL     OW31192   3.883   3.272   1.792  0.0225 -0.3396  0.1696
 6577SOL    HW131193   3.933   3.243   1.716 -1.3983  0.3504 -1.0378
 6577SOL    HW231194   3.954   3.313   1.841 -1.6897  1.0161  1.5160
 6578SOL     OW31195   0.685   3.702  14.800  0.6870 -0.7153 -0.0935
 6578SOL    HW131196   0.618   3.692  14.732  0.4625 -0.2967  0.0629
 6578SOL    HW231197   0.708   3.795  14.804  0.6783 -0.7994  1.8290
 6579SOL     OW31198   0.143   2.306   7.752  0.0047 -0.0047  0.2283
 6579SOL    HW131199   0.103   2.392   7.762 -1.4799 -0.6895  0.1475
 6579SOL    HW231200   0.149   2.305   7.656 -0.6026  2.2891  0.1853
 6580SOL     OW31201   3.681   0.806   9.723  0.3053  0.1877 -0.3654
 6580SOL    HW131202   3.593   0.774   9.743  0.1722  1.2842  0.7827
 6580SOL    HW231203   3.723   0.723   9.700 -0.7620 -0.1860 -0.9809
 6581SOL     OW31204   1.520   0.496   2.199 -0.2158  0.0867  0.1742
 6581SOL    HW131205   1.527   0.439   2.276  0.9746  2.6224  1.9210
 6581SOL    HW231206   1.609   0.500   2.163 -0.1993  1.1025  0.3375
 6582SOL     OW31207   2.370   0.030  17.190 -0.3566 -0.4551  0.9346
 6582SOL    HW131208   2.405   0.077  17.266 -1.9621 -1.6918  2.4467
 6582SOL    HW231209   2.304   4.700  17.236 -2.1748  0.2360 -0.8594
 6583SOL     OW31210   3.166   2.850  14.030 -0.0452 -0.4071  0.9529
 6583SOL    HW131211   3.248   2.871  14.074  0.0993  0.6706  0.1797
 6583SOL    HW231212   3.107   2.897  14.089 -0.3758 -0.3371  0.5770
 6584SOL     OW31213   0.690   0.027   5.999 -0.2155  0.2920  0.1540
 6584SOL    HW131214   0.688   4.710   6.087  0.1157 -1.0599 -0.4504
 6584SOL    HW231215   0.599   0.052   5.990 -0.2302 -0.3481 -1.3578
 6585SOL     OW31216   2.613   2.367   7.085 -0.2932 -0.1588 -0.2637
 6585SOL    HW131217   2.532   2.417   7.092  0.4951  1.1653 -0.7817
 6585SOL    HW231218   2.668   2.443   7.068 -1.2278  0.2708 -1.3985
 6586SOL     OW31219   1.358   4.226  10.028  0.0067 -0.4476 -0.8280
 6586SOL    HW131220   1.382   4.136  10.051  2.7317  0.1843 -1.1382
 6586SOL    HW231221   1.389   4.261  10.112 -0.6290 -0.1414 -0.7214
 6587SOL     OW31222   4.141   3.877   3.422 -0.4484 -0.6441 -0.9667
 6587SOL    HW131223   4.174   3.960   3.388  0.1527 -0.5227 -0.0739
 6587SOL    HW231224   4.110   3.828   3.345  1.0618 -2.1254 -0.6462
 6588SOL     OW31225   0.948   3.065  16.274  0.4274 -0.2356  0.0363
 6588SOL    HW131226   1.043   3.068  16.283  0.3539  0.5641  0.6246
 6588SOL    HW231227   0.941   3.115  16.192 -0.1018 -3.0851 -1.6777
 6589SOL     OW31228   4.289   2.013  13.718  0.3187 -0.6305  0.3701
 6589SOL    HW131229   4.308   2.078  13.651 -2.2707 -0.7502 -0.5058
 6589SOL    HW231230   4.354   1.944  13.707  2.6240  1.5380  0.5166
 6590SOL     OW31231   4.163   1.097  13.384 -0.3138 -0.2329 -0.2941
 6590SOL    HW131232   4.122   1.119  13.300 -1.7230  0.8694  0.6840
 6590SOL    HW231233   4.098   1.146  13.434 -0.0539 -2.5963  2.3118
 6591SOL     OW31234   3.406   3.486   5.963  0.8960 -0.2420 -0.0929
 6591SOL    HW131235   3.448   3.405   5.936  1.6136  0.8325 -2.2929
 6591SOL    HW231236   3.335   3.462   6.021  0.5599 -0.8182 -0.7415
 6592SOL     OW31237   4.437   1.658   4.291  0.0463  0.0084 -0.3067
 6592SOL    HW131238   4.352   1.641   4.332 -0.8048  3.1942 -0.7711
 6592SOL    HW231239   4.418   1.722   4.223  1.2412  0.4952 -0.1805
 6593SOL     OW31240   3.205   1.379   9.425 -0.0188  0.1279  0.0184
 6593SOL    HW131241   3.147   1.319   9.379  0.2014  0.5862 -0.8697
 6593SOL    HW231242   3.182   1.352   9.513 -0.8444  0.9713  0.0546
 6594SOL     OW31243   1.578   3.805   7.935 -0.5761 -0.0189  0.7780
 6594SOL    HW131244   1.558   3.889   7.894 -1.0378 -0.1484  0.7358
 6594SOL    HW231245   1.547   3.831   8.022 -1.1409 -0.6768  0.7767
 6595SOL     OW31246   3.219   2.586   3.402  0.5082 -0.5299 -0.0202
 6595SOL    HW131247   3.152   2.640   3.443 -0.5777  0.0693 -2.5668
 6595SOL    HW231248   3.288   2.649   3.381  0.1495 -0.1989 -0.2083
 6596SOL     OW31249   1.490   1.724   8.178  0.3967 -0.1766  0.1207
 6596SOL    HW131250   1.496   1.692   8.268 -0.6669 -0.2635  0.1634
 6596SOL    HW231251   1.549   1.658   8.142 -0.5904 -1.2981  0.5539
 6597SOL     OW31252   2.793   3.795  14.469  0.0173 -0.3491 -0.1316
 6597SOL    HW131253   2.867   3.756  14.423 -0.7062 -1.0561 -0.7039
 6597SOL    HW231254   2.719   3.787  14.409 -0.6900 -1.3112  0.8618
 6598SOL     OW31255   0.377   3.119   6.707 -0.0457  0.1790 -0.3621
 6598SOL    HW131256   0.330   3.202   6.704  1.1118  0.7636 -2.6550
 6598SOL    HW231257   0.465   3.144   6.679  0.5691  0.4528  1.8111
 6599SOL     OW31258   1.427   3.136   9.273 -0.3744  0.0211  0.1203
 6599SOL    HW131259   1.436   3.231   9.270 -1.6260  0.1053 -0.7905
 6599SOL    HW231260   1.446   3.121   9.180  1.9977 -0.5788  0.7077
 6600SOL     OW31261   0.631   3.951   8.205 -0.6955  0.2315 -0.4583
 6600SOL    HW131262   0.609   3.915   8.119 -0.1352 -1.3340  0.0660
 6600SOL    HW231263   0.545   3.988   8.229 -0.5716 -0.0259  0.3679
 6601SOL     OW31264   2.002   1.753   4.439  0.0106  0.0798 -0.5944
 6601SOL    HW131265   2.024   1.764   4.531  1.5749 -2.0220 -0.7305
 6601SOL    HW231266   2.040   1.832   4.399  0.9240  0.0501  0.2208
 6602SOL     OW31267   3.472   1.113   5.544 -0.2668 -0.0356  0.1450
 6602SOL    HW131268   3.391   1.068   5.520 -0.7899  1.6805 -1.3117
 6602SOL    HW231269   3.472   1.189   5.485  1.1764  1.1377  1.6605
 6603SOL     OW31270   2.201   1.243  13.073  0.3665  0.1083 -0.3849
 6603SOL    HW131271   2.168   1.201  12.994  2.6912 -0.6703 -0.9203
 6603SOL    HW231272   2.222   1.334  13.051  1.7382 -0.6533 -2.2437
 6604SOL     OW31273   3.197   4.700  15.419  0.9032 -0.4353 -0.1881
 6604SOL    HW131274   3.159   4.645  15.351  0.0797 -0.0201 -0.0609
 6604SOL    HW231275   3.180   0.067  15.389  0.2817 -1.1455 -1.9545
 6605SOL     OW31276   2.248   2.909   6.364  0.2307  0.0113 -0.4567
 6605SOL    HW131277   2.267   2.839   6.427 -0.2586  1.0294  0.8278
 6605SOL    HW231278   2.169   2.879   6.319  0.6522 -1.2306 -0.3570
 6606SOL     OW31279   2.376   0.434   7.782  0.1532 -0.3126 -0.1060
 6606SOL    HW131280   2.358   0.384   7.702  2.3758  3.0928 -2.6948
 6606SOL    HW231281   2.364   0.362   7.844 -2.0974 -0.0157 -0.1957
 6607SOL     OW31282   2.752   3.100   0.558 -0.5093  0.0815 -0.2424
 6607SOL    HW131283   2.667   3.102   0.603  0.1849  2.0370  0.9812
 6607SOL    HW231284   2.806   3.049   0.618  0.5324 -0.1739 -1.4073
 6608SOL     OW31285   1.434   2.694   4.105  0.1181  0.7124 -0.0711
 6608SOL    HW131286   1.504   2.759   4.111  0.5735  0.1260  1.1907
 6608SOL    HW231287   1.445   2.664   4.196 -3.6126 -0.7276 -0.0891
 6609SOL     OW31288   0.778   2.831   9.370 -0.3238 -0.0775  0.0521
 6609SOL    HW131289   0.817   2.745   9.353  0.5949  0.4291 -0.4200
 6609SOL    HW231290   0.859   2.870   9.403 -0.7616  1.4790 -0.7118
 6610SOL     OW31291   3.409   1.459   2.929 -0.5444 -0.4690 -0.2626
 6610SOL    HW131292   3.314   1.472   2.931 -0.1584  2.1689  1.7329
 6610SOL    HW231293   3.438   1.488   2.843 -2.7029 -0.8733 -1.1265
 6611SOL     OW31294   1.905   2.324   7.333 -0.0452 -0.3974 -0.2524
 6611SOL    HW131295   1.934   2.325   7.242 -1.5262 -2.8069 -0.7620
 6611SOL    HW231296   1.911   2.229   7.349 -0.8555 -0.4608 -0.3107
 6612SOL     OW31297   2.697   0.769   5.212  0.2659 -0.3227  0.2403
 6612SOL    HW131298   2.609   0.736   5.230 -0.0798  0.3996 -0.1214
 6612SOL    HW231299   2.748   0.690   5.229  1.5580  0.3603 -0.3991
 6613SOL     OW31300   1.759   2.195   4.391  0.6166  0.0391  0.3176
 6613SOL    HW131301   1.666   2.175   4.401  0.5556  0.4337  0.5564
 6613SOL    HW231302   1.777   2.220   4.482  0.7956  0.0513  0.2803
 6614SOL     OW31303   1.714   4.310  17.304  0.4169  0.0787 -0.1012
 6614SOL    HW131304   1.686   4.402  17.308  0.2400 -0.0057  0.7045
 6614SOL    HW231305   1.792   4.314  17.248  0.4454 -1.6664 -0.1831
 6615SOL     OW31306   2.570   2.149   2.663  0.2311 -0.0789 -0.2492
 6615SOL    HW131307   2.594   2.057   2.671  0.4683 -0.0865 -1.0599
 6615SOL    HW231308   2.516   2.157   2.742 -0.2266 -1.7876 -0.3876
 6616SOL     OW31309   2.851   0.580   5.267 -0.0122 -0.2473 -0.3421
 6616SOL    HW131310   2.881   0.514   5.330 -0.1919 -0.6071 -0.6347
 6616SOL    HW231311   2.797   0.534   5.202 -0.3247  0.0394 -0.2877
 6617SOL     OW31312   0.687   0.158   1.097 -0.5330  0.1264  0.5613
 6617SOL    HW131313   0.767   0.203   1.124 -0.5143  1.4078 -1.6857
 6617SOL    HW231314   0.625   0.171   1.169  0.7219  0.4192  1.5896
 6618SOL     OW31315   1.381   1.286   5.223  0.3987  0.8144  0.0725
 6618SOL    HW131316   1.468   1.251   5.207  0.5728  1.3683 -0.1984
 6618SOL    HW231317   1.392   1.373   5.184  1.2375  0.7528  0.1670
 6619SOL     OW31318   2.519   1.395  12.204 -0.3059 -0.2721 -0.4697
 6619SOL    HW131319   2.576   1.343  12.146  1.4104  0.8640  0.2152
 6619SOL    HW231320   2.443   1.340  12.226 -1.4984  0.3922 -2.9370
 6620SOL     OW31321   3.447   2.534  14.025 -0.3050 -0.3306 -0.3833
 6620SOL    HW131322   3.411   2.459  14.072 -1.5727  0.8063  0.4402
 6620SOL    HW231323   3.535   2.536  14.062  0.1760 -3.7626 -1.3257
 6621SOL     OW31324   4.046   0.725   5.463 -0.3070 -0.0356 -0.2478
 6621SOL    HW131325   4.011   0.813   5.473  1.2926  0.1802  3.2584
 6621SOL    HW231326   4.037   0.705   5.369 -1.4616  1.8266 -0.5202
 6622SOL     OW31327   3.359   1.228   3.387  0.5384 -0.0488 -0.3232
 6622SOL    HW131328   3.292   1.160   3.375  1.2863 -0.8478  0.0649
 6622SOL    HW231329   3.437   1.193   3.345 -0.6951 -2.3884 -0.6772
 6623SOL     OW31330   0.795   4.534   9.570  0.0746 -0.7305 -0.6540
 6623SOL    HW131331   0.818   4.583   9.491  1.4271 -0.9613 -0.3930
 6623SOL    HW231332   0.855   4.462   9.552 -1.6006 -2.3408  0.2202
 6624SOL     OW31333   1.482   0.926   6.786  0.3343 -0.1921 -0.3641
 6624SOL    HW131334   1.532   0.911   6.866  1.1041  1.0137 -0.6328
 6624SOL    HW231335   1.430   1.004   6.806  4.0648  2.2364 -0.3371
 6625SOL     OW31336   3.100   2.263   1.755  0.0760 -0.5485  0.1044
 6625SOL    HW131337   3.148   2.225   1.828  0.4898  0.3003  0.2671
 6625SOL    HW231338   3.150   2.222   1.684  0.2803 -1.1424  0.5992
 6626SOL     OW31339   0.566   1.854   8.506 -0.1388 -0.8890  0.0798
 6626SOL    HW131340   0.580   1.782   8.568  0.7974 -0.5571  0.2565
 6626SOL    HW231341   0.543   1.927   8.563 -1.1479 -1.3767  0.2948
 6627SOL     OW31342   4.252   3.950   8.789  0.0733  0.1647  0.5313
 6627SOL    HW131343   4.210   3.893   8.853  1.5344 -0.9206  0.5151
 6627SOL    HW231344   4.197   4.028   8.781 -1.0248 -0.7144 -0.5483
 6628SOL     OW31345   0.284   1.213   6.508  0.1342  0.2309  0.4974
 6628SOL    HW131346   0.295   1.209   6.413  2.0672  1.1989  0.6838
 6628SOL    HW231347   0.217   1.145   6.511 -1.5137  1.7795 -1.8087
 6629SOL     OW31348   4.423   4.669   3.021 -0.8351  0.2798  0.6454
 6629SOL    HW131349   4.446   0.039   3.023 -1.2215  0.3977 -0.8201
 6629SOL    HW231350   4.332   4.685   3.045 -1.5646 -0.6637 -1.5526
 6630SOL     OW31351   0.089   4.563   3.140 -0.2815 -0.0337  0.5069
 6630SOL    HW131352   0.155   4.550   3.207  2.0627 -0.9844 -1.9648
 6630SOL    HW231353   0.055   4.649   3.165  1.4810  0.8281 -0.0532
 6631SOL     OW31354   4.644   4.161  13.444  0.0930  0.3320  0.0101
 6631SOL    HW131355   0.007   4.136  13.479  0.1355  4.4447  2.8319
 6631SOL    HW231356   4.581   4.101  13.483 -0.6085 -0.5067 -2.4306
 6632SOL     OW31357   4.621   1.997   8.021  0.1514 -0.4138  0.2164
 6632SOL    HW131358   4.631   1.920   7.965  1.1996  1.6657 -2.4881
 6632SOL    HW231359   4.715   2.012   8.033 -0.1831  1.5198  0.3442
 6633SOL     OW31360   2.201   3.534   8.510  0.1045  0.3106  0.4440
 6633SOL    HW131361   2.124   3.579   8.474  1.7119  1.4141 -1.6103
 6633SOL    HW231362   2.162   3.457   8.552  0.6122  0.3413  0.9785
 6634SOL     OW31363   3.452   2.759  16.063 -0.1127 -0.6492  0.3712
 6634SOL    HW131364   3.532   2.720  16.099  0.2892 -0.4295 -0.2646
 6634SOL    HW231365   3.469   2.750  15.969 -0.5585  0.2240  0.2029
 6635SOL     OW31366   0.175   0.926   0.505  0.7360  0.0210  0.0421
 6635SOL    HW131367   0.239   0.924   0.576  0.4699 -2.6217  0.2058
 6635SOL    HW231368   0.194   0.840   0.467  1.0892 -0.5912  1.6163
 6636SOL     OW31369   0.946   1.279   6.078  0.2686 -0.2882 -0.4507
 6636SOL    HW131370   0.891   1.324   6.142  1.1680 -0.9076  0.7690
 6636SOL    HW231371   0.968   1.348   6.015  0.0210  0.1385 -0.0663
 6637SOL     OW31372   0.526   1.947   7.593 -0.5312  0.3914 -0.2123
 6637SOL    HW131373   0.481   1.928   7.675 -1.5255  0.6413 -0.7004
 6637SOL    HW231374   0.455   1.988   7.544  0.6131 -0.4957 -2.6120
 6638SOL     OW31375   3.636   3.675   9.273  0.7850  0.0112  0.1423
 6638SOL    HW131376   3.637   3.643   9.363 -0.8649 -0.4553 -0.0098
 6638SOL    HW231377   3.542   3.685   9.256  0.5316 -1.1608  0.8250
 6639SOL     OW31378   4.024   4.322   1.488  0.3738 -0.0698  0.1148
 6639SOL    HW131379   4.011   4.409   1.452 -0.5202  0.2269  1.1740
 6639SOL    HW231380   3.946   4.304   1.540  0.2747  1.8585  0.6159
 6640SOL     OW31381   0.917   3.274  16.488  0.0320  0.3097  0.1598
 6640SOL    HW131382   0.827   3.246  16.470  0.5899 -2.6472  1.9763
 6640SOL    HW231383   0.966   3.204  16.445  0.5667  0.4632  0.5170
 6641SOL     OW31384   0.839   1.137   2.440  0.4438  0.5527 -1.1376
 6641SOL    HW131385   0.850   1.102   2.351  2.0629  0.9951 -1.0985
 6641SOL    HW231386   0.931   1.131   2.467  0.4173 -0.7577 -1.3247
 6642SOL     OW31387   3.937   1.486   9.059 -0.3078 -0.3154 -0.1717
 6642SOL    HW131388   3.877   1.454   9.127  0.7342  0.0085  0.9071
 6642SOL    HW231389   3.921   1.581   9.062 -1.5557 -0.4925 -1.4220
 6643SOL     OW31390   3.406   2.243   5.984 -0.1366  0.1512 -0.4665
 6643SOL    HW131391   3.355   2.309   5.936 -1.1924 -1.3102 -1.3724
 6643SOL    HW231392   3.458   2.296   6.045 -1.3867  1.8739 -0.8946
 6644SOL     OW31393   1.170   2.506   3.353  0.4699 -0.5006  0.1693
 6644SOL    HW131394   1.192   2.591   3.315 -0.2086  0.1230  1.1725
 6644SOL    HW231395   1.237   2.447   3.320  1.6972  0.5507  0.8063
 6645SOL     OW31396   0.856   2.564   4.192 -0.1594  0.3189 -0.2969
 6645SOL    HW131397   0.931   2.560   4.252  1.6994 -1.7736 -2.7631
 6645SOL    HW231398   0.890   2.516   4.117  2.0521  0.2904  0.7205
 6646SOL     OW31399   2.557   3.051   7.369  0.3386 -0.4540 -0.2449
 6646SOL    HW131400   2.538   3.066   7.276 -0.3144  0.2122 -0.0028
 6646SOL    HW231401   2.575   3.142   7.392  0.3946 -0.7359  0.8023
 6647SOL     OW31402   4.399   1.842   8.961  0.1586  0.0399  0.2905
 6647SOL    HW131403   4.360   1.756   8.970 -1.7129  0.9064  0.4460
 6647SOL    HW231404   4.422   1.844   8.868  0.7635 -1.3116  0.4200
 6648SOL     OW31405   0.965   1.706  11.666  0.6396  0.0010 -0.1450
 6648SOL    HW131406   1.026   1.683  11.596  1.0655  1.1097 -0.1322
 6648SOL    HW231407   0.909   1.628  11.664 -0.5107  0.8491 -0.9586
 6649SOL     OW31408   2.995   1.345   2.078  0.0621 -0.3334  0.1404
 6649SOL    HW131409   2.999   1.437   2.052  0.4358 -1.1007 -2.5854
 6649SOL    HW231410   3.087   1.318   2.082  0.4049  0.7577 -0.2656
 6650SOL     OW31411   3.802   1.082   6.506 -0.4369 -0.1065 -0.3689
 6650SOL    HW131412   3.805   1.164   6.457 -0.5607 -1.2669 -2.3217
 6650SOL    HW231413   3.855   1.114   6.579 -1.5009 -1.0058  0.7921
 6651SOL     OW31414   0.827   3.964   3.838 -0.2470  0.1052  0.2132
 6651SOL    HW131415   0.820   4.000   3.750  1.6791 -0.9934 -0.3985
 6651SOL    HW231416   0.882   3.888   3.819 -1.3992 -0.9513  1.1243
 6652SOL     OW31417   3.218   1.421   9.101 -0.4455  0.4191  0.2258
 6652SOL    HW131418   3.155   1.415   9.173  0.4729  2.1156  1.1734
 6652SOL    HW231419   3.171   1.381   9.028  0.1784  0.2048 -0.0520
 6653SOL     OW31420   3.470   2.952  10.151  0.0825 -0.4608 -0.1476
 6653SOL    HW131421   3.550   2.906  10.126  0.5547  0.2420  0.0740
 6653SOL    HW231422   3.449   2.922  10.239 -0.7155  0.2070 -0.1160
 6654SOL     OW31423   1.844   2.135  13.211 -0.2642 -0.0274  0.3188
 6654SOL    HW131424   1.927   2.144  13.164 -0.0349 -1.4557  0.4541
 6654SOL    HW231425   1.840   2.217  13.260 -2.0913 -1.3092  2.3098
 6655SOL     OW31426   0.910   1.278   0.679 -0.3067 -0.7135 -0.1693
 6655SOL    HW131427   0.850   1.323   0.620 -2.4727 -2.0911  0.9882
 6655SOL    HW231428   0.886   1.331   0.756  3.3990 -1.0513  1.2103
 6656SOL     OW31429   3.252   1.143   2.644 -0.1247 -0.3862  0.0105
 6656SOL    HW131430   3.298   1.213   2.598 -0.2600  0.8379  1.7241
 6656SOL    HW231431   3.167   1.156   2.602 -0.7485  1.5703  1.8794
 6657SOL     OW31432   0.689   3.102   1.378  0.2252 -0.3391  0.4546
 6657SOL    HW131433   0.711   3.083   1.286  1.0404 -0.6157  0.7120
 6657SOL    HW231434   0.612   3.046   1.391  0.3680 -1.0458 -1.6528
 6658SOL     OW31435   1.064   0.271   8.531  0.4100 -0.2976 -0.0414
 6658SOL    HW131436   1.158   0.261   8.547  0.5076  1.9507  0.7803
 6658SOL    HW231437   1.041   0.178   8.534 -0.3683 -0.0034  2.9422
 6659SOL     OW31438   4.563   2.155   2.240  0.2677  0.7058  0.1454
 6659SOL    HW131439   4.598   2.180   2.155  0.7337  2.1149  0.7691
 6659SOL    HW231440   4.612   2.075   2.256 -1.5508 -0.6994 -1.2021
 6660SOL     OW31441   2.861   0.874   7.186  0.1057  0.9675  0.9666
 6660SOL    HW131442   2.854   0.929   7.107  0.9476 -0.7430 -0.2979
 6660SOL    HW231443   2.789   0.820   7.154  0.4293  0.1327  1.6337
 6661SOL     OW31444   3.500   1.777   4.266  0.3276  0.2586  0.0565
 6661SOL    HW131445   3.528   1.868   4.258 -0.1868  0.2855 -1.4183
 6661SOL    HW231446   3.580   1.748   4.310  0.1847 -0.9645 -0.4865
 6662SOL     OW31447   0.283   2.917  14.008  0.2198 -1.0027  0.5057
 6662SOL    HW131448   0.366   2.880  13.979  0.4275 -1.3108  1.5235
 6662SOL    HW231449   0.253   2.846  14.065 -1.0908 -0.3511  0.6331
 6663SOL     OW31450   1.586   2.506  13.139 -0.1380 -0.3423 -0.5619
 6663SOL    HW131451   1.500   2.547  13.134  0.3277  0.7069  0.0798
 6663SOL    HW231452   1.574   2.424  13.091 -1.4742 -1.3077  1.4233
 6664SOL     OW31453   4.675   0.048   5.700 -0.4678  0.1569 -0.4003
 6664SOL    HW131454   4.637   4.685   5.681 -0.2625  0.3727 -1.7826
 6664SOL    HW231455   0.042   0.045   5.667 -0.8628  0.4495 -1.5269
 6665SOL     OW31456   0.843   3.083  15.573 -0.4713  0.4277 -0.2614
 6665SOL    HW131457   0.903   3.069  15.500  0.2795  2.9600 -0.1236
 6665SOL    HW231458   0.883   3.168  15.593  0.6130 -0.5576  1.6891
 6666SOL     OW31459   3.980   3.648  14.839 -0.1343 -0.1179 -0.0329
 6666SOL    HW131460   3.986   3.555  14.819  2.2897  0.3734 -1.6290
 6666SOL    HW231461   3.933   3.644  14.923  1.5105 -1.5819  0.8199
 6667SOL     OW31462   2.696   3.869  16.090  0.6274 -0.1758  0.4770
 6667SOL    HW131463   2.694   3.781  16.127 -0.5579 -0.5396 -0.4772
 6667SOL    HW231464   2.790   3.886  16.083  0.5036  0.3013 -0.0286
 6668SOL     OW31465   2.455   3.484   6.544  0.1327  0.0579 -0.1551
 6668SOL    HW131466   2.454   3.465   6.451  1.7497 -0.4272 -0.0684
 6668SOL    HW231467   2.447   3.580   6.547 -0.5760 -0.0068 -0.0492
 6669SOL     OW31468   3.844   3.180   3.162  0.0989  0.2505 -0.1291
 6669SOL    HW131469   3.854   3.245   3.231  0.1002 -1.3136  1.3394
 6669SOL    HW231470   3.819   3.110   3.222 -0.8312  1.9691  1.4961
 6670SOL     OW31471   2.159   4.624   2.451 -1.0021  0.2940  0.1810
 6670SOL    HW131472   2.079   4.589   2.490  0.1820 -1.2764  1.2516
 6670SOL    HW231473   2.167   4.709   2.495 -1.0293 -0.1697  1.0917
 6671SOL     OW31474   2.064   3.570  13.041  0.5047  0.0697  0.5521
 6671SOL    HW131475   2.064   3.569  12.946  0.7179  2.5354  0.5104
 6671SOL    HW231476   2.045   3.479  13.064 -0.9625 -0.0139 -1.0115
 6672SOL     OW31477   2.813   3.714   6.872 -0.0055 -0.1078 -0.4071
 6672SOL    HW131478   2.839   3.747   6.786  0.0269  1.4303  0.1975
 6672SOL    HW231479   2.732   3.667   6.853  0.5859 -0.5232 -1.9406
 6673SOL     OW31480   4.582   1.884   3.141 -0.5652 -0.5785 -0.0729
 6673SOL    HW131481   4.601   1.978   3.141 -0.1762 -0.6559  1.3814
 6673SOL    HW231482   4.658   1.853   3.191 -1.0488 -3.0722 -0.8963
 6674SOL     OW31483   4.308   2.370   5.294  0.0748 -0.2861 -0.1737
 6674SOL    HW131484   4.353   2.329   5.368 -1.1665 -0.4482  0.4855
 6674SOL    HW231485   4.374   2.432   5.263 -0.1650  0.3892  0.6788
 6675SOL     OW31486   2.603   4.162   6.732  0.0269 -0.2127  0.5793
 6675SOL    HW131487   2.688   4.181   6.772  0.9975 -3.8801  0.2281
 6675SOL    HW231488   2.576   4.245   6.693 -0.5965 -1.0488 -0.7601
 6676SOL     OW31489   3.827   2.171   7.715 -0.4934  0.3917 -0.0415
 6676SOL    HW131490   3.854   2.262   7.705 -0.5125  0.2448 -1.5453
 6676SOL    HW231491   3.764   2.172   7.787 -1.3446  2.8622 -0.8248
 6677SOL     OW31492   3.571   2.003   6.803 -0.2941 -0.5788  0.3461
 6677SOL    HW131493   3.574   2.076   6.741 -0.3699  1.5974  2.9155
 6677SOL    HW231494   3.645   1.950   6.773  0.0077  0.7513 -1.2854
 6678SOL     OW31495   4.401   1.007   2.350  0.0907  0.3942  0.2601
 6678SOL    HW131496   4.493   0.986   2.366 -0.2511 -1.7553 -0.5027
 6678SOL    HW231497   4.410   1.102   2.357  1.1888  0.2571  0.5779
 6679SOL     OW31498   1.688   1.992  12.494  0.3078  0.5293 -0.0799
 6679SOL    HW131499   1.694   1.947  12.578 -2.7808 -1.7982 -1.1082
 6679SOL    HW231500   1.657   2.079  12.518 -0.3213  0.3364 -0.1818
 6680SOL     OW31501   3.190   4.364   4.757  0.4459 -0.1288 -0.0430
 6680SOL    HW131502   3.195   4.293   4.820 -2.0843 -0.3984 -0.1229
 6680SOL    HW231503   3.142   4.435   4.800  0.7872  1.3016 -1.9891
 6681SOL     OW31504   3.776   2.514   5.835  0.1232  0.1948 -0.1903
 6681SOL    HW131505   3.796   2.439   5.891 -1.7409  0.0413  0.2591
 6681SOL    HW231506   3.797   2.479   5.748  2.3503  1.4335 -0.1461
 6682SOL     OW31507   4.322   0.610   4.552 -0.2439 -0.1741  0.1431
 6682SOL    HW131508   4.253   0.545   4.563 -0.5435 -0.3154 -2.5167
 6682SOL    HW231509   4.272   0.677   4.505  0.5016  0.8302  0.7905
 6683SOL     OW31510   1.720   2.387  13.366 -0.6483 -0.2965 -0.4454
 6683SOL    HW131511   1.627   2.407  13.356 -0.6281 -0.2158 -0.4736
 6683SOL    HW231512   1.756   2.447  13.301 -1.2902 -1.0875 -1.5564
 6684SOL     OW31513   2.208   4.279   2.896 -0.0205 -0.1341  0.2270
 6684SOL    HW131514   2.178   4.325   2.974 -0.4796  0.7261 -0.4464
 6684SOL    HW231515   2.159   4.323   2.826 -0.9988  1.2168  1.7909
 6685SOL     OW31516   2.177   0.150  17.439 -0.1163 -0.1619  0.6909
 6685SOL    HW131517   2.196   0.203  17.362 -1.9834  0.4758  0.6618
 6685SOL    HW231518   2.253   0.179  17.489 -0.3969  0.0886  0.9775
 6686SOL     OW31519   0.727   2.813   7.265  0.1074  0.6344 -0.0205
 6686SOL    HW131520   0.740   2.718   7.262  1.0396  0.7713 -0.3100
 6686SOL    HW231521   0.784   2.841   7.336  0.7776  0.8564 -0.6566
 6687SOL     OW31522   0.807   4.156   6.495  0.5980 -0.0658  0.5029
 6687SOL    HW131523   0.872   4.216   6.457  1.7197 -1.5658  0.0303
 6687SOL    HW231524   0.804   4.092   6.424 -3.6185  1.8369 -1.0430
 6688SOL     OW31525   3.050   1.120   5.303  0.1410  0.1317  0.4847
 6688SOL    HW131526   2.995   1.194   5.329  0.6575  0.6402  0.1453
 6688SOL    HW231527   2.993   1.053   5.340  0.4048  0.8478  2.1752
 6689SOL     OW31528   3.905   1.186   5.855 -0.1076 -0.3051 -0.5895
 6689SOL    HW131529   3.912   1.256   5.791  0.0399  0.4706  0.2714
 6689SOL    HW231530   3.977   1.211   5.913 -0.6712 -2.2209  0.9566
 6690SOL     OW31531   3.973   4.507  13.453 -0.0400  0.2202  0.6891
 6690SOL    HW131532   3.899   4.449  13.470  0.4373 -1.0421 -1.5078
 6690SOL    HW231533   4.010   4.467  13.375 -0.0104 -1.2165  1.4392
 6691SOL     OW31534   4.123   2.281  15.814 -0.2241  0.6446  0.0007
 6691SOL    HW131535   4.203   2.326  15.842  1.2546 -1.4115 -0.9863
 6691SOL    HW231536   4.125   2.212  15.881  1.0056  0.2020 -0.4950
 6692SOL     OW31537   0.207   3.376   8.606  0.3683  0.3877 -0.2385
 6692SOL    HW131538   0.145   3.443   8.576  0.7935  1.6560  1.7154
 6692SOL    HW231539   0.261   3.370   8.527  0.4807  1.3906 -0.2409
 6693SOL     OW31540   2.381   2.944  13.307  0.0277 -0.2736  0.6529
 6693SOL    HW131541   2.387   2.874  13.242 -1.1032  0.3070 -0.0658
 6693SOL    HW231542   2.394   2.895  13.389  0.2781  0.1216  0.8498
 6694SOL     OW31543   2.719   1.351   3.202  0.6762 -0.2223 -0.1330
 6694SOL    HW131544   2.740   1.287   3.270  0.0603 -0.4078 -0.1190
 6694SOL    HW231545   2.792   1.325   3.146  0.6236  3.2794 -1.8173
 6695SOL     OW31546   4.056   2.193  12.684  0.3462 -0.3787  0.3570
 6695SOL    HW131547   4.077   2.100  12.678  0.1485 -0.2743 -1.9727
 6695SOL    HW231548   4.125   2.226  12.626 -0.2037 -0.8551 -0.5651
 6696SOL     OW31549   0.945   2.412   8.886  0.4589  0.0600 -0.1969
 6696SOL    HW131550   0.940   2.435   8.793  1.7675  0.7296 -0.0955
 6696SOL    HW231551   0.854   2.413   8.917 -0.0672  0.6211 -1.7192
 6697SOL     OW31552   0.859   1.674   5.981  0.3028 -0.7755 -0.1516
 6697SOL    HW131553   0.849   1.607   5.913  3.1261  0.2400 -1.5274
 6697SOL    HW231554   0.770   1.710   5.986  0.7483  0.5900 -2.5334
 6698SOL     OW31555   1.269   0.759  10.263  0.0315 -0.1747  0.1073
 6698SOL    HW131556   1.321   0.679  10.268  0.7380  0.3750  1.5651
 6698SOL    HW231557   1.212   0.722  10.196 -3.5743  1.3404  2.3455
 6699SOL     OW31558   3.247   3.946   8.377 -0.6205 -0.5284 -0.3355
 6699SOL    HW131559   3.197   3.975   8.454 -1.7952 -1.9048 -0.5864
 6699SOL    HW231560   3.198   3.870   8.346 -1.2508 -0.4464  0.4561
 6700SOL     OW31561   2.509   2.728   2.790 -0.3154 -0.1581 -0.3278
 6700SOL    HW131562   2.510   2.635   2.769 -0.1475  0.2411 -2.0537
 6700SOL    HW231563   2.551   2.724   2.877  0.7124  0.7473 -0.7719
 6701SOL     OW31564   2.519   3.831  14.930 -0.5251 -0.0284 -0.3917
 6701SOL    HW131565   2.434   3.788  14.918 -0.7307  0.3193 -0.1650
 6701SOL    HW231566   2.579   3.756  14.939 -1.4773 -0.5547  1.6554
 6702SOL     OW31567   1.428   3.468   2.950  0.0525  0.0385  0.2276
 6702SOL    HW131568   1.443   3.475   3.044  0.6526 -0.8544  0.2031
 6702SOL    HW231569   1.348   3.415   2.948  0.3628 -0.3396 -1.9309
 6703SOL     OW31570   4.493   2.185  17.208 -0.5236 -0.1719 -0.1871
 6703SOL    HW131571   4.469   2.117  17.271 -0.6518  1.0090  1.0111
 6703SOL    HW231572   4.432   2.256  17.226  0.2438  0.1457  1.0972
 6704SOL     OW31573   4.334   0.355  17.600  0.2575 -0.5539 -0.0448
 6704SOL    HW131574   4.403   0.294  17.574  1.9385  0.5871  1.7340
 6704SOL    HW231575   4.348   0.384  17.691  0.9415 -0.1963 -0.2590
 6705SOL     OW31576   4.240   3.980   4.986 -0.1994 -0.6821 -0.6092
 6705SOL    HW131577   4.230   4.072   4.961 -1.4275 -0.7873 -0.4900
 6705SOL    HW231578   4.171   3.941   4.933 -1.2425 -0.0214  0.2599
 6706SOL     OW31579   4.073   3.650   6.109  0.4754  0.2039 -0.6748
 6706SOL    HW131580   4.085   3.672   6.202  3.0632 -1.4614 -0.6223
 6706SOL    HW231581   4.044   3.559   6.115 -1.2602  0.7574 -0.6187
 6707SOL     OW31582   2.189   0.115  11.435 -0.3153 -0.1691 -0.0750
 6707SOL    HW131583   2.099   0.133  11.409 -0.5315 -0.8774  0.1888
 6707SOL    HW231584   2.225   0.187  11.383 -1.6357  0.2005 -0.4864
 6708SOL     OW31585   1.565   1.844   2.293  0.3546  0.7709 -0.0887
 6708SOL    HW131586   1.562   1.915   2.357 -0.7443 -2.4659  3.4439
 6708SOL    HW231587   1.632   1.877   2.233 -0.0181  1.4241 -0.1441
 6709SOL     OW31588   4.068   0.960  14.961 -0.0640  0.2743 -0.3829
 6709SOL    HW131589   4.032   0.872  14.968  1.7750 -0.3638  0.9952
 6709SOL    HW231590   4.157   0.941  14.990 -0.1795  1.4237  0.7340
 6710SOL     OW31591   3.528   1.553  14.982 -0.5314  0.3243 -0.1514
 6710SOL    HW131592   3.538   1.487  14.914 -1.1062  0.8971 -0.7942
 6710SOL    HW231593   3.517   1.631  14.927 -0.9548 -0.0024 -0.5240
 6711SOL     OW31594   1.087   0.721   1.987  0.3317 -0.0480 -0.3308
 6711SOL    HW131595   1.166   0.691   2.031  0.5424 -0.3348 -0.9015
 6711SOL    HW231596   1.024   0.750   2.053 -0.0127  0.4764 -0.8892
 6712SOL     OW31597   1.983   0.603  12.280  0.2984 -0.0304  0.7467
 6712SOL    HW131598   1.933   0.553  12.344 -1.0561  2.2621  1.4526
 6712SOL    HW231599   2.067   0.557  12.277  0.5561  0.4351  0.8339
 6713SOL     OW31600   1.588   3.688   1.762 -0.0201 -0.0316 -0.0390
 6713SOL    HW131601   1.613   3.600   1.791 -2.7147 -0.5879  0.5882
 6713SOL    HW231602   1.516   3.715   1.819  0.5337 -0.2501  0.7512
 6714SOL     OW31603   2.619   4.459   7.855  0.5172 -0.2483 -0.3217
 6714SOL    HW131604   2.686   4.408   7.809  0.2184 -0.6964 -0.2591
 6714SOL    HW231605   2.652   4.547   7.837  0.9271 -0.6555 -1.6339
 6715SOL     OW31606   2.588   2.511   6.183  0.4399  0.2929  0.7794
 6715SOL    HW131607   2.493   2.496   6.175  0.3108  1.4018  0.2068
 6715SOL    HW231608   2.608   2.515   6.277  0.7969  0.9924  0.6700
 6716SOL     OW31609   3.568   2.252   7.770 -0.5275  0.3564 -0.1928
 6716SOL    HW131610   3.478   2.229   7.750  0.1845 -1.5000 -1.2501
 6716SOL    HW231611   3.559   2.331   7.823 -6.1828 -1.6710  1.8558
 6717SOL     OW31612   0.490   4.259   6.134 -0.0961 -0.4805  0.1417
 6717SOL    HW131613   0.464   4.351   6.143  0.0112 -0.2740 -1.6981
 6717SOL    HW231614   0.428   4.230   6.201  0.6342  0.3601  1.1769
 6718SOL     OW31615   2.194   0.064   6.456  0.5488  0.6697 -0.1130
 6718SOL    HW131616   2.205   0.056   6.362  1.1510  0.1470 -0.0006
 6718SOL    HW231617   2.179   0.157   6.467 -0.4726  0.5187 -0.2031
 6719SOL     OW31618   1.319   3.820  15.418  0.0751 -0.0348  0.0734
 6719SOL    HW131619   1.397   3.861  15.379  0.9016  0.0508  1.8292
 6719SOL    HW231620   1.325   3.852  15.508  1.3356 -0.6016  0.1877
 6720SOL     OW31621   3.518   2.540   5.631  0.5657  0.0248 -0.2647
 6720SOL    HW131622   3.580   2.613   5.629  0.7336 -0.0837  0.7560
 6720SOL    HW231623   3.445   2.578   5.679  1.7369  1.4917  0.3736
 6721SOL     OW31624   3.452   0.039  16.026 -0.1471  0.1718 -0.3389
 6721SOL    HW131625   3.486   0.024  15.938  1.2931  0.1379  0.2147
 6721SOL    HW231626   3.530   0.067  16.074 -0.9270  2.5317 -0.4381
 6722SOL     OW31627   3.523   1.525   6.275 -0.5491 -0.1402 -0.2702
 6722SOL    HW131628   3.506   1.570   6.192  0.4326  1.1792  0.2529
 6722SOL    HW231629   3.605   1.561   6.308 -2.0510  0.1110  3.1809
 6723SOL     OW31630   3.401   3.029   4.784  0.0416  0.1886 -0.4366
 6723SOL    HW131631   3.430   3.065   4.868 -2.5845  1.1714  0.0572
 6723SOL    HW231632   3.436   3.098   4.728  1.4836  0.6969  1.0748
 6724SOL     OW31633   4.353   2.179   1.948  0.4156 -0.1003  0.1920
 6724SOL    HW131634   4.363   2.205   1.856  0.5770 -1.3051 -0.1419
 6724SOL    HW231635   4.431   2.215   1.989 -0.7902  2.2677  0.3496
 6725SOL     OW31636   1.778   3.563   4.851  0.3258  0.3796 -0.1181
 6725SOL    HW131637   1.846   3.503   4.882 -0.8869  0.6675  3.0596
 6725SOL    HW231638   1.701   3.530   4.896  1.1934 -2.5760 -0.7741
 6726SOL     OW31639   3.571   2.451   5.330 -0.1782 -0.0737  0.4279
 6726SOL    HW131640   3.487   2.413   5.307 -1.1318  0.3785  3.1022
 6726SOL    HW231641   3.564   2.446   5.426  3.3249  1.9588  0.8161
 6727SOL     OW31642   1.952   1.397  13.697  0.1307 -0.3968  0.2906
 6727SOL    HW131643   1.949   1.304  13.721 -2.0195 -0.9582 -2.1879
 6727SOL    HW231644   1.950   1.445  13.780 -0.4285 -2.1209  1.2928
 6728SOL     OW31645   1.625   0.940  17.610 -0.6317  0.3350 -0.0229
 6728SOL    HW131646   1.543   0.910  17.572 -0.5551  1.0116 -0.7202
 6728SOL    HW231647   1.600   0.941   0.009 -0.5395 -2.0346  0.0471
 6729SOL     OW31648   2.435   3.433   2.437  0.2860 -0.2751 -0.1061
 6729SOL    HW131649   2.520   3.388   2.435 -0.1693 -1.0449 -1.7935
 6729SOL    HW231650   2.430   3.485   2.357 -3.6195 -1.2479 -0.5014
 6730SOL     OW31651   3.785   3.037   1.867 -0.2487  0.4572  0.1429
 6730SOL    HW131652   3.716   3.016   1.804  0.5717  0.4689 -0.7637
 6730SOL    HW231653   3.820   3.121   1.840  0.0086  0.7406  1.3426
 6731SOL     OW31654   1.389   0.306   1.224  0.0215 -0.1204 -0.1908
 6731SOL    HW131655   1.465   0.338   1.176 -0.1317 -0.1178 -0.4354
 6731SOL    HW231656   1.413   0.214   1.235 -1.3909 -0.4257  0.4021
 6732SOL     OW31657   2.320   2.488   4.854  0.5239  0.0242 -0.4854
 6732SOL    HW131658   2.390   2.423   4.858  0.0655 -0.4763 -0.5611
 6732SOL    HW231659   2.355   2.554   4.793  0.1758  0.0107 -0.6997
 6733SOL     OW31660   0.654   0.541   3.297  0.2673  0.2703  0.3562
 6733SOL    HW131661   0.731   0.491   3.268  0.8749  1.4647 -0.0604
 6733SOL    HW231662   0.661   0.616   3.238  0.0056 -0.5726 -0.7623
 6734SOL     OW31663   0.698   2.940   8.867  0.3815  0.4243  0.3851
 6734SOL    HW131664   0.782   2.914   8.904  1.1819  0.9404 -1.0472
 6734SOL    HW231665   0.645   2.899   8.935 -0.8933  1.3191 -0.0622
 6735SOL     OW31666   1.694   3.044  15.352  0.1748  0.4374 -0.0029
 6735SOL    HW131667   1.756   3.007  15.290  1.4171  2.0444  0.2915
 6735SOL    HW231668   1.607   3.064  15.318  0.3027  1.0752  0.0531
 6736SOL     OW31669   3.850   3.718  16.716  0.2541 -0.0943 -0.4591
 6736SOL    HW131670   3.770   3.767  16.702 -0.0270 -0.2615  0.5978
 6736SOL    HW231671   3.870   3.731  16.809  1.1881 -0.4080 -0.6082
 6737SOL     OW31672   3.417   3.294   0.987 -0.3229  0.0604 -0.6138
 6737SOL    HW131673   3.445   3.210   1.022 -0.1978 -0.2265 -1.4059
 6737SOL    HW231674   3.324   3.277   1.003 -0.3414  0.3417 -0.4169
 6738SOL     OW31675   2.502   3.176   2.766  0.1997  0.1313  0.0543
 6738SOL    HW131676   2.568   3.206   2.830  0.1220  2.0338 -0.7650
 6738SOL    HW231677   2.426   3.217   2.807 -1.3790 -2.3427 -0.4150
 6739SOL     OW31678   1.608   1.688   9.740 -0.2857  0.5266  0.3752
 6739SOL    HW131679   1.518   1.707   9.766 -0.8030 -0.4851 -0.6382
 6739SOL    HW231680   1.642   1.774   9.762 -0.3067  1.1064 -1.8880
 6740SOL     OW31681   0.263   1.299   3.184 -0.0317 -0.3835  0.2696
 6740SOL    HW131682   0.306   1.384   3.176  0.7609 -0.8475 -0.3868
 6740SOL    HW231683   0.323   1.248   3.129 -1.9419 -1.7600 -0.5327
 6741SOL     OW31684   0.897   0.002  11.771 -0.4277 -0.2874  0.2016
 6741SOL    HW131685   0.961   0.070  11.748 -0.6078 -1.0255 -2.4253
 6741SOL    HW231686   0.886   0.023  11.864  1.9947  1.2595  0.1481
 6742SOL     OW31687   3.171   3.833   6.743  0.2821  0.8534 -0.6254
 6742SOL    HW131688   3.229   3.878   6.682  1.2096 -0.2758 -0.5878
 6742SOL    HW231689   3.120   3.787   6.676 -0.9437  2.2641 -0.6440
 6743SOL     OW31690   3.807   4.006   4.405 -0.1358  0.1791  0.9570
 6743SOL    HW131691   3.755   3.952   4.465  2.4756 -1.7412  1.5011
 6743SOL    HW231692   3.740   4.059   4.363  1.1105 -0.9865 -2.5074
 6744SOL     OW31693   4.417   4.675   8.075 -0.1750  0.2676  0.4516
 6744SOL    HW131694   4.490   4.638   8.124  1.2139 -0.6393 -2.2900
 6744SOL    HW231695   4.449   0.042   8.068 -0.2194  0.2839  0.4608
 6745SOL     OW31696   2.730   3.703   8.862 -0.0968 -0.0247  0.3986
 6745SOL    HW131697   2.653   3.653   8.836 -0.5303  0.2002  1.2621
 6745SOL    HW231698   2.744   3.751   8.780 -1.0962 -0.3124  0.0549
 6746SOL     OW31699   3.012   4.577   2.516 -0.0460  0.1069 -0.0618
 6746SOL    HW131700   3.007   4.518   2.441  3.3937  2.2305 -1.9136
 6746SOL    HW231701   3.103   4.575   2.543  0.1861  0.2921 -0.8439
 6747SOL     OW31702   3.654   4.272   6.231  0.2342 -0.1557  0.1562
 6747SOL    HW131703   3.644   4.354   6.280  2.4442  1.3078 -1.8447
 6747SOL    HW231704   3.638   4.302   6.142 -2.3321 -0.6034  0.4721
 6748SOL     OW31705   1.844   4.148   1.496 -0.0235  0.5157  0.5222
 6748SOL    HW131706   1.768   4.090   1.498 -0.3213  0.9315  1.2948
 6748SOL    HW231707   1.818   4.206   1.425  2.4528  1.2425  0.1939
 6749SOL     OW31708   0.073   3.462   0.465  0.5146  0.5384  0.1614
 6749SOL    HW131709   0.065   3.435   0.557  3.7910  2.0417  0.8621
 6749SOL    HW231710   0.089   3.554   0.487 -0.2875  0.7905 -0.2785
 6750SOL     OW31711   0.369   0.491  13.138  0.4756  0.2520  0.1024
 6750SOL    HW131712   0.288   0.510  13.091  0.8894  1.0670 -0.2874
 6750SOL    HW231713   0.371   0.571  13.191 -0.7315  1.4677 -1.6998
 6751SOL     OW31714   4.346   3.223   7.427 -0.4884  0.5685 -0.3980
 6751SOL    HW131715   4.388   3.137   7.415  1.8629  1.5066  1.0683
 6751SOL    HW231716   4.344   3.211   7.522 -1.5201 -0.6147 -0.5667
 6752SOL     OW31717   0.833   3.626   1.520 -0.0851 -0.4111 -0.1986
 6752SOL    HW131718   0.804   3.706   1.477 -3.3373 -1.3544  0.2150
 6752SOL    HW231719   0.837   3.558   1.452  0.4799 -0.0289 -0.5477
 6753SOL     OW31720   4.196   2.028   6.140 -0.0386  0.2434  0.0493
 6753SOL    HW131721   4.216   1.936   6.161 -1.6275  0.0205  0.5246
 6753SOL    HW231722   4.282   2.062   6.166 -0.7237 -0.6166  3.4286
 6754SOL     OW31723   0.768   3.629   3.228  0.3886  0.7055  0.1938
 6754SOL    HW131724   0.703   3.623   3.297 -2.2851  0.5912 -2.3514
 6754SOL    HW231725   0.806   3.714   3.251  1.5007  0.1129  0.5306
 6755SOL     OW31726   0.745   2.148   0.987  0.2913  0.7306  0.5614
 6755SOL    HW131727   0.717   2.079   1.047 -0.7072  1.9323  1.4969
 6755SOL    HW231728   0.805   2.196   1.045  0.5178  0.0431  0.9020
 6756SOL     OW31729   3.036   1.057  15.085 -0.8429 -0.0978 -0.1915
 6756SOL    HW131730   3.087   1.083  15.009 -2.3695  3.3887  0.0077
 6756SOL    HW231731   3.085   1.109  15.149 -1.1974  0.2629 -0.2193
 6757SOL     OW31732   1.275   3.445  10.251 -0.2912  0.1651 -0.0970
 6757SOL    HW131733   1.349   3.507  10.253  0.1063 -0.3118 -0.0089
 6757SOL    HW231734   1.270   3.409  10.340 -0.4219  1.8809  0.5976
 6758SOL     OW31735   1.579   2.708   8.129 -0.6079  0.5956  0.2110
 6758SOL    HW131736   1.552   2.618   8.148  0.2487  0.3575  0.3082
 6758SOL    HW231737   1.510   2.761   8.169 -0.7522  0.2582  0.4096
 6759SOL     OW31738   4.671   0.005   2.377 -0.2324 -0.3646 -0.9973
 6759SOL    HW131739   4.675   4.634   2.394 -1.6205  0.0441  1.5901
 6759SOL    HW231740   0.018   0.009   2.311 -3.1200  1.5666 -3.9540
 6760SOL     OW31741   3.723   0.543   1.205  0.4658  0.1284 -0.0515
 6760SOL    HW131742   3.695   0.479   1.140 -0.8294 -0.9551  1.5709
 6760SOL    HW231743   3.807   0.509   1.236  0.1416 -0.6182  0.0155
 6761SOL     OW31744   4.249   4.295   1.641 -0.0032  0.1149  0.0281
 6761SOL    HW131745   4.182   4.319   1.577  0.1921  0.0234 -0.2121
 6761SOL    HW231746   4.199   4.226   1.685 -1.1607  0.1161 -1.2587
 6762SOL     OW31747   0.823   1.036   0.749 -0.4563 -0.8246  0.3049
 6762SOL    HW131748   0.870   1.115   0.722 -0.4605 -0.9711 -0.1280
 6762SOL    HW231749   0.737   1.036   0.707  0.0266  2.2905 -0.6405
 6763SOL     OW31750   3.100   4.024   4.122 -0.3258  0.0754 -0.5220
 6763SOL    HW131751   3.154   3.997   4.048  0.3367 -1.1294  0.3874
 6763SOL    HW231752   3.120   4.117   4.135  3.0950 -0.7354 -0.0232
 6764SOL     OW31753   2.050   4.031   1.661  0.0342  0.5532 -0.2089
 6764SOL    HW131754   2.104   4.105   1.633 -1.3656  1.9375  0.7338
 6764SOL    HW231755   1.973   4.052   1.609 -0.5268  2.9235  1.5920
 6765SOL     OW31756   1.688   0.769   6.056 -0.0448 -0.5325 -0.0584
 6765SOL    HW131757   1.648   0.714   6.124 -2.3716 -1.5584 -2.2636
 6765SOL    HW231758   1.643   0.853   6.065 -1.3399 -1.1811 -0.3622
 6766SOL     OW31759   0.637   1.527   3.335  0.1484  0.0158  0.3487
 6766SOL    HW131760   0.717   1.579   3.339  0.4539 -0.3953 -0.4960
 6766SOL    HW231761   0.601   1.550   3.421 -1.7038 -1.5802  0.0116
 6767SOL     OW31762   4.682   3.445   1.387  0.3845  0.2330 -0.9359
 6767SOL    HW131763   0.054   3.444   1.374  0.3237 -0.5960 -1.2863
 6767SOL    HW231764   4.663   3.539   1.392 -0.1900  0.0812 -0.2001
 6768SOL     OW31765   1.854   2.957  11.181  0.4694 -0.0676 -0.3912
 6768SOL    HW131766   1.865   2.994  11.269 -0.6410  1.6989 -0.9870
 6768SOL    HW231767   1.860   3.031  11.119  0.5288 -2.0949 -2.8050
 6769SOL     OW31768   3.358   0.630   3.459 -0.4957  0.3404  0.2192
 6769SOL    HW131769   3.432   0.571   3.442 -1.1212 -0.1900 -0.6979
 6769SOL    HW231770   3.388   0.698   3.399 -1.3130 -1.4022 -2.1852
 6770SOL     OW31771   3.747   1.910   3.324 -0.6439  0.3666  0.3181
 6770SOL    HW131772   3.717   1.830   3.280  1.7164 -0.7091  0.6806
 6770SOL    HW231773   3.827   1.918   3.272  0.1180 -1.0941  1.2471
 6771SOL     OW31774   1.399   2.471   8.868 -0.7279  0.2660 -0.2501
 6771SOL    HW131775   1.322   2.474   8.811  0.0133  3.3011 -1.1064
 6771SOL    HW231776   1.360   2.516   8.943  1.8253 -1.1686  1.9376
 6772SOL     OW31777   3.616   2.043   5.906 -0.0034  0.0731  0.3368
 6772SOL    HW131778   3.617   1.994   5.988 -0.2714 -0.3610  0.0794
 6772SOL    HW231779   3.614   2.136   5.932 -0.5512  0.4975 -1.2253
 6773SOL     OW31780   2.495   0.529  14.325 -0.7023 -0.3689 -0.0439
 6773SOL    HW131781   2.409   0.524  14.369 -0.7465 -0.3989 -0.1333
 6773SOL    HW231782   2.524   0.618  14.342  1.1682 -0.5931 -2.1372
 6774SOL     OW31783   2.534   0.517   8.014  0.3257 -0.4385 -0.2854
 6774SOL    HW131784   2.613   0.496   7.964  1.9947  2.0523  1.2959
 6774SOL    HW231785   2.471   0.503   7.943  1.2386 -0.3680 -1.0967
 6775SOL     OW31786   2.523   3.997   5.485 -0.5921  0.1287 -0.6957
 6775SOL    HW131787   2.569   4.072   5.522  2.0925 -0.0925 -3.6055
 6775SOL    HW231788   2.489   3.965   5.569 -0.3668 -0.3267 -0.7820
 6776SOL     OW31789   0.048   4.368   8.415  0.2397  0.0546  0.2566
 6776SOL    HW131790   0.115   4.329   8.471  1.6988  1.9827 -0.1567
 6776SOL    HW231791   0.026   4.440   8.475 -0.2226 -0.1673  0.3523
 6777SOL     OW31792   3.329   3.372   6.949  0.2707  0.4891  0.4499
 6777SOL    HW131793   3.266   3.315   6.905  1.3837 -0.9796  0.7826
 6777SOL    HW231794   3.303   3.459   6.919  2.0931  1.3483  1.3522
 6778SOL     OW31795   3.188   4.360   2.775  0.1043 -0.2096  0.4073
 6778SOL    HW131796   3.111   4.331   2.725  0.5868 -1.0196  0.1230
 6778SOL    HW231797   3.230   4.420   2.713 -0.3133 -0.5734 -0.2235
 6779SOL     OW31798   3.991   0.293  11.813 -0.1258  0.2224  0.2770
 6779SOL    HW131799   3.914   0.287  11.868 -0.6912 -0.1250 -0.5554
 6779SOL    HW231800   4.035   0.209  11.825  1.9062  1.4324  1.3081
 6780SOL     OW31801   2.704   1.976  10.228 -0.2534  0.0449  0.0826
 6780SOL    HW131802   2.661   2.056  10.198 -0.0295 -0.3484 -1.2659
 6780SOL    HW231803   2.797   1.977  10.206 -0.2414  1.0289  0.1541
 6781SOL     OW31804   2.791   0.268   6.289 -0.1089  0.1105  0.2693
 6781SOL    HW131805   2.839   0.350   6.303  1.5052 -0.8946  0.6687
 6781SOL    HW231806   2.865   0.209   6.272  1.4093  2.4376 -1.1354
 6782SOL     OW31807   2.407   0.377   1.732 -0.4107 -0.3447 -0.2084
 6782SOL    HW131808   2.460   0.328   1.670 -0.5583  1.3477 -1.6875
 6782SOL    HW231809   2.474   0.413   1.790  0.0409  0.1528 -1.0428
 6783SOL     OW31810   3.808   1.891   6.694 -0.3825 -0.3304 -0.4654
 6783SOL    HW131811   3.900   1.913   6.705 -0.4335  0.1865 -1.1033
 6783SOL    HW231812   3.829   1.827   6.626  1.7669  1.0293 -1.0630
 6784SOL     OW31813   1.824   4.458   2.344 -0.3623  0.0012 -0.2276
 6784SOL    HW131814   1.812   4.552   2.330  2.5817  0.6315  1.3715
 6784SOL    HW231815   1.778   4.421   2.269 -0.4204  1.6728 -1.0143
 6785SOL     OW31816   4.699   1.831   9.356  0.3083 -0.1580  0.6946
 6785SOL    HW131817   4.636   1.763   9.331 -0.0147  0.1886  0.5663
 6785SOL    HW231818   0.039   1.776   9.402  0.4970  1.9672  2.9561
 6786SOL     OW31819   2.248   2.340  12.089  0.6962  0.3614  0.4037
 6786SOL    HW131820   2.210   2.287  12.019 -0.8262  1.0688  0.7122
 6786SOL    HW231821   2.242   2.296  12.174 -0.5997  2.0352  1.1933
 6787SOL     OW31822   3.690   2.287   3.560 -0.4038 -0.5473  0.8387
 6787SOL    HW131823   3.759   2.226   3.533 -1.4474 -0.4694 -2.0294
 6787SOL    HW231824   3.674   2.329   3.476 -0.4540  0.3196  1.2855
 6788SOL     OW31825   2.533   0.247   1.524  0.1618  0.1648 -0.3268
 6788SOL    HW131826   2.498   0.203   1.446  1.3038 -0.8602 -0.2429
 6788SOL    HW231827   2.619   0.270   1.490 -0.5704  1.0824 -1.5760
 6789SOL     OW31828   3.896   1.294  16.845 -0.3613  0.0336 -0.2156
 6789SOL    HW131829   3.895   1.365  16.910 -0.0553 -0.0868 -0.0789
 6789SOL    HW231830   3.837   1.339  16.786  0.4975  0.1390 -0.9886
 6790SOL     OW31831   4.326   0.617  10.995  0.3335 -0.0513  0.0600
 6790SOL    HW131832   4.404   0.606  11.050  1.3505  0.8856 -1.2126
 6790SOL    HW231833   4.350   0.698  10.951 -1.7566  0.6239  0.1799
 6791SOL     OW31834   2.473   1.736  17.350  1.0155  0.1978  0.2690
 6791SOL    HW131835   2.552   1.702  17.309  1.8832  1.4781  0.8899
 6791SOL    HW231836   2.413   1.739  17.275 -0.7385  0.1377  1.6547
 6792SOL     OW31837   3.976   0.386   7.003 -0.3676  0.6276  0.0302
 6792SOL    HW131838   3.936   0.343   7.079 -1.9430 -0.6033 -1.4957
 6792SOL    HW231839   4.067   0.360   7.009 -0.1022  1.4051 -0.6540
 6793SOL     OW31840   0.582   2.089   2.461 -0.1727 -0.1256  0.0748
 6793SOL    HW131841   0.575   2.171   2.411  0.2344 -1.8040 -2.7155
 6793SOL    HW231842   0.498   2.048   2.442 -1.1148  2.0668 -0.5048
 6794SOL     OW31843   0.772   3.445   3.532 -0.3532 -0.5561 -0.2417
 6794SOL    HW131844   0.816   3.450   3.447 -2.0304  4.1103 -0.8704
 6794SOL    HW231845   0.850   3.448   3.587 -1.8216 -0.1073  1.8130
 6795SOL     OW31846   0.982   3.280   1.640  0.4886  0.2538 -0.1384
 6795SOL    HW131847   0.910   3.218   1.628 -0.6963  2.2528 -3.5787
 6795SOL    HW231848   0.962   3.344   1.571  0.5811  1.7309  1.1931
 6796SOL     OW31849   2.020   1.581   1.235 -0.1197  0.0181  0.3763
 6796SOL    HW131850   2.089   1.600   1.171 -0.9244 -1.0985 -0.7947
 6796SOL    HW231851   1.960   1.532   1.179  2.1802  0.3395 -2.3647
 6797SOL     OW31852   2.549   2.667  15.271  0.0111  0.1732 -0.3930
 6797SOL    HW131853   2.456   2.687  15.275 -0.1768 -1.2635  2.2498
 6797SOL    HW231854   2.550   2.645  15.178  0.7068 -2.1920  0.1671
 6798SOL     OW31855   3.548   4.609   5.168 -0.0762  0.1825 -0.3138
 6798SOL    HW131856   3.508   4.578   5.249  0.2537  0.9460  0.1399
 6798SOL    HW231857   3.620   4.663   5.200  0.0148 -0.1612  0.0586
 6799SOL     OW31858   2.495   1.542   5.766  0.1195  0.0270  0.2269
 6799SOL    HW131859   2.404   1.526   5.742  1.3282 -1.5438 -3.3982
 6799SOL    HW231860   2.485   1.628   5.806 -1.3169 -0.7250  1.4909
 6800SOL     OW31861   1.586   0.078   5.442 -0.2958  0.1346  0.4572
 6800SOL    HW131862   1.597   0.171   5.423 -0.9529  0.2158  0.4586
 6800SOL    HW231863   1.516   0.050   5.383  0.2106  2.7870 -1.3876
 6801SOL     OW31864   2.212   0.083   9.774  0.0679 -0.3905  0.7812
 6801SOL    HW131865   2.192   4.716   9.747 -0.7428  0.1824 -0.5108
 6801SOL    HW231866   2.251   0.115   9.692 -0.3874 -0.2148  0.6360
 6802SOL     OW31867   2.723   0.666   1.573  0.0228  0.6619  0.4274
 6802SOL    HW131868   2.685   0.664   1.485 -1.1185 -2.0489  1.0135
 6802SOL    HW231869   2.721   0.758   1.599  1.1733  1.8746 -3.6947
 6803SOL     OW31870   1.958   1.374   1.395 -0.2296  0.3606  0.3826
 6803SOL    HW131871   1.993   1.459   1.367 -0.9315  0.9142  1.1897
 6803SOL    HW231872   1.888   1.397   1.456 -1.1980 -0.9826 -0.2413
 6804SOL     OW31873   0.294   0.791   4.872 -0.3060 -0.1734 -0.2352
 6804SOL    HW131874   0.202   0.817   4.876 -0.2527 -0.0678  0.4026
 6804SOL    HW231875   0.342   0.872   4.888 -0.9250 -0.2862  2.3226
 6805SOL     OW31876   4.379   2.837  12.969 -0.3403 -0.0396 -0.5126
 6805SOL    HW131877   4.455   2.879  13.008 -0.9756  0.7812 -0.1770
 6805SOL    HW231878   4.405   2.839  12.877  0.1840 -0.3648 -0.3705
 6806SOL     OW31879   2.245   1.143   6.675  0.0419 -0.0548  0.7330
 6806SOL    HW131880   2.183   1.120   6.607  0.1080  1.0764  0.2866
 6806SOL    HW231881   2.238   1.065   6.730  1.6401 -0.3763  0.4704
 6807SOL     OW31882   2.002   2.889  15.724 -0.1554  0.0003  0.0667
 6807SOL    HW131883   2.062   2.843  15.665  1.2133 -0.9956  2.2117
 6807SOL    HW231884   1.919   2.911  15.682  0.1807  1.5571  0.2275
 6808SOL     OW31885   3.178   4.079  10.870  0.2827 -0.1653  0.1955
 6808SOL    HW131886   3.244   4.041  10.928 -0.2919 -0.4607  0.6560
 6808SOL    HW231887   3.139   4.007  10.821  1.5172  0.9953 -2.5085
 6809SOL     OW31888   2.620   1.707   5.600 -0.1457 -0.4462  0.2656
 6809SOL    HW131889   2.629   1.643   5.671  0.3052  0.7915  1.3338
 6809SOL    HW231890   2.533   1.743   5.617 -0.3759 -1.1582  0.6176
 6810SOL     OW31891   2.268   1.598   0.549  0.1764  0.1087  0.8533
 6810SOL    HW131892   2.237   1.658   0.617 -4.5422 -0.7568 -0.5115
 6810SOL    HW231893   2.227   1.633   0.470  2.3354 -2.0535 -1.2267
 6811SOL     OW31894   0.964   4.338  10.786 -0.5260 -0.2414 -0.0170
 6811SOL    HW131895   1.040   4.396  10.780 -1.1869  0.6982  0.6657
 6811SOL    HW231896   0.994   4.267  10.843 -2.6635 -0.3034  1.0540
 6812SOL     OW31897   0.975   2.851   8.719 -0.3701  0.6491  0.1915
 6812SOL    HW131898   0.919   2.901   8.660 -1.3606  0.2824  0.8338
 6812SOL    HW231899   0.993   2.923   8.780  0.8248  1.8532 -1.5655
 6813SOL     OW31900   0.190   4.175   3.665 -0.0277  0.3291  0.0359
 6813SOL    HW131901   0.135   4.140   3.595 -0.1059  0.6716 -0.0750
 6813SOL    HW231902   0.130   4.203   3.733  1.5103  1.1891  1.0476
 6814SOL     OW31903   2.786   0.065  14.552  0.3609  0.6838 -0.1506
 6814SOL    HW131904   2.752   0.136  14.606 -0.2754  0.5851 -0.4217
 6814SOL    HW231905   2.880   0.087  14.553  1.0068 -2.2730  1.1453
 6815SOL     OW31906   0.581   1.360   8.709 -0.2844 -0.1774  0.2248
 6815SOL    HW131907   0.562   1.395   8.796  1.3894  1.1413  0.0609
 6815SOL    HW231908   0.512   1.294   8.699 -1.9620  2.0262 -2.7846
 6816SOL     OW31909   3.961   2.123   9.244  0.2956  0.0503  0.2265
 6816SOL    HW131910   4.047   2.136   9.205 -0.9649  1.4948 -1.9985
 6816SOL    HW231911   3.902   2.111   9.170 -0.9263 -0.7201  1.3149
 6817SOL     OW31912   3.222   0.892   8.614 -0.4563  0.3099  0.3903
 6817SOL    HW131913   3.171   0.874   8.692 -0.8669  1.0255  0.2812
 6817SOL    HW231914   3.173   0.852   8.542  2.1438 -0.9218 -0.7292
 6818SOL     OW31915   3.272   1.807   3.779 -0.1897  0.2450 -0.1925
 6818SOL    HW131916   3.308   1.822   3.866  0.0256  0.8613 -0.3904
 6818SOL    HW231917   3.211   1.735   3.796  0.3868 -0.3925 -0.7547
 6819SOL     OW31918   1.453   0.384   9.782  0.8890 -0.2952 -0.4337
 6819SOL    HW131919   1.446   0.289   9.782 -0.1920 -0.2252 -2.7089
 6819SOL    HW231920   1.457   0.398   9.877  0.3944 -1.5936 -0.2268
 6820SOL     OW31921   0.020   2.819   3.318  0.5612 -0.2944 -0.7599
 6820SOL    HW131922   0.056   2.764   3.249  2.5755  0.1884 -0.0699
 6820SOL    HW231923   0.069   2.901   3.324 -2.1694  1.1831  1.5950
 6821SOL     OW31924   0.779   0.109   7.955 -0.0544 -0.0317 -0.2204
 6821SOL    HW131925   0.735   0.174   7.900 -0.9035  0.8178  1.4817
 6821SOL    HW231926   0.824   0.060   7.886  0.0987 -1.9338  1.2429
 6822SOL     OW31927   1.241   0.887   0.232 -0.0453  0.4433 -0.0334
 6822SOL    HW131928   1.167   0.947   0.222 -1.7834 -1.4287  1.6742
 6822SOL    HW231929   1.236   0.840   0.149  1.0734 -0.7437  0.5773
 6823SOL     OW31930   2.821   1.045   6.260  0.1591 -0.0090 -0.0542
 6823SOL    HW131931   2.806   1.137   6.236  1.6816  0.1344 -0.4338
 6823SOL    HW231932   2.913   1.036   6.237 -0.2960 -0.4883 -1.6769
 6824SOL     OW31933   2.591   3.952   2.271  0.2895  0.7984 -0.2778
 6824SOL    HW131934   2.654   3.920   2.206 -0.8014 -0.0634 -0.9256
 6824SOL    HW231935   2.541   4.012   2.216 -0.6943  0.2062 -0.0332
 6825SOL     OW31936   1.145   1.067   9.454  0.3430  0.0759 -0.6749
 6825SOL    HW131937   1.189   1.028   9.529 -3.1243  1.1464  1.8858
 6825SOL    HW231938   1.065   1.018   9.470  2.3182 -2.5148  1.1925
 6826SOL     OW31939   0.993   4.420  15.394  0.4517 -0.0122  0.1951
 6826SOL    HW131940   1.059   4.409  15.325  0.7885 -0.9217  0.6751
 6826SOL    HW231941   0.965   4.329  15.393 -1.7458  0.6702  1.1995
 6827SOL     OW31942   1.214   0.320   6.506 -0.9224 -0.0779 -0.6540
 6827SOL    HW131943   1.277   0.279   6.446 -0.3710  0.7404 -0.6432
 6827SOL    HW231944   1.286   0.371   6.544  0.1858  1.3228 -4.6465
 6828SOL     OW31945   2.447   4.272   6.051 -0.2276 -0.0940  0.1614
 6828SOL    HW131946   2.377   4.317   6.098  0.7816  0.8361  0.7624
 6828SOL    HW231947   2.521   4.329   6.069 -1.2364  0.3555  2.9728
 6829SOL     OW31948   1.587   3.634   3.326 -0.0111  0.5236  0.1124
 6829SOL    HW131949   1.676   3.602   3.342 -0.0235  0.1800 -0.4801
 6829SOL    HW231950   1.612   3.720   3.359  1.4768 -0.3227  1.1984
 6830SOL     OW31951   4.691   2.605  13.222 -0.1732  0.0922  0.5842
 6830SOL    HW131952   4.676   2.674  13.157  2.2168  0.4947  0.4581
 6830SOL    HW231953   4.603   2.568  13.214  0.1289 -0.3006 -0.9300
 6831SOL     OW31954   0.208   0.224   7.758  0.3645 -0.1808 -0.4671
 6831SOL    HW131955   0.256   0.176   7.825  1.3407  0.8983 -0.3821
 6831SOL    HW231956   0.277   0.240   7.694 -0.3844  1.3350 -0.8923
 6832SOL     OW31957   1.788   0.260   3.087 -0.0757  0.3840  0.1718
 6832SOL    HW131958   1.822   0.218   3.166  0.3746  0.2670 -0.0805
 6832SOL    HW231959   1.817   0.200   3.018 -1.5178  0.9529 -0.9173
 6833SOL     OW31960   2.144   0.576   8.320  0.3423  0.0508 -0.8665
 6833SOL    HW131961   2.160   0.491   8.278 -1.2365 -0.2518 -0.8380
 6833SOL    HW231962   2.074   0.609   8.264  2.7816  0.9111 -3.3782
 6834SOL     OW31963   1.885   0.871  16.196 -0.1396  0.4521 -0.6541
 6834SOL    HW131964   1.875   0.966  16.187 -0.9829  0.4606  0.3914
 6834SOL    HW231965   1.976   0.860  16.170  0.1856 -0.5757  0.9416
 6835SOL     OW31966   1.563   3.631   4.370 -0.2050 -0.2027 -0.5124
 6835SOL    HW131967   1.531   3.676   4.448 -0.7530 -0.8551 -0.3631
 6835SOL    HW231968   1.617   3.707   4.349  0.6315 -0.3163  1.2361
 6836SOL     OW31969   0.556   3.350   4.664 -0.3132  0.3211 -0.5530
 6836SOL    HW131970   0.460   3.348   4.656 -0.3727 -0.6610  0.2926
 6836SOL    HW231971   0.572   3.439   4.693 -3.2502  0.2184  1.3835
 6837SOL     OW31972   3.011   3.695   6.277  0.7228  0.5333  0.2171
 6837SOL    HW131973   3.070   3.770   6.264 -0.1210  1.1169 -0.2495
 6837SOL    HW231974   2.921   3.727   6.273  1.2010  1.8251 -0.2789
 6838SOL     OW31975   3.428   3.748   5.476 -0.5567  0.3848 -0.6978
 6838SOL    HW131976   3.343   3.706   5.467 -0.0913 -0.6293 -0.4079
 6838SOL    HW231977   3.403   3.835   5.444  0.7139  0.8098 -0.5763
 6839SOL     OW31978   3.078   3.509   0.400 -0.0276 -0.1395  0.1444
 6839SOL    HW131979   3.022   3.437   0.370  1.0619 -0.7133 -0.5014
 6839SOL    HW231980   3.017   3.583   0.396 -0.0654 -0.2696 -1.6681
 6840SOL     OW31981   2.842   0.563   8.185  0.1375  0.3008 -0.5467
 6840SOL    HW131982   2.834   0.617   8.107 -0.5699 -0.8551 -1.2880
 6840SOL    HW231983   2.907   0.611   8.237  1.4900 -0.5695 -1.4449
 6841SOL     OW31984   3.506   2.433   3.320 -0.2626  0.3637  0.4324
 6841SOL    HW131985   3.447   2.418   3.246  0.3919  1.7582 -0.3692
 6841SOL    HW231986   3.555   2.512   3.297  0.1478 -0.1133 -0.3462
 6842SOL     OW31987   2.685   4.246   6.347 -0.2367 -0.0519 -0.2518
 6842SOL    HW131988   2.702   4.319   6.288  1.0639 -0.1545  0.0046
 6842SOL    HW231989   2.765   4.239   6.399  0.3006  0.7317 -0.9848
 6843SOL     OW31990   0.782   3.710   4.143  0.0463  0.7983  0.0501
 6843SOL    HW131991   0.858   3.768   4.152  1.5538 -1.2685  0.6616
 6843SOL    HW231992   0.830   3.628   4.135 -0.7173  0.0523  3.1558
 6844SOL     OW31993   1.046   0.375   3.817  0.0727 -0.4362 -0.0725
 6844SOL    HW131994   0.991   0.319   3.761 -1.1141  0.6987 -0.0412
 6844SOL    HW231995   1.009   0.346   3.900 -0.7931 -2.3605 -1.1149
 6845SOL     OW31996   1.542   2.538   8.534 -0.4192 -0.2948 -0.2160
 6845SOL    HW131997   1.489   2.531   8.614 -2.4584 -0.7647 -1.6143
 6845SOL    HW231998   1.506   2.620   8.501 -2.2157 -0.5339  1.1848
 6846SOL     OW31999   4.096   4.426   3.582  0.2615 -0.2277 -0.4868
 6846SOL    HW132000   4.120   4.464   3.497 -1.0039  1.1990 -0.2132
 6846SOL    HW232001   4.158   4.465   3.643 -1.1180 -0.7705  1.2600
 6847SOL     OW32002   2.254   2.514  13.429 -0.0733 -0.1993  1.2101
 6847SOL    HW132003   2.200   2.510  13.508  1.6549  1.2769  2.4589
 6847SOL    HW232004   2.231   2.428  13.392  2.5950 -0.1175 -0.6334
 6848SOL     OW32005   2.315   4.414   2.542  0.0088  0.1152 -0.0243
 6848SOL    HW132006   2.404   4.447   2.556 -0.3653  1.6097 -1.2395
 6848SOL    HW232007   2.263   4.492   2.522  1.0411  0.7244 -0.3474
 6849SOL     OW32008   3.941   2.169   3.284 -0.2088 -0.5621 -0.0355
 6849SOL    HW132009   4.002   2.196   3.353  0.9883 -1.5976 -0.6893
 6849SOL    HW232010   3.944   2.246   3.226 -3.6636 -0.9862 -0.7616
 6850SOL     OW32011   0.836   2.019   3.600 -0.3596  0.1352 -0.5632
 6850SOL    HW132012   0.806   2.073   3.527  0.0711 -2.8881 -2.9701
 6850SOL    HW232013   0.853   1.935   3.559 -0.5679 -0.7642  1.2157
 6851SOL     OW32014   2.303   4.138  15.930 -0.3394 -0.2748  0.0481
 6851SOL    HW132015   2.225   4.087  15.950  0.3186 -0.9864  0.8105
 6851SOL    HW232016   2.303   4.129  15.835  1.8489  0.8868 -0.0672
 6852SOL     OW32017   3.730   1.186   3.857  0.6255  0.5969 -0.4004
 6852SOL    HW132018   3.638   1.163   3.841  0.7712  0.4996 -1.1136
 6852SOL    HW232019   3.764   1.099   3.877 -1.6233 -0.5813 -1.7708
 6853SOL     OW32020   0.927   2.473  14.939 -0.0089 -0.6154  0.0840
 6853SOL    HW132021   0.866   2.528  14.890  0.7583  0.5159  0.4048
 6853SOL    HW232022   0.943   2.401  14.878  1.5541 -1.3951  1.4172
 6854SOL     OW32023   0.051   0.882   5.969  0.8504  0.0925  0.5347
 6854SOL    HW132024   0.129   0.878   6.024  0.5358  1.0009  1.0318
 6854SOL    HW232025   0.048   0.787   5.959 -1.3823  0.0090  2.0239
 6855SOL     OW32026   0.246   0.716   3.062  0.0092 -0.2932  0.5412
 6855SOL    HW132027   0.193   0.673   2.996  0.1241  1.9020 -0.9880
 6855SOL    HW232028   0.301   0.640   3.078  0.7330 -0.2077 -1.5251
 6856SOL     OW32029   3.167   0.047   5.495 -0.2968 -1.2858 -0.2371
 6856SOL    HW132030   3.078   0.043   5.531 -1.3238  0.5681 -2.5667
 6856SOL    HW232031   3.214   0.120   5.534 -2.4032 -0.0659  0.0293
 6857SOL     OW32032   0.116   1.191   0.456  0.2147  0.3461  0.2495
 6857SOL    HW132033   0.090   1.156   0.370  0.8175 -0.3967  0.3661
 6857SOL    HW232034   0.147   1.111   0.499  3.7175  1.7233  0.2553
 6858SOL     OW32035   4.631   1.039   7.180 -0.9625  0.4499 -0.1679
 6858SOL    HW132036   4.562   1.050   7.246 -1.1030 -1.5527  0.0222
 6858SOL    HW232037   4.674   0.961   7.214 -1.1913  1.3879  2.2899
 6859SOL     OW32038   1.938   4.652   4.616  0.0023  0.1204 -0.1015
 6859SOL    HW132039   1.853   4.623   4.583  0.5947 -1.6974 -0.0243
 6859SOL    HW232040   1.990   4.652   4.535  2.6131  0.2273  1.5575
 6860SOL     OW32041   3.506   1.917   3.060  0.5646  0.5511  0.1500
 6860SOL    HW132042   3.579   1.877   3.108 -0.2918 -3.0969 -1.6670
 6860SOL    HW232043   3.502   2.001   3.107  1.8749 -0.4544  2.0711
 6861SOL     OW32044   0.179   2.498   7.545 -0.3329 -0.1877  0.5255
 6861SOL    HW132045   0.174   2.507   7.450 -0.1117  2.1159  0.7407
 6861SOL    HW232046   0.166   2.586   7.580  1.4822 -0.0550  0.8707
 6862SOL     OW32047   2.414   3.941  11.905  0.2833 -0.0422  0.3118
 6862SOL    HW132048   2.363   3.870  11.866  0.1343  0.3659 -0.2407
 6862SOL    HW232049   2.490   3.954  11.849 -0.3519  1.7435 -0.1469
 6863SOL     OW32050   1.379   1.130   0.605  0.1822 -0.3810 -0.5726
 6863SOL    HW132051   1.401   1.123   0.698 -0.9494  1.4919 -0.1525
 6863SOL    HW232052   1.425   1.214   0.596  0.5567 -0.1206  3.3793
 6864SOL     OW32053   3.268   2.344   8.208 -0.3007  0.2452  0.6680
 6864SOL    HW132054   3.330   2.407   8.174 -1.6063  0.3218 -1.5800
 6864SOL    HW232055   3.325   2.268   8.223 -0.9607 -0.5088 -0.5901
 6865SOL     OW32056   4.136   2.107   5.357  0.1626  0.4587  0.0343
 6865SOL    HW132057   4.158   2.188   5.311 -1.8250  1.0067  0.0238
 6865SOL    HW232058   4.092   2.062   5.285  0.9412 -0.5021  0.1734
 6866SOL     OW32059   0.508   2.465   6.689  0.4160  0.5808  0.2652
 6866SOL    HW132060   0.492   2.399   6.622 -1.7788  0.7365  0.6312
 6866SOL    HW232061   0.586   2.506   6.652 -0.4990  0.9296 -1.3088
 6867SOL     OW32062   1.956   1.604   0.465 -0.3890 -0.0504  0.1298
 6867SOL    HW132063   1.885   1.608   0.529  0.9801  1.2201  1.5867
 6867SOL    HW232064   1.950   1.513   0.436  2.7513  0.1414 -1.1429
 6868SOL     OW32065   1.052   3.153   1.867 -0.2705  0.0827  0.1286
 6868SOL    HW132066   1.023   3.214   1.935 -0.9041 -1.9603  1.6790
 6868SOL    HW232067   0.999   3.183   1.793  3.6481  0.3330 -2.5644
 6869SOL     OW32068   0.905   0.138   5.762 -0.8540 -0.1180 -0.3455
 6869SOL    HW132069   0.880   0.099   5.678 -0.7055 -2.1590  0.5594
 6869SOL    HW232070   0.861   0.090   5.833 -0.9243  1.4641  0.6701
 6870SOL     OW32071   3.857   1.360   4.331  0.1115 -0.3325 -0.5771
 6870SOL    HW132072   3.935   1.336   4.281  0.0751 -0.5302 -0.5423
 6870SOL    HW232073   3.787   1.369   4.266 -1.1505  1.5808  1.0666
 6871SOL     OW32074   1.180   1.201   5.058  0.5510 -0.3472  0.3725
 6871SOL    HW132075   1.239   1.264   5.100 -1.5207  2.0896 -0.3598
 6871SOL    HW232076   1.233   1.122   5.067 -0.3746 -1.2446 -1.8441
 6872SOL     OW32077   0.833   1.635   7.766  0.3500  0.1583 -0.3030
 6872SOL    HW132078   0.856   1.548   7.732  0.1970 -0.4109  1.0560
 6872SOL    HW232079   0.872   1.629   7.853  0.3545  1.5209 -0.2140
 6873SOL     OW32080   2.087   3.920  11.044  0.0312  0.1378  1.2858
 6873SOL    HW132081   2.177   3.918  11.011  0.2141 -1.1248  1.8528
 6873SOL    HW232082   2.037   3.910  10.963 -0.0741 -0.3340  1.4059
 6874SOL     OW32083   4.222   2.785   5.724 -0.8339  0.6976 -0.0584
 6874SOL    HW132084   4.197   2.694   5.710 -0.5764  0.6316 -0.0977
 6874SOL    HW232085   4.259   2.811   5.639  1.1050  1.5436  1.0500
 6875SOL     OW32086   0.340   1.836  14.481  0.4997 -0.0469 -0.3822
 6875SOL    HW132087   0.393   1.852  14.560  2.2095 -1.0538 -1.3246
 6875SOL    HW232088   0.293   1.918  14.469  1.1194  0.7938  2.8702
 6876SOL     OW32089   1.790   0.178  12.202 -0.6906 -0.2692 -0.0269
 6876SOL    HW132090   1.869   0.148  12.155 -0.9605 -1.5197  0.3116
 6876SOL    HW232091   1.803   0.129  12.283  2.0172  0.0393 -0.2567
 6877SOL     OW32092   4.590   4.605   4.998 -0.0189  0.0157 -0.3743
 6877SOL    HW132093   4.518   4.655   4.960  0.3592 -0.1513 -1.3095
 6877SOL    HW232094   4.554   4.559   5.075  1.2799  0.6773  0.6175
 6878SOL     OW32095   1.475   2.494   9.677 -0.0007 -0.0625 -0.1003
 6878SOL    HW132096   1.448   2.585   9.687  2.7147  0.6574  0.7248
 6878SOL    HW232097   1.569   2.506   9.664 -0.1250  0.7567 -0.2086
 6879SOL     OW32098   1.748   2.035   7.473  0.3380 -0.8851 -0.7105
 6879SOL    HW132099   1.680   2.030   7.406 -1.9918  0.2483  1.5485
 6879SOL    HW232100   1.826   2.018   7.420 -0.3201 -1.2791 -1.5461
 6880SOL     OW32101   0.231   0.412   3.920 -0.2389 -0.0605 -0.2988
 6880SOL    HW132102   0.263   0.322   3.927 -0.8329 -0.2744 -0.2849
 6880SOL    HW232103   0.148   0.417   3.969 -2.5963  0.9713 -4.4147
 6881SOL     OW32104   3.836   3.546   4.203 -0.4817  0.1901 -0.1900
 6881SOL    HW132105   3.844   3.602   4.126 -0.6120  2.5501  1.5408
 6881SOL    HW232106   3.918   3.496   4.202  0.0483  1.0924 -1.0684
 6882SOL     OW32107   3.070   4.385   0.398  0.3393 -0.3840 -0.4679
 6882SOL    HW132108   3.109   4.298   0.388  0.4939 -0.6719  2.7707
 6882SOL    HW232109   3.135   4.446   0.433 -1.8102  1.2705  0.5890
 6883SOL     OW32110   0.659   3.032   6.215 -0.3917  0.1534 -0.7364
 6883SOL    HW132111   0.574   2.992   6.195 -0.0469 -0.3810 -1.1420
 6883SOL    HW232112   0.624   3.100   6.273  2.9764  0.1306  1.2923
 6884SOL     OW32113   1.324   2.998   1.404 -0.0984  0.5704 -0.2564
 6884SOL    HW132114   1.322   2.980   1.498  0.9098 -0.0519 -0.3545
 6884SOL    HW232115   1.324   3.094   1.414 -0.6211  0.6598 -1.0907
 6885SOL     OW32116   3.196   0.924   0.563 -0.0263 -0.8090  0.0852
 6885SOL    HW132117   3.145   0.847   0.537 -1.7479 -0.3116  2.0377
 6885SOL    HW232118   3.125   0.988   0.564 -1.7923 -2.7112 -2.3482
 6886SOL     OW32119   2.520   3.519   0.397  0.1426 -0.1943 -0.6863
 6886SOL    HW132120   2.537   3.477   0.313 -1.6802 -0.0278 -1.1280
 6886SOL    HW232121   2.596   3.576   0.403 -1.4894  1.9853 -0.9945
 6887SOL     OW32122   2.858   3.273   0.343 -0.3807  0.4923  0.2704
 6887SOL    HW132123   2.849   3.217   0.420  1.9792  0.7419  0.7099
 6887SOL    HW232124   2.775   3.321   0.341 -0.2928  0.5713 -1.6161
 6888SOL     OW32125   2.957   2.862   2.516 -0.8196  0.7770 -0.0996
 6888SOL    HW132126   3.000   2.941   2.551 -2.5865  2.9539 -2.8525
 6888SOL    HW232127   2.988   2.783   2.561 -0.7391  0.8085 -0.0981
 6889SOL     OW32128   0.741   2.786   6.334 -0.1942 -0.3672  0.2793
 6889SOL    HW132129   0.714   2.715   6.276  0.4418  1.0220 -1.7184
 6889SOL    HW232130   0.730   2.864   6.280  1.9238 -0.5510 -0.3784
 6890SOL     OW32131   0.239   1.948   4.573  0.3703 -0.3532  0.1414
 6890SOL    HW132132   0.230   2.037   4.606  0.7556 -0.1531 -0.2928
 6890SOL    HW232133   0.313   1.962   4.514  0.3390 -0.3357  0.1063
 6891SOL     OW32134   1.738   1.435   1.552 -0.1819  0.2565  0.1899
 6891SOL    HW132135   1.714   1.528   1.555 -2.1279 -0.2980  1.5948
 6891SOL    HW232136   1.666   1.390   1.595 -0.0507  2.0034  2.2402
 6892SOL     OW32137   1.301   1.842   7.102  0.3513  0.3908 -0.6541
 6892SOL    HW132138   1.290   1.937   7.095 -0.2358  0.3390 -0.4520
 6892SOL    HW232139   1.214   1.811   7.076 -1.3262  1.4162  3.6642
 6893SOL     OW32140   2.123   1.940   8.441  0.0389  0.5039  0.1298
 6893SOL    HW132141   2.184   1.939   8.367 -0.0771  0.5108  0.0344
 6893SOL    HW232142   2.131   1.855   8.485  0.8701 -1.3288 -3.5709
 6894SOL     OW32143   2.724   2.795  16.806  0.0704 -0.2332 -0.4891
 6894SOL    HW132144   2.785   2.796  16.733  1.0519 -1.3285  0.3054
 6894SOL    HW232145   2.653   2.745  16.767  0.2033 -0.1800 -0.7926
 6895SOL     OW32146   3.534   3.316   5.297 -0.8215  0.0857  0.5819
 6895SOL    HW132147   3.450   3.273   5.313 -2.3621  3.2458  0.8447
 6895SOL    HW232148   3.594   3.276   5.359  0.7585  1.7826  0.1343
 6896SOL     OW32149   1.081   3.576   1.644  0.8910  0.4055 -0.5890
 6896SOL    HW132150   1.001   3.589   1.593 -0.3827 -0.9845  1.0603
 6896SOL    HW232151   1.065   3.518   1.719 -1.2955  0.0663 -1.3110
 6897SOL     OW32152   0.661   1.065   3.974 -0.4755 -0.5182  0.2202
 6897SOL    HW132153   0.713   1.029   3.902  0.4117  3.4962 -1.1512
 6897SOL    HW232154   0.593   0.997   3.977 -0.1452 -0.8522  0.2114
 6898SOL     OW32155   4.080   4.083   1.361  0.8332 -0.1270 -0.1368
 6898SOL    HW132156   4.110   4.124   1.280  1.2299  2.8166  1.4826
 6898SOL    HW232157   4.044   4.157   1.411  1.1031  0.1300 -0.3215
 6899SOL     OW32158   3.267   0.189   7.603 -0.6297  0.5491  0.1155
 6899SOL    HW132159   3.328   0.177   7.529  0.4651  1.1133  0.9341
 6899SOL    HW232160   3.195   0.239   7.564 -1.3501 -0.3685  0.2416
 6900SOL     OW32161   3.128   3.885  17.285 -0.1910  0.0515 -0.6558
 6900SOL    HW132162   3.110   3.836  17.366 -1.6417 -0.3568 -1.2249
 6900SOL    HW232163   3.057   3.949  17.275  0.4816  1.0892  1.2087
 6901SOL     OW32164   4.352   2.760  13.413 -0.0210  0.0309 -0.0779
 6901SOL    HW132165   4.294   2.826  13.450  0.7623  1.3476 -1.1786
 6901SOL    HW232166   4.325   2.766  13.322  0.4622  0.2292 -0.2133
 6902SOL     OW32167   3.937   1.766   9.089  0.2507 -0.2485  0.0275
 6902SOL    HW132168   3.894   1.809   9.015 -0.9161  0.2622  1.0109
 6902SOL    HW232169   4.021   1.810   9.106 -0.6233  0.3618  2.6532
 6903SOL     OW32170   3.156   2.985  10.723 -0.8141 -0.5237 -0.6346
 6903SOL    HW132171   3.083   3.008  10.780  1.2680  2.7144  0.7182
 6903SOL    HW232172   3.212   2.938  10.785 -0.3652  0.5015 -0.2702
 6904SOL     OW32173   4.584   1.310  14.579  0.2408  0.6282 -0.0823
 6904SOL    HW132174   4.512   1.276  14.632  0.6237  1.0194  0.6943
 6904SOL    HW232175   4.541   1.382  14.533 -1.6287 -2.3273 -2.9310
 6905SOL     OW32176   1.870   4.387   4.800 -0.2675  0.1634  0.1413
 6905SOL    HW132177   1.827   4.303   4.819  1.6287 -0.7902  0.1594
 6905SOL    HW232178   1.860   4.396   4.706 -0.4374 -0.6935  0.0728
 6906SOL     OW32179   4.580   4.650  13.843  0.0023 -0.5196  0.1683
 6906SOL    HW132180   4.606   4.691  13.760 -1.3419 -1.3354 -0.6506
 6906SOL    HW232181   4.620   4.563  13.842 -0.3990 -0.7097  2.4340
 6907SOL     OW32182   0.046   4.712   4.072  0.2826  0.0409  0.1287
 6907SOL    HW132183   0.051   0.064   4.014  1.4997  0.5013  0.8286
 6907SOL    HW232184   0.087   4.643   4.019  2.4714  3.3269 -2.4309
 6908SOL     OW32185   2.958   3.709   2.654  0.0945 -0.1616  0.5470
 6908SOL    HW132186   2.881   3.660   2.626 -1.0620  2.3736 -0.7132
 6908SOL    HW232187   3.018   3.675   2.588 -0.1958  0.8097 -0.2127
 6909SOL     OW32188   1.674   3.811   7.016  0.3548 -0.0410  0.1456
 6909SOL    HW132189   1.623   3.733   6.994 -0.2513  0.7576 -1.2486
 6909SOL    HW232190   1.731   3.817   6.940 -0.1143 -0.4001 -0.2368
 6910SOL     OW32191   2.293   2.166   4.711  0.1730  0.1381  0.1293
 6910SOL    HW132192   2.263   2.127   4.629 -1.0894 -1.0326  1.1360
 6910SOL    HW232193   2.225   2.136   4.772  0.5942  0.8201  0.9264
 6911SOL     OW32194   1.250   3.801   5.212 -0.4981 -0.1566  0.0526
 6911SOL    HW132195   1.208   3.731   5.162 -2.2491 -1.7243  3.6743
 6911SOL    HW232196   1.215   3.879   5.171 -1.4096 -0.8781 -0.5440
 6912SOL     OW32197   2.557   0.555  14.618  0.1117  0.1566 -0.2299
 6912SOL    HW132198   2.593   0.643  14.623  0.4956 -0.0824  1.2679
 6912SOL    HW232199   2.468   0.565  14.651  0.5664  3.4346 -0.0201
 6913SOL     OW32200   0.369   1.484  12.831 -0.1233  0.4456 -0.3738
 6913SOL    HW132201   0.305   1.428  12.875 -0.0277 -0.2700 -1.1547
 6913SOL    HW232202   0.442   1.428  12.857  0.8932  1.5141 -0.9577
 6914SOL     OW32203   0.087   4.329  10.840 -0.3536  0.2526 -0.0499
 6914SOL    HW132204   0.040   4.247  10.829 -0.0695 -0.3129  2.8541
 6914SOL    HW232205   0.029   4.371  10.904 -1.3179 -0.7430 -0.2703
 6915SOL     OW32206   4.143   1.178   7.690 -0.7063  0.3664  0.2693
 6915SOL    HW132207   4.202   1.103   7.696 -0.7459  0.2257 -1.0651
 6915SOL    HW232208   4.057   1.135   7.692 -0.0348 -0.9568  0.3244
 6916SOL     OW32209   2.969   4.593   1.843 -0.0042  0.2736 -0.0130
 6916SOL    HW132210   3.024   4.514   1.842 -1.0985 -0.4884 -0.2473
 6916SOL    HW232211   2.950   4.601   1.750  0.5436  0.3296 -0.1196
 6917SOL     OW32212   0.291   4.687   4.656 -0.0541 -0.3617  0.0646
 6917SOL    HW132213   0.232   0.032   4.689  1.3518  1.1188 -0.4587
 6917SOL    HW232214   0.252   4.672   4.570  0.5251 -0.8032 -0.1240
 6918SOL     OW32215   4.299   0.790   5.376  0.7681 -0.5797 -0.1727
 6918SOL    HW132216   4.290   0.885   5.363 -0.3549 -0.8998 -1.7264
 6918SOL    HW232217   4.245   0.776   5.454  0.9671 -0.3237  0.0142
 6919SOL     OW32218   3.128   1.494   2.959 -0.2362 -0.0110  0.1469
 6919SOL    HW132219   3.168   1.458   3.037  1.1968  0.2081 -0.4908
 6919SOL    HW232220   3.090   1.569   3.005 -1.6955  0.3488 -1.6488
 6920SOL     OW32221   0.272   3.839   2.047  0.2501 -0.1333  0.3008
 6920SOL    HW132222   0.331   3.769   2.076  0.9722  1.0020  1.5569
 6920SOL    HW232223   0.188   3.794   2.050  0.0223  0.2491 -0.4317
 6921SOL     OW32224   2.014   1.517   4.848 -0.4654  0.0690  0.4936
 6921SOL    HW132225   1.992   1.595   4.797  0.1551 -0.1373 -0.0945
 6921SOL    HW232226   1.976   1.447   4.796  0.0807  1.6137 -1.9970
 6922SOL     OW32227   0.182   1.682   9.479  0.4757  0.4447 -0.1767
 6922SOL    HW132228   0.267   1.726   9.480  0.4489  0.4618  0.6396
 6922SOL    HW232229   0.206   1.593   9.503  0.4463  0.3751 -0.4045
 6923SOL     OW32230   1.464   4.281   4.876  0.0770  0.3827  0.5701
 6923SOL    HW132231   1.414   4.275   4.795 -1.0226  0.6423  1.2265
 6923SOL    HW232232   1.448   4.371   4.904  0.4827  0.1023  1.7183
 6924SOL     OW32233   3.144   2.003   2.242 -0.0784  0.3394  0.2888
 6924SOL    HW132234   3.058   1.963   2.233 -0.1136  0.1196  1.4871
 6924SOL    HW232235   3.156   2.038   2.154 -0.3358 -1.2796 -0.3804
 6925SOL     OW32236   1.094   4.259   9.944 -0.1171  0.5579 -0.0365
 6925SOL    HW132237   1.088   4.348   9.910  0.9167  1.4542  2.1202
 6925SOL    HW232238   1.181   4.247   9.982  0.3745  0.8766 -1.0554
 6926SOL     OW32239   2.137   0.746   2.815  0.2685  0.5486  0.3654
 6926SOL    HW132240   2.177   0.830   2.839 -1.1362  0.7858  1.8842
 6926SOL    HW232241   2.095   0.773   2.733  1.5084  2.4724  0.3589
 6927SOL     OW32242   2.308   4.647  17.658  0.4120 -0.0444 -0.0141
 6927SOL    HW132243   2.398   4.673  17.679 -0.1325 -0.9492  3.4235
 6927SOL    HW232244   2.321   4.556  17.685 -0.1673 -0.2410 -0.3971
 6928SOL     OW32245   3.489   2.100   7.528 -0.0777  0.5251  0.1601
 6928SOL    HW132246   3.450   2.185   7.550  1.2410  1.5249 -1.4215
 6928SOL    HW232247   3.562   2.085   7.587 -0.8204 -0.6662  0.7878
 6929SOL     OW32248   4.263   2.555   6.776 -0.0943  0.1379  0.1693
 6929SOL    HW132249   4.352   2.579   6.799  0.0610 -0.5118  0.2648
 6929SOL    HW232250   4.227   2.640   6.751 -0.6323 -0.4829 -1.1598
 6930SOL     OW32251   3.799   1.419   3.291  0.0285 -0.5406  0.2475
 6930SOL    HW132252   3.815   1.464   3.374  1.7129  0.2272 -0.4941
 6930SOL    HW232253   3.722   1.470   3.263  0.2937  0.7169  1.7948
 6931SOL     OW32254   3.073   2.865   2.056 -0.5143 -0.4426  0.1425
 6931SOL    HW132255   3.040   2.903   1.974  0.7148 -0.9795 -0.5961
 6931SOL    HW232256   3.098   2.950   2.094  0.4752 -0.9192  0.5387
 6932SOL     OW32257   0.980   3.673   5.339  0.1585 -0.1556  0.1539
 6932SOL    HW132258   0.909   3.657   5.401  1.7128  0.2687  2.0612
 6932SOL    HW232259   0.981   3.768   5.334 -0.7315 -0.1803 -0.4575
 6933SOL     OW32260   1.643   2.658   1.179 -0.1967  0.1143  0.0750
 6933SOL    HW132261   1.674   2.569   1.193  1.1652  0.3279 -1.5140
 6933SOL    HW232262   1.582   2.657   1.104  1.1217 -1.5297 -0.9725
 6934SOL     OW32263   0.556   0.383   7.198 -0.3112 -0.0955 -0.3166
 6934SOL    HW132264   0.622   0.330   7.243 -2.2065 -1.7639  0.5262
 6934SOL    HW232265   0.480   0.359   7.252  0.1176  0.4058  0.5164
 6935SOL     OW32266   0.275   0.446   6.230 -0.0102 -0.2725 -0.0005
 6935SOL    HW132267   0.248   0.439   6.321 -0.3309  0.3187 -0.0464
 6935SOL    HW232268   0.361   0.407   6.246  0.5622  1.0539  0.1460
 6936SOL     OW32269   4.131   1.622   4.318 -0.1211  0.2961 -0.2235
 6936SOL    HW132270   4.129   1.568   4.239 -1.2579 -0.5235  0.3707
 6936SOL    HW232271   4.121   1.709   4.280  1.9637  1.2291  1.3751
 6937SOL     OW32272   1.763   3.437  15.833  0.3337  0.1988  0.4753
 6937SOL    HW132273   1.692   3.373  15.819 -0.9384  2.0990 -1.8286
 6937SOL    HW232274   1.792   3.405  15.918  0.2204 -0.5576  0.2297
 6938SOL     OW32275   4.239   0.266   9.516 -0.3766  0.6444  0.0723
 6938SOL    HW132276   4.274   0.356   9.514 -0.3914  0.6515  0.1331
 6938SOL    HW232277   4.150   0.279   9.549  0.1134  1.4516  1.0908
 6939SOL     OW32278   2.445   0.236   6.717 -0.2566  0.1241  0.0249
 6939SOL    HW132279   2.460   0.184   6.638 -0.3530  0.1152  0.0120
 6939SOL    HW232280   2.365   0.196   6.751 -0.5381  0.1790 -0.5757
 6940SOL     OW32281   2.258   0.003   6.157  0.1413  0.0153 -0.0819
 6940SOL    HW132282   2.202   0.055   6.099 -0.8377 -0.5554  0.3424
 6940SOL    HW232283   2.316   0.073   6.186 -0.0176  0.6369 -1.2661
 6941SOL     OW32284   2.059   3.228   3.941 -0.3859  0.0069  0.2579
 6941SOL    HW132285   2.077   3.306   3.888 -2.9754  0.7809  0.5107
 6941SOL    HW232286   2.062   3.159   3.875 -0.8684  0.9721 -0.7849
 6942SOL     OW32287   0.217   2.911   6.588  0.1757 -0.0729  0.4910
 6942SOL    HW132288   0.251   2.986   6.636 -1.2436  0.7031  0.2796
 6942SOL    HW232289   0.304   2.872   6.577  0.2857  0.5525 -0.9752
 6943SOL     OW32290   4.110   4.431   2.840  0.5499  0.1726  0.0485
 6943SOL    HW132291   4.163   4.503   2.806  1.8316 -0.2913  1.0773
 6943SOL    HW232292   4.069   4.400   2.759  0.5422  0.0163  0.1126
 6944SOL     OW32293   2.945   2.612   7.426  0.1578  0.3317  0.7284
 6944SOL    HW132294   2.894   2.567   7.493 -0.3142 -3.4334 -2.2106
 6944SOL    HW232295   2.885   2.687   7.421 -0.7969 -0.6265 -1.8211
 6945SOL     OW32296   0.889   1.851   7.255  0.3631  0.1475 -0.2712
 6945SOL    HW132297   0.885   1.760   7.283 -2.2119  0.5116  0.6027
 6945SOL    HW232298   0.842   1.893   7.327 -1.8447  1.2365 -2.3066
 6946SOL     OW32299   3.751   1.762  13.434 -0.0951 -0.2781  0.2038
 6946SOL    HW132300   3.690   1.745  13.362  1.3649 -2.1149 -0.5905
 6946SOL    HW232301   3.694   1.774  13.510  0.1673  3.3089 -0.1398
 6947SOL     OW32302   0.844   4.069   0.518  0.4682  0.6472 -0.2415
 6947SOL    HW132303   0.819   4.129   0.588  2.4447  0.6706  0.4593
 6947SOL    HW232304   0.837   4.130   0.444 -2.3143  1.8739  1.0401
 6948SOL     OW32305   2.167   2.531  11.678  0.1860  0.6247  0.0187
 6948SOL    HW132306   2.105   2.459  11.670 -0.1560  0.9288 -0.0761
 6948SOL    HW232307   2.137   2.576  11.599 -4.5142  1.6279  2.3620
 6949SOL     OW32308   3.031   0.801  16.369  0.6030 -0.0480  0.0963
 6949SOL    HW132309   2.994   0.750  16.297  1.7311 -1.5514  0.5853
 6949SOL    HW232310   3.089   0.742  16.418  1.8341  1.3015  0.2764
 6950SOL     OW32311   1.007   1.759  15.227  0.7709 -0.2430  0.1576
 6950SOL    HW132312   0.989   1.800  15.311  1.7801  0.9166 -0.1914
 6950SOL    HW232313   1.029   1.669  15.254  0.3899  0.5230  2.9665
 6951SOL     OW32314   0.021   1.805  15.175  0.3133  0.5434  0.4264
 6951SOL    HW132315   4.673   1.742  15.159  1.9669 -1.1623 -0.2108
 6951SOL    HW232316   0.029   1.812  15.270  2.1127  0.5054  0.2705
 6952SOL     OW32317   3.159   1.801   5.157 -0.0309  0.1246  0.6217
 6952SOL    HW132318   3.115   1.811   5.241 -2.3243 -2.2385 -0.2759
 6952SOL    HW232319   3.116   1.720   5.129  0.6061  0.0247 -0.0811
 6953SOL     OW32320   4.343   4.047   4.344 -0.8274  0.8207  0.0326
 6953SOL    HW132321   4.255   4.015   4.363  0.3423 -1.8094  0.9845
 6953SOL    HW232322   4.327   4.079   4.255  1.9261  3.3075  0.4321
 6954SOL     OW32323   2.617   4.052   4.637  0.9338  0.5017  0.1944
 6954SOL    HW132324   2.600   3.993   4.564 -0.2967 -0.1028  0.9728
 6954SOL    HW232325   2.563   4.127   4.610 -0.7963 -0.7025  0.3075
 6955SOL     OW32326   3.113   3.585  10.338  0.1219  0.1810 -0.0590
 6955SOL    HW132327   3.189   3.547  10.381  0.7446  0.3193 -1.0201
 6955SOL    HW232328   3.093   3.659  10.395  1.2205  1.8437 -1.8095
 6956SOL     OW32329   3.385   1.104   9.065  0.0267  0.0257  0.6704
 6956SOL    HW132330   3.354   1.175   9.009 -0.0503  0.4645  1.2730
 6956SOL    HW232331   3.392   1.151   9.148 -0.0380 -1.2310  1.3781
 6957SOL     OW32332   3.179   4.602  15.905  0.5181 -0.1713 -0.1462
 6957SOL    HW132333   3.257   4.630  15.952 -0.8149 -2.1866  3.2603
 6957SOL    HW232334   3.194   4.644  15.820  1.5963 -0.8863 -0.3063
 6958SOL     OW32335   4.473   0.415   8.575  0.4689  0.4662 -0.4435
 6958SOL    HW132336   4.520   0.425   8.658 -0.0784  0.3043 -0.1141
 6958SOL    HW232337   4.437   0.504   8.573 -0.0191  0.3205  1.4791
 6959SOL     OW32338   3.514   3.817  17.534  0.1454  0.1882 -0.4854
 6959SOL    HW132339   3.495   3.868  17.613 -0.3384 -1.2240  0.3076
 6959SOL    HW232340   3.476   3.738  17.573 -1.0640  0.5560 -0.9124
 6960SOL     OW32341   4.267   4.610   9.600  0.2851  0.4126  0.2225
 6960SOL    HW132342   4.351   4.577   9.634  0.2410  1.7854  1.6490
 6960SOL    HW232343   4.243   4.657   9.680 -1.9223 -1.1879  0.5103
 6961SOL     OW32344   4.714   1.734   0.999  0.2637 -0.0844 -0.3307
 6961SOL    HW132345   4.627   1.750   0.962  1.2478  0.2489 -2.4931
 6961SOL    HW232346   4.690   1.775   1.083 -0.7846  1.4785 -1.3988
 6962SOL     OW32347   0.400   1.595   5.444 -0.2154 -0.5196  0.3465
 6962SOL    HW132348   0.323   1.542   5.423 -0.4186  0.1487 -0.6113
 6962SOL    HW232349   0.452   1.518   5.466  2.5431  0.6920 -1.8880
 6963SOL     OW32350   3.274   3.785   6.472  1.2763  0.0884 -0.1395
 6963SOL    HW132351   3.230   3.837   6.405  2.0308  0.4984 -0.3143
 6963SOL    HW232352   3.360   3.827   6.474  1.7430 -0.7440 -2.6822
 6964SOL     OW32353   2.783   2.430   9.056  0.0024  0.0546 -0.1850
 6964SOL    HW132354   2.787   2.451   9.150  3.5861  0.2016 -0.3449
 6964SOL    HW232355   2.845   2.482   9.004 -0.2594  3.2511  2.6643
 6965SOL     OW32356   1.793   1.065   8.628 -0.1572 -0.5672 -1.0911
 6965SOL    HW132357   1.837   1.137   8.582 -0.6141 -0.3132 -1.1380
 6965SOL    HW232358   1.866   1.017   8.665 -1.0852 -0.6469  0.6340
 6966SOL     OW32359   0.307   3.172  15.464  0.2444 -0.3204  0.2075
 6966SOL    HW132360   0.284   3.112  15.393  2.1741 -1.8550  0.8572
 6966SOL    HW232361   0.399   3.148  15.475  1.0395  2.9208  0.6126
 6967SOL     OW32362   0.927   0.833  11.786 -0.1511 -0.2663 -0.1178
 6967SOL    HW132363   0.853   0.773  11.778 -1.1076  0.9720 -0.4738
 6967SOL    HW232364   0.963   0.837  11.697 -2.6594 -1.1713 -1.1703
 6968SOL     OW32365   1.934   3.026  11.432 -0.3516  0.4520 -1.1406
 6968SOL    HW132366   1.869   2.978  11.483  0.1541 -1.1469 -2.0257
 6968SOL    HW232367   2.014   3.014  11.483 -0.2053  2.9598 -0.7384
 6969SOL     OW32368   3.557   1.895  14.311  0.2224 -0.6202  0.2285
 6969SOL    HW132369   3.564   1.824  14.247 -2.3310 -1.6275  1.0550
 6969SOL    HW232370   3.501   1.866  14.383 -1.4239  1.9706  0.0056
 6970SOL     OW32371   3.723   1.688   6.479 -0.3805 -0.0495  0.2885
 6970SOL    HW132372   3.649   1.663   6.535 -1.0470 -2.1462 -1.5468
 6970SOL    HW232373   3.676   1.760   6.437 -2.1863 -0.2264  1.9812
 6971SOL     OW32374   4.619   0.289   0.104 -0.2149  0.3015 -0.8731
 6971SOL    HW132375   4.561   0.332   0.167 -0.0302  1.0651 -1.2234
 6971SOL    HW232376   4.636   0.358   0.040 -0.6810  0.8780 -0.3860
 6972SOL     OW32377   2.736   2.108   6.721  0.2752 -0.0069 -0.2466
 6972SOL    HW132378   2.749   2.069   6.808 -0.6978  0.9888  0.3530
 6972SOL    HW232379   2.660   2.161   6.745  1.4838  1.1154  1.0903
 6973SOL     OW32380   0.941   3.181   7.892  0.3867  0.1513  0.2613
 6973SOL    HW132381   0.848   3.171   7.913  0.2137  0.4280 -0.3646
 6973SOL    HW232382   0.954   3.265   7.846 -1.9592  0.4131  0.0615
 6974SOL     OW32383   0.413   1.937  13.182  0.1682 -0.5389 -0.0089
 6974SOL    HW132384   0.502   1.948  13.148 -0.5608 -0.1834 -1.8275
 6974SOL    HW232385   0.427   1.884  13.260  2.0961  1.4470  1.0097
 6975SOL     OW32386   2.055   0.199   3.580 -0.3938 -0.2785  0.0474
 6975SOL    HW132387   2.093   0.224   3.496 -0.5639  0.2617  0.1351
 6975SOL    HW232388   2.064   0.105   3.563 -1.2632 -0.6056  1.4293
 6976SOL     OW32389   4.395   0.212  16.770  0.0754 -0.7079 -0.7011
 6976SOL    HW132390   4.463   0.195  16.835  1.5863  0.9589 -1.8403
 6976SOL    HW232391   4.324   0.153  16.798 -1.1815  0.7003 -0.9354
 6977SOL     OW32392   4.487   3.437   8.076  0.0561  0.0537  0.1968
 6977SOL    HW132393   4.400   3.464   8.044 -0.3531 -1.8108 -0.2911
 6977SOL    HW232394   4.532   3.396   8.003 -2.0134 -1.3354 -0.3193
 6978SOL     OW32395   2.716   3.537   7.200  0.3669  0.1163  0.5628
 6978SOL    HW132396   2.660   3.522   7.125  1.6619  3.5957 -1.1015
 6978SOL    HW232397   2.733   3.631   7.190  1.0652 -0.0580  0.0990
 6979SOL     OW32398   3.127   1.995   8.496 -0.5228  0.3082 -0.4316
 6979SOL    HW132399   3.222   1.986   8.491 -0.7402 -2.6348  0.4847
 6979SOL    HW232400   3.122   2.002   8.591  0.6848  1.8578 -0.4968
 6980SOL     OW32401   0.168   2.287   3.557  0.6097  0.2867 -0.3089
 6980SOL    HW132402   0.262   2.273   3.567  0.5811  0.3981  0.1033
 6980SOL    HW232403   0.132   2.318   3.640  2.2106  0.5984  0.2684
 6981SOL     OW32404   3.840   3.143   6.802  0.1525 -0.0652 -0.2307
 6981SOL    HW132405   3.832   3.235   6.778  0.0923 -0.4792 -1.7928
 6981SOL    HW232406   3.932   3.133   6.826 -0.1865 -1.2498  0.6105
 6982SOL     OW32407   0.969   3.050  13.152  0.2818  0.3898 -0.1235
 6982SOL    HW132408   0.887   3.099  13.165 -1.5427 -2.2305 -1.7403
 6982SOL    HW232409   0.931   2.964  13.135  1.2453  0.0064 -0.3441
 6983SOL     OW32410   2.266   3.028   5.844  0.2529  0.1569  0.0655
 6983SOL    HW132411   2.179   3.049   5.876  0.1875  0.3918 -0.2610
 6983SOL    HW232412   2.304   2.988   5.922  0.5424  0.4660  0.0847
 6984SOL     OW32413   0.727   2.559   7.031  0.4613 -0.3933  0.0825
 6984SOL    HW132414   0.748   2.537   7.122 -0.9886  1.8202  0.9603
 6984SOL    HW232415   0.666   2.491   7.003 -1.4134  0.7470  1.4562
 6985SOL     OW32416   1.820   0.097  10.480 -0.0441  0.0826 -0.6896
 6985SOL    HW132417   1.818   0.174  10.538 -1.4800  0.1664 -0.8457
 6985SOL    HW232418   1.814   0.143  10.396 -2.3798  0.5690 -0.2588
 6986SOL     OW32419   2.456   3.616   4.666 -0.5391  0.1801  0.5503
 6986SOL    HW132420   2.388   3.665   4.712 -2.5038 -0.0606 -2.0855
 6986SOL    HW232421   2.440   3.615   4.571  0.9028  0.2335  0.3174
 6987SOL     OW32422   4.132   2.782  16.956 -0.5032  0.4743 -0.0479
 6987SOL    HW132423   4.110   2.845  17.025 -0.1986  1.1298 -0.5561
 6987SOL    HW232424   4.042   2.768  16.929 -0.3133  0.5241 -0.6900
 6988SOL     OW32425   0.645   3.652   0.645 -1.0007  0.5871 -0.3688
 6988SOL    HW132426   0.565   3.599   0.634  0.4404 -1.7034  0.1892
 6988SOL    HW232427   0.681   3.602   0.718  0.2542  2.4265  0.2580
 6989SOL     OW32428   4.655   0.953   2.399 -0.4757 -0.2760  0.1477
 6989SOL    HW132429   4.709   0.913   2.331 -0.4914 -0.1454  0.0577
 6989SOL    HW232430   4.711   1.022   2.433  0.3074 -0.5618 -0.5650
 6990SOL     OW32431   4.268   0.572   4.244  0.1742  0.7884  0.3076
 6990SOL    HW132432   4.186   0.621   4.231  0.6481  0.7607 -2.7965
 6990SOL    HW232433   4.336   0.613   4.191 -0.6161  0.2168 -1.1359
 6991SOL     OW32434   1.730   4.559   3.823 -0.2727  0.0899 -0.2226
 6991SOL    HW132435   1.653   4.607   3.854 -0.6929 -0.0804 -1.0029
 6991SOL    HW232436   1.707   4.468   3.840  1.8326 -0.3090  0.5382
 6992SOL     OW32437   0.313   4.601   7.120 -0.3442 -0.4528 -0.0914
 6992SOL    HW132438   0.356   4.588   7.035  0.9558 -1.2885  0.6912
 6992SOL    HW232439   0.224   4.626   7.095  0.2197  1.0857 -0.5348
 6993SOL     OW32440   0.377   0.240  13.419  0.0813 -0.6860 -0.0899
 6993SOL    HW132441   0.333   0.320  13.447  1.4696  0.5280 -1.3686
 6993SOL    HW232442   0.437   0.216  13.490  0.9343 -0.7799 -0.8425
 6994SOL     OW32443   0.414   3.739   4.159  0.2042 -0.0926  0.0853
 6994SOL    HW132444   0.451   3.685   4.229  0.5943 -0.3031 -0.2819
 6994SOL    HW232445   0.483   3.725   4.094  1.6672 -0.3189  1.6958
 6995SOL     OW32446   2.717   1.729   6.088  0.0123  0.4998 -0.5528
 6995SOL    HW132447   2.751   1.649   6.128 -1.9487  1.1254  2.3494
 6995SOL    HW232448   2.655   1.756   6.156 -1.7767 -0.8842 -1.6391
 6996SOL     OW32449   3.373   2.055   8.108 -0.6958 -0.1832  0.0515
 6996SOL    HW132450   3.350   1.968   8.142 -0.5764 -1.3366 -2.7787
 6996SOL    HW232451   3.300   2.082   8.053  0.0332 -1.0555 -1.3334
 6997SOL     OW32452   4.522   2.021  17.444 -0.1513 -0.2708 -0.4270
 6997SOL    HW132453   4.541   2.050  17.534  0.1589  0.6773 -0.7987
 6997SOL    HW232454   4.438   1.975  17.451  0.4655 -0.9827  2.5315
 6998SOL     OW32455   4.090   4.677  13.778  0.0544 -0.3047  0.4959
 6998SOL    HW132456   4.185   4.666  13.771  0.2120  1.2331  0.2101
 6998SOL    HW232457   4.072   4.589  13.813  0.3010 -1.0652 -1.2782
 6999SOL     OW32458   3.527   0.696  16.079  0.2289 -0.0754 -0.0758
 6999SOL    HW132459   3.575   0.617  16.105  1.2416  0.2970 -0.7969
 6999SOL    HW232460   3.600   0.757  16.080 -0.3151  0.6096 -1.5562
 7000SOL     OW32461   3.055   2.972   0.164 -0.1448  0.0393  0.2454
 7000SOL    HW132462   3.037   2.918   0.241  1.7316  0.6712  1.1298
 7000SOL    HW232463   3.074   2.900   0.104  1.0116 -0.3211  1.0228
 7001SOL     OW32464   1.161   1.017   0.769 -0.0290  0.2141  0.2920
 7001SOL    HW132465   1.254   0.995   0.779 -0.2075 -1.4015 -1.5638
 7001SOL    HW232466   1.123   0.999   0.855  1.7325  0.6534  1.1726
 7002SOL     OW32467   3.284   0.560  15.845 -0.3639  0.1449  0.3778
 7002SOL    HW132468   3.373   0.525  15.854  0.3633  1.6053 -1.1687
 7002SOL    HW232469   3.243   0.474  15.831  0.4116  0.0650 -1.3931
 7003SOL     OW32470   3.179   1.031   3.893 -0.7112 -0.9576  0.2454
 7003SOL    HW132471   3.085   1.037   3.876 -0.8344  0.8153  1.4755
 7003SOL    HW232472   3.208   0.964   3.832 -0.4584  0.9481 -1.7243
 7004SOL     OW32473   2.387   3.427   2.916 -0.2259  0.1867 -0.0010
 7004SOL    HW132474   2.301   3.467   2.918 -0.5886 -0.6174  0.6426
 7004SOL    HW232475   2.415   3.439   2.825  0.4327  0.8034  0.2778
 7005SOL     OW32476   2.928   2.417   3.971 -0.7691  0.4274 -0.2199
 7005SOL    HW132477   2.960   2.419   4.061  2.8963  1.2108 -1.5616
 7005SOL    HW232478   2.991   2.355   3.934 -0.6082  1.0802 -1.0459
 7006SOL     OW32479   2.326   3.166   6.411 -0.4250  0.3906  0.1679
 7006SOL    HW132480   2.303   3.075   6.392 -1.6162  0.5779  0.6898
 7006SOL    HW232481   2.409   3.154   6.458  0.8447 -0.2076 -2.2113
 7007SOL     OW32482   4.247   2.784   2.082  0.2337  0.4653  0.0212
 7007SOL    HW132483   4.175   2.758   2.140 -0.5381 -2.7132 -2.3515
 7007SOL    HW232484   4.224   2.870   2.048 -2.4119 -1.1957 -2.3511
 7008SOL     OW32485   2.029   1.033   8.379  0.3071 -0.4571 -0.1027
 7008SOL    HW132486   1.985   0.962   8.332  1.1181 -1.8695  1.2706
 7008SOL    HW232487   1.993   1.032   8.468 -1.9320 -0.4694 -1.0153
 7009SOL     OW32488   3.606   4.654   9.080  0.0561 -0.1875  0.1110
 7009SOL    HW132489   3.571   0.016   9.110 -1.5442 -0.5105 -0.8041
 7009SOL    HW232490   3.685   4.684   9.036  0.5521 -1.1681  0.3306
 7010SOL     OW32491   4.209   4.064   7.580  0.1515 -0.5184 -0.1770
 7010SOL    HW132492   4.265   4.108   7.516 -2.0075  1.9367 -0.3473
 7010SOL    HW232493   4.210   4.130   7.649 -1.7757 -1.6017  0.8995
 7011SOL     OW32494   3.018   1.889  14.935  0.0898  0.3746 -0.3489
 7011SOL    HW132495   3.108   1.873  14.962  0.5037  0.9836 -1.3203
 7011SOL    HW232496   3.014   1.854  14.846 -0.5209  0.7716 -0.4786
 7012SOL     OW32497   2.936   1.092   4.621  0.0216 -0.2959  0.1554
 7012SOL    HW132498   2.886   1.011   4.630  2.4212 -1.8950 -1.0112
 7012SOL    HW232499   2.885   1.146   4.682 -2.1175 -1.6171 -0.4641
 7013SOL     OW32500   1.423   3.899   2.132 -0.1269  0.3539  0.9933
 7013SOL    HW132501   1.433   3.953   2.210 -0.1816 -0.2676  1.4350
 7013SOL    HW232502   1.397   3.974   2.079 -0.3083  0.7802  1.6975
 7014SOL     OW32503   4.196   1.113   8.780  0.4358 -0.4784  0.3147
 7014SOL    HW132504   4.167   1.035   8.827  0.0631  0.0888  1.0417
 7014SOL    HW232505   4.150   1.182   8.828 -2.0500 -0.6735 -1.8003
 7015SOL     OW32506   2.232   4.687   1.486 -0.0710 -0.0356 -0.5343
 7015SOL    HW132507   2.214   4.610   1.433 -0.8382  0.9188 -1.6433
 7015SOL    HW232508   2.163   0.021   1.451  0.0952  0.4625 -0.0532
 7016SOL     OW32509   3.997   0.918   4.771  0.0671 -0.5709 -0.4729
 7016SOL    HW132510   3.973   0.841   4.719  0.6480 -0.8810 -0.2808
 7016SOL    HW232511   4.057   0.965   4.713 -0.0111 -0.4793 -0.4788
 7017SOL     OW32512   0.109   1.421   9.337  0.8202 -0.4439 -0.2425
 7017SOL    HW132513   0.035   1.455   9.386  0.2909  0.0045 -1.3493
 7017SOL    HW232514   0.161   1.395   9.413 -0.2617  1.2733  1.0799
 7018SOL     OW32515   0.631   1.207   7.319  0.1035  0.2189  0.1342
 7018SOL    HW132516   0.635   1.180   7.410 -0.5490 -0.5074 -0.0612
 7018SOL    HW232517   0.540   1.187   7.301  0.0001 -0.1444  1.0662
 7019SOL     OW32518   3.097   0.492  10.224 -0.1943  0.5140 -0.1818
 7019SOL    HW132519   3.082   0.494  10.318  0.2471 -2.0829 -0.0426
 7019SOL    HW232520   3.116   0.584  10.206 -1.0301  0.8309  0.5799
 7020SOL     OW32521   2.548   4.107  16.068  0.2569 -0.6527 -0.3963
 7020SOL    HW132522   2.459   4.097  16.031  0.4548  0.4727 -1.1733
 7020SOL    HW232523   2.580   4.017  16.076  1.4719 -0.3560 -1.8871
 7021SOL     OW32524   2.061   4.038   7.777  0.5562 -0.2929 -0.2214
 7021SOL    HW132525   2.063   4.070   7.687 -1.5819  0.3497 -0.0501
 7021SOL    HW232526   1.982   3.983   7.779 -0.3027  0.8952 -2.1285
 7022SOL     OW32527   1.699   2.407   3.593  0.3322  0.2637  0.0873
 7022SOL    HW132528   1.694   2.404   3.688 -1.1173 -0.4456 -0.0141
 7022SOL    HW232529   1.794   2.411   3.585  0.4308 -1.0821  0.5709
 7023SOL     OW32530   4.326   3.255   2.383 -0.5331  0.3647 -0.0961
 7023SOL    HW132531   4.271   3.334   2.384 -0.9001  0.0676  3.6104
 7023SOL    HW232532   4.273   3.196   2.436 -0.1920 -0.8432 -1.1040
 7024SOL     OW32533   2.189   2.334   5.710  0.4661  0.2288 -0.4806
 7024SOL    HW132534   2.276   2.293   5.711  1.0141  1.4286  1.4591
 7024SOL    HW232535   2.176   2.346   5.616  1.8444  3.7085 -0.2067
 7025SOL     OW32536   0.365   3.382   6.445 -0.2102  0.4846  0.2199
 7025SOL    HW132537   0.300   3.347   6.384  0.4941  1.7365 -1.2368
 7025SOL    HW232538   0.314   3.444   6.497  0.2271  1.5624 -0.6348
 7026SOL     OW32539   3.868   4.611   9.598  0.2505  0.0871  0.1123
 7026SOL    HW132540   3.829   4.543   9.543 -1.0857  0.6251  0.3825
 7026SOL    HW232541   3.844   4.584   9.687  1.0212  1.1881  0.6590
 7027SOL     OW32542   3.644   1.993   8.049 -0.1276 -0.0347 -0.5390
 7027SOL    HW132543   3.664   2.086   8.059 -2.3141  0.3587  0.2227
 7027SOL    HW232544   3.552   2.008   8.026 -0.2623 -3.1240 -2.0589
 7028SOL     OW32545   0.581   0.604  14.648 -0.1871 -0.0541 -0.2806
 7028SOL    HW132546   0.507   0.555  14.614 -0.0455 -0.0790 -0.5541
 7028SOL    HW232547   0.547   0.606  14.737 -1.9975  0.2440 -0.9869
 7029SOL     OW32548   4.091   0.039   7.232  0.2418  0.4330 -0.0816
 7029SOL    HW132549   4.169   4.718   7.265  1.4680  1.8015 -1.1763
 7029SOL    HW232550   4.026   0.013   7.298  1.2954  1.1212  1.2223
 7030SOL     OW32551   4.573   1.054   5.424  0.0055 -0.3670 -0.6594
 7030SOL    HW132552   4.504   1.034   5.361 -0.3809  0.4545 -0.5002
 7030SOL    HW232553   4.638   1.088   5.362 -0.1085 -1.5769 -1.4412
 7031SOL     OW32554   0.124   2.343  13.587 -0.2301  0.0070 -0.3374
 7031SOL    HW132555   0.119   2.252  13.557  2.4763  0.3318 -1.7511
 7031SOL    HW232556   0.039   2.350  13.631 -1.8682 -0.2296 -3.5079
 7032SOL     OW32557   0.320   2.057   2.739  0.0854  0.0575 -0.8907
 7032SOL    HW132558   0.355   1.968   2.750  0.4945 -0.1228 -3.5860
 7032SOL    HW232559   0.310   2.071   2.644 -2.1061 -1.3891 -0.8728
 7033SOL     OW32560   1.510   4.715   3.890 -0.5158 -0.1278 -0.1101
 7033SOL    HW132561   1.509   0.045   3.810 -1.2057 -0.8007 -0.5573
 7033SOL    HW232562   1.431   4.662   3.874 -0.0006 -1.2137  0.9628
 7034SOL     OW32563   0.681   4.696   7.346 -0.2454  0.1671  0.1499
 7034SOL    HW132564   0.766   4.667   7.379 -0.9866  1.6457  3.2728
 7034SOL    HW232565   0.622   4.622   7.358  1.0507 -1.4313 -3.1447
 7035SOL     OW32566   0.419   2.443   1.713  0.2291  0.3393  0.3980
 7035SOL    HW132567   0.455   2.532   1.716 -0.6970  0.8384 -2.8652
 7035SOL    HW232568   0.498   2.405   1.753 -0.6885  0.7597  2.6052
 7036SOL     OW32569   2.498   1.450   5.473 -0.1560 -0.1685 -0.0370
 7036SOL    HW132570   2.552   1.513   5.425 -1.9697 -0.9804 -3.0812
 7036SOL    HW232571   2.540   1.449   5.559  0.8439  0.6030 -0.5144
 7037SOL     OW32572   3.130   0.057   3.822  0.6015 -0.0144 -0.2971
 7037SOL    HW132573   3.204   0.063   3.762 -0.1181 -0.9512 -1.2901
 7037SOL    HW232574   3.151   4.699   3.870 -1.5856 -0.9185 -0.8541
 7038SOL     OW32575   0.174   0.732   3.661 -0.4014 -0.1125  0.4673
 7038SOL    HW132576   0.242   0.672   3.691 -0.4880 -0.6532 -0.4318
 7038SOL    HW232577   0.223   0.767   3.587 -1.9332  1.5545  0.2282
 7039SOL     OW32578   4.164   4.588  14.308 -0.1654  0.1220  0.0077
 7039SOL    HW132579   4.157   4.633  14.223 -0.9047  0.8598  0.4594
 7039SOL    HW232580   4.108   4.511  14.298  0.0281 -0.0889  0.5620
 7040SOL     OW32581   1.365   2.190   5.696 -0.3389  0.1565 -0.4082
 7040SOL    HW132582   1.304   2.258   5.721  0.9693  1.2294 -0.1173
 7040SOL    HW232583   1.441   2.204   5.753 -0.0772 -1.0028 -0.4532
 7041SOL     OW32584   1.013   2.585   9.094 -0.2667  0.2578  0.0604
 7041SOL    HW132585   0.962   2.589   9.174 -2.1625  1.0230 -1.2002
 7041SOL    HW232586   0.985   2.508   9.045  0.1550 -0.0692  0.3307
 7042SOL     OW32587   4.607   0.490   3.490  0.2424 -0.1521  0.1278
 7042SOL    HW132588   4.670   0.459   3.556 -0.7726  0.3772  1.3499
 7042SOL    HW232589   4.659   0.562   3.456  0.4541  0.1207  1.0397
 7043SOL     OW32590   0.482   0.460   5.938 -0.7485 -0.1192 -0.1460
 7043SOL    HW132591   0.466   0.367   5.923  0.5266 -0.1164 -1.5652
 7043SOL    HW232592   0.424   0.495   5.870  0.6069  1.9234 -0.2750
 7044SOL     OW32593   1.308   2.087   3.511 -0.2773 -0.2746  0.0638
 7044SOL    HW132594   1.369   2.161   3.517  0.1766 -0.7798  1.5732
 7044SOL    HW232595   1.243   2.119   3.573 -0.1505 -0.9252  0.5305
 7045SOL     OW32596   0.457   4.714   7.581 -0.5674  0.2606  0.2676
 7045SOL    HW132597   0.441   0.086   7.577  1.1954  0.5612  0.5497
 7045SOL    HW232598   0.399   4.678   7.514  0.1198 -0.1558 -0.1009
 7046SOL     OW32599   3.443   4.366   8.870 -0.1496 -0.2637  0.0124
 7046SOL    HW132600   3.398   4.350   8.954 -1.7999  0.3256 -0.7466
 7046SOL    HW232601   3.452   4.281   8.829 -0.8780  0.0426 -0.8027
 7047SOL     OW32602   0.287   0.215   9.490 -0.4746 -0.4819  0.5754
 7047SOL    HW132603   0.302   0.280   9.559  0.3282  0.0997 -0.1632
 7047SOL    HW232604   0.219   0.268   9.447  0.3104  0.3719  0.3873
 7048SOL     OW32605   1.608   2.358  13.826  0.2487 -0.4643  0.2227
 7048SOL    HW132606   1.622   2.302  13.750 -0.4569 -1.4765  0.8428
 7048SOL    HW232607   1.585   2.299  13.898 -0.1956  0.9967  1.2776
 7049SOL     OW32608   3.184   2.180   6.382  0.2806  0.1355  0.5709
 7049SOL    HW132609   3.105   2.213   6.340 -0.0582 -1.4237 -0.0116
 7049SOL    HW232610   3.175   2.220   6.469  0.1320 -0.2765  0.7485
 7050SOL     OW32611   3.700   4.278   9.667  0.0143 -0.6025  0.1946
 7050SOL    HW132612   3.759   4.207   9.694  1.6042  0.3191 -0.8446
 7050SOL    HW232613   3.738   4.350   9.718  1.0514 -0.1908 -1.1643
 7051SOL     OW32614   0.570   2.837  13.021  0.2119  0.5578  0.2716
 7051SOL    HW132615   0.497   2.852  13.081  0.7828  1.8079  0.6440
 7051SOL    HW232616   0.623   2.908  13.058  0.4186 -1.5618  4.0491
 7052SOL     OW32617   1.024   0.093   8.232 -0.8926  0.4772 -0.2453
 7052SOL    HW132618   1.095   0.132   8.181 -0.4549 -0.0281 -0.0087
 7052SOL    HW232619   1.067   0.046   8.303 -2.1023 -0.3488 -0.0577
 7053SOL     OW32620   3.369   2.206  12.100 -0.0624 -0.7893 -0.3951
 7053SOL    HW132621   3.444   2.265  12.091 -0.6099 -0.4412 -2.6257
 7053SOL    HW232622   3.305   2.243  12.039  0.8826 -0.1952 -1.0274
 7054SOL     OW32623   2.561   4.089  16.643  0.0538  0.7053 -0.0332
 7054SOL    HW132624   2.609   4.137  16.576  1.4289  0.6616  0.9216
 7054SOL    HW232625   2.596   4.132  16.721  1.5673  0.8638 -0.8218
 7055SOL     OW32626   2.249   1.389  11.959 -0.2712 -0.1826  0.2839
 7055SOL    HW132627   2.286   1.345  11.883 -0.5241  0.2970 -0.1155
 7055SOL    HW232628   2.309   1.463  11.967  0.5440 -0.4846 -3.0443
 7056SOL     OW32629   3.285   3.604   8.522  0.0963 -0.0993 -0.0037
 7056SOL    HW132630   3.260   3.626   8.611 -0.6023 -1.1397  0.0551
 7056SOL    HW232631   3.207   3.636   8.477 -0.6005  1.4335  2.2795
 7057SOL     OW32632   2.020   2.243   2.712  0.1631 -0.4904  0.4198
 7057SOL    HW132633   2.112   2.249   2.738 -0.2485  1.2070  1.4861
 7057SOL    HW232634   1.982   2.283   2.790 -0.9550  0.6348 -0.7202
 7058SOL     OW32635   3.009   1.812   7.845  0.4124  0.6742 -0.0959
 7058SOL    HW132636   3.005   1.751   7.772 -1.1217 -0.7388  1.1734
 7058SOL    HW232637   2.914   1.812   7.851  0.2900 -0.1793 -2.1311
 7059SOL     OW32638   1.667   3.854   0.447 -0.3311  1.0037  0.2837
 7059SOL    HW132639   1.661   3.900   0.364 -1.0876 -0.6510 -0.5679
 7059SOL    HW232640   1.575   3.833   0.463 -0.3697  1.0774  0.1596
 7060SOL     OW32641   3.602   0.814  10.011 -0.8339 -0.4922 -0.0923
 7060SOL    HW132642   3.509   0.833  10.023 -1.0829 -0.6185 -1.9408
 7060SOL    HW232643   3.623   0.831   9.920 -1.0487 -0.3500 -0.1168
 7061SOL     OW32644   3.171   2.114   7.660  0.0989  0.1589 -0.3830
 7061SOL    HW132645   3.177   2.063   7.579 -1.4205  1.3864 -1.2602
 7061SOL    HW232646   3.126   2.193   7.630  0.5032  0.7173  0.4702
 7062SOL     OW32647   3.420   1.226   9.304 -0.2170  1.0392  0.0644
 7062SOL    HW132648   3.353   1.281   9.344  1.2377  3.2764 -0.5578
 7062SOL    HW232649   3.461   1.203   9.387 -0.3787 -3.2403 -1.0549
 7063SOL     OW32650   3.528   3.664   8.320 -0.1494  0.3364  0.1598
 7063SOL    HW132651   3.563   3.748   8.352 -1.3668  0.8334  0.1617
 7063SOL    HW232652   3.461   3.640   8.384 -1.1728  3.2746  0.1887
 7064SOL     OW32653   0.113   1.010   4.095 -0.1143 -0.0421 -0.5852
 7064SOL    HW132654   0.199   1.051   4.104  0.1758 -0.8313  0.2161
 7064SOL    HW232655   0.052   1.069   4.051  0.1481  0.3586 -0.4132
 7065SOL     OW32656   1.171   2.386   5.771  0.3156  0.2003  0.3777
 7065SOL    HW132657   1.121   2.395   5.689 -1.6614  0.0382  1.5756
 7065SOL    HW232658   1.103   2.361   5.833  0.4778 -0.3920  0.3206
 7066SOL     OW32659   2.626   4.447  14.234  0.5115  0.7062 -0.1672
 7066SOL    HW132660   2.606   4.354  14.242  1.0873  0.6467  0.6319
 7066SOL    HW232661   2.650   4.443  14.142 -0.3821 -0.0567 -0.3675
 7067SOL     OW32662   4.152   2.362   7.746 -0.5401  0.1677  0.1709
 7067SOL    HW132663   4.066   2.398   7.724 -1.2519 -2.3260 -1.0210
 7067SOL    HW232664   4.213   2.434   7.762  1.1926 -1.3418  0.2765
 7068SOL     OW32665   1.649   1.208   4.666  0.3389  0.0534  0.9437
 7068SOL    HW132666   1.699   1.137   4.626 -1.5013 -1.1966  0.8518
 7068SOL    HW232667   1.575   1.158   4.701  1.6379 -2.0862  0.6593
 7069SOL     OW32668   3.656   2.550   6.943  0.0142  0.2421 -0.0475
 7069SOL    HW132669   3.724   2.484   6.954 -0.2180  0.4246  2.5615
 7069SOL    HW232670   3.698   2.625   6.903 -1.8058  1.3676  0.1300
 7070SOL     OW32671   3.467   0.171  15.189  0.1496  0.3132 -0.0367
 7070SOL    HW132672   3.397   0.226  15.155  0.1514  0.3855  0.0758
 7070SOL    HW232673   3.455   0.102  15.125  0.9112 -1.1915  1.4504
 7071SOL     OW32674   3.820   3.683  15.078 -0.2147 -0.3539 -0.1946
 7071SOL    HW132675   3.772   3.763  15.096 -2.5754 -1.8594  0.2109
 7071SOL    HW232676   3.743   3.626  15.074 -0.1736 -0.2693 -2.1933
 7072SOL     OW32677   3.129   0.699   6.410  0.4065  0.1906 -0.0528
 7072SOL    HW132678   3.217   0.672   6.384 -0.3987 -3.5427  0.9952
 7072SOL    HW232679   3.132   0.794   6.404 -3.3500  0.3786  0.9204
 7073SOL     OW32680   0.947   0.901  13.710  0.2475 -0.2026 -0.1763
 7073SOL    HW132681   1.027   0.852  13.689  1.2311  0.8192  1.2126
 7073SOL    HW232682   0.983   0.943  13.788 -1.1697 -2.3234  1.5917
 7074SOL     OW32683   0.433   1.796   1.324  0.7619  0.3583  0.6661
 7074SOL    HW132684   0.495   1.868   1.312  2.4206 -0.9706  1.2466
 7074SOL    HW232685   0.367   1.816   1.258  1.4846 -0.4996 -0.3306
 7075SOL     OW32686   0.545   3.170   4.038 -0.0552  0.1346 -0.1146
 7075SOL    HW132687   0.590   3.248   4.004  1.3274  0.1237  1.6670
 7075SOL    HW232688   0.457   3.204   4.024  0.4085  1.5241  0.3429
 7076SOL     OW32689   3.433   2.830   3.338  0.0617  0.0883  0.0308
 7076SOL    HW132690   3.398   2.914   3.369 -0.3069  0.4752 -1.4544
 7076SOL    HW232691   3.502   2.817   3.403  1.1740 -0.0743 -1.1920
 7077SOL     OW32692   2.585   2.841   6.573 -0.6550 -0.2169  0.2994
 7077SOL    HW132693   2.583   2.926   6.530  1.4353  0.3650  1.3840
 7077SOL    HW232694   2.608   2.874   6.660 -1.8960 -1.6481  1.1779
 7078SOL     OW32695   3.823   0.752  12.032 -0.2239  0.4836 -0.4107
 7078SOL    HW132696   3.779   0.837  12.042 -0.9441  0.0327  0.2215
 7078SOL    HW232697   3.767   0.695  12.085 -0.3432  1.6809  0.7727
 7079SOL     OW32698   3.132   4.516  15.228 -0.2709 -0.0915 -0.2812
 7079SOL    HW132699   3.047   4.474  15.230 -0.7061  0.7012 -1.7714
 7079SOL    HW232700   3.130   4.564  15.145 -0.8250  0.4964  0.0776
 7080SOL     OW32701   1.194   1.010   8.076  0.1519 -0.0589 -0.0093
 7080SOL    HW132702   1.139   0.934   8.092 -0.0496 -0.1754 -1.2410
 7080SOL    HW232703   1.155   1.067   8.142 -1.3222  0.4897 -1.3387
 7081SOL     OW32704   4.572   0.912   0.044  0.3235 -0.0076 -0.0523
 7081SOL    HW132705   4.581   0.982   0.109 -0.6623 -0.6654  0.7904
 7081SOL    HW232706   4.666   0.896   0.035 -0.0849 -2.3379  0.0248
 7082SOL     OW32707   2.420   1.148   8.088 -0.4423  0.2513  0.4741
 7082SOL    HW132708   2.376   1.105   8.161 -1.1747  2.5023  1.3670
 7082SOL    HW232709   2.500   1.097   8.080 -0.6969  0.1335 -1.3740
 7083SOL     OW32710   2.210   0.110   7.701  0.4048 -0.3376  0.8208
 7083SOL    HW132711   2.166   0.028   7.678 -0.3344 -0.4149  2.5539
 7083SOL    HW232712   2.255   0.081   7.780  2.2105  1.0150  0.2870
 7084SOL     OW32713   0.137   4.578   8.000 -0.4284 -0.0250 -0.8156
 7084SOL    HW132714   0.221   4.574   7.955  0.3838  3.4056  0.3696
 7084SOL    HW232715   0.122   4.485   8.011  0.7512 -0.0457  0.5619
 7085SOL     OW32716   0.416   4.577   5.884 -0.5441 -0.4752  0.6406
 7085SOL    HW132717   0.445   4.515   5.817  0.7018  0.0089  0.7226
 7085SOL    HW232718   0.427   4.659   5.837  2.7160 -1.7370 -0.8001
 7086SOL     OW32719   0.092   0.151   6.492  0.2592  0.1508 -0.3257
 7086SOL    HW132720   0.085   0.059   6.518  0.6138  1.1340  3.1771
 7086SOL    HW232721   0.071   0.199   6.572  0.3575  1.4238 -1.0570
 7087SOL     OW32722   2.901   0.373   6.635  0.1555  0.0573 -0.1102
 7087SOL    HW132723   2.976   0.378   6.576  0.7641  1.7240  0.8154
 7087SOL    HW232724   2.867   0.462   6.628  1.7437  0.6293 -0.5394
 7088SOL     OW32725   0.016   0.857   7.356 -1.5085  0.6525 -0.0239
 7088SOL    HW132726   0.063   0.793   7.303  0.4165  1.8474  0.2174
 7088SOL    HW232727   0.065   0.846   7.438  0.2178 -1.0384 -1.2779
 7089SOL     OW32728   2.247   4.336   2.153 -0.2786 -1.2744 -0.1902
 7089SOL    HW132729   2.302   4.299   2.222 -0.9687  1.7813  2.0168
 7089SOL    HW232730   2.168   4.287   2.177  0.6387 -1.6855  2.0664
 7090SOL     OW32731   4.518   3.014   7.460  0.1625  0.2400  0.2103
 7090SOL    HW132732   4.594   3.069   7.436  0.3466 -0.1031  0.0108
 7090SOL    HW232733   4.559   2.928   7.462 -0.7446 -0.2036 -0.5039
 7091SOL     OW32734   1.697   1.394   3.062  0.0175 -0.2897 -0.0857
 7091SOL    HW132735   1.740   1.315   3.028  1.7398  0.3143  0.6596
 7091SOL    HW232736   1.729   1.466   3.007 -1.1075  0.5640  0.4045
 7092SOL     OW32737   0.513   1.402   1.422 -0.0203  0.1575 -0.5186
 7092SOL    HW132738   0.435   1.350   1.403 -1.6193  1.7987  1.6586
 7092SOL    HW232739   0.473   1.488   1.428 -1.2178 -0.2161 -3.1759
 7093SOL     OW32740   3.962   2.031  12.182 -0.5599 -0.0491 -0.0046
 7093SOL    HW132741   3.881   1.983  12.163 -0.5089 -0.0048 -0.3428
 7093SOL    HW232742   4.032   1.970  12.159  0.3775  0.9923  0.1025
 7094SOL     OW32743   0.695   1.527   8.993 -0.1192  0.5428  0.1094
 7094SOL    HW132744   0.621   1.470   8.972  2.1168 -2.6617  0.7401
 7094SOL    HW232745   0.672   1.542   9.085  0.3359 -2.4285  0.7325
 7095SOL     OW32746   4.369   0.228  14.769  0.1962 -0.4287 -0.1825
 7095SOL    HW132747   4.449   0.258  14.725 -0.0358  0.7348  0.1873
 7095SOL    HW232748   4.409   0.165  14.828 -0.2738 -0.9006 -0.3722
 7096SOL     OW32749   3.990   3.765   5.398  0.0893  0.0417  0.2122
 7096SOL    HW132750   3.900   3.796   5.387  0.2398  0.6202  0.6391
 7096SOL    HW232751   3.994   3.758   5.493  0.0270  0.0961  0.2187
 7097SOL     OW32752   1.988   1.306  17.077 -0.0023 -0.0363  0.0293
 7097SOL    HW132753   2.006   1.214  17.059 -1.2712 -0.2370 -0.1552
 7097SOL    HW232754   1.896   1.301  17.101  0.1573  0.3984  0.7416
 7098SOL     OW32755   4.263   4.119   4.094  0.4018 -0.3712 -0.3958
 7098SOL    HW132756   4.328   4.178   4.055  1.2636 -0.4521  0.9118
 7098SOL    HW232757   4.256   4.064   4.016 -0.5434  2.8025 -2.5814
 7099SOL     OW32758   1.249   2.157   2.190  0.3697 -0.1193  0.1757
 7099SOL    HW132759   1.336   2.158   2.151  0.7192 -0.2040  0.9475
 7099SOL    HW232760   1.192   2.177   2.116 -1.6800  0.9970  2.0484
 7100SOL     OW32761   3.411   0.965   4.507  0.2812 -0.5008 -0.0057
 7100SOL    HW132762   3.421   0.901   4.577  0.8077 -1.6531 -1.1223
 7100SOL    HW232763   3.335   1.010   4.544 -0.0110  0.5179 -1.8242
 7101SOL     OW32764   1.863   1.838  12.993 -0.1765  0.1522  0.5121
 7101SOL    HW132765   1.797   1.807  12.932 -0.3406 -0.7149  1.1307
 7101SOL    HW232766   1.889   1.757  13.038  0.2757  0.4537  0.7994
 7102SOL     OW32767   4.511   4.380   5.321 -0.5447 -0.1089  0.1712
 7102SOL    HW132768   4.493   4.389   5.415  0.9099  1.9655  0.2418
 7102SOL    HW232769   4.462   4.456   5.291  1.7929  2.1260  2.0233
 7103SOL     OW32770   1.245   4.681   2.903  0.1970 -0.1866 -1.1366
 7103SOL    HW132771   1.245   4.590   2.874  0.9040 -0.8115  0.8419
 7103SOL    HW232772   1.296   4.674   2.983  0.8101  0.3146 -1.4767
 7104SOL     OW32773   1.521   2.618   4.381 -0.3508 -0.4689 -0.4145
 7104SOL    HW132774   1.541   2.549   4.318 -1.7334 -1.6658  0.4789
 7104SOL    HW232775   1.482   2.580   4.459 -0.6629 -1.6865 -1.1673
 7105SOL     OW32776   2.370   1.518   3.052 -0.8461  0.4771  0.2146
 7105SOL    HW132777   2.464   1.539   3.047 -0.8400  0.4205  0.0742
 7105SOL    HW232778   2.380   1.426   3.024  0.1214  0.0426  1.9574
 7106SOL     OW32779   0.382   3.994  11.649 -0.0061  0.2251 -0.2992
 7106SOL    HW132780   0.327   3.994  11.727  0.9681 -1.0975  0.3918
 7106SOL    HW232781   0.328   3.954  11.581 -0.5503  1.0310 -0.3448
 7107SOL     OW32782   2.132   1.601   4.055  0.4489  0.2009  0.7523
 7107SOL    HW132783   2.045   1.633   4.082  0.0919  0.2275 -0.4372
 7107SOL    HW232784   2.160   1.666   3.991  0.4007 -0.5213  0.0082
 7108SOL     OW32785   2.981   2.570  10.210  0.2232  0.5841  0.0367
 7108SOL    HW132786   2.930   2.651  10.199  1.4459  1.6915  2.5473
 7108SOL    HW232787   3.036   2.598  10.283  0.2852 -0.3099  0.3231
 7109SOL     OW32788   3.770   3.748   6.206  0.3601 -0.7897 -0.8462
 7109SOL    HW132789   3.778   3.843   6.209 -0.4899 -0.6895 -1.6401
 7109SOL    HW232790   3.863   3.734   6.192  0.5660  0.8931 -1.0409
 7110SOL     OW32791   2.301   2.754  11.723 -0.3476  0.4318 -0.1290
 7110SOL    HW132792   2.257   2.670  11.740 -1.3279  0.8854 -0.3798
 7110SOL    HW232793   2.350   2.774  11.802  1.1830 -2.4577 -0.3362
 7111SOL     OW32794   0.124   3.800   3.509  0.0384 -0.1700  0.2150
 7111SOL    HW132795   0.103   3.891   3.490 -2.0762 -1.1967 -2.3853
 7111SOL    HW232796   0.202   3.782   3.456 -0.6374  2.2088 -1.5640
 7112SOL     OW32797   3.089   4.169   6.973  0.8953 -0.0439 -0.0998
 7112SOL    HW132798   3.067   4.076   6.970  0.1469  0.1581 -0.9291
 7112SOL    HW232799   3.180   4.174   6.942  0.2881  1.7780 -1.6541
 7113SOL     OW32800   2.539   2.851   7.589 -0.0523  0.1885 -0.7286
 7113SOL    HW132801   2.627   2.869   7.622 -0.8242 -0.7386  1.8489
 7113SOL    HW232802   2.547   2.895   7.504 -3.8661  2.1500 -0.0931
 7114SOL     OW32803   3.527   0.129   2.597 -0.2387  0.2980  0.2308
 7114SOL    HW132804   3.606   0.074   2.600 -1.0330 -1.0127 -3.8935
 7114SOL    HW232805   3.559   0.201   2.652  0.7008 -1.0174  1.4447
 7115SOL     OW32806   2.040   1.560   8.265 -0.5834 -0.1955  0.5260
 7115SOL    HW132807   1.994   1.618   8.205 -0.8557 -0.6381  0.3118
 7115SOL    HW232808   2.047   1.487   8.204 -0.6063 -0.7468  1.1847
 7116SOL     OW32809   2.885   1.547   4.572 -0.1993  0.3713 -0.2783
 7116SOL    HW132810   2.970   1.517   4.540 -1.3223 -1.0008 -1.9730
 7116SOL    HW232811   2.882   1.528   4.666  1.7711 -0.7373 -0.4366
 7117SOL     OW32812   3.214   2.937   2.663 -0.5089  0.2986  0.1568
 7117SOL    HW132813   3.303   2.911   2.688 -0.5315 -1.7120 -1.9116
 7117SOL    HW232814   3.165   2.908   2.740 -3.2357  0.6545 -1.4637
 7118SOL     OW32815   2.438   2.464  13.679  0.1064  0.7085 -0.0855
 7118SOL    HW132816   2.501   2.494  13.613  0.4685  0.3086  0.0791
 7118SOL    HW232817   2.407   2.379  13.645 -0.3776  0.6145  0.5986
 7119SOL     OW32818   2.959   1.962  10.447 -0.2548 -0.0108  0.5983
 7119SOL    HW132819   2.954   1.942  10.354  0.8711  1.6651  0.1921
 7119SOL    HW232820   2.935   1.879  10.489 -3.2803  0.7593  0.4219
 7120SOL     OW32821   3.106   1.792  15.724  0.2311 -0.0763  0.8961
 7120SOL    HW132822   3.184   1.842  15.749  0.0600  1.0994 -0.9344
 7120SOL    HW232823   3.098   1.806  15.630 -2.6627  0.6088  1.2328
 7121SOL     OW32824   2.951   0.939  16.066  0.0788 -0.3620 -0.1342
 7121SOL    HW132825   2.956   0.846  16.047  1.5871 -0.8516  2.6844
 7121SOL    HW232826   2.964   0.969  15.976 -0.0765 -1.1956 -0.4339
 7122SOL     OW32827   4.228   2.006  10.638  0.2369  0.6434 -0.4264
 7122SOL    HW132828   4.227   1.926  10.691 -0.4364 -0.4718 -2.1215
 7122SOL    HW232829   4.140   2.040  10.650 -0.8445 -2.1533 -0.3366
 7123SOL     OW32830   2.913   4.546   7.557 -0.0850 -0.0338  0.4807
 7123SOL    HW132831   2.968   4.594   7.618  1.7478 -0.0322 -1.1615
 7123SOL    HW232832   2.907   4.606   7.483 -1.2792  1.5290  1.8540
 7124SOL     OW32833   1.242   0.767  17.444 -0.5376 -0.1314  0.1509
 7124SOL    HW132834   1.227   0.761  17.350 -1.5202 -2.1236  0.4197
 7124SOL    HW232835   1.330   0.805  17.439 -0.9038  0.9680  2.2462
 7125SOL     OW32836   2.111   3.223  16.197  0.1303 -0.1513 -0.5258
 7125SOL    HW132837   2.104   3.152  16.134 -2.4847 -0.3649  0.0180
 7125SOL    HW232838   2.206   3.232  16.194  0.0620  0.9611  0.7042
 7126SOL     OW32839   3.870   4.023   1.061 -0.0871 -0.0526 -0.0263
 7126SOL    HW132840   3.881   4.071   1.143  2.3427  3.2321 -2.3188
 7126SOL    HW232841   3.945   3.963   1.062  0.5160  0.7050 -1.4353
 7127SOL     OW32842   3.740   0.274  15.044  0.2528 -0.0423 -0.5418
 7127SOL    HW132843   3.794   0.212  15.093 -0.5967  0.5375  1.1462
 7127SOL    HW232844   3.708   0.213  14.978 -2.4030  0.8128 -0.0573
 7128SOL     OW32845   0.574   2.791   9.127 -0.4528  0.0009  0.1906
 7128SOL    HW132846   0.545   2.793   9.219  0.6126 -0.4854  0.5351
 7128SOL    HW232847   0.670   2.794   9.131 -0.3654 -0.8687 -1.3620
 7129SOL     OW32848   4.670   1.257   0.060 -0.4175 -0.1156  0.1629
 7129SOL    HW132849   4.605   1.195   0.092  0.1397 -0.2883  0.9751
 7129SOL    HW232850   0.030   1.211   0.075 -1.0078 -0.9672  0.7883
 7130SOL     OW32851   3.754   3.075   2.925  0.4027  0.1358  0.1896
 7130SOL    HW132852   3.785   3.159   2.961  0.4373  1.0591 -2.0274
 7130SOL    HW232853   3.812   3.015   2.971 -0.0785 -1.0932 -0.8324
 7131SOL     OW32854   2.718   1.062  15.449  0.1912 -0.6513 -0.3185
 7131SOL    HW132855   2.769   0.995  15.493 -1.8345 -0.2701  2.5869
 7131SOL    HW232856   2.652   1.083  15.515  1.6373 -2.4356  1.6549
 7132SOL     OW32857   1.095   2.071   0.447 -0.3902  0.3540 -0.6513
 7132SOL    HW132858   1.111   1.993   0.500 -0.4329  0.8358  0.0690
 7132SOL    HW232859   1.182   2.109   0.436 -1.0386  2.2010  0.5899
 7133SOL     OW32860   3.199   2.383   5.535 -0.3994  0.2962  0.2717
 7133SOL    HW132861   3.267   2.376   5.469  1.1795  0.3078  1.9046
 7133SOL    HW232862   3.200   2.297   5.579  0.4396 -0.0258 -0.3774
 7134SOL     OW32863   4.403   2.661   7.783 -0.2173 -0.1064  0.5482
 7134SOL    HW132864   4.398   2.582   7.838  1.9294 -0.2986  0.4990
 7134SOL    HW232865   4.467   2.625   7.721 -0.6438  0.5450 -0.2571
 7135SOL     OW32866   0.914   2.884   3.719 -0.2781 -0.0338 -0.1582
 7135SOL    HW132867   0.878   2.924   3.799 -2.0649  0.2049 -1.0910
 7135SOL    HW232868   0.868   2.801   3.708  0.2522 -0.4230  0.5622
 7136SOL     OW32869   4.195   3.936   2.061 -0.0717  0.2728  1.0480
 7136SOL    HW132870   4.150   4.000   2.006  0.7236  0.0951  0.1859
 7136SOL    HW232871   4.238   3.992   2.126  0.0788 -0.7139  1.8046
 7137SOL     OW32872   2.436   3.334   0.915  0.1521 -0.4329 -0.2398
 7137SOL    HW132873   2.466   3.398   0.850  3.0316 -0.5934  0.9277
 7137SOL    HW232874   2.455   3.378   0.998 -1.7357  0.5435 -0.3068
 7138SOL     OW32875   3.342   0.610  11.919 -0.1672 -0.1154 -0.3414
 7138SOL    HW132876   3.320   0.576  12.005 -0.2244 -0.1408 -0.3661
 7138SOL    HW232877   3.250   0.623  11.896 -0.9453 -1.8385  1.8196
 7139SOL     OW32878   0.908   0.967   6.880 -0.3965 -0.1869  0.2093
 7139SOL    HW132879   0.906   0.876   6.851 -1.2138 -0.3881  0.9060
 7139SOL    HW232880   0.847   0.994   6.812  1.6479  1.0183 -1.1660
 7140SOL     OW32881   3.092   2.340   9.190  0.1072 -0.0217  0.1393
 7140SOL    HW132882   3.032   2.266   9.196 -1.3552  1.0683 -0.9269
 7140SOL    HW232883   3.092   2.368   9.281  2.1172  2.9690 -0.7763
 7141SOL     OW32884   0.312   0.694   5.143  0.4955 -0.1900  0.3391
 7141SOL    HW132885   0.304   0.730   5.054 -1.3215 -0.0602  0.5449
 7141SOL    HW232886   0.297   0.602   5.120 -1.8762  0.2412  0.1761
 7142SOL     OW32887   3.687   3.504   2.947 -0.5207  0.1490 -0.0691
 7142SOL    HW132888   3.653   3.507   3.037 -0.7956 -1.1887 -0.1342
 7142SOL    HW232889   3.609   3.491   2.894 -0.2170 -0.2826 -0.4107
 7143SOL     OW32890   1.398   1.351   4.518  0.1501 -0.1864 -0.0913
 7143SOL    HW132891   1.446   1.300   4.582  2.5528 -0.3339 -2.0110
 7143SOL    HW232892   1.332   1.387   4.577 -0.4423 -0.4513 -0.5798
 7144SOL     OW32893   0.382   1.441   9.205  0.1802 -0.1878  0.0791
 7144SOL    HW132894   0.385   1.356   9.249  1.6603 -0.3974 -0.4183
 7144SOL    HW232895   0.445   1.476   9.268  0.5920  0.1663 -0.5255
 7145SOL     OW32896   2.216   4.635   4.416 -0.2068  0.1696  0.6097
 7145SOL    HW132897   2.247   4.703   4.356 -2.5634  0.6637 -0.0216
 7145SOL    HW232898   2.258   4.662   4.498 -3.0113  0.4399  1.9534
 7146SOL     OW32899   3.292   4.519   9.526  0.0970  0.5575  0.4067
 7146SOL    HW132900   3.385   4.539   9.542  0.4428  0.4138 -1.5216
 7146SOL    HW232901   3.279   4.530   9.432 -1.2615 -1.3967  0.3610
 7147SOL     OW32902   2.803   3.356  10.400 -0.0125  0.5584  0.6857
 7147SOL    HW132903   2.842   3.380  10.316 -0.6848 -0.8915 -0.0466
 7147SOL    HW232904   2.773   3.444  10.423  0.2473  0.8749 -0.2001
 7148SOL     OW32905   0.130   0.971   3.024  0.5750  0.0661 -0.0384
 7148SOL    HW132906   0.180   0.995   2.946  0.2954  1.9435  0.3645
 7148SOL    HW232907   0.184   0.902   3.062 -0.7083 -1.1769 -0.4431
 7149SOL     OW32908   0.547   2.015  17.251 -0.2117 -0.1225 -0.0245
 7149SOL    HW132909   0.511   2.085  17.305 -0.4409  0.5591 -1.0758
 7149SOL    HW232910   0.626   2.047  17.209 -0.5542  2.2623  1.1751
 7150SOL     OW32911   3.040   0.724   8.300  0.7891 -0.4282 -0.4748
 7150SOL    HW132912   3.057   0.682   8.384 -1.5397 -0.4585 -0.0251
 7150SOL    HW232913   3.033   0.811   8.339 -0.8368 -1.2765  1.0927
 7151SOL     OW32914   3.778   1.588   7.350  0.1378  0.0496  0.0241
 7151SOL    HW132915   3.755   1.658   7.411  2.7488  1.5198 -0.6907
 7151SOL    HW232916   3.798   1.508   7.399 -1.4116  0.3924  1.2075
 7152SOL     OW32917   3.380   4.202   3.823 -0.3776 -0.1537  0.2980
 7152SOL    HW132918   3.431   4.216   3.743  0.7594 -0.2019  1.0160
 7152SOL    HW232919   3.442   4.238   3.886 -0.7337  3.2103 -1.2796
 7153SOL     OW32920   0.395   1.830   3.049  0.1871 -0.0735  0.3891
 7153SOL    HW132921   0.309   1.852   3.014 -0.6016 -1.7594  1.2444
 7153SOL    HW232922   0.380   1.814   3.143 -0.8879  4.2052  0.9145
 7154SOL     OW32923   4.265   1.331   5.320  0.5600  0.0003 -0.4107
 7154SOL    HW132924   4.286   1.238   5.320  1.9688  0.3141 -2.2898
 7154SOL    HW232925   4.283   1.357   5.410  0.4621  1.6868 -0.8716
 7155SOL     OW32926   0.803   3.306   1.931 -0.3226 -0.5548  0.2814
 7155SOL    HW132927   0.749   3.271   2.002 -3.1609 -0.2538 -1.7317
 7155SOL    HW232928   0.800   3.232   1.870 -0.0189 -0.0563 -0.3303
 7156SOL     OW32929   1.387   2.874   3.813  0.1593  0.2410  0.3912
 7156SOL    HW132930   1.433   2.951   3.846 -2.0612  1.2380  1.2031
 7156SOL    HW232931   1.318   2.910   3.757  0.6441  0.6956  0.0960
 7157SOL     OW32932   1.878   0.029   2.977 -0.0765  1.0713  0.4215
 7157SOL    HW132933   1.815   4.680   2.973 -2.1573  2.8743  0.4441
 7157SOL    HW232934   1.932   0.008   3.053  0.3547  1.2636  0.1701
 7158SOL     OW32935   1.156   0.594  10.933 -0.1695 -0.4004  0.9108
 7158SOL    HW132936   1.106   0.513  10.922 -0.8352  0.0519  0.6016
 7158SOL    HW232937   1.246   0.568  10.953  0.7198  0.4847 -1.9979
 7159SOL     OW32938   1.941   0.228   0.223 -0.4030  0.3935  0.1877
 7159SOL    HW132939   1.996   0.152   0.207 -4.1588 -2.2305 -0.1258
 7159SOL    HW232940   1.971   0.288   0.154  0.5691 -0.7647 -0.3804
 7160SOL     OW32941   3.044   3.044  13.340  0.2754 -0.2081 -0.2415
 7160SOL    HW132942   2.958   3.002  13.342 -0.0232  0.3671 -1.8389
 7160SOL    HW232943   3.068   3.037  13.433  0.0834  0.2726 -0.1575
 7161SOL     OW32944   0.727   0.780  12.256 -0.9169  1.1272 -0.4865
 7161SOL    HW132945   0.803   0.782  12.313 -1.3132  0.3391  0.0757
 7161SOL    HW232946   0.669   0.734  12.318 -0.3878 -0.3280 -1.0653
 7162SOL     OW32947   1.434   1.256   8.072  0.2300  0.1608 -0.1554
 7162SOL    HW132948   1.466   1.253   8.162  0.3838 -0.0056 -0.2163
 7162SOL    HW232949   1.406   1.172   8.037 -0.1934 -0.1328  0.9067
 7163SOL     OW32950   0.395   3.987   5.286  0.1810  0.6322 -0.1899
 7163SOL    HW132951   0.442   3.928   5.346  0.7592  0.4050 -0.8620
 7163SOL    HW232952   0.317   3.932   5.278  0.0472  0.8989 -0.7246
 7164SOL     OW32953   4.321   1.637   3.895  0.0509  0.2222 -0.4145
 7164SOL    HW132954   4.368   1.647   3.812 -0.2984 -2.1110 -0.8953
 7164SOL    HW232955   4.235   1.620   3.857 -1.0519  0.4854  2.0026
 7165SOL     OW32956   2.713   3.818   2.088 -0.2464 -0.2436 -0.6152
 7165SOL    HW132957   2.750   3.860   2.011 -1.1778 -0.3073 -1.0891
 7165SOL    HW232958   2.714   3.726   2.063  0.7214 -0.5747  0.6152
 7166SOL     OW32959   0.210   2.578   1.879  0.5356 -0.1066  0.8148
 7166SOL    HW132960   0.236   2.486   1.871  1.6180  0.3964 -1.5108
 7166SOL    HW232961   0.221   2.607   1.788  0.4082 -2.4756  0.0303
 7167SOL     OW32962   2.322   0.599   2.507  0.3053 -0.4973  0.3375
 7167SOL    HW132963   2.348   0.633   2.422  0.7377 -1.5906  0.0335
 7167SOL    HW232964   2.402   0.611   2.557  1.5962 -2.9196 -1.1611
 7168SOL     OW32965   1.130   2.617   3.057 -0.1684  0.4995  0.1721
 7168SOL    HW132966   1.085   2.546   3.103 -1.0195  1.7970  1.3170
 7168SOL    HW232967   1.096   2.604   2.968  0.1613  1.4937 -0.0986
 7169SOL     OW32968   1.702   1.729  11.258  0.0375 -0.2939  0.1602
 7169SOL    HW132969   1.777   1.749  11.203 -0.0411 -1.6421 -0.4447
 7169SOL    HW232970   1.632   1.769  11.207 -0.6245 -1.2322  0.3228
 7170SOL     OW32971   3.525   1.462   3.579 -0.1312  0.6782 -0.0195
 7170SOL    HW132972   3.470   1.408   3.636 -0.6164  2.3033  1.0239
 7170SOL    HW232973   3.458   1.495   3.520 -1.0099  0.0342  0.6169
 7171SOL     OW32974   0.653   2.613  11.571  0.5897 -0.0414  0.0719
 7171SOL    HW132975   0.596   2.680  11.535 -0.8592 -1.4248 -0.2239
 7171SOL    HW232976   0.612   2.594  11.655  0.6769 -4.1845 -0.7938
 7172SOL     OW32977   4.673   1.568   3.110  0.9162  0.0102 -0.5621
 7172SOL    HW132978   4.658   1.530   3.197  0.9529 -0.8879 -0.9496
 7172SOL    HW232979   0.010   1.503   3.074  2.2316  0.2523  1.1620
 7173SOL     OW32980   2.481   1.333   3.535  0.2211 -0.1220 -1.1042
 7173SOL    HW132981   2.437   1.266   3.482 -1.2587  0.7010 -0.9262
 7173SOL    HW232982   2.574   1.311   3.534 -0.3233 -2.4038 -1.0143
 7174SOL     OW32983   4.124   3.701   6.379  0.7203  0.1147  0.3891
 7174SOL    HW132984   4.178   3.628   6.408  0.1463  0.4613  2.3040
 7174SOL    HW232985   4.047   3.685   6.433 -0.4418  0.6875 -1.1136
 7175SOL     OW32986   4.275   3.975   3.863  0.3682 -0.2420  0.1186
 7175SOL    HW132987   4.253   4.011   3.778  1.8481 -0.1598 -0.2278
 7175SOL    HW232988   4.362   3.938   3.847 -1.5562 -4.7093  0.1701
 7176SOL     OW32989   2.008   1.880   2.782 -0.0184  0.0720 -0.4264
 7176SOL    HW132990   1.995   1.786   2.769  3.3771 -0.5203  0.4241
 7176SOL    HW232991   2.098   1.889   2.751 -0.1780 -1.2537 -1.2898
 7177SOL     OW32992   0.927   2.406   3.035  0.3107 -0.0949 -0.0967
 7177SOL    HW132993   0.954   2.329   2.985 -0.8494 -0.9632  0.5956
 7177SOL    HW232994   0.840   2.375   3.062  0.0180  1.0598  0.2922
 7178SOL     OW32995   0.934   1.707   1.519  0.1877 -0.2117  0.0785
 7178SOL    HW132996   0.874   1.635   1.539  0.3925  0.3372  2.6770
 7178SOL    HW232997   0.902   1.729   1.432  1.0233  1.6139  0.2304
 7179SOL     OW32998   0.342   3.201   4.862  0.2625 -0.5119  0.1085
 7179SOL    HW132999   0.407   3.259   4.903 -2.0295  1.2828  1.2129
 7179SOL    HW233000   0.301   3.271   4.812 -0.6248 -1.0295  0.1259
 7180SOL     OW33001   4.026   4.480   7.815 -0.3464  0.2424  0.4976
 7180SOL    HW133002   4.006   4.393   7.850  1.3125 -0.5604 -0.5816
 7180SOL    HW233003   4.068   4.511   7.895  0.8475  1.2052 -0.5020
 7181SOL     OW33004   3.073   3.825  10.856 -0.1814 -0.2236 -0.3687
 7181SOL    HW133005   3.097   3.851  10.767  1.0629  0.0368  0.0453
 7181SOL    HW233006   2.984   3.796  10.836 -0.4888  0.5372 -0.1031
 7182SOL     OW33007   0.537   0.723   5.779  0.0900 -0.2804  0.3962
 7182SOL    HW133008   0.454   0.675   5.784  0.0634 -0.4331 -1.5526
 7182SOL    HW233009   0.524   0.798   5.837 -1.5741 -0.2558  0.0032
 7183SOL     OW33010   2.704   4.375   0.322  0.4470  0.2000  0.1333
 7183SOL    HW133011   2.666   4.408   0.241  0.7182 -2.1825 -0.9572
 7183SOL    HW233012   2.691   4.281   0.311 -2.1691  0.7348 -1.2913
 7184SOL     OW33013   2.727   0.805  17.406 -0.0405  0.4318  0.9036
 7184SOL    HW133014   2.732   0.879  17.466 -0.6570  1.0732  0.1598
 7184SOL    HW233015   2.636   0.820  17.382  0.7423  1.5115 -1.3966
 7185SOL     OW33016   2.117   1.245   8.150 -0.0977  0.3088 -0.0612
 7185SOL    HW133017   2.039   1.234   8.205 -0.0607  0.7254  0.0754
 7185SOL    HW233018   2.108   1.171   8.090  1.4906 -1.0723  1.3992
 7186SOL     OW33019   0.973   3.952   9.473 -0.5756 -0.1841  0.0601
 7186SOL    HW133020   0.951   4.013   9.544  0.7177 -1.0028  1.1638
 7186SOL    HW233021   1.034   3.898   9.523 -0.7244 -0.7289 -0.3600
 7187SOL     OW33022   0.195   4.572   4.427  0.3113 -0.0953  0.3498
 7187SOL    HW133023   0.100   4.571   4.415  0.1258  0.5926  1.6954
 7187SOL    HW233024   0.218   4.481   4.409  1.6753  0.1838  0.6800
 7188SOL     OW33025   4.486   2.690  13.688  0.2597  0.2283  0.1289
 7188SOL    HW133026   4.512   2.752  13.756  1.7008 -1.7441  1.3501
 7188SOL    HW233027   4.396   2.716  13.670  0.3656  0.1637 -0.5184
 7189SOL     OW33028   1.130   0.686   3.017 -0.3776  0.1918 -0.1844
 7189SOL    HW133029   1.219   0.659   3.042 -0.5695  0.2099  0.5088
 7189SOL    HW233030   1.110   0.636   2.938  1.3946  0.2766 -0.6842
 7190SOL     OW33031   3.921   2.396  15.129  0.5867 -0.1049 -0.0910
 7190SOL    HW133032   3.863   2.330  15.168 -1.0235  0.4324 -1.5808
 7190SOL    HW233033   3.850   2.450  15.094  1.2197  0.8309  0.0590
 7191SOL     OW33034   3.083   2.412   3.011 -0.0467  0.0371  0.2619
 7191SOL    HW133035   2.993   2.438   2.993 -0.0937 -0.7166 -0.5810
 7191SOL    HW233036   3.083   2.368   3.096 -0.5267  1.8156  1.1994
 7192SOL     OW33037   4.170   0.577  16.954 -0.1808  0.2584  0.6255
 7192SOL    HW133038   4.141   0.658  16.912 -0.2403  0.4299  0.9950
 7192SOL    HW233039   4.224   0.538  16.886  0.2618 -0.1731  1.2212
 7193SOL     OW33040   1.049   1.923  11.475 -0.6337 -0.6116  0.1914
 7193SOL    HW133041   1.045   1.865  11.550  0.3516 -0.2800  0.4971
 7193SOL    HW233042   0.962   1.919  11.436  0.8103 -1.6732 -2.9612
 7194SOL     OW33043   2.791   3.352   4.225  0.5918  0.1980  0.0386
 7194SOL    HW133044   2.787   3.408   4.147  2.2806 -0.6109 -0.6353
 7194SOL    HW233045   2.709   3.306   4.210 -0.0818  1.2901  0.4182
 7195SOL     OW33046   1.526   2.322   1.090 -0.0988  0.3629 -0.0496
 7195SOL    HW133047   1.592   2.356   1.151 -0.5549 -2.9916  2.3249
 7195SOL    HW233048   1.478   2.252   1.134 -1.1262  0.1960 -1.4490
 7196SOL     OW33049   3.656   2.064   3.702 -0.1264 -0.1607  0.1573
 7196SOL    HW133050   3.668   2.159   3.698 -1.5758 -0.0396 -0.9914
 7196SOL    HW233051   3.571   2.072   3.746  0.0617  0.7228  0.3571
 7197SOL     OW33052   3.854   4.682   6.398  0.1887 -0.2386  0.4851
 7197SOL    HW133053   3.888   4.707   6.484 -0.2005  1.2809  0.1895
 7197SOL    HW233054   3.893   0.027   6.344 -2.5950  1.5288  0.6772
 7198SOL     OW33055   4.592   3.393   0.281 -0.0233 -0.2126 -0.5457
 7198SOL    HW133056   4.642   3.417   0.203  0.9168  0.2218  0.1843
 7198SOL    HW233057   4.645   3.437   0.348  0.2288 -2.3821  0.6977
 7199SOL     OW33058   2.290   1.876   6.330  0.3654  0.1162  0.4762
 7199SOL    HW133059   2.218   1.821   6.361  1.4093 -0.8765  1.1154
 7199SOL    HW233060   2.253   1.964   6.338  1.9352  0.7141  1.0443
 7200SOL     OW33061   4.318   3.070  14.284 -0.5939  0.4071  0.3808
 7200SOL    HW133062   4.350   2.999  14.227 -0.2796 -0.4914  1.6704
 7200SOL    HW233063   4.386   3.136  14.290 -0.0942  0.0099 -0.8210
 7201SOL     OW33064   1.345   3.675   6.672  0.2344 -0.3317  0.1858
 7201SOL    HW133065   1.264   3.726   6.666  0.6612  0.5576  1.9200
 7201SOL    HW233066   1.404   3.749   6.660 -1.7702  1.3224  0.4304
 7202SOL     OW33067   3.328   0.663  10.158 -0.1067  0.3738 -0.0424
 7202SOL    HW133068   3.355   0.755  10.158 -0.9874  0.6354 -0.8965
 7202SOL    HW233069   3.258   0.662  10.093  0.5147  1.1334 -0.7100
 7203SOL     OW33070   2.174   0.286  13.783  0.2131  0.3954  0.2150
 7203SOL    HW133071   2.244   0.223  13.768  1.2048  0.6230  3.6971
 7203SOL    HW233072   2.188   0.334  13.702 -0.1501 -0.4646 -0.3503
 7204SOL     OW33073   2.052   1.871   5.374  0.6441 -0.2536  0.0790
 7204SOL    HW133074   2.136   1.840   5.339  1.3230  1.7621 -0.0537
 7204SOL    HW233075   2.087   1.939   5.431  0.8937  1.9258 -2.6445
 7205SOL     OW33076   2.281   4.641   3.359  0.2295 -0.2771  0.0812
 7205SOL    HW133077   2.335   4.624   3.436  1.5156 -0.0105 -0.7729
 7205SOL    HW233078   2.194   4.609   3.385  0.3922 -0.1190  0.8266
 7206SOL     OW33079   2.723   2.369  14.908 -0.2736 -0.5818 -0.5155
 7206SOL    HW133080   2.816   2.361  14.884  0.8107  1.6471  2.9252
 7206SOL    HW233081   2.696   2.281  14.933 -1.0457  0.4054  2.1538
 7207SOL     OW33082   1.893   1.163  13.789 -1.1003  0.2358 -0.8052
 7207SOL    HW133083   1.904   1.113  13.870  0.2409  1.1213 -0.4504
 7207SOL    HW233084   1.848   1.087  13.750  1.2723 -0.7677 -1.5870
 7208SOL     OW33085   1.873   4.070   6.278 -0.1002 -0.1639 -0.5182
 7208SOL    HW133086   1.829   4.147   6.312 -0.8502 -0.1298 -1.5683
 7208SOL    HW233087   1.799   4.009   6.273  0.3391 -0.5934 -1.8518
 7209SOL     OW33088   2.728   0.097   9.455 -1.0960 -0.3616  0.1863
 7209SOL    HW133089   2.704   0.055   9.373  0.6431 -0.0556 -0.4768
 7209SOL    HW233090   2.727   0.020   9.513 -4.4257 -2.0168 -2.0241
 7210SOL     OW33091   1.296   3.501  11.826  0.3927  0.3929  0.2654
 7210SOL    HW133092   1.368   3.494  11.764  0.4442  1.3078  0.2172
 7210SOL    HW233093   1.335   3.499  11.914  0.2126  1.4475  0.3793
 7211SOL     OW33094   1.088   4.320   1.928 -0.3694  0.3228 -0.2397
 7211SOL    HW133095   1.093   4.398   1.984  0.8973 -0.3110  0.5174
 7211SOL    HW233096   0.997   4.289   1.930  0.2587 -1.4233  0.6987
 7212SOL     OW33097   2.745   3.508   4.006 -0.0758  0.1595  0.0082
 7212SOL    HW133098   2.820   3.567   4.015  2.0323 -2.5201 -0.0131
 7212SOL    HW233099   2.779   3.466   3.927 -1.9387 -0.7669 -0.3007
 7213SOL     OW33100   2.044   1.921  12.091  0.0156  0.4514  0.2762
 7213SOL    HW133101   2.081   1.863  12.024 -0.0397 -0.2444  0.8489
 7213SOL    HW233102   2.022   1.861  12.162  2.1575  0.0569  0.5986
 7214SOL     OW33103   0.829   2.821  10.645  0.7621  0.4133  0.2519
 7214SOL    HW133104   0.839   2.734  10.684 -1.4016  0.2305  0.4021
 7214SOL    HW233105   0.743   2.804  10.607  0.6196  0.5888  0.5018
 7215SOL     OW33106   0.800   2.629   2.935  0.0019  0.0758 -0.2788
 7215SOL    HW133107   0.776   2.669   3.018  1.8664  0.7647 -0.0654
 7215SOL    HW233108   0.865   2.570   2.973 -1.3838 -1.6653 -0.5808
 7216SOL     OW33109   2.353   4.493   1.078 -0.7198  0.2452  0.5207
 7216SOL    HW133110   2.363   4.434   1.003 -1.5367  0.7177  0.0354
 7216SOL    HW233111   2.402   4.568   1.044  0.9523 -0.7406  0.7544
 7217SOL     OW33112   1.256   2.663  12.812  0.1768  0.5847  0.1539
 7217SOL    HW133113   1.188   2.727  12.836 -0.9194 -0.6934  0.4594
 7217SOL    HW233114   1.205   2.611  12.750 -3.1403  1.3641  2.1674
 7218SOL     OW33115   4.167   0.434  10.478 -0.5440  0.1492  0.5129
 7218SOL    HW133116   4.221   0.447  10.555  1.0338  2.7101 -0.9967
 7218SOL    HW233117   4.141   0.342  10.483  1.2125 -0.3322  0.7189
 7219SOL     OW33118   2.899   4.075   5.938 -0.3251 -0.4797 -0.6484
 7219SOL    HW133119   2.851   4.052   5.858  0.4367 -1.2100 -0.8967
 7219SOL    HW233120   2.973   4.014   5.938 -0.9282 -1.2162 -1.3726
 7220SOL     OW33121   1.353   3.820   2.808  0.3415 -0.3452  0.1311
 7220SOL    HW133122   1.380   3.908   2.835 -0.6840  0.0691 -0.1928
 7220SOL    HW233123   1.355   3.773   2.892  2.3746 -1.6017 -0.6294
 7221SOL     OW33124   3.971   0.640   3.191 -0.5783  0.0449 -0.2673
 7221SOL    HW133125   3.983   0.731   3.164  3.7912 -0.8378 -1.3354
 7221SOL    HW233126   3.965   0.603   3.103  1.3157 -1.2646  0.1474
 7222SOL     OW33127   2.696   0.843   9.904  0.3222  0.3916  0.2478
 7222SOL    HW133128   2.742   0.763   9.877 -3.0067 -1.2959 -0.4420
 7222SOL    HW233129   2.687   0.832   9.999 -1.1350  3.0406  0.4201
 7223SOL     OW33130   0.838   4.357   4.042 -0.3396 -0.2481 -0.8085
 7223SOL    HW133131   0.774   4.366   4.113  0.1512 -1.7110 -0.1673
 7223SOL    HW233132   0.869   4.270   4.067 -0.7379  0.2560  1.4260
 7224SOL     OW33133   2.456   1.779   5.894  0.5503 -0.4153  0.3060
 7224SOL    HW133134   2.379   1.749   5.944 -0.0224  0.7574  0.1260
 7224SOL    HW233135   2.521   1.806   5.959  2.1667 -1.3932 -0.9091
 7225SOL     OW33136   4.703   1.925   7.685  0.3549 -0.5659  0.7922
 7225SOL    HW133137   0.058   1.872   7.665 -1.3316 -2.9719  0.6572
 7225SOL    HW233138   4.639   1.860   7.657 -3.2633  4.2542 -2.1661
 7226SOL     OW33139   2.339   2.380  16.793 -0.9556  0.1773  1.0169
 7226SOL    HW133140   2.286   2.386  16.873 -1.9881 -3.6951  0.6225
 7226SOL    HW233141   2.423   2.401  16.835 -0.1890 -1.4274  0.3009
 7227SOL     OW33142   3.684   0.583   6.831  0.4125 -0.3757 -0.0138
 7227SOL    HW133143   3.768   0.621   6.856 -0.0956  0.6479  0.1474
 7227SOL    HW233144   3.626   0.603   6.904 -0.1960 -0.8759 -0.3522
 7228SOL     OW33145   1.321   3.581  15.321  0.8382  0.0346 -0.3624
 7228SOL    HW133146   1.324   3.652  15.386  1.4199 -0.2249 -0.1125
 7228SOL    HW233147   1.396   3.533  15.355  1.4592 -0.1162 -1.9594
 7229SOL     OW33148   1.415   3.229   0.947  0.2048 -0.0351 -0.1497
 7229SOL    HW133149   1.376   3.305   0.992 -2.3578  0.1257 -2.5848
 7229SOL    HW233150   1.407   3.257   0.856  0.8157  0.0611 -0.1697
 7230SOL     OW33151   2.277   2.691  10.397 -0.8583  0.1572 -0.9857
 7230SOL    HW133152   2.270   2.715  10.489 -3.3093 -2.5671 -0.4597
 7230SOL    HW233153   2.273   2.772  10.347 -2.1567  0.7673  0.1096
 7231SOL     OW33154   4.402   2.608   1.967 -0.6389 -0.5082 -0.1104
 7231SOL    HW133155   4.487   2.593   2.008 -0.1225  1.8839 -0.2687
 7231SOL    HW233156   4.362   2.671   2.026 -0.2888 -2.1231  1.8351
 7232SOL     OW33157   2.034   4.261  11.882  0.4461  0.7088  0.0172
 7232SOL    HW133158   2.022   4.355  11.871 -0.3652  0.7672  1.3841
 7232SOL    HW233159   1.993   4.228  11.802 -1.1531  1.4987  0.4925
 7233SOL     OW33160   1.211   1.141   2.669  0.1917  0.2032 -0.6234
 7233SOL    HW133161   1.151   1.150   2.743  0.3156 -0.0715 -0.4911
 7233SOL    HW233162   1.245   1.055   2.695  1.2896  0.7984 -0.0905
 7234SOL     OW33163   3.048   3.667   5.184  0.5715  0.0909  0.3579
 7234SOL    HW133164   2.957   3.664   5.213  0.4093 -0.5554 -0.2063
 7234SOL    HW233165   3.032   3.697   5.095  1.4577  0.0435  0.1744
 7235SOL     OW33166   2.914   4.281   5.441  0.2303 -0.0325  0.1381
 7235SOL    HW133167   2.960   4.220   5.498  0.9742 -1.3866 -1.9250
 7235SOL    HW233168   2.897   4.216   5.373 -0.0535  2.4924 -2.1887
 7236SOL     OW33169   1.564   0.753  12.963  0.7553  0.5464 -0.0211
 7236SOL    HW133170   1.605   0.808  13.030  1.7119  3.0255 -2.6136
 7236SOL    HW233171   1.621   0.676  12.971  1.0485  0.7278 -0.3518
 7237SOL     OW33172   4.693   0.673   1.234 -0.6286 -0.4369  0.0073
 7237SOL    HW133173   0.043   0.612   1.246  0.8828  1.1567 -1.0233
 7237SOL    HW233174   4.661   0.669   1.144  0.8169 -1.2339 -0.4675
 7238SOL     OW33175   4.301   1.018   7.114  0.1184 -0.0206  0.4619
 7238SOL    HW133176   4.303   1.114   7.109  0.7221 -0.0398  0.3165
 7238SOL    HW233177   4.319   1.000   7.206 -0.8719 -0.1005  0.6352
 7239SOL     OW33178   3.857   3.322   6.412 -0.3719 -0.2532  0.2972
 7239SOL    HW133179   3.807   3.312   6.331 -0.0973 -0.0605  0.1043
 7239SOL    HW233180   3.838   3.413   6.435  2.1061  0.4612 -0.5198
 7240SOL     OW33181   2.049   0.593  16.895  0.2148 -0.4113 -0.2373
 7240SOL    HW133182   2.026   0.645  16.972  0.5230  2.6970 -2.2150
 7240SOL    HW233183   2.123   0.649  16.871 -0.9021  1.0051 -0.4194
 7241SOL     OW33184   2.150   3.741  12.375 -0.7458  0.0763 -0.1829
 7241SOL    HW133185   2.142   3.647  12.357 -0.4077 -0.1122  0.6545
 7241SOL    HW233186   2.104   3.753  12.458 -0.6878 -0.5092 -0.0636
 7242SOL     OW33187   3.987   1.610   6.516 -0.5602 -0.0510 -0.1672
 7242SOL    HW133188   4.010   1.696   6.481 -1.8662  1.1813  1.9803
 7242SOL    HW233189   3.893   1.625   6.506 -0.5741 -0.2872 -0.3865
 7243SOL     OW33190   0.230   0.728   7.891 -0.4050 -0.2234  0.3648
 7243SOL    HW133191   0.182   0.694   7.967  1.2573  0.5370  1.7805
 7243SOL    HW233192   0.319   0.702   7.918 -0.6852 -0.2769  1.2535
 7244SOL     OW33193   2.243   3.752  11.796  0.0380  0.3157  0.0163
 7244SOL    HW133194   2.150   3.760  11.821  0.4538  1.4325  1.2068
 7244SOL    HW233195   2.233   3.667  11.753  1.1031 -0.3719  1.1347
 7245SOL     OW33196   3.596   3.244   7.658 -0.1663 -0.2972 -0.6841
 7245SOL    HW133197   3.689   3.242   7.638 -0.0860  0.5270 -0.4303
 7245SOL    HW233198   3.567   3.292   7.580 -1.3552 -0.1555 -0.1606
 7246SOL     OW33199   4.095   0.541   5.764 -0.4452  0.2033 -0.0179
 7246SOL    HW133200   4.086   0.599   5.839  0.5335 -0.6982  0.7981
 7246SOL    HW233201   4.024   0.572   5.707 -1.3216 -0.8090  0.5285
 7247SOL     OW33202   0.421   1.265   4.767  0.0017  0.1579 -0.0098
 7247SOL    HW133203   0.447   1.278   4.675  0.0763  1.3843  0.1953
 7247SOL    HW233204   0.474   1.321   4.823 -1.0682 -1.7488  2.8972
 7248SOL     OW33205   3.977   0.621   7.235  0.0451  0.4909 -0.3617
 7248SOL    HW133206   4.026   0.661   7.307 -2.1212  1.2548  0.6975
 7248SOL    HW233207   4.020   0.658   7.158  1.4274  2.4016  1.3469
 7249SOL     OW33208   1.422   3.523   8.193  0.3899 -0.2103  0.6539
 7249SOL    HW133209   1.483   3.525   8.266 -0.1440 -1.3143  1.1117
 7249SOL    HW233210   1.375   3.447   8.224 -1.7085  0.8519  0.0752
 7250SOL     OW33211   0.753   2.293   9.081  0.0423 -0.2829  0.2456
 7250SOL    HW133212   0.689   2.269   9.148  0.3257 -2.6341 -0.3336
 7250SOL    HW233213   0.686   2.308   9.013 -0.1042 -2.0995  0.0054
 7251SOL     OW33214   2.251   0.378   1.341 -0.0660  0.8527  0.9350
 7251SOL    HW133215   2.233   0.383   1.435  0.7148  2.6293  0.9940
 7251SOL    HW233216   2.245   0.467   1.308  1.1507  0.1644 -1.1911
 7252SOL     OW33217   1.310   2.546   2.550  0.6505  0.5912 -0.1247
 7252SOL    HW133218   1.281   2.632   2.522  0.6523  0.7324  0.3054
 7252SOL    HW233219   1.270   2.493   2.481  1.7809  0.1056 -0.4118
 7253SOL     OW33220   2.466   4.394  15.245 -0.0130  0.2350 -0.1524
 7253SOL    HW133221   2.454   4.303  15.221 -1.7211 -0.4454  3.1914
 7253SOL    HW233222   2.530   4.423  15.181  0.6082 -0.7842  0.0168
 7254SOL     OW33223   1.616   0.890   8.292 -0.4786  0.3491  0.5521
 7254SOL    HW133224   1.584   0.955   8.355  2.7895  2.9429 -0.4949
 7254SOL    HW233225   1.552   0.820   8.305 -0.8234  0.2734 -1.4977
 7255SOL     OW33226   4.405   0.842   5.774  0.4328 -0.3994 -0.3566
 7255SOL    HW133227   4.360   0.767   5.736 -1.9107  0.5936  0.4982
 7255SOL    HW233228   4.491   0.822   5.736 -0.5810 -0.0467 -2.7779
 7256SOL     OW33229   0.669   0.501   5.268 -0.1042  0.6750  0.5642
 7256SOL    HW133230   0.730   0.561   5.226  0.3768  0.2775  0.6859
 7256SOL    HW233231   0.600   0.475   5.207 -2.1276  0.2365  3.0380
 7257SOL     OW33232   3.962   3.000  17.075  0.0913  0.3714 -0.5258
 7257SOL    HW133233   4.015   3.051  17.014  0.6567  0.5904  0.1389
 7257SOL    HW233234   3.875   3.026  17.047 -0.6321 -0.8604  0.5535
 7258SOL     OW33235   3.108   2.638   9.169 -0.3109  0.1927 -0.2151
 7258SOL    HW133236   3.154   2.564   9.130 -1.5135 -0.9647  0.6000
 7258SOL    HW233237   3.069   2.603   9.249  0.2066  1.6776  0.7041
 7259SOL     OW33238   3.713   2.799   4.048  0.0112 -0.2592  0.2218
 7259SOL    HW133239   3.700   2.874   3.990  0.2212 -0.0429  0.4529
 7259SOL    HW233240   3.640   2.742   4.025 -0.7103  1.2859 -1.2489
 7260SOL     OW33241   1.449   1.370   3.162 -0.2319 -0.1457 -0.3787
 7260SOL    HW133242   1.429   1.280   3.134 -0.9831  0.0274 -0.4091
 7260SOL    HW233243   1.544   1.371   3.150 -0.2041  1.5045 -0.0151
 7261SOL     OW33244   0.381   0.797  10.995  0.5462 -0.0864  0.2478
 7261SOL    HW133245   0.368   0.707  11.027  2.5054 -0.1505  0.8513
 7261SOL    HW233246   0.350   0.779  10.906 -0.8617  0.9606  0.5198
 7262SOL     OW33247   4.330   1.738   5.171 -0.0351 -0.2834  0.4890
 7262SOL    HW133248   4.315   1.832   5.180  0.9541 -0.3010  2.5510
 7262SOL    HW233249   4.295   1.722   5.084 -1.7287  1.3432  0.8821
 7263SOL     OW33250   2.231   1.484   7.669  0.3231  0.0446  0.5303
 7263SOL    HW133251   2.288   1.541   7.617  1.0312  0.7048  2.0284
 7263SOL    HW233252   2.161   1.549   7.679 -1.5801 -2.1836  1.4432
 7264SOL     OW33253   1.992   2.582   9.568  0.2510 -0.2977 -0.5862
 7264SOL    HW133254   2.018   2.652   9.627 -0.6264  0.3521 -0.9717
 7264SOL    HW233255   2.055   2.514   9.592  0.7066 -0.0562 -1.0821
 7265SOL     OW33256   0.586   3.917   5.857 -0.4744 -0.2918  0.0785
 7265SOL    HW133257   0.552   3.996   5.815  0.4730  1.9373  3.5329
 7265SOL    HW233258   0.523   3.903   5.927  0.9081 -2.1930  0.9568
 7266SOL     OW33259   1.886   1.506   7.960 -0.3452 -0.0654  0.1534
 7266SOL    HW133260   1.888   1.584   7.906 -1.0126  0.0351  0.2743
 7266SOL    HW233261   1.873   1.445   7.887  1.5429  0.6095 -0.7374
 7267SOL     OW33262   1.084   2.526   8.168  0.4383  0.2694 -0.4630
 7267SOL    HW133263   1.137   2.486   8.100 -0.6726  0.3483 -1.3831
 7267SOL    HW233264   1.136   2.565   8.237 -1.5756  2.7289 -0.3213
 7268SOL     OW33265   0.717   2.282   3.963  0.5934 -0.6125 -0.0248
 7268SOL    HW133266   0.722   2.372   3.931 -2.0868 -0.6850 -0.7184
 7268SOL    HW233267   0.658   2.241   3.899  0.3176  1.9420 -1.4031
 7269SOL     OW33268   4.017   4.390   8.305 -0.1727  0.3070  0.4616
 7269SOL    HW133269   4.069   4.372   8.383  0.7565  2.3544  0.3189
 7269SOL    HW233270   4.021   4.307   8.258  2.6159  0.8678 -0.3327
 7270SOL     OW33271   3.815   4.483  14.280 -0.3309  0.0492  0.4200
 7270SOL    HW133272   3.822   4.399  14.327  1.3525  0.8029  1.5181
 7270SOL    HW233273   3.883   4.526  14.330  1.2651 -0.3750 -1.3956
 7271SOL     OW33274   3.895   3.272   7.906 -0.8206 -0.2511 -0.2145
 7271SOL    HW133275   3.802   3.296   7.912 -0.8083 -0.2015 -0.2214
 7271SOL    HW233276   3.905   3.230   7.992 -1.0317  0.6896  0.2759
 7272SOL     OW33277   3.449   0.796  13.280 -0.4356 -0.4319  0.1880
 7272SOL    HW133278   3.407   0.759  13.202 -1.5855  2.3353 -0.5229
 7272SOL    HW233279   3.479   0.711  13.310  2.6759  0.7433  0.3724
 7273SOL     OW33280   1.128   2.757   5.881  0.4908  0.2383 -0.1814
 7273SOL    HW133281   1.074   2.695   5.833  0.1945 -0.2338  0.7642
 7273SOL    HW233282   1.085   2.743   5.966  1.0261 -1.0473 -0.1200
 7274SOL     OW33283   2.879   0.493  14.009  0.1905 -0.3549  0.2729
 7274SOL    HW133284   2.963   0.464  14.047  0.9643 -0.0097 -1.1652
 7274SOL    HW233285   2.887   0.586  13.990 -0.9046 -0.2244  0.4577
 7275SOL     OW33286   2.864   2.999   8.285  0.0781  0.2556  0.2037
 7275SOL    HW133287   2.888   2.921   8.334  3.2399  0.6778 -0.6215
 7275SOL    HW233288   2.905   3.061   8.345 -1.8504  1.1513  0.5934
 7276SOL     OW33289   3.501   4.113   8.773  0.0614 -0.6344 -0.4150
 7276SOL    HW133290   3.409   4.108   8.747 -0.9414  1.9764  2.5785
 7276SOL    HW233291   3.522   4.024   8.745  0.6413 -0.0275 -1.8864
 7277SOL     OW33292   3.355   4.554   4.968 -0.1504  0.0653  0.0717
 7277SOL    HW133293   3.432   4.537   5.023  0.0185  1.0129  0.1225
 7277SOL    HW233294   3.364   4.487   4.900  0.4008 -1.1861  1.3833
 7278SOL     OW33295   1.222   0.458   7.947  0.2618 -0.3859 -0.5382
 7278SOL    HW133296   1.290   0.525   7.947  1.5424 -1.6925 -0.6176
 7278SOL    HW233297   1.170   0.494   8.019  1.9808 -1.6666  1.3499
 7279SOL     OW33298   1.506   0.148  16.592  0.5059  0.1987 -0.0178
 7279SOL    HW133299   1.436   0.213  16.600  2.4637  2.1164  1.7447
 7279SOL    HW233300   1.585   0.202  16.588  1.2952 -0.9878 -0.5002
 7280SOL     OW33301   1.676   3.297   7.739  0.1058  0.3014  0.2052
 7280SOL    HW133302   1.606   3.334   7.792 -0.1949 -1.5521  1.1139
 7280SOL    HW233303   1.743   3.288   7.806 -0.0067 -1.2640  0.1147
 7281SOL     OW33304   2.650   1.045   0.105 -0.2786  0.1195 -0.5643
 7281SOL    HW133305   2.656   1.141   0.105 -2.0696  0.2581 -2.7396
 7281SOL    HW233306   2.615   1.035   0.016  0.8709 -0.8378 -0.9142
 7282SOL     OW33307   4.550   3.720   5.769 -0.1121  0.4069  0.0206
 7282SOL    HW133308   4.587   3.635   5.743 -4.2346 -0.6557 -2.3961
 7282SOL    HW233309   4.462   3.727   5.732 -0.2614  2.8912  0.8605
 7283SOL     OW33310   1.259   4.137   8.196  0.3600  0.3304  0.0537
 7283SOL    HW133311   1.206   4.118   8.273  0.1505 -0.0936 -0.2017
 7283SOL    HW233312   1.212   4.212   8.158  1.1790  0.1653 -1.3024
 7284SOL     OW33313   1.348   1.470  14.792  0.2275 -0.5496  0.1676
 7284SOL    HW133314   1.440   1.475  14.817 -0.4184  2.2280  2.0531
 7284SOL    HW233315   1.315   1.424  14.870  0.9644  1.9759  1.9677
 7285SOL     OW33316   1.459   4.654   2.666 -0.2391  0.0311  0.4629
 7285SOL    HW133317   1.455   4.629   2.758  0.2965  2.3794  1.1144
 7285SOL    HW233318   1.415   4.575   2.632  1.9207 -0.3804 -1.4194
 7286SOL     OW33319   1.014   0.342  12.934 -0.3789 -0.2837  0.2320
 7286SOL    HW133320   0.961   0.325  12.856  0.6801  1.0601 -0.7831
 7286SOL    HW233321   1.072   0.267  12.944  0.4669  0.0890 -1.8787
 7287SOL     OW33322   1.443   3.729   0.892 -0.3411 -0.1528 -0.6042
 7287SOL    HW133323   1.411   3.670   0.824 -0.7712  0.0599 -0.5863
 7287SOL    HW233324   1.483   3.788   0.828  0.9334 -0.3579 -0.0037
 7288SOL     OW33325   4.253   1.297  16.876 -0.0533  0.8478  0.3765
 7288SOL    HW133326   4.174   1.286  16.929 -0.8153  0.6850 -0.7736
 7288SOL    HW233327   4.217   1.267  16.793 -2.9942 -1.8654  2.6492
 7289SOL     OW33328   3.755   4.416  14.031  0.4293 -0.1750 -0.3544
 7289SOL    HW133329   3.775   4.439  14.122  2.6503 -0.9989 -0.6413
 7289SOL    HW233330   3.737   4.322  14.031 -1.4021  0.1624  0.2746
 7290SOL     OW33331   1.155   3.714  10.214  0.1252  0.1650 -0.2981
 7290SOL    HW133332   1.233   3.658  10.220  1.1781  1.6153 -0.5299
 7290SOL    HW233333   1.094   3.656  10.167  2.3983 -1.1064 -1.7128
 7291SOL     OW33334   4.685   0.053   3.244  0.0112 -0.5566  0.0819
 7291SOL    HW133335   4.708   0.058   3.337 -0.2839  1.5823  0.0379
 7291SOL    HW233336   4.645   0.138   3.227  2.2983  0.2893 -1.0851
 7292SOL     OW33337   0.371   0.751   8.358 -0.5001 -0.3145 -0.2653
 7292SOL    HW133338   0.435   0.687   8.390 -1.2165 -0.7521  0.2917
 7292SOL    HW233339   0.432   0.812   8.317 -0.6998  0.6622  0.8933
 7293SOL     OW33340   3.201   2.105   4.109 -0.2837  0.3574 -0.1860
 7293SOL    HW133341   3.240   2.134   4.192  1.0352 -2.0133  0.0049
 7293SOL    HW233342   3.263   2.035   4.091  0.6712  1.0020  0.5613
 7294SOL     OW33343   3.522   3.301   9.727  0.0647 -0.8178 -0.2452
 7294SOL    HW133344   3.449   3.254   9.768 -0.1449 -0.3713 -0.1075
 7294SOL    HW233345   3.550   3.237   9.661 -0.6272  1.1202 -2.4124
 7295SOL     OW33346   4.009   1.366   5.515  0.3032 -0.2149 -0.5216
 7295SOL    HW133347   4.017   1.451   5.470  2.6579 -0.1431  0.0410
 7295SOL    HW233348   3.933   1.388   5.568 -0.0677 -0.2679 -1.0278
 7296SOL     OW33349   1.940   0.605   3.507 -1.0171 -0.5260  1.0088
 7296SOL    HW133350   2.003   0.662   3.553 -2.0320 -0.1856  1.9751
 7296SOL    HW233351   2.007   0.542   3.480  0.7858  0.9449  1.9990
 7297SOL     OW33352   1.048   1.511   7.175  0.1943  0.4332 -0.3567
 7297SOL    HW133353   0.988   1.473   7.112 -0.4198 -1.8452  1.6358
 7297SOL    HW233354   0.986   1.515   7.247  0.2549  0.1385 -0.2905
 7298SOL     OW33355   4.692   4.581  11.943  0.1360 -0.4549 -0.9316
 7298SOL    HW133356   4.704   4.576  12.038 -2.2203  0.0583 -0.6290
 7298SOL    HW233357   4.700   4.676  11.934 -0.5996 -0.5504 -2.5759
 7299SOL     OW33358   1.132   0.328  13.429  0.0836  0.1550 -0.1170
 7299SOL    HW133359   1.186   0.304  13.354  2.9135  3.7440  0.7403
 7299SOL    HW233360   1.134   0.247  13.480 -0.4397  0.6080  0.6257
 7300SOL     OW33361   2.436   1.200   8.498 -0.1430  0.0713  0.3650
 7300SOL    HW133362   2.422   1.249   8.416 -1.8985  1.2621  1.3891
 7300SOL    HW233363   2.431   1.108   8.470 -0.5883  0.3946 -0.6167
 7301SOL     OW33364   3.768   3.632   8.142 -0.3829  0.3124  0.7184
 7301SOL    HW133365   3.793   3.542   8.161  1.8126  0.9336  0.7426
 7301SOL    HW233366   3.696   3.651   8.203 -1.3083 -2.2184  0.4192
 7302SOL     OW33367   1.677   4.584   8.444  0.3598 -0.2301 -0.1441
 7302SOL    HW133368   1.712   4.569   8.356 -0.9615  0.7097 -0.8221
 7302SOL    HW233369   1.753   4.556   8.495 -0.4049  1.1189  1.7078
 7303SOL     OW33370   4.678   4.126  16.130 -0.0881  0.3278 -1.2396
 7303SOL    HW133371   4.603   4.184  16.142 -0.7944 -0.4778 -1.7902
 7303SOL    HW233372   0.006   4.139  16.210 -0.1936 -2.8781 -0.6759
 7304SOL     OW33373   0.593   4.346   6.548  0.3448 -0.8272 -0.0206
 7304SOL    HW133374   0.613   4.374   6.459 -2.6701  2.5163  0.3338
 7304SOL    HW233375   0.674   4.298   6.564  0.5542 -0.0884  1.1147
 7305SOL     OW33376   3.805   4.207  13.764 -0.3328  0.2331 -0.8190
 7305SOL    HW133377   3.746   4.206  13.689 -1.8095 -1.7779  0.3630
 7305SOL    HW233378   3.874   4.176  13.705  0.4397  2.2436 -0.9713
 7306SOL     OW33379   4.581   2.118   4.162 -0.7376 -0.1102 -0.6585
 7306SOL    HW133380   4.561   2.055   4.232  1.3524 -0.8820 -0.7566
 7306SOL    HW233381   4.556   2.198   4.208 -0.3983 -0.0756 -0.5394
 7307SOL     OW33382   3.719   0.611  12.339  0.1015  0.3821  0.0519
 7307SOL    HW133383   3.706   0.539  12.400  4.0184 -0.3056  0.0752
 7307SOL    HW233384   3.657   0.589  12.270  0.6134 -0.4537 -0.1421
 7308SOL     OW33385   4.567   2.241  12.593  0.0564 -0.0777 -0.1055
 7308SOL    HW133386   4.636   2.210  12.652 -0.9805  2.2250  2.3106
 7308SOL    HW233387   4.612   2.237  12.509 -1.4936 -0.5198 -0.9088
 7309SOL     OW33388   4.648   0.239   4.902 -0.1033  0.1542 -0.2168
 7309SOL    HW133389   4.692   0.324   4.896  0.4901 -0.1147  0.3601
 7309SOL    HW233390   4.584   0.259   4.834 -1.1173  2.2820  1.3458
 7310SOL     OW33391   1.923   3.409   2.841  0.5605 -0.2030 -0.2302
 7310SOL    HW133392   1.910   3.314   2.834  1.9660 -0.3451 -0.9139
 7310SOL    HW233393   1.889   3.441   2.757 -2.2365 -0.6623  0.7126
 7311SOL     OW33394   2.168   3.973  16.246  0.6614 -0.1171 -0.8458
 7311SOL    HW133395   2.125   3.888  16.247 -1.9543  1.2111 -2.5295
 7311SOL    HW233396   2.258   3.960  16.278  0.3620  0.1964  0.1219
 7312SOL     OW33397   4.199   0.534   0.704  0.3503 -0.1528  0.1000
 7312SOL    HW133398   4.172   0.623   0.726  1.2220  0.4126 -1.1185
 7312SOL    HW233399   4.271   0.527   0.766 -0.5342 -1.2855  1.0041
 7313SOL     OW33400   0.498   2.294  11.033 -0.0643  0.0936  0.1142
 7313SOL    HW133401   0.566   2.344  11.078  1.2005 -0.2031 -1.4756
 7313SOL    HW233402   0.493   2.358  10.962 -2.2562  0.2170  0.3895
 7314SOL     OW33403   3.957   3.146   7.673  0.9290 -0.6110  0.5202
 7314SOL    HW133404   3.963   3.170   7.766 -0.7411 -1.9577  0.9729
 7314SOL    HW233405   3.935   3.235   7.645 -1.2667 -0.8380  1.5257
 7315SOL     OW33406   0.326   0.824  11.955 -0.0978 -0.2463 -0.0660
 7315SOL    HW133407   0.393   0.867  12.007  0.4115  1.1327 -1.8878
 7315SOL    HW233408   0.320   0.879  11.877 -0.2278  0.0678  0.1640
 7316SOL     OW33409   2.069   4.679  12.094 -0.2817  0.0220  0.0232
 7316SOL    HW133410   2.153   4.716  12.122  0.7572 -1.4546 -1.1421
 7316SOL    HW233411   2.033   4.631  12.169 -1.1175 -1.4798 -1.3373
 7317SOL     OW33412   3.345   4.044   6.611 -0.0533 -0.2021 -0.1816
 7317SOL    HW133413   3.317   4.135   6.619 -2.1095 -0.9686  1.1908
 7317SOL    HW233414   3.372   4.028   6.701  2.6793 -0.5253 -1.0460
 7318SOL     OW33415   4.061   2.006  13.431  0.0566 -0.2217 -0.2490
 7318SOL    HW133416   4.028   2.039  13.347 -1.1084  0.9608  0.6813
 7318SOL    HW233417   4.007   1.929  13.449  0.7787 -0.2784  1.6896
 7319SOL     OW33418   2.448   2.905   5.689  0.3768 -0.2856  0.1556
 7319SOL    HW133419   2.391   2.834   5.661  1.4168 -1.2731  0.5549
 7319SOL    HW233420   2.384   2.949   5.746  3.0649  1.9702  1.4402
 7320SOL     OW33421   2.554   0.071  14.033 -0.3702  0.3873 -0.2557
 7320SOL    HW133422   2.589   0.055  14.121 -2.0196  0.8191  0.4649
 7320SOL    HW233423   2.549   0.166  14.035 -0.1683  0.3953 -0.0184
 7321SOL     OW33424   0.264   2.710   0.280 -0.0090  0.1982  0.5266
 7321SOL    HW133425   0.232   2.776   0.342  3.6296  2.0695  0.3974
 7321SOL    HW233426   0.186   2.674   0.237  0.3588 -0.4136  0.3707
 7322SOL     OW33427   1.267   4.633   1.776 -0.0524  0.2219 -0.4740
 7322SOL    HW133428   1.182   4.657   1.812 -0.1451 -0.4890 -0.2083
 7322SOL    HW233429   1.295   4.708   1.723 -1.0489  0.1696 -1.0657
 7323SOL     OW33430   3.475   3.488   2.780  0.2033  0.7192  0.7515
 7323SOL    HW133431   3.463   3.517   2.690  0.8525 -3.5270 -0.6986
 7323SOL    HW233432   3.395   3.516   2.824  0.1156  1.0463  0.3741
 7324SOL     OW33433   3.809   1.443   3.974 -0.6642  0.2897  0.2199
 7324SOL    HW133434   3.749   1.404   4.038  0.4961  0.6563  1.5179
 7324SOL    HW233435   3.833   1.365   3.923  1.2734 -0.6648  2.5890
 7325SOL     OW33436   4.037   4.682   6.985  0.2338  0.0058  0.3450
 7325SOL    HW133437   4.075   4.720   7.064 -0.5481  1.5459 -0.0213
 7325SOL    HW233438   3.948   4.675   7.018  0.7952 -2.2780  1.3868
 7326SOL     OW33439   1.882   1.937   8.300  0.1670  0.6329  0.1797
 7326SOL    HW133440   1.895   1.880   8.225  0.1740  0.9366 -0.0500
 7326SOL    HW233441   1.973   1.957   8.322 -0.3182  1.2468  1.6704
 7327SOL     OW33442   0.840   4.255   3.018  0.8629 -0.1794 -0.2038
 7327SOL    HW133443   0.845   4.315   2.943  0.5884  0.2083  0.0896
 7327SOL    HW233444   0.930   4.254   3.049  0.4067 -1.1462  1.0756
 7328SOL     OW33445   3.818   0.862   4.357  0.3817 -0.3614 -0.5233
 7328SOL    HW133446   3.763   0.890   4.283 -0.7965 -1.7725 -0.1761
 7328SOL    HW233447   3.785   0.921   4.425  0.1201 -0.4493 -0.5718
 7329SOL     OW33448   1.217   3.329  13.168 -0.2331  0.0002 -0.2331
 7329SOL    HW133449   1.254   3.416  13.184 -0.4843  0.4858 -2.2944
 7329SOL    HW233450   1.173   3.315  13.252 -0.3845  2.9455  0.2122
 7330SOL     OW33451   0.222   3.562   6.549  0.0634  0.3950 -0.3991
 7330SOL    HW133452   0.222   3.656   6.562 -1.3199 -0.1068  3.1971
 7330SOL    HW233453   0.139   3.566   6.501 -0.0779 -2.1996 -0.3815
 7331SOL     OW33454   3.736   3.584   7.052 -0.3219 -0.2794 -0.6012
 7331SOL    HW133455   3.753   3.491   7.058 -1.2626 -0.5348 -1.9546
 7331SOL    HW233456   3.821   3.613   7.019 -0.9911  2.4239  0.0453
 7332SOL     OW33457   2.387   2.837   4.524 -0.1920  0.5025 -0.4354
 7332SOL    HW133458   2.361   2.746   4.533 -3.0794  1.5630  2.0660
 7332SOL    HW233459   2.343   2.854   4.440  1.0286 -0.2392 -1.2192
 7333SOL     OW33460   0.605   1.675   7.304 -0.6065 -0.1322  0.4296
 7333SOL    HW133461   0.563   1.756   7.275 -1.9811 -0.7345  0.7682
 7333SOL    HW233462   0.575   1.674   7.395 -0.8037  0.7697  0.3705
 7334SOL     OW33463   1.847   2.684  16.428 -0.1781  0.1945  0.4856
 7334SOL    HW133464   1.930   2.636  16.436 -0.7722 -1.1790 -1.5445
 7334SOL    HW233465   1.803   2.632  16.362  1.9440 -2.1742  0.9438
 7335SOL     OW33466   2.132   1.345   1.973 -0.1190 -0.3917 -0.1998
 7335SOL    HW133467   2.199   1.407   2.001 -0.2438 -1.2608  2.0197
 7335SOL    HW233468   2.103   1.306   2.056  4.1437  0.3958  1.6664
 7336SOL     OW33469   3.846   1.371   1.261 -0.3503 -0.8348  0.5661
 7336SOL    HW133470   3.876   1.317   1.334 -0.7823 -0.4201  1.0541
 7336SOL    HW233471   3.794   1.307   1.214 -0.3900 -0.0017 -0.5294
 7337SOL     OW33472   0.693   1.920   8.769 -0.0218  0.6466  0.0272
 7337SOL    HW133473   0.714   1.844   8.714 -0.7368  1.2480 -1.0793
 7337SOL    HW233474   0.677   1.987   8.702 -1.4130 -0.3137 -0.6029
 7338SOL     OW33475   0.726   2.665   4.541 -0.1403  0.9300  0.0796
 7338SOL    HW133476   0.789   2.594   4.554  1.3151  2.0336 -0.9169
 7338SOL    HW233477   0.651   2.638   4.593 -1.3895 -0.4277 -2.4365
 7339SOL     OW33478   2.309   0.987  17.654 -0.3307 -0.5566  0.0964
 7339SOL    HW133479   2.217   0.979  17.629 -0.1371 -0.3005 -0.6879
 7339SOL    HW233480   2.338   0.898  17.634  0.1164  0.0157 -1.7931
 7340SOL     OW33481   1.400   2.781   2.070 -0.1723  0.2866 -0.0846
 7340SOL    HW133482   1.333   2.850   2.069 -0.8717 -0.4122 -0.8800
 7340SOL    HW233483   1.413   2.763   1.977 -0.9371 -2.0838  0.2707
 7341SOL     OW33484   4.039   0.975   5.595  0.3414 -0.1405 -0.6069
 7341SOL    HW133485   4.096   1.027   5.651 -0.2786 -0.0348 -0.0713
 7341SOL    HW233486   3.957   0.971   5.644 -0.7861  2.7335 -2.2295
 7342SOL     OW33487   1.857   2.627   8.504  0.3636 -0.1341  0.2663
 7342SOL    HW133488   1.814   2.566   8.445  1.3069 -0.2929 -0.2647
 7342SOL    HW233489   1.790   2.624   8.571  0.5749  2.9751  0.6403
 7343SOL     OW33490   0.398   1.564   2.864  0.0991 -0.1273  0.0098
 7343SOL    HW133491   0.306   1.588   2.852  0.4321  1.0825 -0.0767
 7343SOL    HW233492   0.394   1.552   2.959 -0.6968  1.0025  0.1088
 7344SOL     OW33493   4.363   4.624  14.492 -0.2991  0.3570  0.1430
 7344SOL    HW133494   4.308   4.598  14.418 -0.0993 -0.1860  0.1795
 7344SOL    HW233495   4.334   4.556  14.552  3.1455 -1.5277 -0.2784
 7345SOL     OW33496   2.388   2.912   3.666  0.3095 -0.4818  0.6864
 7345SOL    HW133497   2.395   2.899   3.572 -0.4279  0.3167  0.5225
 7345SOL    HW233498   2.459   2.856   3.697  0.5716 -0.4128  0.2063
 7346SOL     OW33499   4.323   1.081  10.703 -0.1861  0.2386 -0.1339
 7346SOL    HW133500   4.263   1.124  10.641 -0.3430  0.2959  0.0552
 7346SOL    HW233501   4.347   1.002  10.656 -2.3494 -0.2914 -0.3807
 7347SOL     OW33502   3.008   2.971   7.018 -0.4763 -0.1113  0.5794
 7347SOL    HW133503   3.025   2.948   7.110  1.3428 -1.4156 -0.0812
 7347SOL    HW233504   3.075   3.036   6.995 -0.9289  0.3374  0.5343
 7348SOL     OW33505   3.116   3.902  10.612 -0.2017 -0.1207  0.1041
 7348SOL    HW133506   3.032   3.910  10.566  0.8831 -1.5262 -2.0508
 7348SOL    HW233507   3.176   3.874  10.544 -0.1066 -0.6669  0.4111
 7349SOL     OW33508   3.226   0.206   3.408 -0.7257  0.4852  0.0378
 7349SOL    HW133509   3.249   0.135   3.348  0.9629  2.6696 -1.8897
 7349SOL    HW233510   3.159   0.159   3.457 -0.6158  0.9823  0.6596
 7350SOL     OW33511   0.514   4.303   4.642  0.4844  0.1883 -0.7430
 7350SOL    HW133512   0.440   4.249   4.672  0.4494  0.8191  0.2969
 7350SOL    HW233513   0.564   4.241   4.589 -0.2877 -0.8059 -0.3233
 7351SOL     OW33514   4.050   1.522   3.489 -0.0687  1.0391 -0.7395
 7351SOL    HW133515   4.053   1.567   3.405  0.0525 -2.6955 -2.7045
 7351SOL    HW233516   3.955   1.507   3.495  0.1715  0.7921  2.8022
 7352SOL     OW33517   2.021   2.827   6.242 -0.1565 -0.5869  0.5126
 7352SOL    HW133518   2.010   2.758   6.177 -0.8339 -1.5933  1.7058
 7352SOL    HW233519   1.943   2.875   6.213 -0.7808 -1.2521  1.0796
 7353SOL     OW33520   2.799   1.050   6.974  0.6873 -0.4871 -0.6082
 7353SOL    HW133521   2.744   1.096   7.037  0.6503 -1.0944 -0.2053
 7353SOL    HW233522   2.750   1.047   6.891 -0.9732  2.3213  0.2804
 7354SOL     OW33523   3.284   0.156   5.273 -0.4058  0.1462  0.1921
 7354SOL    HW133524   3.273   0.093   5.202 -0.5283  1.1803 -0.7202
 7354SOL    HW233525   3.248   0.107   5.347 -2.5593  2.3721  0.6316
 7355SOL     OW33526   1.713   1.714  10.884  0.6178 -0.2202 -0.3077
 7355SOL    HW133527   1.632   1.679  10.921  0.3010  0.0346 -0.7724
 7355SOL    HW233528   1.747   1.761  10.960 -0.3428  1.3417 -0.8473
 7356SOL     OW33529   0.795   1.402   2.977 -0.0874 -0.1026  0.3261
 7356SOL    HW133530   0.806   1.363   3.064  1.6727 -0.6211 -0.1129
 7356SOL    HW233531   0.727   1.344   2.943 -0.7749  1.7713 -1.4758
 7357SOL     OW33532   0.150   3.336   0.050  0.3614  0.1066 -0.5038
 7357SOL    HW133533   0.130   3.341  17.650 -1.7819  1.7974  0.0358
 7357SOL    HW233534   0.244   3.356   0.052 -0.4739  3.7637  2.3334
 7358SOL     OW33535   4.018   0.415   4.739 -0.2765  0.3543  0.1512
 7358SOL    HW133536   3.945   0.419   4.678 -0.4148  1.4272  0.3854
 7358SOL    HW233537   3.966   0.444   4.814 -2.2136  0.0655 -1.0702
 7359SOL     OW33538   1.327   2.645   1.290 -0.1968 -0.3853 -0.5276
 7359SOL    HW133539   1.419   2.643   1.265 -1.1982  1.7892 -4.3869
 7359SOL    HW233540   1.343   2.624   1.382  0.5658  2.0692 -0.0771
 7360SOL     OW33541   1.156   1.926   2.448  0.8165 -0.3285 -0.0013
 7360SOL    HW133542   1.091   1.978   2.495 -0.3740 -1.2368 -0.6517
 7360SOL    HW233543   1.235   1.936   2.501  0.5773  0.4575  0.2017
 7361SOL     OW33544   2.124   0.762   5.751  0.0906 -0.1172  0.2545
 7361SOL    HW133545   2.168   0.790   5.670  3.3239 -2.6383  1.1352
 7361SOL    HW233546   2.193   0.756   5.817  0.0151 -0.6896  0.2823
 7362SOL     OW33547   3.713   1.531   1.004  0.5225 -0.4681 -0.2014
 7362SOL    HW133548   3.796   1.566   1.036 -0.0596 -0.7110  1.5790
 7362SOL    HW233549   3.748   1.466   0.943  3.2245  0.8313 -0.0267
 7363SOL     OW33550   1.755   1.119  17.427 -0.8578  0.6795  0.1030
 7363SOL    HW133551   1.804   1.199  17.445  0.1257  0.0365  0.3024
 7363SOL    HW233552   1.739   1.078  17.513  0.8142 -1.2874 -0.5059
 7364SOL     OW33553   2.381   4.345   5.588  0.6608  0.4297 -0.2754
 7364SOL    HW133554   2.467   4.311   5.562 -0.2381 -0.7979 -1.6403
 7364SOL    HW233555   2.399   4.426   5.637 -0.9019  0.8411 -0.3864
 7365SOL     OW33556   2.628   4.166   2.665 -0.2511 -0.5753  0.4481
 7365SOL    HW133557   2.538   4.187   2.691 -1.0925 -2.4328 -1.0150
 7365SOL    HW233558   2.627   4.071   2.675 -0.5127 -0.4353  1.7265
 7366SOL     OW33559   1.803   0.538   0.369 -0.1601 -0.2214 -0.0421
 7366SOL    HW133560   1.846   0.614   0.407  0.2462 -0.3228 -0.2992
 7366SOL    HW233561   1.828   0.464   0.425 -0.2300  0.2273  0.5789
 7367SOL     OW33562   1.160   3.328   0.221 -0.0566 -0.0569 -0.2689
 7367SOL    HW133563   1.110   3.383   0.282  1.3314 -0.6508  1.4188
 7367SOL    HW233564   1.185   3.260   0.283 -1.8245  0.1063  0.6221
 7368SOL     OW33565   0.974   0.066   2.938  0.3960 -0.1644 -0.1104
 7368SOL    HW133566   0.927   0.052   3.019  0.5911  4.3433  0.7712
 7368SOL    HW233567   1.057   0.019   2.946  0.6142  0.3756  0.8094
 7369SOL     OW33568   4.287   3.098   5.864 -0.4132 -0.1785 -0.0279
 7369SOL    HW133569   4.245   3.022   5.904 -0.8750  0.0266 -0.1215
 7369SOL    HW233570   4.377   3.067   5.862 -0.9478 -1.8524  2.3307
 7370SOL     OW33571   1.424   0.372   2.906 -0.3712 -0.4982  0.4908
 7370SOL    HW133572   1.408   0.286   2.866  0.7711  0.2383 -1.5305
 7370SOL    HW233573   1.437   0.346   2.998  0.6845 -1.6907 -0.0011
 7371SOL     OW33574   0.256   0.802   9.226  0.9623 -0.1535  0.0236
 7371SOL    HW133575   0.187   0.765   9.282  0.5749  1.2825  0.4996
 7371SOL    HW233576   0.324   0.735   9.227  0.9670 -0.1725 -1.6846
 7372SOL     OW33577   2.639   2.254  13.413  0.0232 -0.3060  0.1276
 7372SOL    HW133578   2.550   2.273  13.382  0.0462  0.5520  0.5844
 7372SOL    HW233579   2.656   2.165  13.382  2.4673  0.7077 -1.3649
 7373SOL     OW33580   3.507   0.349   2.775 -0.4215  0.0477 -0.1460
 7373SOL    HW133581   3.538   0.431   2.737  2.6920 -0.6045  0.9846
 7373SOL    HW233582   3.423   0.358   2.821 -0.0832 -0.7933  0.6360
 7374SOL     OW33583   0.058   2.895  16.927 -0.3209  0.5706 -0.0082
 7374SOL    HW133584   4.713   2.960  16.950 -1.6534 -1.6281  2.3169
 7374SOL    HW233585   0.128   2.916  16.989  1.8563 -0.5117 -2.1731
 7375SOL     OW33586   1.618   1.681   6.853 -0.2152  0.7600 -0.0859
 7375SOL    HW133587   1.564   1.628   6.794 -0.3919 -0.4344  1.1481
 7375SOL    HW233588   1.698   1.682   6.801  0.5648  1.4497  1.1300
 7376SOL     OW33589   4.233   1.068  11.386  0.1492 -0.3508  0.3903
 7376SOL    HW133590   4.239   1.137  11.453 -2.1230 -0.0129  0.2502
 7376SOL    HW233591   4.138   1.080  11.376  0.6873  1.7817 -2.2648
 7377SOL     OW33592   0.804   3.922   3.422  0.0915 -0.5623  0.7285
 7377SOL    HW133593   0.789   3.866   3.498 -1.5347 -1.3143 -0.1594
 7377SOL    HW233594   0.884   3.881   3.387 -0.0795 -0.8306  0.6536
 7378SOL     OW33595   1.023   0.910  14.261 -0.0163  1.1388  0.8293
 7378SOL    HW133596   1.029   0.940  14.170 -3.1745  2.2045  0.9710
 7378SOL    HW233597   1.001   0.818  14.247  1.8069  0.8064  0.0842
 7379SOL     OW33598   4.229   1.655  15.907 -0.2332 -0.1693 -0.0230
 7379SOL    HW133599   4.318   1.691  15.901 -0.0884 -0.5690 -0.2630
 7379SOL    HW233600   4.195   1.682  15.993  0.9934 -1.4010  0.8510
 7380SOL     OW33601   0.010   0.101   4.672 -0.0104  0.1776 -0.2109
 7380SOL    HW133602   0.006   0.174   4.610 -2.7357  0.5777  0.4025
 7380SOL    HW233603   4.710   0.145   4.755 -1.3649  0.6597 -0.8354
 7381SOL     OW33604   1.201   1.735   5.866 -0.1286  0.1716  0.4648
 7381SOL    HW133605   1.180   1.822   5.897 -3.9813 -0.7687  0.4025
 7381SOL    HW233606   1.169   1.754   5.778 -1.1250 -0.6310  0.6595
 7382SOL     OW33607   1.168   3.936   3.031  0.2471 -0.1120  0.5219
 7382SOL    HW133608   1.154   3.987   3.111 -1.6977  1.0483 -0.5568
 7382SOL    HW233609   1.229   3.873   3.070 -0.3114 -0.0173  1.5531
 7383SOL     OW33610   4.513   0.184   8.420 -0.0373 -0.0219  0.2379
 7383SOL    HW133611   4.490   0.271   8.453  0.5813 -0.8153  2.8334
 7383SOL    HW233612   4.447   0.130   8.463 -0.1904 -0.1464 -0.1548
 7384SOL     OW33613   2.025   2.424  12.950  0.1413  0.1005  0.1796
 7384SOL    HW133614   2.057   2.342  12.912 -1.2859  0.2059 -1.2587
 7384SOL    HW233615   1.960   2.453  12.886  1.3509  2.4049 -0.0056
 7385SOL     OW33616   3.622   1.017   8.560 -0.1585  0.3575 -0.0952
 7385SOL    HW133617   3.555   0.964   8.604  0.4580  0.3704  0.8560
 7385SOL    HW233618   3.577   1.056   8.485 -0.7491 -1.8077 -0.8950
 7386SOL     OW33619   3.023   3.476   7.523 -0.2635 -0.4058 -0.4250
 7386SOL    HW133620   3.007   3.461   7.430 -1.3562  0.3778 -0.3636
 7386SOL    HW233621   3.006   3.389   7.559 -1.0206  0.0468  0.3119
 7387SOL     OW33622   2.274   2.964   5.356 -0.3475  0.2010 -0.0116
 7387SOL    HW133623   2.197   2.957   5.299  1.4622 -0.2036 -2.4034
 7387SOL    HW233624   2.244   3.028   5.421  1.9622  0.6955  0.5537
 7388SOL     OW33625   1.879   2.000   1.382 -0.0439  0.0522  0.1987
 7388SOL    HW133626   1.806   1.955   1.340 -1.4249  1.2195  1.3474
 7388SOL    HW233627   1.873   1.979   1.475 -1.6701 -1.4191 -0.2508
 7389SOL     OW33628   3.998   0.065   4.081 -0.0050 -0.0850  0.2507
 7389SOL    HW133629   4.049   0.114   4.016 -2.1616  1.5630 -0.2031
 7389SOL    HW233630   3.919   0.029   4.038 -1.8651  2.8827  1.2137
 7390SOL     OW33631   2.318   1.436  15.532 -0.0129  0.4830  0.4770
 7390SOL    HW133632   2.248   1.405  15.590  1.2964 -1.6679  0.9224
 7390SOL    HW233633   2.264   1.492  15.476  0.6228 -1.0713 -1.7033
 7391SOL     OW33634   0.389   1.540   3.137  0.3644 -0.1720  0.0223
 7391SOL    HW133635   0.336   1.595   3.195  0.7846  0.1893  0.0662
 7391SOL    HW233636   0.475   1.557   3.177 -0.1888 -0.1724  1.2210
 7392SOL     OW33637   1.046   1.054   7.199  0.0569  0.1439  0.7882
 7392SOL    HW133638   0.968   1.020   7.155 -0.1693  0.6077  0.8309
 7392SOL    HW233639   1.011   1.084   7.283 -0.2865  1.1178  0.2940
 7393SOL     OW33640   3.968   4.589   6.685  0.5636 -0.3268  0.6300
 7393SOL    HW133641   3.968   4.625   6.774 -0.7199  1.1265  0.0337
 7393SOL    HW233642   4.053   4.546   6.677  1.8084  1.9880  1.5972
 7394SOL     OW33643   1.122   1.973  11.205  0.1565 -0.0259 -0.4938
 7394SOL    HW133644   1.125   1.943  11.295 -0.7615  1.2725 -0.0386
 7394SOL    HW233645   1.163   1.900  11.159  0.6054  0.6875 -1.2385
 7395SOL     OW33646   2.403   2.446   2.957 -0.5684 -0.3800 -0.0573
 7395SOL    HW133647   2.455   2.387   3.012  0.3757  1.0382  0.5726
 7395SOL    HW233648   2.361   2.505   3.018 -2.2443 -0.7380 -0.8654
 7396SOL     OW33649   1.445   3.784   4.582  0.2734 -0.3509 -0.0070
 7396SOL    HW133650   1.497   3.770   4.661 -1.1652  2.3002  1.4199
 7396SOL    HW233651   1.472   3.875   4.571  1.4027 -0.5451  1.1316
 7397SOL     OW33652   0.657   1.563   9.254  0.0695  0.4287  0.3539
 7397SOL    HW133653   0.731   1.524   9.301  0.8843  0.2763 -1.0591
 7397SOL    HW233654   0.686   1.654   9.252 -1.0814  0.8005  0.0639
 7398SOL     OW33655   3.333   4.712   1.866 -0.0268 -0.0493  0.6488
 7398SOL    HW133656   3.417   0.009   1.906  2.7593 -3.0051 -3.7590
 7398SOL    HW233657   3.354   0.014   1.776 -1.2256  0.4322  0.4917
 7399SOL     OW33658   2.985   1.811  14.237 -0.1306  1.0659 -0.1443
 7399SOL    HW133659   3.051   1.759  14.284 -1.5349  0.0186  0.6884
 7399SOL    HW233660   2.978   1.769  14.151  0.3077  1.8912 -0.5775
 7400SOL     OW33661   2.701   2.573   4.042  0.5064  0.5053  0.4055
 7400SOL    HW133662   2.780   2.540   3.997  0.5122 -1.4944  1.8622
 7400SOL    HW233663   2.737   2.579   4.131 -0.0890  2.1526  0.5325
 7401SOL     OW33664   3.294   2.523   2.349  0.0186 -0.5396  0.4229
 7401SOL    HW133665   3.290   2.428   2.352 -1.8806 -0.3936  2.1068
 7401SOL    HW233666   3.253   2.550   2.267 -1.2113  0.0606  1.2401
 7402SOL     OW33667   1.227   3.797   1.713  0.1719 -0.2403 -0.2706
 7402SOL    HW133668   1.181   3.714   1.706 -0.8695  0.7428 -4.7610
 7402SOL    HW233669   1.283   3.800   1.635  1.7718 -0.2377  0.8654
 7403SOL     OW33670   4.163   4.697   3.062  0.0512  0.0907  0.4190
 7403SOL    HW133671   4.114   0.057   3.066  0.2273  0.1907  0.5278
 7403SOL    HW233672   4.124   4.660   2.983  0.1937  0.2753  0.2596
 7404SOL     OW33673   1.116   0.487  17.460  0.1942 -0.3634  0.1027
 7404SOL    HW133674   1.116   0.462  17.553  1.2608  3.1104  1.0149
 7404SOL    HW233675   1.151   0.575  17.472  2.6396 -1.0534 -2.0995
 7405SOL     OW33676   2.803   4.719  10.457  0.3928  0.8138 -0.7282
 7405SOL    HW133677   2.757   0.004  10.373 -0.8188 -0.8150 -0.2176
 7405SOL    HW233678   2.776   4.633  10.488 -1.6628  0.9756 -2.0383
 7406SOL     OW33679   2.432   2.209   5.653  0.9456  0.6150  0.0540
 7406SOL    HW133680   2.378   2.131   5.661  1.6419  0.2859  1.5895
 7406SOL    HW233681   2.510   2.184   5.604 -0.8591 -2.6145 -1.1395
 7407SOL     OW33682   3.101   3.362   2.162 -0.5983  0.8630 -0.0102
 7407SOL    HW133683   3.024   3.370   2.218 -0.5544  2.5129 -0.1872
 7407SOL    HW233684   3.088   3.441   2.109  0.4244  1.2721  0.3521
 7408SOL     OW33685   2.459   0.323  11.862 -0.4448  0.2939 -0.2418
 7408SOL    HW133686   2.426   0.326  11.772 -0.5112  1.4021 -0.1698
 7408SOL    HW233687   2.547   0.285  11.852 -1.1085 -0.9831 -1.1694
 7409SOL     OW33688   0.404   2.322   7.596  0.2295  0.4440  0.0479
 7409SOL    HW133689   0.354   2.403   7.604  0.9877  1.0052 -0.9257
 7409SOL    HW233690   0.393   2.287   7.684  0.7094  0.1609 -0.0064
 7410SOL     OW33691   0.323   0.443   8.764 -0.3043 -0.0027  0.4752
 7410SOL    HW133692   0.364   0.359   8.741  0.3998  0.3932  0.2812
 7410SOL    HW233693   0.387   0.473   8.829  1.9070 -0.3686 -1.5240
 7411SOL     OW33694   1.508   3.791   7.366  0.2949 -0.3996  0.2537
 7411SOL    HW133695   1.589   3.819   7.323  1.1133 -3.5430 -0.1876
 7411SOL    HW233696   1.440   3.843   7.321 -0.0594 -0.3277  0.8759
 7412SOL     OW33697   0.452   4.133   2.823 -0.3973 -0.1180  0.4183
 7412SOL    HW133698   0.424   4.223   2.843 -1.0527 -0.3921  0.7228
 7412SOL    HW233699   0.504   4.126   2.904 -0.8735  2.9716  0.9828
 7413SOL     OW33700   0.023   1.378   5.271  0.3827  0.6936 -0.8060
 7413SOL    HW133701   0.113   1.363   5.300  0.3027 -0.5889 -1.2047
 7413SOL    HW233702   4.708   1.412   5.353  1.3050  1.0195 -0.5231
 7414SOL     OW33703   1.354   3.950  11.133  0.4228  0.4370  0.4609
 7414SOL    HW133704   1.421   3.968  11.067 -0.3201 -0.5173 -0.5429
 7414SOL    HW233705   1.286   3.920  11.074 -0.5430 -1.4594  2.5327
 7415SOL     OW33706   0.054   0.959   6.823 -0.3423 -0.0407 -0.4145
 7415SOL    HW133707   0.010   1.021   6.765  4.0331  1.0839 -2.5900
 7415SOL    HW233708   4.701   0.919   6.866  1.3573 -1.2612  1.4478
 7416SOL     OW33709   3.050   2.270   8.528  0.2395  0.1107 -0.2885
 7416SOL    HW133710   3.005   2.328   8.467 -0.5978  0.8837  1.0801
 7416SOL    HW233711   3.059   2.190   8.475 -1.0890 -0.0803 -0.2171
 7417SOL     OW33712   2.615   4.016   6.477 -0.3641 -0.4534  0.0452
 7417SOL    HW133713   2.649   4.094   6.433 -0.5828  0.4445  1.4706
 7417SOL    HW233714   2.617   4.042   6.569  1.1154 -2.3677  0.5557
 7418SOL     OW33715   4.545   2.152  14.777 -0.5692 -0.0580 -0.2437
 7418SOL    HW133716   4.616   2.094  14.749 -1.1292 -0.7122 -0.3159
 7418SOL    HW233717   4.509   2.088  14.839 -1.1737  0.0818 -0.4517
 7419SOL     OW33718   3.925   0.872   1.122  0.4708  0.1158 -0.0226
 7419SOL    HW133719   3.911   0.805   1.055  0.9283  0.8726 -0.8783
 7419SOL    HW233720   3.899   0.821   1.199  1.8400 -0.8587 -0.2121
 7420SOL     OW33721   3.592   0.917   4.741  0.2501  0.0686  0.3756
 7420SOL    HW133722   3.594   1.010   4.763  0.7109  0.5074 -1.5621
 7420SOL    HW233723   3.673   0.910   4.691  0.6335  0.9572  0.8648
 7421SOL     OW33724   3.207   3.421   8.108 -0.3802 -0.5275  0.4867
 7421SOL    HW133725   3.259   3.345   8.082 -0.8437 -1.4782  2.3766
 7421SOL    HW233726   3.121   3.386   8.086 -0.7735  1.2888 -0.8502
 7422SOL     OW33727   3.003   2.116   4.536 -0.1849 -0.0107  0.1797
 7422SOL    HW133728   3.013   2.187   4.600  0.7596  0.2951 -0.2992
 7422SOL    HW233729   2.965   2.162   4.461  1.6730  0.6210 -0.3746
 7423SOL     OW33730   1.161   0.054   5.112 -0.5420  0.7824 -0.2499
 7423SOL    HW133731   1.126   0.036   5.199  3.1336 -2.7732  0.4784
 7423SOL    HW233732   1.076   0.049   5.068 -1.2853 -0.5430  1.3091
 7424SOL     OW33733   2.400   0.097  13.781 -0.0527 -0.3905  0.5221
 7424SOL    HW133734   2.445   0.053  13.853  0.6108 -2.2551 -1.0100
 7424SOL    HW233735   2.469   0.101  13.714  1.0878 -0.7107  1.6724
 7425SOL     OW33736   3.041   1.137   2.917  0.2852  0.6894  0.3032
 7425SOL    HW133737   3.135   1.127   2.927  0.2573 -0.9611 -1.0527
 7425SOL    HW233738   3.026   1.072   2.849 -0.2479  0.2843  0.8014
 7426SOL     OW33739   3.332   1.393  17.164  0.6757  0.6817 -0.1416
 7426SOL    HW133740   3.270   1.420  17.232  1.0659 -2.8428  1.6021
 7426SOL    HW233741   3.334   1.475  17.115  1.1334  0.1169 -1.0665
 7427SOL     OW33742   1.685   4.326   2.133  0.1345  0.0720 -0.3618
 7427SOL    HW133743   1.679   4.238   2.095 -0.2377  0.2784 -0.7866
 7427SOL    HW233744   1.608   4.373   2.100 -0.0412  0.1372  0.1410
 7428SOL     OW33745   1.266   2.481   2.191 -0.1438  0.3941  0.1806
 7428SOL    HW133746   1.252   2.412   2.126 -1.4183  1.5024 -0.7147
 7428SOL    HW233747   1.361   2.496   2.181 -0.0744 -0.0075  0.2665
 7429SOL     OW33748   0.424   1.600   2.387  0.4461 -0.3425 -0.4627
 7429SOL    HW133749   0.439   1.692   2.409 -0.9825  0.0319 -1.1006
 7429SOL    HW233750   0.476   1.581   2.309  1.5252  1.4644 -0.1774
 7430SOL     OW33751   4.442   3.527   3.638  0.0467 -0.6747 -0.2951
 7430SOL    HW133752   4.529   3.522   3.597  0.5423 -0.0023  0.6760
 7430SOL    HW233753   4.409   3.450   3.593 -0.4463 -1.1858  0.9458
 7431SOL     OW33754   1.409   2.007   6.437  0.1982 -0.3190 -0.2892
 7431SOL    HW133755   1.325   2.010   6.391  1.1919 -0.9232 -2.1506
 7431SOL    HW233756   1.462   1.958   6.373  1.6351  1.2884 -0.3304
 7432SOL     OW33757   2.248   3.889   5.975 -0.5045  0.1372  0.1573
 7432SOL    HW133758   2.236   3.904   5.882  2.1050  1.3193  0.0214
 7432SOL    HW233759   2.161   3.897   6.016 -0.6837  0.9985 -0.4053
 7433SOL     OW33760   0.428   1.852   5.577 -0.4732  0.2401 -0.4562
 7433SOL    HW133761   0.345   1.834   5.622  1.0345  0.2851  2.3355
 7433SOL    HW233762   0.440   1.772   5.526 -0.6333 -0.4397  0.5658
 7434SOL     OW33763   4.220   2.620   2.577 -0.2383  0.1220  0.1345
 7434SOL    HW133764   4.301   2.587   2.537 -0.8071  0.3621 -1.2064
 7434SOL    HW233765   4.225   2.709   2.542  1.4260  0.1136  0.3259
 7435SOL     OW33766   1.422   1.832   4.904 -0.3097 -0.8475 -0.1888
 7435SOL    HW133767   1.343   1.791   4.869  0.1450 -0.7783 -1.2963
 7435SOL    HW233768   1.458   1.760   4.957 -1.0921 -1.6020 -0.6926
 7436SOL     OW33769   3.292   1.464   8.353 -0.4722  0.6100  0.3137
 7436SOL    HW133770   3.320   1.435   8.266  0.4340  0.1060  0.7790
 7436SOL    HW233771   3.202   1.488   8.329 -0.6693 -1.5310 -1.1040
 7437SOL     OW33772   4.364   0.011   5.795  0.0241  0.1470 -0.1649
 7437SOL    HW133773   4.400   0.099   5.809 -1.8897  1.2963 -2.6069
 7437SOL    HW233774   4.446   4.685   5.794  0.7849  1.4681 -2.0017
 7438SOL     OW33775   3.542   1.116   5.115 -0.0266  0.7842  0.0731
 7438SOL    HW133776   3.568   1.028   5.086 -0.7178  0.5708  0.1120
 7438SOL    HW233777   3.605   1.173   5.071  2.8895 -1.0944  1.7558
 7439SOL     OW33778   3.451   3.952  13.800  0.0605  0.2412  0.1317
 7439SOL    HW133779   3.395   3.964  13.877 -1.8195  0.1863 -1.2067
 7439SOL    HW233780   3.485   3.864  13.819  0.7204  0.4537 -0.0798
 7440SOL     OW33781   4.350   0.681   1.421 -0.5666 -0.5898 -0.7255
 7440SOL    HW133782   4.283   0.624   1.459 -0.7577 -1.4289 -2.3260
 7440SOL    HW233783   4.343   0.649   1.331 -0.3073  0.6211 -1.1633
 7441SOL     OW33784   2.444   2.982   3.297 -0.0164 -0.2229 -0.2445
 7441SOL    HW133785   2.496   2.918   3.345 -0.0003  0.1554  0.2422
 7441SOL    HW233786   2.427   3.050   3.362 -0.3318 -0.6706  0.1378
 7442SOL     OW33787   4.316   1.742   3.386  0.1188 -0.3101  0.2479
 7442SOL    HW133788   4.228   1.761   3.355  0.5638 -1.1990 -1.6201
 7442SOL    HW233789   4.364   1.825   3.375 -0.9095  0.2506  0.0298
 7443SOL     OW33790   2.299   0.089  12.152  0.0852 -0.4310  0.2146
 7443SOL    HW133791   2.294   0.103  12.247  0.6670  1.0590  0.0228
 7443SOL    HW233792   2.391   0.067  12.143  0.6532  0.7016  3.2596
 7444SOL     OW33793   2.767   0.597   0.743  0.0625  0.1042 -0.7926
 7444SOL    HW133794   2.846   0.569   0.789 -1.3863 -1.3623  0.8308
 7444SOL    HW233795   2.800   0.632   0.660 -0.6752 -0.0284 -1.1429
 7445SOL     OW33796   3.039   0.631   8.581 -0.2826  0.4524 -0.2139
 7445SOL    HW133797   3.112   0.578   8.613  1.4321  3.5404  0.9906
 7445SOL    HW233798   2.964   0.594   8.627  0.5342 -0.5647  0.3047
 7446SOL     OW33799   1.000   3.642   8.131 -0.1949 -0.3201  0.2460
 7446SOL    HW133800   1.072   3.649   8.069 -0.9297  2.3174 -0.3119
 7446SOL    HW233801   1.019   3.704   8.202 -2.0869  0.8449 -0.2595
 7447SOL     OW33802   2.844   4.077   7.620 -0.5025 -0.6038  0.0508
 7447SOL    HW133803   2.893   4.025   7.555 -1.3755  0.1530 -1.2161
 7447SOL    HW233804   2.772   4.022   7.648 -0.1581  0.8870  3.8612
 7448SOL     OW33805   0.680   0.769   9.316  0.0705 -0.5569 -0.3554
 7448SOL    HW133806   0.670   0.861   9.293  0.3187 -0.9665 -2.0795
 7448SOL    HW233807   0.774   0.769   9.336 -0.3339 -1.0938  1.6025
 7449SOL     OW33808   3.742   2.244   6.518  0.1758 -0.8252 -0.3843
 7449SOL    HW133809   3.833   2.229   6.544  0.3946  2.2126  0.6158
 7449SOL    HW233810   3.744   2.196   6.435 -1.7400 -1.7111  0.0834
 7450SOL     OW33811   2.972   1.412   2.747 -0.4322 -0.0682 -0.1670
 7450SOL    HW133812   2.992   1.484   2.688 -3.4829 -0.6639 -1.9056
 7450SOL    HW233813   3.024   1.435   2.824 -0.6102  1.2236 -0.4267
 7451SOL     OW33814   4.503   1.835   8.714  0.1109  0.7791 -0.7963
 7451SOL    HW133815   4.455   1.834   8.632 -0.0867  1.2384 -0.6851
 7451SOL    HW233816   4.548   1.751   8.706  0.3903  1.0281 -1.8475
 7452SOL     OW33817   0.321   0.799   3.418 -0.0069 -0.0351 -0.4366
 7452SOL    HW133818   0.250   0.855   3.387 -0.7486 -0.1270  1.0859
 7452SOL    HW233819   0.310   0.725   3.358  0.3338 -0.4197 -0.0251
 7453SOL     OW33820   2.287   0.533   5.927  0.0320 -0.3756 -0.2293
 7453SOL    HW133821   2.320   0.622   5.923  0.1935 -0.4565 -0.6315
 7453SOL    HW233822   2.294   0.504   5.836 -0.3328  1.7314 -0.9133
 7454SOL     OW33823   4.609   3.949   1.713  0.0801 -0.4943 -0.0042
 7454SOL    HW133824   4.639   3.950   1.804 -0.9208  2.6880  0.3099
 7454SOL    HW233825   4.520   3.921   1.736  0.0526  1.0282  1.8257
 7455SOL     OW33826   2.149   2.611   2.789  0.1224 -0.4202  0.2314
 7455SOL    HW133827   2.102   2.678   2.740 -0.3850  0.4937  1.9845
 7455SOL    HW233828   2.120   2.529   2.748  0.3582 -0.8412  0.8984
 7456SOL     OW33829   0.215   0.392   5.059 -0.0068 -0.5908  0.2622
 7456SOL    HW133830   0.248   0.306   5.087 -2.1229 -1.3201  0.4838
 7456SOL    HW233831   0.261   0.395   4.975 -0.6751  1.0296 -0.0425
 7457SOL     OW33832   4.520   2.597   6.850  0.1423 -0.4248 -0.2163
 7457SOL    HW133833   4.562   2.517   6.818  2.4207  0.9357 -0.6675
 7457SOL    HW233834   4.597   2.647   6.878 -0.5690  0.4833  0.1040
 7458SOL     OW33835   3.774   4.267   3.212 -0.1698  0.4141 -0.1904
 7458SOL    HW133836   3.838   4.245   3.145 -1.2478  0.5644 -1.2840
 7458SOL    HW233837   3.818   4.324   3.275 -2.7857  1.0580  1.0753
 7459SOL     OW33838   3.794   0.843   8.792  0.6079  0.2465 -0.5525
 7459SOL    HW133839   3.771   0.839   8.699  1.0411 -2.2148 -0.5352
 7459SOL    HW233840   3.804   0.750   8.813 -2.5660 -0.8928 -4.2013
 7460SOL     OW33841   1.726   2.799   5.279 -0.1523 -0.2360  0.3253
 7460SOL    HW133842   1.743   2.705   5.276  0.4305 -0.1169 -0.1195
 7460SOL    HW233843   1.767   2.815   5.194  1.8583 -0.5001  1.2245
 7461SOL     OW33844   3.961   2.017   7.088  0.1200  0.1193  0.3576
 7461SOL    HW133845   4.004   2.091   7.132  2.0055 -0.6544 -0.1734
 7461SOL    HW233846   3.874   2.051   7.108 -0.2481 -0.6991  0.1595
 7462SOL     OW33847   0.506   1.744   4.880 -0.1986  0.2588  0.1457
 7462SOL    HW133848   0.471   1.658   4.905 -0.0858 -0.2559 -1.4232
 7462SOL    HW233849   0.425   1.794   4.867 -0.2789  0.1163  0.0937
 7463SOL     OW33850   3.587   4.076  16.653 -0.1225  0.1289 -0.2730
 7463SOL    HW133851   3.601   4.011  16.585  1.1734  0.0800  0.0237
 7463SOL    HW233852   3.629   4.150  16.608 -2.6927  1.1070 -1.0784
 7464SOL     OW33853   1.814   1.402  12.383  0.6138  0.5930 -0.5466
 7464SOL    HW133854   1.900   1.413  12.341 -0.2962  0.2709 -2.4575
 7464SOL    HW233855   1.786   1.321  12.341  0.1712 -0.0138  0.9121
 7465SOL     OW33856   1.145   3.309   5.586  0.1231  0.2784 -0.4702
 7465SOL    HW133857   1.129   3.215   5.598  1.2471 -0.0815 -1.7374
 7465SOL    HW233858   1.215   3.327   5.649  2.0982 -1.2456 -2.2009
 7466SOL     OW33859   0.291   0.708   5.414  0.0082  0.2181 -0.2743
 7466SOL    HW133860   0.226   0.639   5.428 -1.1785  1.1763 -1.0106
 7466SOL    HW233861   0.304   0.698   5.319 -1.3562  2.6784 -0.6952
 7467SOL     OW33862   0.541   1.377   7.604 -0.1366 -0.0542  0.0720
 7467SOL    HW133863   0.571   1.456   7.560  3.1989 -0.0308  2.3587
 7467SOL    HW233864   0.617   1.322   7.585  0.5417  0.8365  0.2107
 7468SOL     OW33865   4.301   2.313  10.173  0.4354 -0.7512  0.3614
 7468SOL    HW133866   4.315   2.237  10.117  1.0622  1.1735 -2.0637
 7468SOL    HW233867   4.383   2.308  10.222  2.7342 -1.3464 -3.5914
 7469SOL     OW33868   0.132   1.860   2.490  0.3770 -0.2313 -0.4754
 7469SOL    HW133869   0.078   1.928   2.530 -0.3102 -0.8078 -0.4363
 7469SOL    HW233870   0.095   1.856   2.403 -0.5680 -2.2307  0.0203
 7470SOL     OW33871   1.707   3.870   4.329 -0.3533  0.2189  0.3096
 7470SOL    HW133872   1.758   3.902   4.255 -0.1699 -1.9830 -0.5101
 7470SOL    HW233873   1.660   3.948   4.359 -2.6419  0.2587 -3.3652
 7471SOL     OW33874   2.614   3.991   5.141 -0.3779 -0.8021 -0.4713
 7471SOL    HW133875   2.601   3.942   5.060 -4.3847 -0.4005 -0.0814
 7471SOL    HW233876   2.548   4.055   5.113 -1.1768 -0.8495  1.2987
 7472SOL     OW33877   1.428   2.976   2.555  0.0178  0.0741  0.6106
 7472SOL    HW133878   1.459   2.920   2.626 -0.2330  1.0048  1.4513
 7472SOL    HW233879   1.382   3.047   2.600  1.3664  0.8836  0.6802
 7473SOL     OW33880   1.155   1.546   3.754  0.9963 -0.9659 -0.1612
 7473SOL    HW133881   1.199   1.520   3.673 -0.6980  2.8043 -2.2831
 7473SOL    HW233882   1.106   1.466   3.770 -0.9835  0.3646  0.3816
 7474SOL     OW33883   0.454   4.605   2.630  0.4955  0.2548  0.1150
 7474SOL    HW133884   0.432   4.530   2.686 -2.0909  0.9570  0.0368
 7474SOL    HW233885   0.372   4.624   2.583 -0.0854  0.4373  1.1939
 7475SOL     OW33886   1.526   1.031   8.949  0.0402  0.3532  0.5639
 7475SOL    HW133887   1.531   0.995   8.861 -0.8437 -1.8479  1.4153
 7475SOL    HW233888   1.491   0.951   8.988  1.6890 -1.0128 -0.8034
 7476SOL     OW33889   2.429   1.411   0.209  0.2161  0.2461  0.0026
 7476SOL    HW133890   2.457   1.345   0.147  2.2444  2.0063 -0.9362
 7476SOL    HW233891   2.475   1.385   0.289  0.6398  0.4511 -0.1779
 7477SOL     OW33892   3.391   3.228   6.216 -0.3955  0.4398 -0.2914
 7477SOL    HW133893   3.372   3.172   6.141 -3.8855 -0.7937  1.4969
 7477SOL    HW233894   3.341   3.307   6.197 -2.6375 -0.7760  0.4100
 7478SOL     OW33895   0.079   3.822   6.212 -0.0078  0.4096  0.4598
 7478SOL    HW133896   0.042   3.837   6.125 -1.0451 -0.6438  0.7242
 7478SOL    HW233897   0.005   3.795   6.267 -0.7571 -0.8109 -1.1468
 7479SOL     OW33898   1.192   4.352   4.580 -0.4900  0.4347 -0.2001
 7479SOL    HW133899   1.101   4.321   4.577 -0.2922 -0.4390  2.8182
 7479SOL    HW233900   1.223   4.336   4.491  1.0324 -0.5624  0.4982
 7480SOL     OW33901   1.354   4.338   4.004  0.6157  0.9709 -0.4196
 7480SOL    HW133902   1.340   4.408   4.067 -1.4804 -1.4325  1.7965
 7480SOL    HW233903   1.306   4.263   4.038  1.8408  1.1294  1.6811
 7481SOL     OW33904   3.032   1.649   2.349 -0.1221 -0.0598  0.9559
 7481SOL    HW133905   3.073   1.734   2.332  1.1417 -0.8373  0.1608
 7481SOL    HW233906   3.101   1.585   2.330 -0.4017 -0.1553  0.2676
 7482SOL     OW33907   1.411   3.850   1.510 -0.1144  0.0524  0.1577
 7482SOL    HW133908   1.396   3.898   1.428 -0.1966 -2.0982 -1.0865
 7482SOL    HW233909   1.489   3.900   1.534  1.5998 -0.6555 -3.7778
 7483SOL     OW33910   1.208   1.301  15.681 -0.2372 -0.1978 -0.0131
 7483SOL    HW133911   1.215   1.271  15.591 -1.6564  0.4279 -0.3213
 7483SOL    HW233912   1.282   1.250  15.715 -0.3476  0.2645  0.9226
 7484SOL     OW33913   2.071   3.713  16.244 -0.0732 -0.2404  0.3924
 7484SOL    HW133914   1.987   3.700  16.201  0.2917 -2.5857  0.3844
 7484SOL    HW233915   2.071   3.640  16.307 -2.3862 -1.0863 -0.5923
 7485SOL     OW33916   2.424   4.249   7.742  0.5337  0.0918  0.2699
 7485SOL    HW133917   2.484   4.310   7.784  0.5110  1.4026 -1.5876
 7485SOL    HW233918   2.494   4.185   7.730  0.3271 -0.3738  1.5368
 7486SOL     OW33919   1.443   0.628   7.910 -0.5054 -0.1661  0.1457
 7486SOL    HW133920   1.420   0.714   7.945  0.8045 -0.4741  1.7622
 7486SOL    HW233921   1.476   0.593   7.993  3.8322 -0.9489 -1.9303
 7487SOL     OW33922   2.393   3.505   1.437  0.5967 -0.2274  0.1892
 7487SOL    HW133923   2.447   3.542   1.367 -1.5309 -0.5155 -1.5697
 7487SOL    HW233924   2.364   3.426   1.391 -1.6234  0.7401 -0.0494
 7488SOL     OW33925   2.771   1.176   8.247  0.1350  0.3579 -0.3811
 7488SOL    HW133926   2.718   1.250   8.275  0.9787  0.2716  1.3957
 7488SOL    HW233927   2.786   1.209   8.158 -2.4835 -0.4611 -1.1350
 7489SOL     OW33928   0.421   2.199   3.549 -0.4529 -0.3558  0.1933
 7489SOL    HW133929   0.472   2.170   3.624 -1.4244  1.1819  1.4450
 7489SOL    HW233930   0.466   2.280   3.524  0.3012 -0.4020  1.3746
 7490SOL     OW33931   0.201   0.817   6.182  0.0787 -0.1434  1.0894
 7490SOL    HW133932   0.121   0.765   6.184 -1.5458  2.2943 -0.7272
 7490SOL    HW233933   0.258   0.762   6.235  2.7756 -0.0087 -1.6437
 7491SOL     OW33934   2.297   3.741  16.067  0.0119  0.0142  0.2465
 7491SOL    HW133935   2.209   3.724  16.098  0.3311  0.2175  1.2889
 7491SOL    HW233936   2.338   3.768  16.150  3.0673 -0.4407 -1.0921
 7492SOL     OW33937   3.938   4.322   3.771 -0.3005  0.5501  0.1513
 7492SOL    HW133938   3.898   4.396   3.816 -0.5172  1.5928 -1.7522
 7492SOL    HW233939   3.989   4.368   3.704  1.0320  0.9549  1.4457
 7493SOL     OW33940   4.588   1.747   7.895  0.7585 -0.7812  0.2326
 7493SOL    HW133941   4.497   1.742   7.864  0.6716 -0.6196  0.4626
 7493SOL    HW233942   4.622   1.659   7.880 -3.0662 -2.1935 -0.1233
 7494SOL     OW33943   3.272   0.275   5.683 -0.1446  0.2152  0.0260
 7494SOL    HW133944   3.313   0.352   5.646 -0.0985 -1.2006 -2.8429
 7494SOL    HW233945   3.202   0.309   5.739  0.3675  0.3406  0.5914
 7495SOL     OW33946   1.441   3.828   5.939 -0.0801 -0.3031 -0.0975
 7495SOL    HW133947   1.448   3.810   5.845  0.2793 -0.3597 -0.0615
 7495SOL    HW233948   1.373   3.896   5.936  1.9320  1.7328  0.1619
 7496SOL     OW33949   0.839   4.307   5.798  0.4084 -0.3578 -0.6811
 7496SOL    HW133950   0.769   4.273   5.854  1.0211  0.0875  0.3422
 7496SOL    HW233951   0.919   4.270   5.834 -0.0234 -0.4573  0.1912
 7497SOL     OW33952   0.090   3.393   1.657 -0.6231  0.2462 -0.2915
 7497SOL    HW133953   0.062   3.311   1.700  1.1052 -0.5118 -0.6488
 7497SOL    HW233954   0.017   3.408   1.596 -0.1429  1.5397 -0.5433
 7498SOL     OW33955   2.633   1.443   2.375  0.1557  0.1145 -0.2428
 7498SOL    HW133956   2.613   1.537   2.375  0.7134  0.2346  1.4365
 7498SOL    HW233957   2.587   1.413   2.296 -1.2575  3.3172 -0.6606
 7499SOL     OW33958   0.336   4.338   1.359 -0.4231  0.3192 -0.6861
 7499SOL    HW133959   0.384   4.305   1.435 -0.7888  2.0241  0.2934
 7499SOL    HW233960   0.260   4.280   1.367  0.3660 -0.1104  3.6662
 7500SOL     OW33961   1.055   4.389   0.703  0.0797 -0.4786  0.4254
 7500SOL    HW133962   1.091   4.420   0.787  0.0670  1.6884 -0.3795
 7500SOL    HW233963   0.971   4.434   0.713 -0.4719 -0.9612 -2.0550
 7501SOL     OW33964   4.227   2.456   7.297 -0.0222 -0.0529 -0.2183
 7501SOL    HW133965   4.312   2.450   7.341  0.2689 -0.2975 -0.8162
 7501SOL    HW233966   4.181   2.497   7.370 -0.7333 -0.7372 -0.2744
 7502SOL     OW33967   4.078   1.565   3.784  0.0463  0.0491 -0.1948
 7502SOL    HW133968   4.052   1.473   3.777 -0.9247  0.2646  0.4293
 7502SOL    HW233969   4.055   1.600   3.698  1.4438 -0.8676 -0.9357
 7503SOL     OW33970   3.333   3.901  15.389 -0.0383  0.3042 -0.9790
 7503SOL    HW133971   3.405   3.959  15.413 -2.1157  2.1294  0.8630
 7503SOL    HW233972   3.279   3.964  15.343  0.5895  1.5825  0.0396
 7504SOL     OW33973   3.980   0.071  10.238 -0.7384  0.3797 -0.3058
 7504SOL    HW133974   3.994   0.120  10.157 -0.7246  0.7565 -0.0767
 7504SOL    HW233975   4.029   4.718  10.207  0.2230  0.8774  0.0196
 7505SOL     OW33976   3.349   0.227   0.758  0.0226  0.1734 -0.3978
 7505SOL    HW133977   3.344   0.148   0.812 -0.2797 -0.0188 -0.7049
 7505SOL    HW233978   3.400   0.289   0.810 -0.5383  1.1522 -1.0361
 7506SOL     OW33979   0.229   1.943   6.194  0.0052 -0.4078 -0.9619
 7506SOL    HW133980   0.147   1.964   6.151 -0.4385  0.2083  0.1813
 7506SOL    HW233981   0.283   2.016   6.163 -3.6040  3.0523  0.9979
 7507SOL     OW33982   0.422   2.771   7.306  0.0942 -0.1775 -0.2599
 7507SOL    HW133983   0.431   2.684   7.344  1.8649  0.2814  0.3772
 7507SOL    HW233984   0.512   2.788   7.281  0.0429  0.5392  0.0485
 7508SOL     OW33985   3.803   0.030   5.282 -0.2749 -0.2013 -1.3592
 7508SOL    HW133986   3.793   4.665   5.319  0.0481  0.1780 -0.3817
 7508SOL    HW233987   3.898   0.031   5.288 -0.3149  0.4069 -0.9263
 7509SOL     OW33988   3.517   2.901   2.065  0.1862 -0.7222  0.1163
 7509SOL    HW133989   3.441   2.950   2.031  1.5156  1.1021 -0.2113
 7509SOL    HW233990   3.524   2.848   1.986 -1.2596  1.1615 -1.2776
 7510SOL     OW33991   2.510   3.787  15.867  0.4171 -0.0759  0.3039
 7510SOL    HW133992   2.565   3.802  15.944  0.1345 -1.2137  0.7228
 7510SOL    HW233993   2.443   3.731  15.905 -1.6516  1.8228 -0.6192
 7511SOL     OW33994   3.814   1.972   9.432  0.1810 -0.1953 -0.0296
 7511SOL    HW133995   3.872   2.026   9.378  1.0696 -0.1669  0.9363
 7511SOL    HW233996   3.754   1.945   9.363  0.4535 -1.2827  0.1510
 7512SOL     OW33997   3.475   4.607   8.814 -0.3980 -0.4996  0.0710
 7512SOL    HW133998   3.561   4.611   8.855 -1.0106  1.4060  1.2030
 7512SOL    HW233999   3.447   4.518   8.834 -0.7994 -0.4545 -0.2900
 7513SOL     OW34000   3.930   2.856   3.710 -0.6390  0.2144 -0.1817
 7513SOL    HW134001   3.891   2.934   3.672 -1.5512 -0.6025 -0.9251
 7513SOL    HW234002   3.984   2.895   3.778 -0.2005 -0.3707 -0.1951
 7514SOL     OW34003   1.954   4.423   5.667  0.0674  0.4530 -0.0069
 7514SOL    HW134004   2.047   4.433   5.650  0.1635 -1.9073 -0.9285
 7514SOL    HW234005   1.947   4.372   5.748  1.7831 -2.6484 -1.8161
 7515SOL     OW34006   4.408   4.279  14.892 -0.2436  0.0821  0.3912
 7515SOL    HW134007   4.370   4.204  14.938 -1.7572  0.5764 -0.0701
 7515SOL    HW234008   4.414   4.339  14.967 -0.4171 -1.5806  1.7311
 7516SOL     OW34009   3.280   4.158   8.133 -0.7089  0.4030 -0.3599
 7516SOL    HW134010   3.255   4.073   8.169  0.1380  0.4216  0.2667
 7516SOL    HW234011   3.370   4.141   8.105 -0.5424  0.6298  0.0476
 7517SOL     OW34012   4.700   1.082   8.142 -0.2388 -0.3750 -0.5292
 7517SOL    HW134013   0.032   1.057   8.068  2.9464  0.9720  1.4115
 7517SOL    HW234014   4.662   0.998   8.168  1.4839 -1.9812 -3.2203
 7518SOL     OW34015   1.649   1.072   4.329 -0.1928  0.9389 -0.3216
 7518SOL    HW134016   1.690   1.158   4.336  1.4281  0.0580  0.7512
 7518SOL    HW234017   1.598   1.090   4.250 -0.4237  0.3364 -0.3052
 7519SOL     OW34018   0.959   0.530   1.800  0.8783  0.3738  0.0295
 7519SOL    HW134019   0.873   0.564   1.826  0.1100 -2.8726  1.7488
 7519SOL    HW234020   1.000   0.562   1.880 -0.0570  0.9940  0.2653
 7520SOL     OW34021   2.972   1.974   6.080 -0.3940 -0.0480  0.2118
 7520SOL    HW134022   2.913   1.972   6.156 -1.3384 -2.3471 -0.5593
 7520SOL    HW234023   2.914   1.937   6.013 -0.5211  0.8551 -0.1702
 7521SOL     OW34024   0.542   3.644   6.418 -0.3060 -0.4095  0.0475
 7521SOL    HW134025   0.496   3.565   6.392  0.4941 -0.6790 -0.5367
 7521SOL    HW234026   0.499   3.705   6.358 -0.8539  0.4687  1.3123
 7522SOL     OW34027   0.770   3.594   8.607 -0.3993 -0.3130  0.3157
 7522SOL    HW134028   0.761   3.670   8.551 -1.7842 -0.6679  0.0645
 7522SOL    HW234029   0.685   3.592   8.651 -0.3077  0.0550  0.5044
 7523SOL     OW34030   1.743   1.203   2.869 -0.3138  0.2554 -0.2295
 7523SOL    HW134031   1.756   1.118   2.826  1.8139  0.2672  0.4029
 7523SOL    HW234032   1.773   1.261   2.799 -1.7764  0.2781 -0.8575
 7524SOL     OW34033   1.935   4.487  10.281  0.2366 -0.5151 -0.0502
 7524SOL    HW134034   1.859   4.447  10.239  0.7608 -0.1642 -1.3419
 7524SOL    HW234035   1.894   4.499  10.367 -1.0984  2.6277 -1.1445
 7525SOL     OW34036   2.941   3.254   2.843 -0.5224  0.8465 -0.1429
 7525SOL    HW134037   2.852   3.289   2.838 -1.2676 -1.1766 -0.9256
 7525SOL    HW234038   2.988   3.310   2.781 -1.3822  1.3562 -0.3402
 7526SOL     OW34039   2.446   4.649   7.383 -0.2101  0.3027 -0.3000
 7526SOL    HW134040   2.423   4.618   7.470 -2.0993  1.5857 -0.3247
 7526SOL    HW234041   2.386   4.599   7.328 -1.8159  1.0112  0.8026
 7527SOL     OW34042   3.176   1.934  10.652  0.2172  0.2073 -0.0703
 7527SOL    HW134043   3.139   2.001  10.709 -0.2801  0.6607 -0.9330
 7527SOL    HW234044   3.101   1.884  10.620  2.6724 -2.3931 -1.7604
 7528SOL     OW34045   3.363   4.518  12.288  0.4902 -0.2555  0.1111
 7528SOL    HW134046   3.345   4.601  12.333  1.1997  0.1279 -0.3070
 7528SOL    HW234047   3.458   4.520  12.278  0.6498  0.9655  1.7464
 7529SOL     OW34048   1.090   0.004  13.224  0.1189  0.0325  0.3009
 7529SOL    HW134049   1.041   0.052  13.291  2.9271 -0.0442  2.3963
 7529SOL    HW234050   1.167   0.060  13.217 -1.1514  1.7354 -0.0773
 7530SOL     OW34051   4.559   2.799   5.211 -0.0828 -0.1878  0.0521
 7530SOL    HW134052   4.569   2.848   5.292 -3.5204 -0.0397  0.4000
 7530SOL    HW234053   4.568   2.861   5.138 -2.9721  1.7960  1.3382
 7531SOL     OW34054   3.061   4.343   8.497 -0.0268 -0.0696  0.2993
 7531SOL    HW134055   3.117   4.410   8.536  0.3082 -0.0917 -0.1418
 7531SOL    HW234056   3.095   4.333   8.408 -1.0088 -0.7639  0.0005
 7532SOL     OW34057   2.575   3.003  11.274  0.4990  0.4864 -0.1639
 7532SOL    HW134058   2.543   2.931  11.219 -0.9022  0.0581  1.2251
 7532SOL    HW234059   2.657   3.012  11.225  0.0685 -3.5462 -1.6157
 7533SOL     OW34060   3.221   0.273   9.261  0.2953 -0.3559  0.1714
 7533SOL    HW134061   3.269   0.288   9.342  1.4040  0.2273 -0.5981
 7533SOL    HW234062   3.213   0.363   9.229 -0.0921  0.0986  1.5568
 7534SOL     OW34063   3.636   0.393  15.603  0.1940 -0.3309  0.0917
 7534SOL    HW134064   3.645   0.360  15.514 -2.6217  1.7991 -0.9853
 7534SOL    HW234065   3.724   0.433  15.604  1.0406 -2.1767 -0.5164
 7535SOL     OW34066   4.152   0.485  15.165 -0.1126  0.0737  0.0690
 7535SOL    HW134067   4.229   0.443  15.127 -0.7358 -3.3532  2.6434
 7535SOL    HW234068   4.092   0.412  15.181  1.6757 -1.4316 -0.0286
 7536SOL     OW34069   3.350   0.464   7.065 -0.0153 -0.6310  0.1075
 7536SOL    HW134070   3.320   0.509   6.986 -1.5190 -1.4540  0.2061
 7536SOL    HW234071   3.443   0.483   7.052 -0.2129  1.4453  1.8064
 7537SOL     OW34072   1.150   3.957   9.196 -0.1122  0.3581 -0.5085
 7537SOL    HW134073   1.064   3.995   9.214  0.6405  1.6977  0.3415
 7537SOL    HW234074   1.125   3.868   9.173 -0.1777 -0.0382  1.0942
 7538SOL     OW34075   1.828   4.363   3.072  0.2767 -0.1290  0.3116
 7538SOL    HW134076   1.909   4.389   3.117 -0.0376 -0.2236  0.9348
 7538SOL    HW234077   1.860   4.287   3.024  1.7067  1.1027 -0.6740
 7539SOL     OW34078   0.050   3.421  11.908 -0.0128 -0.2822 -0.2388
 7539SOL    HW134079   0.008   3.462  11.984 -0.7109  0.5093 -1.0665
 7539SOL    HW234080   0.067   3.500  11.857 -2.6350  1.0253  0.9340
 7540SOL     OW34081   2.927   0.231  10.424 -0.1840 -0.1604 -0.1220
 7540SOL    HW134082   2.874   0.152  10.433 -1.1334  0.6783  1.7492
 7540SOL    HW234083   2.870   0.307  10.411 -0.1543  0.5393  3.7183
 7541SOL     OW34084   1.622   0.053   2.048 -0.3919  0.2957 -0.7664
 7541SOL    HW134085   1.700   0.103   2.026 -1.3175  1.3985 -1.5536
 7541SOL    HW234086   1.641   4.698   1.994  2.2838 -0.4128  1.2287
 7542SOL     OW34087   1.683   0.562  10.128 -0.3524 -0.0466 -0.3815
 7542SOL    HW134088   1.729   0.566  10.211  0.3027  0.9721 -0.7945
 7542SOL    HW234089   1.656   0.653  10.122  0.2685  0.1866  0.4551
 7543SOL     OW34090   4.095   1.922   6.690  0.1457  0.3265 -0.1123
 7543SOL    HW134091   4.155   1.981   6.736 -1.1290  0.0114  1.9746
 7543SOL    HW234092   4.130   1.835   6.710 -1.6117 -0.4208 -0.2579
 7544SOL     OW34093   2.323   3.338  15.003 -0.0937 -0.3153  0.4022
 7544SOL    HW134094   2.255   3.373  14.945 -1.0318  0.6435  2.0486
 7544SOL    HW234095   2.394   3.311  14.945 -0.8771 -0.0846 -0.6751
 7545SOL     OW34096   1.808   3.329  13.037  0.0921 -0.3384  0.4601
 7545SOL    HW134097   1.766   3.247  13.061  0.0252 -1.0204 -1.9156
 7545SOL    HW234098   1.894   3.332  13.079  0.2796  1.1139 -0.0277
 7546SOL     OW34099   0.108   4.219  14.329 -0.3135  0.1884 -0.2211
 7546SOL    HW134100   0.193   4.245  14.293  0.9563 -0.7394  2.1242
 7546SOL    HW234101   0.101   4.134  14.285  0.3490  0.8210 -1.5807
 7547SOL     OW34102   1.009   0.203   7.569 -0.1568  0.1734  0.3906
 7547SOL    HW134103   0.996   0.278   7.626 -2.6700 -1.2764  1.6893
 7547SOL    HW234104   0.930   0.154   7.592 -1.5983  2.8589  1.1025
 7548SOL     OW34105   1.915   0.724   3.045  0.4214  0.0744  0.3044
 7548SOL    HW134106   1.964   0.781   2.985 -1.1803 -1.5175 -2.5204
 7548SOL    HW234107   1.905   0.785   3.118  0.8287  0.9580 -0.3695
 7549SOL     OW34108   3.925   3.958  14.892 -0.3483  0.1604 -0.2567
 7549SOL    HW134109   3.982   4.032  14.912  1.8477 -1.0755 -1.9917
 7549SOL    HW234110   3.872   3.954  14.972  1.0668  0.4126  0.6854
 7550SOL     OW34111   2.751   1.464  13.281  0.1745  0.1253  0.1149
 7550SOL    HW134112   2.800   1.383  13.266  0.5535  0.5371 -0.8402
 7550SOL    HW234113   2.689   1.462  13.208 -0.4767  0.7389  0.6512
 7551SOL     OW34114   2.017   0.951   8.693 -0.1856 -0.1320  0.0371
 7551SOL    HW134115   2.033   0.903   8.774  0.0276 -0.4891 -0.2172
 7551SOL    HW234116   2.089   1.014   8.696 -0.5428  0.2927 -0.3070
 7552SOL     OW34117   2.163   0.538   2.067  0.1719  0.1265 -0.3260
 7552SOL    HW134118   2.255   0.549   2.041 -0.1348  2.5363 -0.4066
 7552SOL    HW234119   2.129   0.533   1.978 -0.8643 -3.4874  0.2705
 7553SOL     OW34120   0.614   0.008   4.988 -0.4029  0.4600 -0.1674
 7553SOL    HW134121   0.599   0.085   4.932  0.9492  0.6315 -0.3026
 7553SOL    HW234122   0.549   4.673   4.950 -0.1058  0.1521 -0.2028
 7554SOL     OW34123   0.045   1.269  16.533  0.1125  0.4937 -0.3171
 7554SOL    HW134124   0.098   1.336  16.490  0.5886 -0.7623 -1.6481
 7554SOL    HW234125   0.015   1.323  16.607 -0.8153  1.0667 -1.1211
 7555SOL     OW34126   0.708   1.828   2.520 -0.4775  0.1520  0.2434
 7555SOL    HW134127   0.614   1.816   2.531 -0.1706 -2.3379  0.1789
 7555SOL    HW234128   0.707   1.916   2.481  2.3035  0.9113  1.8855
 7556SOL     OW34129   3.899   0.549  16.103 -0.0074  0.2886  0.0862
 7556SOL    HW134130   3.867   0.638  16.087 -0.4643  0.1885  0.4458
 7556SOL    HW234131   3.840   0.503  16.044 -0.6182  2.9906 -1.4034
 7557SOL     OW34132   0.882   2.007   5.746  0.1051  0.2642  0.5842
 7557SOL    HW134133   0.800   1.957   5.745  0.0923  0.3191 -2.5516
 7557SOL    HW234134   0.925   1.958   5.676  0.8355 -0.2197  1.3743
 7558SOL     OW34135   0.793   3.259  12.385  0.6555  0.5531  0.5483
 7558SOL    HW134136   0.808   3.165  12.373 -0.7373  0.4207 -0.1656
 7558SOL    HW234137   0.849   3.296  12.317 -1.4871  1.2263 -0.8614
 7559SOL     OW34138   2.441   0.657   7.618 -0.2883 -1.0555 -0.2174
 7559SOL    HW134139   2.422   0.579   7.670  1.1190 -2.1875 -1.3947
 7559SOL    HW234140   2.443   0.719   7.690 -1.7990  0.4912 -1.5103
 7560SOL     OW34141   0.600   1.677   5.918  0.3481 -0.4450 -0.2856
 7560SOL    HW134142   0.507   1.659   5.905  0.2613 -0.8408  0.9128
 7560SOL    HW234143   0.644   1.601   5.880  1.0871 -0.6218  0.9271
 7561SOL     OW34144   3.635   4.571   0.404  0.4001  0.2504 -0.2888
 7561SOL    HW134145   3.619   4.647   0.461  0.6968  2.5803 -3.3357
 7561SOL    HW234146   3.668   4.616   0.326 -0.4644  0.9232 -0.2676
 7562SOL     OW34147   4.235   1.919   5.518  0.1089  0.2061  0.0347
 7562SOL    HW134148   4.316   1.911   5.467 -0.6371  1.7875 -1.4014
 7562SOL    HW234149   4.181   1.984   5.473  1.8395  1.9024  0.4181
 7563SOL     OW34150   1.016   4.622   8.864  0.0741  0.0998 -0.0344
 7563SOL    HW134151   1.053   4.646   8.780 -1.2807  2.4433  0.0164
 7563SOL    HW234152   1.055   4.685   8.925  0.1137  1.5553 -1.5619
 7564SOL     OW34153   2.274   0.982  16.943 -0.2864 -0.0387  0.3941
 7564SOL    HW134154   2.264   0.920  16.870 -0.4147  0.3728  0.0643
 7564SOL    HW234155   2.308   0.923  17.010 -0.1422 -0.7624 -0.3038
 7565SOL     OW34156   0.669   3.160   2.174  0.2410  0.0222  0.2092
 7565SOL    HW134157   0.629   3.189   2.256  0.6169 -0.7437  0.6658
 7565SOL    HW234158   0.762   3.176   2.189  0.5467  0.7539 -2.3806
 7566SOL     OW34159   0.369   1.835  17.177 -0.6852  0.2311  0.2603
 7566SOL    HW134160   0.400   1.770  17.240 -0.6563 -1.2186 -1.2360
 7566SOL    HW234161   0.440   1.897  17.194  0.0286 -1.0373  1.8792
 7567SOL     OW34162   2.960   3.914   4.516 -0.8705  0.0131  0.2856
 7567SOL    HW134163   3.041   3.947   4.478 -1.0591  0.1264 -0.0179
 7567SOL    HW234164   2.915   3.911   4.432  2.2140  0.1227 -1.3628
 7568SOL     OW34165   2.708   0.284   5.725 -0.0919 -0.5042 -0.4171
 7568SOL    HW134166   2.637   0.238   5.768 -0.2617  0.0547 -0.1025
 7568SOL    HW234167   2.748   0.338   5.794  0.0982 -1.2809  0.0779
 7569SOL     OW34168   4.098   3.806  11.162 -0.0698 -0.1084 -0.8469
 7569SOL    HW134169   4.009   3.770  11.172 -0.4551  0.3031 -2.7761
 7569SOL    HW234170   4.151   3.739  11.206 -0.2733 -0.4411 -1.1050
 7570SOL     OW34171   4.001   3.972   6.408 -0.1178 -0.2953  0.2395
 7570SOL    HW134172   3.923   3.931   6.371 -0.7042  0.5081  0.5751
 7570SOL    HW234173   4.025   3.915   6.480  0.2054 -1.9016 -1.1487
 7571SOL     OW34174   2.645   0.703  15.732  0.0067  0.0529  0.7115
 7571SOL    HW134175   2.568   0.697  15.675  0.8471 -1.6689 -0.2536
 7571SOL    HW234176   2.595   0.724  15.811  0.0720  1.0267  0.4903
 7572SOL     OW34177   1.865   1.469   8.427  0.2349 -0.5293  0.3866
 7572SOL    HW134178   1.918   1.534   8.383 -1.8204  0.3784 -0.7424
 7572SOL    HW234179   1.854   1.415   8.349 -1.0650  1.2220 -0.6491
 7573SOL     OW34180   0.347   4.593   1.666 -0.1973 -0.6237 -0.3573
 7573SOL    HW134181   0.368   4.652   1.593  1.1526 -1.6346 -0.7816
 7573SOL    HW234182   0.263   4.553   1.646 -1.2386  1.4229 -0.0587
 7574SOL     OW34183   0.431   0.926  15.454 -0.2656  0.1449 -0.1044
 7574SOL    HW134184   0.507   0.954  15.505 -0.3284  0.1039  0.0126
 7574SOL    HW234185   0.428   0.839  15.493 -1.0094 -0.0975 -0.7119
 7575SOL     OW34186   1.274   4.490  17.652  0.7018  0.4365 -0.0838
 7575SOL    HW134187   1.202   4.539  17.613 -0.7535 -1.3078  0.4289
 7575SOL    HW234188   1.248   4.398  17.641 -2.0021  1.0025  1.7142
 7576SOL     OW34189   0.010   4.119  13.196 -0.1369 -0.5173  0.2464
 7576SOL    HW134190   4.672   4.164  13.138  1.7616 -0.7685 -1.9181
 7576SOL    HW234191   4.692   4.138  13.281  3.4937  0.9961  1.6642
 7577SOL     OW34192   0.698   2.503  10.962  0.4302 -0.1186  0.3016
 7577SOL    HW134193   0.668   2.537  10.878  1.6992  0.4248  0.0703
 7577SOL    HW234194   0.793   2.515  10.965  0.4383  0.1566 -1.1445
 7578SOL     OW34195   1.625   3.054   7.156  0.1371 -0.3737 -0.1487
 7578SOL    HW134196   1.660   2.970   7.183 -0.4763 -0.9653 -1.1890
 7578SOL    HW234197   1.688   3.109   7.202 -0.2571  0.2497 -0.3538
 7579SOL     OW34198   2.728   2.049   1.499 -0.1955 -0.1087 -0.4970
 7579SOL    HW134199   2.804   1.992   1.496 -1.2986 -1.5053 -1.6253
 7579SOL    HW234200   2.772   2.135   1.500  2.2454 -1.3396 -2.0125
 7580SOL     OW34201   0.013   3.191   1.853 -0.3835 -0.0236 -0.4830
 7580SOL    HW134202   0.031   3.220   1.942 -2.0991  0.8885 -0.4270
 7580SOL    HW234203   4.645   3.163   1.867 -0.4956  0.3933 -0.3760
 7581SOL     OW34204   0.237   0.819   5.661  0.3727 -0.9698 -0.8550
 7581SOL    HW134205   0.247   0.795   5.569 -1.2141 -0.3745 -1.1728
 7581SOL    HW234206   0.142   0.823   5.669  0.4071 -0.1928 -0.8760
 7582SOL     OW34207   1.656   0.096   6.922 -0.5437 -0.5484 -0.5888
 7582SOL    HW134208   1.567   0.083   6.888 -1.5798  1.2070  1.3874
 7582SOL    HW234209   1.701   0.074   6.841  1.3523 -2.0523  0.8907
 7583SOL     OW34210   3.749   4.656   2.493  0.5953 -0.3030  0.4955
 7583SOL    HW134211   3.733   4.633   2.402 -0.9971 -1.5350  1.0809
 7583SOL    HW234212   3.699   4.583   2.532 -0.4565  0.1495 -0.0173
 7584SOL     OW34213   4.468   2.016   5.339  0.5150 -0.3804  0.1287
 7584SOL    HW134214   4.398   2.002   5.275  1.6061 -0.9989 -0.9123
 7584SOL    HW234215   4.475   2.112   5.334  1.3744 -0.4037  0.8671
 7585SOL     OW34216   2.414   1.673   7.861 -0.6770  0.2247  0.5486
 7585SOL    HW134217   2.474   1.612   7.819 -1.3486 -0.2319  0.2383
 7585SOL    HW234218   2.394   1.630   7.944  1.6735 -2.3446 -0.2343
 7586SOL     OW34219   2.235   3.692   9.990  0.2879 -0.0361 -0.2118
 7586SOL    HW134220   2.240   3.603   9.954  1.7916  0.8257 -2.1363
 7586SOL    HW234221   2.169   3.676  10.058  0.7554  1.1102  0.4973
 7587SOL     OW34222   0.038   4.629  17.570  0.7238  0.0222  0.0236
 7587SOL    HW134223   0.024   4.687  17.645 -1.3853  1.1300 -1.2473
 7587SOL    HW234224   0.039   4.545  17.617  1.1658 -0.0838 -0.1691
 7588SOL     OW34225   2.005   2.454   6.928 -0.1410 -0.3113  0.4219
 7588SOL    HW134226   2.036   2.539   6.960  1.0058  0.2104 -2.0980
 7588SOL    HW234227   2.061   2.393   6.975 -0.9998 -0.1515  1.6464
 7589SOL     OW34228   0.183   4.057   7.259 -0.0821  0.3027 -0.3569
 7589SOL    HW134229   0.141   4.077   7.175  1.2275  1.1851 -0.8088
 7589SOL    HW234230   0.247   4.127   7.271 -0.8655  1.1020 -0.8437
 7590SOL     OW34231   3.721   3.984   7.366 -0.0585 -0.2117 -0.0168
 7590SOL    HW134232   3.709   4.072   7.332  1.8966 -0.1877 -0.6836
 7590SOL    HW234233   3.714   4.003   7.460 -2.2915  0.6183 -0.3665
 7591SOL     OW34234   2.013   2.751   9.763  0.2523 -0.0652  0.0522
 7591SOL    HW134235   1.958   2.809   9.710 -0.2940 -0.3046  0.3635
 7591SOL    HW234236   2.046   2.817   9.824 -0.0252 -0.2960  0.4487
 7592SOL     OW34237   3.873   0.495   4.988 -0.0682 -0.0355 -0.3727
 7592SOL    HW134238   3.832   0.417   5.026  2.5694 -0.3003  1.9361
 7592SOL    HW234239   3.847   0.564   5.049  0.5797 -1.2331  1.2609
 7593SOL     OW34240   1.107   1.168   6.931 -0.2670  0.0527  0.1148
 7593SOL    HW134241   1.056   1.088   6.925 -2.8284  1.8852 -2.4904
 7593SOL    HW234242   1.033   1.227   6.917  0.5287  1.0246 -0.0943
 7594SOL     OW34243   2.415   3.350   6.031 -0.2075 -0.1025  0.2194
 7594SOL    HW134244   2.461   3.426   5.995  1.7075 -1.2723  0.1969
 7594SOL    HW234245   2.424   3.288   5.959 -0.3862  1.0825 -0.8184
 7595SOL     OW34246   2.690   1.149  15.191  0.1756  0.5287 -0.7129
 7595SOL    HW134247   2.710   1.062  15.157 -0.9780  0.3174 -0.8672
 7595SOL    HW234248   2.667   1.133  15.282 -0.0636 -0.2458 -0.9101
 7596SOL     OW34249   3.985   0.680   3.976  0.2145 -0.0587  0.0722
 7596SOL    HW134250   4.017   0.754   3.924 -0.7868  0.4643  0.1866
 7596SOL    HW234251   3.892   0.671   3.955  0.3550  1.3342 -1.1938
 7597SOL     OW34252   4.112   0.760   0.790  0.2507  0.6980  0.0510
 7597SOL    HW134253   4.039   0.726   0.842  1.9726 -2.6388  0.3055
 7597SOL    HW234254   4.139   0.834   0.844  1.9706  1.8213 -2.3770
 7598SOL     OW34255   1.846   0.243   7.343 -0.0713  0.1437 -0.5846
 7598SOL    HW134256   1.771   0.287   7.303  0.2096 -0.1877 -1.4649
 7598SOL    HW234257   1.909   0.267   7.275  0.3380 -1.8249 -0.9003
 7599SOL     OW34258   3.345   2.155   4.359  0.1512  0.0004  0.1091
 7599SOL    HW134259   3.435   2.139   4.332  0.5974  2.7374  0.0075
 7599SOL    HW234260   3.361   2.219   4.428 -0.6525  0.2249  0.0857
 7600SOL     OW34261   1.790   2.287   8.582  0.2549 -0.0554 -0.2701
 7600SOL    HW134262   1.851   2.323   8.646  0.5336 -1.9541  0.5199
 7600SOL    HW234263   1.852   2.240   8.526 -0.5036 -0.7233 -0.5603
 7601SOL     OW34264   1.268   1.759   6.171  0.1238  0.0006 -0.0752
 7601SOL    HW134265   1.191   1.704   6.184 -0.2745  0.8131  1.0419
 7601SOL    HW234266   1.222   1.835   6.206  1.4421  1.5464 -1.7040
 7602SOL     OW34267   4.090   1.991   8.104 -0.1199  0.8593 -0.3079
 7602SOL    HW134268   4.104   1.900   8.075 -0.7306  1.5477 -2.7438
 7602SOL    HW234269   4.033   1.983   8.180 -0.7410 -0.1345 -0.8783
 7603SOL     OW34270   0.716   1.441   4.199  0.6782 -0.0336  0.3502
 7603SOL    HW134271   0.621   1.427   4.204  0.8170 -0.8699  0.5958
 7603SOL    HW234272   0.727   1.440   4.104 -1.7652  1.7280  0.0413
 7604SOL     OW34273   2.180   2.361   3.830 -0.1133  0.2224 -0.1163
 7604SOL    HW134274   2.268   2.394   3.844 -0.2760  1.3339 -1.8421
 7604SOL    HW234275   2.175   2.359   3.735  2.3035  0.5027 -0.2445
 7605SOL     OW34276   2.301   3.180   2.553  0.1645  0.0604  0.3296
 7605SOL    HW134277   2.354   3.260   2.556 -0.1257  0.2179  1.2244
 7605SOL    HW234278   2.350   3.115   2.603  1.6386  0.8059 -0.1266
 7606SOL     OW34279   0.815   0.476  16.901 -0.3445 -0.4999  0.5883
 7606SOL    HW134280   0.844   0.502  16.813  0.2095 -0.1000  0.8822
 7606SOL    HW234281   0.725   0.464  16.872 -0.3027 -0.1101  0.2904
 7607SOL     OW34282   3.740   3.288  13.313  0.2873  0.3853  0.3952
 7607SOL    HW134283   3.681   3.233  13.365 -0.8904 -0.0367 -1.3603
 7607SOL    HW234284   3.672   3.332  13.261  0.7187 -0.8106 -1.1815
 7608SOL     OW34285   0.861   0.810   3.090  0.2357  0.0559 -0.1166
 7608SOL    HW134286   0.839   0.753   3.016  0.2412  1.0783 -0.9185
 7608SOL    HW234287   0.928   0.755   3.129 -0.9044 -2.0068 -1.0697
 7609SOL     OW34288   0.723   1.160   3.458 -0.8522  0.6963 -0.1120
 7609SOL    HW134289   0.727   1.169   3.363 -2.0686  1.0122 -0.1409
 7609SOL    HW234290   0.645   1.104   3.454 -0.3035 -0.1557  0.9574
 7610SOL     OW34291   2.903   3.436   2.328 -0.3587 -0.3483  0.3141
 7610SOL    HW134292   2.964   3.487   2.382 -0.0582  0.8740 -1.1611
 7610SOL    HW234293   2.821   3.476   2.356 -0.1367  0.4156 -0.1189
 7611SOL     OW34294   3.381   2.714  14.702  0.2342  0.1495  0.5584
 7611SOL    HW134295   3.397   2.623  14.677 -0.5921  0.1244  0.1003
 7611SOL    HW234296   3.301   2.738  14.656  0.8018 -1.5057 -1.2821
 7612SOL     OW34297   2.839   0.751   8.863 -0.3358 -0.5032 -0.0310
 7612SOL    HW134298   2.822   0.699   8.784 -0.6791 -0.4038 -0.0215
 7612SOL    HW234299   2.922   0.793   8.838 -0.6136  1.1838  1.8689
 7613SOL     OW34300   2.993   3.955   1.439 -0.5469  0.7433  0.0754
 7613SOL    HW134301   2.959   3.905   1.365 -1.4691 -0.5696  1.3870
 7613SOL    HW234302   3.057   3.891   1.470  0.0284  0.1079 -2.3956
 7614SOL     OW34303   1.939   2.088   6.997  0.0271 -0.1038 -0.2302
 7614SOL    HW134304   1.884   2.033   7.052 -1.5933  0.5402 -1.2107
 7614SOL    HW234305   1.900   2.092   6.910  1.6794  2.2301 -0.8743
 7615SOL     OW34306   3.141   1.475   4.538 -0.4716  0.6516 -0.4546
 7615SOL    HW134307   3.208   1.539   4.511 -1.4798  2.8097  2.1713
 7615SOL    HW234308   3.186   1.395   4.510  0.2392  1.6658 -2.2421
 7616SOL     OW34309   4.460   1.365  17.075  0.0046 -0.3763 -0.3437
 7616SOL    HW134310   4.384   1.348  17.020 -2.4107  2.0117  2.2222
 7616SOL    HW234311   4.515   1.288  17.058  1.6692  0.5145  0.9642
 7617SOL     OW34312   3.095   1.525   7.457 -0.1976  0.4264  0.0723
 7617SOL    HW134313   3.170   1.578   7.431 -0.3413  1.4399  1.6723
 7617SOL    HW234314   3.057   1.581   7.526  1.8862  1.6692  0.2197
 7618SOL     OW34315   1.240   1.581   7.771  0.3167 -0.0689  0.1660
 7618SOL    HW134316   1.230   1.499   7.819 -0.8877 -0.0053  0.0356
 7618SOL    HW234317   1.209   1.651   7.829  2.5614  1.2949 -0.2795
 7619SOL     OW34318   0.669   2.584  13.055  0.5892 -0.2026  0.4832
 7619SOL    HW134319   0.593   2.547  13.100  0.0481  1.8709  1.2735
 7619SOL    HW234320   0.634   2.664  13.017 -0.2088 -0.9617 -0.3817
 7620SOL     OW34321   3.719   2.516   8.122  0.3407 -0.2235  0.4012
 7620SOL    HW134322   3.716   2.575   8.197 -0.6188  2.3512 -1.6916
 7620SOL    HW234323   3.790   2.551   8.069 -1.0994 -1.3586 -2.3349
 7621SOL     OW34324   1.679   3.652   0.182 -0.8837  0.1651 -0.0900
 7621SOL    HW134325   1.605   3.688   0.231 -0.2018 -0.8254  1.6907
 7621SOL    HW234326   1.679   3.557   0.196 -2.3772 -0.2624 -3.0793
 7622SOL     OW34327   3.227   2.711   9.551 -0.0674  0.0202 -0.2948
 7622SOL    HW134328   3.319   2.685   9.553 -0.0286  0.2309  0.6900
 7622SOL    HW234329   3.194   2.688   9.637 -0.4659  1.6260 -0.0216
 7623SOL     OW34330   3.634   1.828   3.543  0.1680  0.2545 -0.1867
 7623SOL    HW134331   3.653   1.896   3.608 -0.5102  1.1812 -0.9685
 7623SOL    HW234332   3.669   1.869   3.464  0.1262 -1.3595 -1.0564
 7624SOL     OW34333   1.061   0.588   9.535 -0.0459  0.2968  0.6386
 7624SOL    HW134334   1.013   0.516   9.495 -0.8312  0.9399  0.4166
 7624SOL    HW234335   1.110   0.542   9.603  2.0233  2.9592  0.9550
 7625SOL     OW34336   0.538   2.083   8.968  0.0500  0.2965  0.5265
 7625SOL    HW134337   0.550   2.163   8.917  1.3585 -0.0500  0.3004
 7625SOL    HW234338   0.582   2.013   8.920 -1.6583 -2.1924  2.5007
 7626SOL     OW34339   3.989   3.689   2.375 -0.2929 -0.3090  0.0085
 7626SOL    HW134340   4.010   3.778   2.405  1.5857 -0.2949 -1.4155
 7626SOL    HW234341   3.895   3.689   2.357 -0.0551 -2.2473 -1.1771
 7627SOL     OW34342   3.330   0.579   8.841  0.4065 -0.3614 -0.2572
 7627SOL    HW134343   3.406   0.589   8.783  0.3480  2.3434  0.1582
 7627SOL    HW234344   3.296   0.668   8.846  2.5757  0.4363  0.3474
 7628SOL     OW34345   2.265   0.380  14.486  0.1953 -0.2873 -0.2620
 7628SOL    HW134346   2.317   0.310  14.525  3.6903  1.7850 -1.1730
 7628SOL    HW234347   2.193   0.329  14.449 -1.1290  2.3059 -1.2578
 7629SOL     OW34348   4.269   3.965  15.948  0.2511 -0.2453 -0.6033
 7629SOL    HW134349   4.269   3.954  15.852 -0.3924 -2.2973 -0.3789
 7629SOL    HW234350   4.228   4.049  15.968  0.9021 -0.0108 -0.2771
 7630SOL     OW34351   3.502   4.692   7.856  0.1740 -0.2831 -0.2027
 7630SOL    HW134352   3.474   4.619   7.801  0.0690  1.4522 -2.4557
 7630SOL    HW234353   3.580   4.659   7.900 -0.4663 -0.1506  1.0348
 7631SOL     OW34354   3.717   3.127  15.439  1.3176  0.1434 -0.2545
 7631SOL    HW134355   3.673   3.044  15.462 -0.2023  0.5079 -1.8334
 7631SOL    HW234356   3.804   3.105  15.407  0.6944  0.7251 -2.3392
 7632SOL     OW34357   1.263   2.784   3.394 -0.0346 -0.0500  0.3872
 7632SOL    HW134358   1.188   2.811   3.448  2.1260  0.5030  3.1134
 7632SOL    HW234359   1.321   2.759   3.466  0.8301  1.2809  0.1435
 7633SOL     OW34360   0.181   2.916   0.473  0.4282  0.3852  0.3592
 7633SOL    HW134361   0.226   2.963   0.543 -0.3238  0.9400  0.4746
 7633SOL    HW234362   0.173   2.986   0.409 -0.3791 -0.0075  0.0284
 7634SOL     OW34363   3.574   2.248  17.656 -0.2395 -0.3176  0.2003
 7634SOL    HW134364   3.550   2.188   0.034  0.6823 -1.8324 -0.7791
 7634SOL    HW234365   3.595   2.180  17.592 -1.7729 -1.5152  0.9601
 7635SOL     OW34366   0.243   3.209   3.920 -0.7646  0.3707  0.2578
 7635SOL    HW134367   0.301   3.211   3.844 -1.6657 -0.1630 -0.4580
 7635SOL    HW234368   0.255   3.118   3.945 -1.2503  0.2557  0.0736
 7636SOL     OW34369   2.179   4.008   2.121  0.0814  0.7696 -0.1039
 7636SOL    HW134370   2.107   4.071   2.118  0.5301  1.2121 -1.3782
 7636SOL    HW234371   2.186   3.985   2.214 -3.4749  0.1128  0.0180
 7637SOL     OW34372   2.099   2.605   8.227  0.1658  0.0918 -0.2014
 7637SOL    HW134373   2.024   2.561   8.188 -1.1713  0.9658  1.3961
 7637SOL    HW234374   2.114   2.668   8.156  1.7063 -0.4378 -0.3556
 7638SOL     OW34375   3.086   0.408   5.804  0.2962  0.2302 -0.2451
 7638SOL    HW134376   2.994   0.432   5.791  0.7290  0.5855 -2.5735
 7638SOL    HW234377   3.098   0.431   5.896  2.7398 -0.2765 -0.4468
 7639SOL     OW34378   1.541   4.543  16.945  0.0490 -0.2569  0.2638
 7639SOL    HW134379   1.599   4.606  16.987  0.2158 -1.9213  2.5167
 7639SOL    HW234380   1.552   4.568  16.854 -2.0552  1.4191  0.4658
 7640SOL     OW34381   3.618   1.591  16.574  0.3909  0.2856 -0.1435
 7640SOL    HW134382   3.574   1.657  16.627  2.5536 -0.4469  2.5745
 7640SOL    HW234383   3.543   1.536  16.551  0.4742  0.4607 -0.8498
 7641SOL     OW34384   2.535   1.717   1.484  0.0908  0.4941 -0.2018
 7641SOL    HW134385   2.479   1.786   1.520 -0.5608  0.6884 -1.5792
 7641SOL    HW234386   2.543   1.754   1.396  2.0258  0.8163  0.1061
 7642SOL     OW34387   3.618   3.210   2.076 -0.4186  0.1409  0.3682
 7642SOL    HW134388   3.585   3.221   1.987 -0.0093 -3.5131 -0.2570
 7642SOL    HW234389   3.536   3.243   2.112 -0.0016  2.2172 -0.6012
 7643SOL     OW34390   0.140   2.091  13.517 -0.1485  0.0031 -0.1211
 7643SOL    HW134391   0.107   2.056  13.434 -0.3547 -0.3594  0.1151
 7643SOL    HW234392   0.066   2.067  13.571  1.7154 -3.1026  1.0667
 7644SOL     OW34393   0.747   2.147   6.725  0.7381  0.0251  0.2130
 7644SOL    HW134394   0.723   2.137   6.817 -0.2048  2.1987  0.1742
 7644SOL    HW234395   0.804   2.224   6.727  0.5052  0.1806  0.6825
 7645SOL     OW34396   2.371   1.460   3.742 -0.3247  0.3446 -0.1036
 7645SOL    HW134397   2.391   1.425   3.655  2.5558  1.7167 -0.0238
 7645SOL    HW234398   2.324   1.391   3.788  3.2212 -1.9918  0.0800
 7646SOL     OW34399   4.170   2.353   5.872  0.4121 -0.0360 -0.4402
 7646SOL    HW134400   4.153   2.390   5.959 -2.6424 -0.3315 -0.8792
 7646SOL    HW234401   4.264   2.365   5.865  0.7107 -1.2976  1.5071
 7647SOL     OW34402   4.481   0.902  11.348  0.4360  0.6621 -0.3181
 7647SOL    HW134403   4.532   0.968  11.396 -0.0638 -0.1243  1.2883
 7647SOL    HW234404   4.398   0.947  11.365 -0.1882 -0.6780  0.1936
 7648SOL     OW34405   4.026   1.228   2.507  0.6585  0.1662 -0.6071
 7648SOL    HW134406   4.009   1.168   2.434 -1.7518  1.5174 -1.1543
 7648SOL    HW234407   4.045   1.305   2.454  0.4938  0.3670 -0.3693
 7649SOL     OW34408   1.263   3.624   7.083 -0.0913 -0.0297 -0.8321
 7649SOL    HW134409   1.225   3.651   7.166 -0.1767 -1.1325 -0.5076
 7649SOL    HW234410   1.241   3.701   7.031 -1.3264  1.1681  1.4959
 7650SOL     OW34411   3.731   2.725   9.188 -0.0366  0.2381  0.3111
 7650SOL    HW134412   3.708   2.753   9.276  0.6186  0.6372  0.3586
 7650SOL    HW234413   3.671   2.777   9.135 -0.3515  0.1570  0.5961
 7651SOL     OW34414   3.503   2.722   1.842  0.2391 -0.0420 -0.3554
 7651SOL    HW134415   3.417   2.705   1.804 -0.0374  0.2833  0.1349
 7651SOL    HW234416   3.553   2.781   1.786  2.3163  0.0105  1.5401
 7652SOL     OW34417   1.142   1.627  11.477 -0.0942 -0.3770 -0.4356
 7652SOL    HW134418   1.231   1.619  11.443  0.2010 -3.4617  1.0270
 7652SOL    HW234419   1.097   1.638  11.393 -3.1007 -0.6669  1.1390
 7653SOL     OW34420   4.499   2.166   8.317  0.4718 -0.4008 -0.1822
 7653SOL    HW134421   4.525   2.258   8.317 -1.2678  0.0940 -0.6908
 7653SOL    HW234422   4.491   2.155   8.412 -1.4914 -2.0284 -0.5463
 7654SOL     OW34423   2.527   2.072   2.087 -0.0822  0.1193 -0.0056
 7654SOL    HW134424   2.500   2.095   2.176  2.2570  1.4162  0.3661
 7654SOL    HW234425   2.537   1.977   2.092 -1.3239 -0.0630 -0.6723
 7655SOL     OW34426   3.235   2.155  14.985 -0.3921  0.1870  0.5881
 7655SOL    HW134427   3.180   2.148  14.907  1.0760  0.0791 -0.4525
 7655SOL    HW234428   3.265   2.064  14.985 -2.0166 -0.3513 -0.8497
 7656SOL     OW34429   1.773   4.468   0.754 -0.7057 -0.1081  0.1137
 7656SOL    HW134430   1.838   4.404   0.726 -0.8116 -0.4995  0.7522
 7656SOL    HW234431   1.726   4.501   0.677  1.7958  2.4417 -0.3044
 7657SOL     OW34432   0.155   3.861  16.505  0.3543  0.0236  0.3232
 7657SOL    HW134433   0.217   3.916  16.457  1.8193 -2.7378 -0.9132
 7657SOL    HW234434   0.117   3.921  16.569  1.2107  0.1786  0.6846
 7658SOL     OW34435   3.745   1.435   7.821  0.2172 -0.0614 -0.2448
 7658SOL    HW134436   3.709   1.348   7.805 -1.4567  0.6972 -0.6232
 7658SOL    HW234437   3.839   1.419   7.832  0.1634 -0.5305 -0.4695
 7659SOL     OW34438   0.264   3.666   3.918  0.1795 -0.0853 -0.3849
 7659SOL    HW134439   0.269   3.701   4.007 -1.2249  1.9571 -1.1067
 7659SOL    HW234440   0.239   3.575   3.931 -0.1870 -0.2683 -2.3170
 7660SOL     OW34441   2.437   3.701  17.317 -0.3406 -0.2380 -0.1663
 7660SOL    HW134442   2.342   3.708  17.316 -0.4978 -2.4071  0.0429
 7660SOL    HW234443   2.443   3.661  17.404  1.3838  1.2614  0.3952
 7661SOL     OW34444   2.512   3.534  11.475  0.2292  0.2071  0.1522
 7661SOL    HW134445   2.442   3.503  11.533 -0.6392 -0.6771 -1.3555
 7661SOL    HW234446   2.506   3.463  11.411  4.1154 -0.5100  0.6096
 7662SOL     OW34447   3.355   2.659  17.106  0.1048  0.3278  0.5918
 7662SOL    HW134448   3.419   2.633  17.172 -0.5513 -3.4232 -0.2027
 7662SOL    HW234449   3.411   2.728  17.070  1.7191 -1.9583 -1.2791
 7663SOL     OW34450   1.021   3.599  10.816 -0.3065 -0.0692  0.2877
 7663SOL    HW134451   0.944   3.598  10.760  0.7240 -0.4033 -1.1093
 7663SOL    HW234452   0.987   3.544  10.887  1.5473  1.5786  2.4828
 7664SOL     OW34453   2.905   0.532   6.370  0.0343 -0.5954  0.0603
 7664SOL    HW134454   2.867   0.577   6.445  0.4428  1.3438 -0.8886
 7664SOL    HW234455   2.982   0.589   6.362  0.4863 -1.1810  0.2808
 7665SOL     OW34456   2.454   1.863   1.870 -0.4004 -0.3177 -0.1771
 7665SOL    HW134457   2.380   1.863   1.930 -0.4170  0.0906 -0.1988
 7665SOL    HW234458   2.396   1.879   1.795  0.1933  2.1503 -0.1209
 7666SOL     OW34459   2.174   1.261   7.144 -0.8116  0.2480 -0.3562
 7666SOL    HW134460   2.245   1.196   7.140 -1.7582 -0.6719 -2.0766
 7666SOL    HW234461   2.216   1.340   7.179  1.4906 -0.1684 -2.1652
 7667SOL     OW34462   3.168   3.070  13.573  0.1802  0.0215  0.3336
 7667SOL    HW134463   3.131   3.018  13.645 -0.7957  0.3370  0.0490
 7667SOL    HW234464   3.176   3.158  13.610 -0.5473 -0.9646  2.8228
 7668SOL     OW34465   3.409   1.329   8.121  0.4646 -0.4473 -0.1490
 7668SOL    HW134466   3.494   1.292   8.096 -0.7478 -2.1253 -1.6696
 7668SOL    HW234467   3.356   1.275   8.063  2.3947 -0.2591 -2.0801
 7669SOL     OW34468   4.415   0.570   7.870 -0.1100 -0.4047 -0.3206
 7669SOL    HW134469   4.358   0.640   7.901  1.8752  1.1522 -0.2530
 7669SOL    HW234470   4.499   0.580   7.914 -0.2540 -0.3863 -0.0471
 7670SOL     OW34471   2.863   1.480   5.726 -0.5938 -0.0777 -0.0595
 7670SOL    HW134472   2.863   1.429   5.645 -2.3059  1.0228 -0.7523
 7670SOL    HW234473   2.958   1.482   5.735 -0.4902  1.1768 -1.4026
 7671SOL     OW34474   1.300   1.662   2.821 -0.4430 -0.2172  0.0308
 7671SOL    HW134475   1.356   1.584   2.830  1.7580  1.4618  0.9875
 7671SOL    HW234476   1.220   1.628   2.783 -0.6463  1.8335 -1.3665
 7672SOL     OW34477   1.874   2.007   6.270 -0.2194  0.1610  0.1014
 7672SOL    HW134478   1.952   2.020   6.323  0.1946  1.8923 -0.9268
 7672SOL    HW234479   1.903   1.933   6.217 -0.9246 -0.1145  0.0963
 7673SOL     OW34480   3.317   3.618   5.728  0.3504  0.2644 -0.1134
 7673SOL    HW134481   3.367   3.550   5.681 -2.4162  0.2720 -3.0885
 7673SOL    HW234482   3.341   3.577   5.811  0.0116 -0.9950 -0.6274
 7674SOL     OW34483   1.787   0.460  12.423 -0.1237  0.1423 -0.2191
 7674SOL    HW134484   1.739   0.378  12.414  0.8575 -0.5061  0.5635
 7674SOL    HW234485   1.771   0.484  12.514 -1.0016 -1.9203  0.1503
 7675SOL     OW34486   2.252   3.121   8.632  0.1599 -0.0219  0.0572
 7675SOL    HW134487   2.312   3.194   8.648  2.0514 -1.5562 -0.0261
 7675SOL    HW234488   2.304   3.052   8.589  0.7328  0.9012 -0.7472
 7676SOL     OW34489   4.456   0.270   3.373 -0.2837 -0.5614 -0.5450
 7676SOL    HW134490   4.460   0.324   3.294 -0.1503 -0.0045 -0.1545
 7676SOL    HW234491   4.527   0.320   3.413  1.5209 -1.7726 -2.2459
 7677SOL     OW34492   2.313   2.490   6.177 -0.2366  0.5910 -0.0185
 7677SOL    HW134493   2.248   2.462   6.242 -0.1130 -1.6428 -0.8824
 7677SOL    HW234494   2.267   2.445   6.106 -1.6184  2.5225 -0.3710
 7678SOL     OW34495   3.240   1.176  17.686  0.1389  0.3701  0.0284
 7678SOL    HW134496   3.202   1.190  17.600  0.4775  0.6563 -0.0788
 7678SOL    HW234497   3.305   1.246  17.672  2.8913 -1.8433  1.6434
 7679SOL     OW34498   1.985   0.601   6.651  0.4622  0.2923  0.6733
 7679SOL    HW134499   1.987   0.580   6.557 -0.4941  2.9243  0.0809
 7679SOL    HW234500   1.978   0.696   6.657  1.4257  0.4416 -0.6179
 7680SOL     OW34501   0.905   4.343   4.605 -0.2319 -0.4586 -0.3337
 7680SOL    HW134502   0.908   4.284   4.530  0.0383 -1.7561  0.7092
 7680SOL    HW234503   0.863   4.421   4.567 -0.0230 -0.4537 -0.5541
 7681SOL     OW34504   2.906   0.839  15.070 -0.5849 -0.0667 -0.2107
 7681SOL    HW134505   2.957   0.919  15.081 -1.1294  0.3293 -0.5591
 7681SOL    HW234506   2.828   0.871  15.025  0.8397  1.3610 -1.6626
 7682SOL     OW34507   0.764   3.471   4.416  0.0896 -0.3739  0.0352
 7682SOL    HW134508   0.802   3.472   4.328 -0.1334 -0.6355 -0.0650
 7682SOL    HW234509   0.795   3.555   4.450 -0.3549 -0.2565  0.1492
 7683SOL     OW34510   2.652   1.481   4.801  0.5278 -0.3962  0.1729
 7683SOL    HW134511   2.583   1.474   4.736 -0.4933 -0.4540  1.2627
 7683SOL    HW234512   2.661   1.390   4.828 -0.2101 -0.4904  0.1033
 7684SOL     OW34513   0.005   0.564   6.403  0.0308  0.3603 -0.1610
 7684SOL    HW134514   4.665   0.570   6.476 -0.2370  3.7055 -0.6684
 7684SOL    HW234515   0.084   0.585   6.452 -0.5422 -2.0176  1.8378
 7685SOL     OW34516   1.523   1.193   2.618  0.5766 -0.1823  0.2341
 7685SOL    HW134517   1.585   1.141   2.670  1.3956 -0.2515 -0.8318
 7685SOL    HW234518   1.465   1.118   2.608  0.1591  0.2112 -0.2678
 7686SOL     OW34519   1.317   0.280  17.655 -0.1036 -0.0477 -0.0458
 7686SOL    HW134520   1.348   0.208   0.016 -0.3449 -1.1152 -1.3410
 7686SOL    HW234521   1.397   0.325  17.628  1.4026 -1.4490  2.0933
 7687SOL     OW34522   0.544   1.586   3.568  0.7111  0.2573 -0.4468
 7687SOL    HW134523   0.569   1.578   3.660 -0.7755  0.9552  0.0157
 7687SOL    HW234524   0.476   1.651   3.587  0.1262 -0.7531  0.9385
 7688SOL     OW34525   3.695   0.809   2.751  0.1469 -0.1329 -0.4773
 7688SOL    HW134526   3.616   0.762   2.725  0.2053 -0.3109 -0.3317
 7688SOL    HW234527   3.746   0.802   2.670 -1.2834  0.2986 -1.4218
 7689SOL     OW34528   1.703   2.135   7.971  0.1446  0.3452  0.3213
 7689SOL    HW134529   1.728   2.134   8.064  1.2329 -2.9514 -0.0281
 7689SOL    HW234530   1.650   2.214   7.964 -0.6868 -0.1963  0.5333
 7690SOL     OW34531   4.199   0.411  10.207 -0.0479 -0.1655 -0.3941
 7690SOL    HW134532   4.283   0.455  10.196  0.5537 -1.6266 -1.6904
 7690SOL    HW234533   4.167   0.429  10.295 -0.9554 -0.6717 -0.6170
 7691SOL     OW34534   3.233   0.547   7.304  0.8223  0.1505 -0.3600
 7691SOL    HW134535   3.285   0.533   7.225  1.1852 -0.9227  0.0761
 7691SOL    HW234536   3.290   0.582   7.372  2.4602 -1.6499 -0.7942
 7692SOL     OW34537   0.104   3.634   3.261  0.2937 -0.4871 -0.2166
 7692SOL    HW134538   0.070   3.680   3.338 -0.3710 -2.1640  0.4855
 7692SOL    HW234539   0.187   3.679   3.246  0.7846 -1.2541  0.1940
 7693SOL     OW34540   3.426   1.651   1.732 -0.2038 -0.1955 -0.5368
 7693SOL    HW134541   3.468   1.662   1.647  0.9312 -1.1006 -0.0808
 7693SOL    HW234542   3.337   1.653   1.696  0.0715 -1.9716 -1.2806
 7694SOL     OW34543   3.754   4.719   4.888  0.1116  0.1083  0.2253
 7694SOL    HW134544   3.768   4.702   4.981  0.9263  1.2536  0.3062
 7694SOL    HW234545   3.806   4.653   4.842  0.1750  0.1717  0.2068
 7695SOL     OW34546   2.612   1.531   7.316 -0.0767 -0.1627 -0.2144
 7695SOL    HW134547   2.676   1.477   7.269  0.7729  1.2798 -0.7326
 7695SOL    HW234548   2.609   1.499   7.406 -2.2743 -2.8314 -1.2479
 7696SOL     OW34549   3.698   1.236   4.911  0.0892 -0.4551  0.2032
 7696SOL    HW134550   3.774   1.288   4.885 -2.5633  1.8993 -2.6744
 7696SOL    HW234551   3.736   1.151   4.934 -3.1806 -1.5943  1.4493
 7697SOL     OW34552   4.484   2.434  14.433 -0.4800  0.1506  0.2489
 7697SOL    HW134553   4.462   2.349  14.394 -2.0681  0.0924  1.2605
 7697SOL    HW234554   4.412   2.452  14.493  0.9024  0.3742  1.8606
 7698SOL     OW34555   3.662   0.088   8.233  0.1275 -0.1952  0.0468
 7698SOL    HW134556   3.636   0.102   8.324 -3.3271  1.8311 -1.2557
 7698SOL    HW234557   3.574   0.087   8.195  0.6851 -0.8114 -1.2186
 7699SOL     OW34558   4.556   0.207   4.037  0.8358 -0.3497  0.3462
 7699SOL    HW134559   4.604   0.176   4.114  0.2366 -1.1206  0.4128
 7699SOL    HW234560   4.586   0.298   4.032 -0.8055 -0.0213 -3.4905
 7700SOL     OW34561   1.680   4.497   6.562 -0.5920  0.7590  0.2317
 7700SOL    HW134562   1.670   4.450   6.645  3.0803 -0.8211 -0.1704
 7700SOL    HW234563   1.588   4.505   6.539 -0.0836 -1.9109 -2.7434
 7701SOL     OW34564   4.628   2.085   8.741  0.2411 -0.3135 -0.2284
 7701SOL    HW134565   4.566   2.128   8.683 -0.0758 -0.7194 -0.1941
 7701SOL    HW234566   4.596   1.995   8.735 -0.4443 -0.1819  1.6080
 7702SOL     OW34567   3.204   2.004   1.837 -0.5529 -0.2745 -0.3079
 7702SOL    HW134568   3.205   2.055   1.918  1.1852  1.7679 -1.6246
 7702SOL    HW234569   3.126   1.951   1.856  1.2257 -1.6727  2.9316
 7703SOL     OW34570   4.354   3.845   3.074 -0.2155  0.3106 -0.1370
 7703SOL    HW134571   4.423   3.835   3.008  0.7470 -1.2155  1.1232
 7703SOL    HW234572   4.402   3.807   3.147 -2.1430  0.0303  0.9826
 7704SOL     OW34573   0.577   3.676   5.699 -0.2859  0.4517 -0.0181
 7704SOL    HW134574   0.568   3.606   5.763 -2.7244 -0.0098 -0.8713
 7704SOL    HW234575   0.642   3.730   5.743  0.3383 -1.0121  0.8526
 7705SOL     OW34576   1.688   1.409  15.939  0.3270  0.2577 -0.6527
 7705SOL    HW134577   1.692   1.358  15.858  0.7395 -2.2712  0.9672
 7705SOL    HW234578   1.608   1.460  15.922  0.2349 -0.0082 -1.0238
 7706SOL     OW34579   1.586   2.383   7.927 -0.2456  0.3249  0.0209
 7706SOL    HW134580   1.501   2.349   7.898 -0.3159 -0.8341  1.5766
 7706SOL    HW234581   1.614   2.412   7.840  1.6239  0.6821  0.7314
 7707SOL     OW34582   1.191   1.286   5.431  0.3749 -0.4604 -0.7329
 7707SOL    HW134583   1.114   1.339   5.411  0.0747  0.0827  1.9108
 7707SOL    HW234584   1.238   1.292   5.347  0.6912  1.0548 -0.4456
 7708SOL     OW34585   0.736   2.069  12.283 -0.2190 -0.3161  0.2459
 7708SOL    HW134586   0.721   2.156  12.246  1.5299 -0.3102 -0.4468
 7708SOL    HW234587   0.789   2.037  12.210  1.0550  2.5181 -0.0728
 7709SOL     OW34588   2.529   0.561   5.339 -0.0765  0.1368  0.2868
 7709SOL    HW134589   2.464   0.598   5.399  0.3675  0.0631  0.8068
 7709SOL    HW234590   2.550   0.478   5.381 -1.2021 -0.8326 -1.0534
 7710SOL     OW34591   2.482   1.309   6.691  0.0680 -0.1219 -0.1836
 7710SOL    HW134592   2.536   1.232   6.676 -0.2414 -0.2807 -0.4812
 7710SOL    HW234593   2.407   1.263   6.729  1.0078 -2.6644 -1.4268
 7711SOL     OW34594   3.463   3.718  14.927 -0.1996  0.1087  0.3638
 7711SOL    HW134595   3.465   3.708  15.023  0.6378  1.3277  0.4884
 7711SOL    HW234596   3.492   3.809  14.919  0.1691  0.1625  2.1309
 7712SOL     OW34597   0.890   0.104  12.032 -0.7999 -0.5656  0.1504
 7712SOL    HW134598   0.811   0.148  12.063 -0.1451 -0.4046  1.5685
 7712SOL    HW234599   0.927   0.074  12.115  2.8803 -0.9980 -1.6480
 7713SOL     OW34600   0.027   4.275   8.176 -0.0097  0.0184  0.3123
 7713SOL    HW134601   0.026   4.332   8.253 -2.2213 -0.2384  0.4688
 7713SOL    HW234602   4.683   4.324   8.129 -0.1608 -0.5549 -0.0700
 7714SOL     OW34603   3.117   2.346   3.286 -0.1521  0.2881  0.4370
 7714SOL    HW134604   3.112   2.440   3.302 -0.6616  0.5050 -1.0450
 7714SOL    HW234605   3.201   2.322   3.323 -0.2083 -0.8018 -0.1561
 7715SOL     OW34606   2.218   2.110   7.560 -0.1057  0.1850  0.4063
 7715SOL    HW134607   2.296   2.153   7.526 -0.4835 -0.2966 -1.0512
 7715SOL    HW234608   2.146   2.172   7.572  1.0837  1.7184 -0.4421
 7716SOL     OW34609   1.812   2.338   0.209 -0.4969  0.0844  0.4988
 7716SOL    HW134610   1.798   2.254   0.165 -0.2752 -0.4045  1.3779
 7716SOL    HW234611   1.721   2.353   0.233 -1.5354 -1.4983 -2.3629
 7717SOL     OW34612   0.475   3.320   2.818 -0.1233  0.2602 -0.7338
 7717SOL    HW134613   0.563   3.328   2.856 -0.7921 -3.0694  1.5841
 7717SOL    HW234614   0.424   3.297   2.896  1.9277 -2.3417 -0.1460
 7718SOL     OW34615   1.444   0.925   9.524 -0.0672  0.7511  0.8240
 7718SOL    HW134616   1.409   0.895   9.440 -0.6753  1.0024  0.9882
 7718SOL    HW234617   1.367   0.925   9.580 -0.6221 -4.2713  0.0573
 7719SOL     OW34618   2.015   3.342   8.923 -0.1078  0.1406  0.8537
 7719SOL    HW134619   2.070   3.264   8.930 -2.1042 -1.0929  2.8445
 7719SOL    HW234620   2.087   3.400   8.902  0.6077 -0.8161  0.6488
 7720SOL     OW34621   1.777   4.383   5.110 -0.3642 -0.4517 -0.1909
 7720SOL    HW134622   1.788   4.394   5.204  1.4712  0.3133 -0.5062
 7720SOL    HW234623   1.769   4.287   5.105 -0.1333 -0.3630 -2.4937
 7721SOL     OW34624   2.493   1.503   6.925 -0.4998  0.3921 -0.0748
 7721SOL    HW134625   2.417   1.458   6.889  0.3892 -0.8550 -0.4007
 7721SOL    HW234626   2.532   1.530   6.841  1.7490 -0.7239  0.6377
 7722SOL     OW34627   3.745   1.471   9.887 -0.2322 -0.4999 -0.2625
 7722SOL    HW134628   3.756   1.520   9.968 -1.4491  1.4343 -1.2492
 7722SOL    HW234629   3.726   1.380   9.909  0.6643 -0.1451  1.9734
 7723SOL     OW34630   3.979   0.246   8.779 -0.4019  0.0071  0.3451
 7723SOL    HW134631   4.001   0.161   8.741  0.7566  1.2584 -1.8181
 7723SOL    HW234632   4.062   0.289   8.757 -0.2199 -0.4551  0.1305
 7724SOL     OW34633   2.000   1.167   0.965 -0.1461  0.2102  0.1031
 7724SOL    HW134634   2.040   1.082   0.984  0.1914 -0.1405 -2.2224
 7724SOL    HW234635   2.006   1.172   0.870  0.6262 -0.9204  0.0895
 7725SOL     OW34636   1.953   4.327  17.166 -0.5885 -0.7299  0.3790
 7725SOL    HW134637   2.023   4.262  17.158  0.2928  0.4488 -1.2866
 7725SOL    HW234638   1.943   4.374  17.084  2.1085 -2.2037 -0.7953
 7726SOL     OW34639   2.897   0.150   1.614  0.3121 -0.2277  0.2360
 7726SOL    HW134640   2.980   0.198   1.619 -1.7380  3.0470  2.4709
 7726SOL    HW234641   2.920   0.057   1.605  0.8818 -0.0774  0.1036
 7727SOL     OW34642   0.358   2.507   8.081 -0.1246 -0.3217 -0.7800
 7727SOL    HW134643   0.436   2.492   8.136 -0.2183  0.9707 -0.3056
 7727SOL    HW234644   0.315   2.422   8.095 -0.1072  0.0691  1.7516
 7728SOL     OW34645   2.015   0.991   2.602 -0.0384 -0.8271  0.0972
 7728SOL    HW134646   2.091   1.017   2.550 -0.2219 -0.3920  0.0471
 7728SOL    HW234647   2.011   0.899   2.574  0.0226 -0.5529 -0.8078
 7729SOL     OW34648   1.079   3.537  15.474 -0.5148 -0.4987  0.2733
 7729SOL    HW134649   1.101   3.477  15.545  2.1802 -3.0710 -2.7511
 7729SOL    HW234650   1.153   3.534  15.414 -1.2812 -0.1805 -0.6950
 7730SOL     OW34651   0.405   3.924   6.071 -0.2077 -0.0725 -0.1377
 7730SOL    HW134652   0.333   3.894   6.015 -0.7586 -0.1627  0.6170
 7730SOL    HW234653   0.399   3.870   6.150  0.6347 -1.7966 -1.2729
 7731SOL     OW34654   4.514   3.402  13.529 -0.2940 -0.1392  0.4328
 7731SOL    HW134655   4.603   3.402  13.566 -0.4440 -2.6226  0.7824
 7731SOL    HW234656   4.464   3.435  13.603  0.3756 -1.1594  1.3449
 7732SOL     OW34657   1.402   1.542   5.103  0.3587 -0.2262 -0.5006
 7732SOL    HW134658   1.317   1.562   5.065 -0.6363  0.8782  2.3122
 7732SOL    HW234659   1.405   1.609   5.172 -0.3708 -0.5732 -0.1412
 7733SOL     OW34660   2.253   2.294   7.951 -0.5063  0.0900  0.4641
 7733SOL    HW134661   2.322   2.342   7.907 -0.7142  0.6914  0.8017
 7733SOL    HW234662   2.175   2.344   7.927 -0.1801  1.3997  2.0976
 7734SOL     OW34663   1.546   0.165  10.549  0.5511 -0.2438  0.2668
 7734SOL    HW134664   1.624   0.127  10.510  0.7071  0.6660 -0.3099
 7734SOL    HW234665   1.479   0.152  10.482 -0.6176 -0.4945  1.4897
 7735SOL     OW34666   1.681   0.570   4.383  0.4763  0.0135  0.2148
 7735SOL    HW134667   1.622   0.557   4.309  0.1567  0.5564  0.3791
 7735SOL    HW234668   1.683   0.665   4.382 -3.7348  0.0963  0.4259
 7736SOL     OW34669   2.359   0.173  15.298 -0.2584 -0.2938 -0.2577
 7736SOL    HW134670   2.301   0.241  15.332  0.2416 -0.5652  1.1515
 7736SOL    HW234671   2.398   0.133  15.376 -1.1279 -0.7833 -0.0736
 7737SOL     OW34672   3.109   3.108   5.479 -0.1137 -0.4749 -0.1167
 7737SOL    HW134673   3.160   3.036   5.517  1.8573  0.9709 -0.0311
 7737SOL    HW234674   3.177   3.174   5.485  0.5696 -0.9782 -2.3088
 7738SOL     OW34675   1.149   4.353   7.654  0.2055 -0.2489 -0.4356
 7738SOL    HW134676   1.219   4.417   7.662  0.6502 -1.0369  1.9682
 7738SOL    HW234677   1.121   4.367   7.563  1.8807  1.3598 -0.7133
 7739SOL     OW34678   1.999   3.992   6.046 -0.0298  0.1225  0.4723
 7739SOL    HW134679   1.942   4.028   6.113 -1.3514  1.2782 -1.2843
 7739SOL    HW234680   1.955   4.026   5.969  0.1431  0.4710  0.5302
 7740SOL     OW34681   3.847   3.006   8.392 -0.1335  0.2506 -0.7080
 7740SOL    HW134682   3.925   2.989   8.445  1.3923  0.6013 -2.8362
 7740SOL    HW234683   3.784   3.040   8.455  0.3332 -0.6077  0.2184
 7741SOL     OW34684   3.043   1.185  16.691  0.4545 -0.4221 -0.1212
 7741SOL    HW134685   2.954   1.221  16.684  0.1405 -1.1535  0.0178
 7741SOL    HW234686   3.061   1.174  16.598 -1.5675 -1.4323 -0.4100
 7742SOL     OW34687   1.188   3.210  17.693 -0.1901  0.4247  0.1285
 7742SOL    HW134688   1.158   3.254   0.078  0.5837  0.5904  0.3377
 7742SOL    HW234689   1.106   3.163  17.679  0.2996 -0.0216 -1.3526
 7743SOL     OW34690   2.152   4.107  17.033 -0.4972 -0.1305  0.2370
 7743SOL    HW134691   2.117   4.018  17.031 -0.3085 -0.2270  1.5808
 7743SOL    HW234692   2.169   4.128  16.941  0.9541  1.0229  0.7742
 7744SOL     OW34693   1.571   2.037  15.410 -0.2179 -0.4072 -0.2388
 7744SOL    HW134694   1.532   1.949  15.403 -1.1636  0.1879 -2.6080
 7744SOL    HW234695   1.499   2.089  15.447  1.4268  1.4558  0.3206
 7745SOL     OW34696   2.419   1.340   1.469 -0.2287  0.4978 -0.9757
 7745SOL    HW134697   2.388   1.410   1.410  0.6436  1.2552 -0.5399
 7745SOL    HW234698   2.378   1.374   1.548  0.7003  1.7447 -1.0239
 7746SOL     OW34699   4.560   1.337   5.896 -0.3200  0.1665 -0.5476
 7746SOL    HW134700   4.518   1.365   5.815  0.2559 -3.1688 -2.0269
 7746SOL    HW234701   4.596   1.249   5.879 -0.9823 -0.1578 -0.2780
 7747SOL     OW34702   3.090   4.425   2.299  0.0488  0.0605  0.0191
 7747SOL    HW134703   3.170   4.373   2.298  0.2870  0.4023  1.0882
 7747SOL    HW234704   3.042   4.377   2.232  2.2997 -1.5331 -0.4520
 7748SOL     OW34705   1.083   3.657  10.501  0.5544 -0.3511 -0.2282
 7748SOL    HW134706   1.142   3.590  10.535 -0.1020 -0.0795  1.4002
 7748SOL    HW234707   1.109   3.647  10.409  0.4902 -1.2133 -0.1513
 7749SOL     OW34708   3.627   3.596   1.244 -0.4275 -0.8993  0.6104
 7749SOL    HW134709   3.554   3.630   1.296  0.6488 -0.7249  2.0237
 7749SOL    HW234710   3.692   3.655   1.282  0.5089 -0.6446 -1.3987
 7750SOL     OW34711   3.650   0.636   6.545 -0.4580 -0.0845 -0.2973
 7750SOL    HW134712   3.675   0.546   6.522 -0.1127 -0.0635 -0.0037
 7750SOL    HW234713   3.645   0.628   6.640  0.2083  2.4196 -0.0614
 7751SOL     OW34714   2.576   1.238  16.799 -0.4423  0.1064 -1.0003
 7751SOL    HW134715   2.567   1.210  16.708 -2.4878  0.5756 -0.9490
 7751SOL    HW234716   2.669   1.221  16.817 -2.1410 -4.3965  3.8166
 7752SOL     OW34717   1.117   3.131   3.454 -0.0429 -0.1731 -0.1005
 7752SOL    HW134718   1.171   3.123   3.376  0.8080 -1.2440  0.6119
 7752SOL    HW234719   1.035   3.093   3.422  0.4753 -1.9552  0.6899
 7753SOL     OW34720   1.201   1.855   4.547  0.3939 -0.1760  0.1678
 7753SOL    HW134721   1.119   1.880   4.588 -0.1280  1.0506 -1.6245
 7753SOL    HW234722   1.172   1.773   4.506 -3.4141  1.9493 -1.3740
 7754SOL     OW34723   3.515   3.041   9.548  0.4295 -0.1213  0.5204
 7754SOL    HW134724   3.441   3.044   9.488  0.2427  1.2564  0.8338
 7754SOL    HW234725   3.473   3.002   9.625  0.2841  0.3870  0.6933
 7755SOL     OW34726   4.618   2.955   4.368 -0.8581  0.2672  0.4604
 7755SOL    HW134727   4.629   2.940   4.274 -0.8728  2.6752  0.0737
 7755SOL    HW234728   4.641   3.048   4.373  1.4194 -0.2648 -0.3157
 7756SOL     OW34729   3.646   1.896   7.279  0.4213  0.1267 -0.5104
 7756SOL    HW134730   3.650   1.826   7.214  1.9780 -1.0742  0.8921
 7756SOL    HW234731   3.685   1.852   7.354 -0.1980  0.2858 -0.0911
 7757SOL     OW34732   1.488   3.633   2.101 -0.0836 -0.1726  0.1884
 7757SOL    HW134733   1.418   3.598   2.046  2.0799 -2.0086 -1.4125
 7757SOL    HW234734   1.460   3.722   2.120 -1.2813 -0.4720 -0.1692
 7758SOL     OW34735   0.726   0.717  16.146 -0.0658  0.4732 -0.0836
 7758SOL    HW134736   0.782   0.690  16.073  1.2968 -0.7821  1.4137
 7758SOL    HW234737   0.785   0.734  16.219 -0.7641 -2.2859  1.1199
 7759SOL     OW34738   2.594   1.810   2.128 -0.2410 -0.5078 -0.4475
 7759SOL    HW134739   2.528   1.800   2.197  1.5121  0.4199  1.3833
 7759SOL    HW234740   2.648   1.735   2.154  2.6235  0.8322 -2.5825
 7760SOL     OW34741   4.644   2.764   8.049 -0.2055 -0.3262 -0.7417
 7760SOL    HW134742   4.684   2.779   8.135 -0.9626  1.4467 -0.6933
 7760SOL    HW234743   4.674   2.829   7.985 -1.1630  0.2238 -0.6351
 7761SOL     OW34744   1.897   3.215   1.656 -0.0409 -0.1368 -0.0697
 7761SOL    HW134745   1.952   3.271   1.710  0.2287 -1.2728  0.8290
 7761SOL    HW234746   1.909   3.254   1.570  0.2880 -0.4135 -0.1523
 7762SOL     OW34747   3.247   3.281   7.620 -0.2873  0.5092 -0.5772
 7762SOL    HW134748   3.300   3.345   7.573  0.7722  0.6016  0.7605
 7762SOL    HW234749   3.310   3.220   7.657 -1.0870 -1.0974 -1.8616
 7763SOL     OW34750   4.083   3.245   1.305 -0.3763  0.5801 -0.0951
 7763SOL    HW134751   4.160   3.284   1.264  0.6643 -0.6598  0.6954
 7763SOL    HW234752   4.072   3.164   1.256  1.4287 -0.8534  1.8680
 7764SOL     OW34753   4.411   0.771   5.035  0.1814  0.5772  0.0057
 7764SOL    HW134754   4.404   0.781   4.940 -3.2401 -0.3550  0.1423
 7764SOL    HW234755   4.469   0.695   5.037  0.6935  0.9617 -0.3922
 7765SOL     OW34756   3.354   2.803   9.241 -0.0677 -0.1291  0.1785
 7765SOL    HW134757   3.405   2.799   9.161  0.1324  0.1731  0.2917
 7765SOL    HW234758   3.271   2.765   9.211 -0.4878  0.6987  0.2823
 7766SOL     OW34759   3.964   0.314   9.458 -0.0019  0.6289 -0.0903
 7766SOL    HW134760   3.992   0.400   9.489 -1.5525  0.2844  2.2799
 7766SOL    HW234761   3.988   0.318   9.365  0.8967 -0.7659  0.0902
 7767SOL     OW34762   3.549   0.439   3.145 -0.0749 -0.1686 -0.3961
 7767SOL    HW134763   3.582   0.529   3.146 -3.6056  1.1188 -0.2522
 7767SOL    HW234764   3.568   0.414   3.236  0.5196 -0.3180 -0.5560
 7768SOL     OW34765   2.702   2.469  12.443  0.4023 -0.3655  0.0892
 7768SOL    HW134766   2.680   2.554  12.405 -1.0135 -0.4538  0.6804
 7768SOL    HW234767   2.796   2.472  12.461  0.0394  0.7644  1.8360
 7769SOL     OW34768   4.448   0.769  10.083 -0.2206 -0.3477 -0.4650
 7769SOL    HW134769   4.531   0.725  10.067 -0.3758 -0.9162  0.2778
 7769SOL    HW234770   4.458   0.838  10.149 -2.0301 -1.3718  0.8872
 7770SOL     OW34771   3.010   0.898   2.778  0.2558 -0.1454 -0.4349
 7770SOL    HW134772   2.970   0.828   2.727  3.7276 -0.9721 -2.0167
 7770SOL    HW234773   2.983   0.862   2.863 -0.4677 -2.6150 -1.7149
 7771SOL     OW34774   2.996   4.015   2.956 -0.5932  0.2068 -0.5294
 7771SOL    HW134775   3.025   3.989   2.869 -0.1055  0.4342 -0.4353
 7771SOL    HW234776   2.931   4.081   2.930 -1.7971 -0.2725  1.2833
 7772SOL     OW34777   1.181   3.457   6.791 -0.0096 -0.7585 -0.3598
 7772SOL    HW134778   1.245   3.395   6.826  1.8135 -0.1133 -2.5687
 7772SOL    HW234779   1.246   3.523   6.769 -1.1743 -0.0372 -1.6555
 7773SOL     OW34780   0.147   3.067   4.569  0.1165  0.5359 -0.4822
 7773SOL    HW134781   0.089   3.120   4.514  0.6398 -0.4779 -2.0299
 7773SOL    HW234782   0.124   3.114   4.649 -3.3118 -0.7591 -0.6958
 7774SOL     OW34783   4.394   4.349   7.063  0.1058 -0.0375  0.4351
 7774SOL    HW134784   4.344   4.411   7.116  1.3657  1.7265 -0.4105
 7774SOL    HW234785   4.389   4.267   7.111 -0.3589 -0.6463 -0.6629
 7775SOL     OW34786   3.045   0.468   4.774  0.0110 -0.3575  0.2610
 7775SOL    HW134787   3.136   0.470   4.803 -0.1047  0.4045  0.5700
 7775SOL    HW234788   2.993   0.463   4.854 -0.4796 -2.8946 -0.2161
 7776SOL     OW34789   2.793   2.356   5.082 -0.3944 -0.2092  0.3228
 7776SOL    HW134790   2.813   2.431   5.138 -1.5349 -0.5596  1.2014
 7776SOL    HW234791   2.819   2.389   4.996  0.0742 -0.7494  0.2561
 7777SOL     OW34792   2.829   4.232   2.853 -0.4029 -0.4174 -0.3175
 7777SOL    HW134793   2.762   4.277   2.904 -0.1901 -2.0037  1.3557
 7777SOL    HW234794   2.780   4.184   2.786 -0.9889 -0.1172 -0.1026
 7778SOL     OW34795   1.212   4.145   6.587  0.3731  0.5426  0.8149
 7778SOL    HW134796   1.143   4.147   6.653 -1.4462  0.2248 -1.1033
 7778SOL    HW234797   1.164   4.108   6.513  0.3861  3.7016 -0.8013
 7779SOL     OW34798   1.961   1.830   3.467  0.2218 -0.2610 -0.2460
 7779SOL    HW134799   1.904   1.905   3.486  2.0410  0.7771  1.1502
 7779SOL    HW234800   1.989   1.804   3.555  2.5450 -0.7259 -1.1116
 7780SOL     OW34801   3.259   2.969   8.278 -0.2278  0.0065  0.0107
 7780SOL    HW134802   3.305   3.053   8.277  0.9422 -0.6581 -1.3410
 7780SOL    HW234803   3.240   2.954   8.370 -2.4225  3.0650  0.0767
 7781SOL     OW34804   2.157   2.272   7.060  0.2493  0.2955 -0.4080
 7781SOL    HW134805   2.084   2.219   7.029 -0.1489  1.6495 -1.7984
 7781SOL    HW234806   2.194   2.203   7.114  2.2403  0.3918 -1.6369
 7782SOL     OW34807   2.455   3.183  17.395  0.1382 -0.4432 -0.4299
 7782SOL    HW134808   2.490   3.248  17.334  1.7695  0.2385  1.1929
 7782SOL    HW234809   2.533   3.163  17.447  0.5125  0.4424 -0.6432
 7783SOL     OW34810   0.124   0.849   0.209  0.1931  0.3550  0.1858
 7783SOL    HW134811   0.065   0.832   0.283 -1.1077  1.4890 -0.5859
 7783SOL    HW234812   0.207   0.813   0.240 -0.0995 -1.7465 -1.4625
 7784SOL     OW34813   2.525   2.954   5.238  0.1267  0.6863  0.1820
 7784SOL    HW134814   2.455   2.952   5.303  0.8781  0.5322  0.9846
 7784SOL    HW234815   2.487   2.911   5.161 -0.5642 -2.1204  2.1213
 7785SOL     OW34816   0.214   4.561   8.872 -0.0064 -0.0316 -0.0731
 7785SOL    HW134817   0.269   4.629   8.832  0.0948 -0.6247 -0.9371
 7785SOL    HW234818   0.128   4.584   8.839 -0.9457 -1.0691  1.6710
 7786SOL     OW34819   1.285   0.827  16.331  0.2947  0.1931 -0.0267
 7786SOL    HW134820   1.338   0.816  16.252  0.5742  0.4344  0.1277
 7786SOL    HW234821   1.208   0.875  16.301 -0.1988 -0.1969  0.6046
 7787SOL     OW34822   2.055   0.368   5.032  0.2405 -0.4674 -0.3172
 7787SOL    HW134823   2.021   0.456   5.019  1.1833 -0.2511 -1.3973
 7787SOL    HW234824   2.109   0.382   5.109  0.0373 -0.7383 -0.1274
 7788SOL     OW34825   0.665   2.665   2.390 -0.3417  0.5479 -0.6533
 7788SOL    HW134826   0.659   2.659   2.486  0.1538  1.3028 -0.5699
 7788SOL    HW234827   0.758   2.683   2.380 -0.1630 -0.3835 -0.6104
 7789SOL     OW34828   0.085   0.611   5.987 -0.5096 -0.1378 -0.4684
 7789SOL    HW134829   0.011   0.556   5.960  0.9812 -2.0156 -0.6497
 7789SOL    HW234830   0.166   0.573   5.955  0.9946  0.0127  3.2016
 7790SOL     OW34831   0.265   1.617  11.225 -0.8023  0.4079 -0.1163
 7790SOL    HW134832   0.195   1.620  11.160 -1.6274  0.0922  0.7696
 7790SOL    HW234833   0.345   1.658  11.191  0.7125 -0.9024  1.9123
 7791SOL     OW34834   1.562   1.565   7.113 -0.0675  0.2800  0.1491
 7791SOL    HW134835   1.491   1.613   7.157 -0.1331  3.8857 -3.8259
 7791SOL    HW234836   1.590   1.628   7.047 -1.9309  0.3775 -0.5553
 7792SOL     OW34837   3.487   1.437   1.928  0.0310 -0.0841 -0.1940
 7792SOL    HW134838   3.560   1.376   1.916  0.3972  0.0841  1.2077
 7792SOL    HW234839   3.497   1.486   1.847 -0.6125 -1.2281 -0.9706
 7793SOL     OW34840   2.635   3.646   5.022 -0.0970 -0.1305  0.1172
 7793SOL    HW134841   2.691   3.672   5.095 -1.6340  0.8476  0.9547
 7793SOL    HW234842   2.695   3.595   4.968 -1.4769 -0.9644 -0.6343
 7794SOL     OW34843   0.268   2.656  17.481  0.7519  0.0159  0.1928
 7794SOL    HW134844   0.268   2.686  17.572 -2.1013 -1.5561  0.7158
 7794SOL    HW234845   0.361   2.638  17.468  0.7844  0.9711 -0.9725
 7795SOL     OW34846   2.482   3.672   5.970  0.6595 -0.0136 -0.2559
 7795SOL    HW134847   2.388   3.681   5.979  0.7284  2.0104 -1.6082
 7795SOL    HW234848   2.486   3.664   5.875  1.5888 -2.2205 -0.0186
 7796SOL     OW34849   3.811   1.788   6.168  0.5535 -0.4813 -0.6606
 7796SOL    HW134850   3.852   1.840   6.099  0.3470 -0.5396 -0.8254
 7796SOL    HW234851   3.813   1.698   6.136 -0.5890 -0.0156 -2.0396
 7797SOL     OW34852   4.441   0.875   6.311  0.1399  0.3554  0.5421
 7797SOL    HW134853   4.494   0.816   6.258  0.6754  0.9434  0.4232
 7797SOL    HW234854   4.425   0.940   6.242 -0.5442 -1.4296 -0.9806
 7798SOL     OW34855   1.850   2.589   6.490  0.7323 -0.2535  0.3112
 7798SOL    HW134856   1.795   2.552   6.559  1.4535 -1.1660  0.3925
 7798SOL    HW234857   1.848   2.683   6.511  1.9788 -0.4929  1.5596
 7799SOL     OW34858   4.260   3.991  12.429  0.2465  0.1686 -0.1233
 7799SOL    HW134859   4.265   3.925  12.499  1.3209 -2.0351 -2.2970
 7799SOL    HW234860   4.278   4.069  12.482  0.3343 -0.4722  0.8097
 7800SOL     OW34861   0.822   1.884   9.023 -0.1213 -0.2939 -0.2409
 7800SOL    HW134862   0.741   1.860   9.068 -1.0124  0.4586 -1.4158
 7800SOL    HW234863   0.797   1.878   8.930  0.0455  1.3350 -0.3796
 7801SOL     OW34864   3.212   3.464   6.131 -0.0969  0.0989  0.0704
 7801SOL    HW134865   3.122   3.493   6.113  0.3630  0.8605 -0.9909
 7801SOL    HW234866   3.213   3.491   6.223  1.9109 -0.4622  0.2083
 7802SOL     OW34867   3.723   2.612   8.471 -0.1744 -0.2985 -0.1631
 7802SOL    HW134868   3.660   2.541   8.463 -2.1847  1.1029  3.0774
 7802SOL    HW234869   3.705   2.647   8.558  2.0677  2.1983 -0.7100
 7803SOL     OW34870   2.308   1.903   8.686  0.2241 -0.3588  0.3216
 7803SOL    HW134871   2.364   1.835   8.723 -1.0172 -1.1132  0.7826
 7803SOL    HW234872   2.291   1.970   8.752 -0.1649  0.8683 -1.0301
 7804SOL     OW34873   2.013   2.175  11.974 -0.0959  0.3088  0.3088
 7804SOL    HW134874   1.977   2.216  12.053  0.1573  0.0009  0.5822
 7804SOL    HW234875   2.020   2.089  12.015  2.4438  0.1135 -0.5353
 7805SOL     OW34876   2.048   4.552   6.718 -0.3372 -0.4762 -0.0977
 7805SOL    HW134877   2.048   4.468   6.670 -0.1708 -0.0061 -0.9206
 7805SOL    HW234878   2.135   4.586   6.697 -0.4697  0.3093  0.6949
 7806SOL     OW34879   1.551   3.486   7.936 -0.1656 -0.4207  0.2040
 7806SOL    HW134880   1.561   3.578   7.963 -0.3843  0.0102 -1.1651
 7806SOL    HW234881   1.505   3.448   8.011  0.2513  1.5637  1.4618
 7807SOL     OW34882   0.806   0.744  15.444 -0.2963 -0.1231 -0.1660
 7807SOL    HW134883   0.784   0.832  15.477 -1.9544 -1.4202  2.1655
 7807SOL    HW234884   0.719   0.705  15.438 -0.6781  0.3262  2.3412
 7808SOL     OW34885   3.656   3.601  12.525 -0.7094  0.1015 -0.0246
 7808SOL    HW134886   3.662   3.579  12.618 -1.6487 -1.7610 -0.4139
 7808SOL    HW234887   3.569   3.640  12.527 -0.0548  1.4773  1.6170
 7809SOL     OW34888   3.555   1.335  14.798 -0.0598  0.3845  0.5839
 7809SOL    HW134889   3.576   1.253  14.843 -1.9310  0.6467  1.9510
 7809SOL    HW234890   3.622   1.334  14.730  0.6793 -0.3538  1.3296
 7810SOL     OW34891   0.078   4.159   2.179 -0.1861  0.2401  0.1348
 7810SOL    HW134892   0.121   4.085   2.221  0.9856  1.0237  0.3058
 7810SOL    HW234893   0.154   4.208   2.147  0.5512 -0.0676  1.4372
 7811SOL     OW34894   1.447   2.547  16.098 -0.4711  0.1603  0.6565
 7811SOL    HW134895   1.356   2.565  16.074  0.1447 -1.3820 -2.7930
 7811SOL    HW234896   1.436   2.537  16.193 -2.3906  0.3769  0.4613
 7812SOL     OW34897   0.963   1.281   6.470  0.0829  0.0450  0.1743
 7812SOL    HW134898   0.913   1.323   6.400  1.9861  1.7162 -0.2000
 7812SOL    HW234899   1.013   1.349   6.516 -1.3873  0.6087  0.9079
 7813SOL     OW34900   0.774   2.278  13.835 -0.2815  0.6298  0.1363
 7813SOL    HW134901   0.750   2.243  13.749 -2.7544  0.7124  0.7971
 7813SOL    HW234902   0.734   2.365  13.832  0.9355  1.2298  1.3104
 7814SOL     OW34903   0.668   2.063   6.159 -0.1117 -0.5118  0.6164
 7814SOL    HW134904   0.726   1.990   6.137 -1.1350 -1.2039  0.1716
 7814SOL    HW234905   0.712   2.134   6.113 -1.3185 -0.1245  0.0417
 7815SOL     OW34906   4.669   1.903   3.694  0.0298  0.5196 -0.3931
 7815SOL    HW134907   4.605   1.971   3.718 -0.1745  0.7185 -1.4834
 7815SOL    HW234908   0.024   1.959   3.698  0.9061 -0.5874 -2.1512
 7816SOL     OW34909   0.642   3.192   6.638  0.3449  0.1428 -0.2426
 7816SOL    HW134910   0.651   3.180   6.544 -1.0496 -2.4880 -0.0324
 7816SOL    HW234911   0.641   3.288   6.648  0.6882  0.1328 -0.0964
 7817SOL     OW34912   3.239   2.659   2.074 -0.3944  0.3619  0.6918
 7817SOL    HW134913   3.217   2.636   1.983 -2.3260 -0.5850  1.3926
 7817SOL    HW234914   3.199   2.746   2.077  1.1718  1.1179 -0.0069
 7818SOL     OW34915   1.810   1.342   9.029  0.1462 -0.0193 -0.3601
 7818SOL    HW134916   1.801   1.410   9.096 -3.0476 -0.7433 -0.0568
 7818SOL    HW234917   1.900   1.314   9.044  0.4214  0.6256 -0.8024
 7819SOL     OW34918   3.945   1.629  10.587  0.0468 -0.1414 -0.3181
 7819SOL    HW134919   3.927   1.720  10.564  1.9844  0.5430  0.8299
 7819SOL    HW234920   4.040   1.622  10.598  0.4189  2.2564 -1.8921
 7820SOL     OW34921   4.510   2.384   9.754  0.3798 -0.1750 -0.2546
 7820SOL    HW134922   4.490   2.418   9.841 -0.7637  0.4143 -0.7430
 7820SOL    HW234923   4.539   2.464   9.710 -1.3002  0.1208 -0.8225
 7821SOL     OW34924   2.936   3.381   8.008  0.6977 -0.3111 -0.0649
 7821SOL    HW134925   2.865   3.405   8.069  0.0385  0.4483 -1.1306
 7821SOL    HW234926   2.917   3.435   7.931  0.3334  1.8705  1.5363
 7822SOL     OW34927   2.734   3.010  12.452 -0.1233 -0.2125  0.3785
 7822SOL    HW134928   2.811   3.060  12.480 -0.5865  0.1801  0.9599
 7822SOL    HW234929   2.764   2.957  12.378  0.7743 -2.7017  2.5168
 7823SOL     OW34930   1.052   2.263   2.348 -0.4876  0.5201 -0.3719
 7823SOL    HW134931   1.136   2.250   2.304  1.1053  1.7017  2.3686
 7823SOL    HW234932   0.996   2.195   2.311 -0.8099  0.4994  0.1614
 7824SOL     OW34933   4.219   0.259   0.834 -0.5609  0.1384  0.1711
 7824SOL    HW134934   4.200   0.285   0.925 -0.2504 -1.2358  0.6288
 7824SOL    HW234935   4.176   0.175   0.817  1.6269 -1.0276  0.2877
 7825SOL     OW34936   3.510   0.454  14.969 -0.1125  0.0513 -0.6254
 7825SOL    HW134937   3.448   0.383  14.983 -0.0543 -0.2915 -2.1078
 7825SOL    HW234938   3.596   0.418  14.988 -0.3663 -0.8371 -1.1614
 7826SOL     OW34939   1.827   1.312  16.200  0.1378  0.3949 -0.2564
 7826SOL    HW134940   1.787   1.235  16.239 -0.5683 -0.5123 -2.7911
 7826SOL    HW234941   1.811   1.291  16.108  0.2053 -1.7571  0.2241
 7827SOL     OW34942   4.652   0.708  10.392  0.0238 -0.0197  0.3126
 7827SOL    HW134943   4.589   0.645  10.359 -1.1133  0.9138  0.7153
 7827SOL    HW234944   4.630   0.701  10.485  1.5043 -2.7626  0.4456
 7828SOL     OW34945   0.731   4.028   5.463  0.1221  0.0293 -0.0235
 7828SOL    HW134946   0.666   3.962   5.438 -0.1425  0.9239 -1.6975
 7828SOL    HW234947   0.677   4.097   5.502 -1.8537 -1.3330 -0.3401
 7829SOL     OW34948   0.862   3.152   5.671  0.1925 -0.2510  0.3288
 7829SOL    HW134949   0.916   3.082   5.634 -2.8815 -1.5505 -1.6400
 7829SOL    HW234950   0.847   3.116   5.759 -0.3610 -1.1348 -0.1247
 7830SOL     OW34951   2.574   4.218  14.587  0.3611  0.2709  0.1462
 7830SOL    HW134952   2.490   4.261  14.603  0.4621  0.6635 -0.3931
 7830SOL    HW234953   2.580   4.160  14.663  1.0400  2.3549  1.6802
 7831SOL     OW34954   3.943   2.918   4.473  0.3076 -0.1950  0.1099
 7831SOL    HW134955   4.000   2.841   4.470  0.0613 -0.3108 -1.4898
 7831SOL    HW234956   3.857   2.877   4.485 -0.6801  2.1880  1.1396
 7832SOL     OW34957   4.463   0.182  12.622 -0.3213 -0.3942  0.7055
 7832SOL    HW134958   4.443   0.091  12.642  1.1735 -0.7820  0.4812
 7832SOL    HW234959   4.421   0.206  12.539  1.0816 -0.9841 -0.1694
 7833SOL     OW34960   1.213   0.824  16.004  0.1010 -0.3221 -0.0998
 7833SOL    HW134961   1.249   0.885  15.940  0.8352 -2.0664 -1.3290
 7833SOL    HW234962   1.297   0.800  16.042 -1.3405 -1.4084  2.3831
 7834SOL     OW34963   0.810   0.500  14.362 -0.0033 -0.9073  0.3218
 7834SOL    HW134964   0.855   0.573  14.319 -0.4347 -1.6984 -1.4629
 7834SOL    HW234965   0.831   0.520  14.454  3.0495 -0.1902 -0.5389
 7835SOL     OW34966   4.230   2.231   0.773 -0.2827  0.0505  0.2910
 7835SOL    HW134967   4.316   2.273   0.766 -0.2066 -0.2500 -0.6474
 7835SOL    HW234968   4.201   2.215   0.683  0.0912 -0.0341  0.1887
 7836SOL     OW34969   2.293   0.012  16.740  0.2126  0.8395 -0.2971
 7836SOL    HW134970   2.264   4.669  16.676  2.8198  1.3678 -2.0246
 7836SOL    HW234971   2.206   0.041  16.769 -0.2276  1.0938 -1.8120
 7837SOL     OW34972   2.072   2.066  12.433  0.3740  0.2874 -0.1612
 7837SOL    HW134973   2.140   1.999  12.432  0.5368  0.5346 -4.3178
 7837SOL    HW234974   2.040   2.070  12.523  1.8628  0.9502  0.3502
 7838SOL     OW34975   4.451   2.557   5.162 -0.2312  0.3885 -0.1790
 7838SOL    HW134976   4.399   2.595   5.091  0.6519 -0.0480 -1.0549
 7838SOL    HW234977   4.496   2.635   5.195 -0.8832 -0.2058  2.0904
 7839SOL     OW34978   1.036   1.019   3.617 -0.6300  0.2577 -0.1315
 7839SOL    HW134979   1.072   1.072   3.546 -0.6972  0.1499 -0.2455
 7839SOL    HW234980   0.959   0.988   3.569 -0.3303  0.0844 -0.5004
 7840SOL     OW34981   2.656   3.110   4.086 -0.1524  0.4045  0.4751
 7840SOL    HW134982   2.599   3.140   4.157  0.6288  0.0999  1.2371
 7840SOL    HW234983   2.689   3.026   4.117  0.2006  0.5269  0.4441
 7841SOL     OW34984   0.654   4.003   0.856 -1.0286  0.1003 -0.3182
 7841SOL    HW134985   0.631   3.957   0.775  0.3676  1.8059 -1.7228
 7841SOL    HW234986   0.720   4.063   0.820 -0.4260  0.2848  1.0998
 7842SOL     OW34987   0.729   1.715   4.184 -0.1052  0.2049  0.1283
 7842SOL    HW134988   0.757   1.734   4.274 -0.9142 -0.9558  0.6236
 7842SOL    HW234989   0.734   1.620   4.185  4.1172  0.4145 -0.5355
 7843SOL     OW34990   2.069   2.950   5.188  0.3382  0.7596  0.2674
 7843SOL    HW134991   1.980   2.925   5.164  1.1714 -0.4790 -1.5494
 7843SOL    HW234992   2.106   2.965   5.101  0.9530  1.0408  0.5733
 7844SOL     OW34993   3.343   0.211   9.728  0.1041 -0.0713 -0.0576
 7844SOL    HW134994   3.348   0.261   9.809 -0.3482 -1.3569  0.7722
 7844SOL    HW234995   3.307   0.127   9.759 -1.1267  0.4068 -0.2077
 7845SOL     OW34996   4.236   0.305   4.579 -0.6308  0.2831 -0.4581
 7845SOL    HW134997   4.164   0.328   4.638  1.6265  4.4030  0.6830
 7845SOL    HW234998   4.211   0.218   4.549  1.2445 -0.7114  0.8714
 7846SOL     OW34999   3.885   3.705  10.131 -0.2602  0.2377  0.0498
 7846SOL    HW135000   3.807   3.753  10.104  0.6284  2.5915  1.6638
 7846SOL    HW235001   3.869   3.702  10.225  1.3543 -0.9536  0.2790
 7847SOL     OW35002   0.347   3.729   6.244  0.3176 -0.3337 -0.0716
 7847SOL    HW135003   0.252   3.739   6.250  0.7151  2.7123  0.9367
 7847SOL    HW235004   0.350   3.644   6.198  0.5180  0.8319 -2.2256
 7848SOL     OW35005   4.133   2.568  16.777 -0.4975 -0.0376  0.5010
 7848SOL    HW135006   4.150   2.637  16.841  2.1388 -0.3884  0.1599
 7848SOL    HW235007   4.116   2.624  16.701  1.3698 -1.1755 -0.7651
 7849SOL     OW35008   1.027   2.842   3.484 -0.2407  0.1246  0.3566
 7849SOL    HW135009   0.978   2.898   3.424  2.5701 -0.6550 -2.6640
 7849SOL    HW235010   0.979   2.852   3.567  1.1468 -1.3036  1.3396
 7850SOL     OW35011   0.553   3.269   7.720  0.3100 -0.1619  0.8360
 7850SOL    HW135012   0.596   3.354   7.711  2.1196 -1.1741  0.1365
 7850SOL    HW235013   0.560   3.266   7.816  1.3391  1.8255  0.8134
 7851SOL     OW35014   3.584   0.289   4.933  0.1166  0.4831  0.3205
 7851SOL    HW135015   3.589   0.266   5.026 -0.9319  0.0394  0.2616
 7851SOL    HW235016   3.513   0.231   4.907  0.6136  0.3974 -0.8624
 7852SOL     OW35017   3.981   3.539   9.740 -0.5031 -0.4716  0.0294
 7852SOL    HW135018   3.978   3.618   9.794  0.7971 -0.3221 -0.0985
 7852SOL    HW235019   4.021   3.574   9.660 -1.0413  0.9464  0.3884
 7853SOL     OW35020   3.652   0.071  14.519 -0.2420  0.9162  0.2095
 7853SOL    HW135021   3.650   0.167  14.522  0.3255  0.9181  0.5633
 7853SOL    HW235022   3.746   0.054  14.514 -0.0814  2.4583 -2.5748
 7854SOL     OW35023   0.915   0.433   4.066  0.2997 -0.0308 -0.2543
 7854SOL    HW135024   0.904   0.492   4.141  2.4512 -1.5364  1.2425
 7854SOL    HW235025   0.845   0.372   4.088 -1.1333  1.8773  0.5430
 7855SOL     OW35026   0.724   0.242   4.502  0.1336  0.1621  0.2646
 7855SOL    HW135027   0.780   0.206   4.433 -1.4185 -2.2044  0.2525
 7855SOL    HW235028   0.658   0.176   4.517 -1.5438  1.8342  0.2453
 7856SOL     OW35029   0.146   3.138   0.294  0.5664  0.5842  0.4440
 7856SOL    HW135030   0.180   3.095   0.216 -2.5038 -0.8723 -0.0802
 7856SOL    HW235031   0.091   3.202   0.249 -0.7803  0.3342  1.7516
 7857SOL     OW35032   3.876   0.504  14.903 -0.1307  0.2271  0.0982
 7857SOL    HW135033   3.894   0.462  14.819 -0.2458 -1.2218  0.7882
 7857SOL    HW235034   3.875   0.428  14.961 -1.5930 -0.6650 -1.1173
 7858SOL     OW35035   0.572   0.886   6.865  0.2022  0.3577 -0.1341
 7858SOL    HW135036   0.574   0.918   6.775  0.3537  1.2503  0.1878
 7858SOL    HW235037   0.482   0.908   6.888 -0.1580 -0.8537 -0.3814
 7859SOL     OW35038   3.726   0.235  15.374 -0.7409  0.4908  0.3227
 7859SOL    HW135039   3.660   0.240  15.305 -1.5754 -2.5932  0.9130
 7859SOL    HW235040   3.806   0.197  15.336 -1.4587 -0.3263 -0.3956
 7860SOL     OW35041   3.536   2.249   6.676  0.2568 -0.5417  0.1564
 7860SOL    HW135042   3.494   2.323   6.633 -0.6713  0.4923  2.8548
 7860SOL    HW235043   3.621   2.249   6.632  2.0277 -0.2955  3.5900
 7861SOL     OW35044   4.681   4.682   8.765  0.2624  0.0357  0.3501
 7861SOL    HW135045   4.596   4.682   8.719  0.7752  1.2435 -0.5991
 7861SOL    HW235046   4.660   4.674   8.858  0.0748  2.0418  0.4829
 7862SOL     OW35047   1.686   4.088   8.046  0.0605 -0.7010  0.3642
 7862SOL    HW135048   1.767   4.089   7.994  1.1681  2.9918  2.1464
 7862SOL    HW235049   1.716   4.147   8.115 -1.1979  1.4158 -0.8992
 7863SOL     OW35050   4.068   0.753   4.227  0.7392  0.6468  0.1561
 7863SOL    HW135051   4.002   0.792   4.283  0.9532  1.5450 -0.2179
 7863SOL    HW235052   4.033   0.773   4.140 -0.2474  0.7574  0.5855
 7864SOL     OW35053   0.728   0.628  17.351 -0.1773  0.6831 -0.5460
 7864SOL    HW135054   0.750   0.619  17.443 -2.9158 -2.8323 -0.2667
 7864SOL    HW235055   0.754   0.717  17.327 -0.1882  1.4451  2.2964
 7865SOL     OW35056   0.943   3.221  10.084  0.2593 -0.3444 -0.1652
 7865SOL    HW135057   0.853   3.223  10.051 -0.4021 -1.6575  1.5704
 7865SOL    HW235058   0.924   3.189  10.172 -0.3505 -0.1973 -0.2438
 7866SOL     OW35059   0.924   0.472  12.308 -0.3008  0.1003 -0.4281
 7866SOL    HW135060   0.908   0.506  12.396 -0.8708  1.2058 -0.9550
 7866SOL    HW235061   0.949   0.556  12.270 -0.2783 -0.6202 -2.0159
 7867SOL     OW35062   0.913   4.701   9.751 -0.0105  0.6208  0.2760
 7867SOL    HW135063   0.877   4.641   9.685  1.5526 -0.5572  0.4882
 7867SOL    HW235064   1.008   4.697   9.746 -0.0459 -1.0520  0.9169
 7868SOL     OW35065   0.905   0.003   4.974  0.0861 -0.6029  0.3664
 7868SOL    HW135066   0.917   4.710   4.880 -1.3385 -0.2051  0.1097
 7868SOL    HW235067   0.810   0.005   4.988  0.2227 -1.1493  1.3789
 7869SOL     OW35068   0.013   1.265  12.286  0.6159 -0.4156  0.3101
 7869SOL    HW135069   0.039   1.178  12.255 -1.8661 -0.7661 -0.8037
 7869SOL    HW235070   4.649   1.268  12.245  1.5482 -0.0274 -1.6705
 7870SOL     OW35071   2.919   3.185   8.472  0.1313 -0.5599 -0.1006
 7870SOL    HW135072   3.002   3.223   8.498 -0.4416  1.6462 -1.4749
 7870SOL    HW235073   2.900   3.137   8.552 -1.4949  1.2822  0.6116
 7871SOL     OW35074   2.337   1.419   4.093 -0.4501 -0.3151 -0.1471
 7871SOL    HW135075   2.315   1.408   4.185 -0.3562 -1.1817 -0.2219
 7871SOL    HW235076   2.269   1.481   4.066 -0.1410  0.0137 -0.1685
 7872SOL     OW35077   0.387   0.511   3.132  0.1806  0.0614 -0.4656
 7872SOL    HW135078   0.457   0.453   3.102  1.6601  0.6562  1.8677
 7872SOL    HW235079   0.377   0.480   3.223  3.0248  1.5027  0.3263
 7873SOL     OW35080   3.477   3.330   6.502 -0.6279 -0.2510 -0.1155
 7873SOL    HW135081   3.476   3.418   6.539  0.0970  0.1783 -1.1030
 7873SOL    HW235082   3.438   3.350   6.416 -0.0616  4.8351  0.8408
 7874SOL     OW35083   3.946   2.713   9.030  1.0707 -0.3020  0.0206
 7874SOL    HW135084   3.876   2.720   9.095 -0.2696  0.3528 -1.4766
 7874SOL    HW235085   3.968   2.621   9.036  0.6210 -0.4020  0.1519
 7875SOL     OW35086   0.354   2.759   2.092  0.1341 -0.1274 -1.0910
 7875SOL    HW135087   0.316   2.699   2.028 -0.0717 -0.7634 -0.3751
 7875SOL    HW235088   0.443   2.726   2.109 -0.2320 -1.0831 -0.9918
 7876SOL     OW35089   3.540   3.097   9.218 -0.2582  0.3034 -0.3637
 7876SOL    HW135090   3.464   3.090   9.275  0.3490 -0.2413  0.3756
 7876SOL    HW235091   3.555   3.192   9.214  0.5746  0.2248  0.9810
 7877SOL     OW35092   0.538   1.121   4.502  0.4384 -0.0209 -0.0443
 7877SOL    HW135093   0.601   1.049   4.490  1.4216  1.4273 -3.6480
 7877SOL    HW235094   0.594   1.184   4.457 -0.0870  1.5390  1.5294
 7878SOL     OW35095   1.557   4.196  17.510  0.2952 -0.3004  0.0232
 7878SOL    HW135096   1.614   4.230  17.440 -0.4340 -2.6456 -1.6697
 7878SOL    HW235097   1.574   4.102  17.507 -0.7076 -0.4957  0.4179
 7879SOL     OW35098   4.292   0.930   9.323  0.8928 -0.1532 -0.1370
 7879SOL    HW135099   4.219   0.870   9.311 -0.3394  1.6027 -1.3981
 7879SOL    HW235100   4.286   0.995   9.253 -1.7118 -1.1081 -0.8217
 7880SOL     OW35101   4.671   1.672   8.284  0.3377  0.1301 -0.2859
 7880SOL    HW135102   0.020   1.688   8.222  1.5008 -0.8294  0.8016
 7880SOL    HW235103   4.601   1.727   8.250  0.8465 -0.4068 -2.2036
 7881SOL     OW35104   0.041   2.822   4.567  0.2144 -0.1573 -0.3764
 7881SOL    HW135105   4.723   2.850   4.485  0.0040 -0.7074 -0.4619
 7881SOL    HW235106   0.091   2.897   4.599  1.6068 -0.8688 -0.8878
 7882SOL     OW35107   2.696   0.397   2.672 -0.4238 -0.0047  0.1273
 7882SOL    HW135108   2.670   0.379   2.762  2.6606  0.1643  1.0434
 7882SOL    HW235109   2.785   0.426   2.692 -0.7845  0.4772  1.0072
 7883SOL     OW35110   4.494   1.100   3.564  0.7305  0.5009  0.4453
 7883SOL    HW135111   4.586   1.121   3.579  0.7021  0.8592  0.0975
 7883SOL    HW235112   4.455   1.182   3.593  0.0654  0.7896 -1.2666
 7884SOL     OW35113   4.018   3.367   4.650  0.1570 -0.2400  0.3040
 7884SOL    HW135114   4.001   3.391   4.741  1.4296  0.2988  0.4014
 7884SOL    HW235115   4.102   3.409   4.634 -0.1076  0.2694  0.2697
 7885SOL     OW35116   4.606   0.828   2.666 -0.3913 -0.4122  0.2382
 7885SOL    HW135117   4.590   0.875   2.583  0.6484 -0.1907  0.1615
 7885SOL    HW235118   4.668   0.888   2.708  0.0914 -1.4079  0.9321
 7886SOL     OW35119   2.770   3.560   2.518 -0.9560 -0.4342 -0.0043
 7886SOL    HW135120   2.707   3.490   2.535 -1.7373  0.2972  0.1207
 7886SOL    HW235121   2.713   3.635   2.499  0.4258  0.9004  1.1074
 7887SOL     OW35122   0.689   3.514   1.704  0.3471  0.5762 -0.1809
 7887SOL    HW135123   0.681   3.432   1.654 -0.0785 -0.1881  1.1334
 7887SOL    HW235124   0.742   3.562   1.641  0.4063 -0.8885 -1.2417
 7888SOL     OW35125   4.161   3.771   7.522  0.1096  0.3581 -0.1675
 7888SOL    HW135126   4.174   3.865   7.535  0.3053  0.1149  1.4197
 7888SOL    HW235127   4.103   3.754   7.449 -0.3849 -0.4625  0.4177
 7889SOL     OW35128   2.410   3.335   3.398  1.0786  0.2668 -0.6099
 7889SOL    HW135129   2.366   3.410   3.439 -1.6479 -2.2082  0.9558
 7889SOL    HW235130   2.423   3.274   3.470  2.6300  0.1306 -1.0106
 7890SOL     OW35131   0.568   3.798   9.600  0.1086 -0.4978 -0.2738
 7890SOL    HW135132   0.579   3.776   9.507 -0.9646  2.6580 -1.1722
 7890SOL    HW235133   0.621   3.734   9.648  0.0265 -1.1892 -1.1061
 7891SOL     OW35134   4.468   0.104  11.022  0.2846  0.1347 -0.1991
 7891SOL    HW135135   4.427   0.017  11.026 -1.3238  0.7250 -4.2337
 7891SOL    HW235136   4.500   0.117  11.112 -0.5547  0.3774  0.0661
 7892SOL     OW35137   0.008   1.704   8.564 -0.0386  0.0168 -0.4764
 7892SOL    HW135138   4.707   1.700   8.471 -3.8365 -0.2739  0.4951
 7892SOL    HW235139   0.071   1.775   8.555 -1.9464  1.6082 -1.3373
 7893SOL     OW35140   4.373   1.459   3.304 -0.2227 -0.0279  0.4550
 7893SOL    HW135141   4.445   1.439   3.364  1.0217 -1.2057 -1.4558
 7893SOL    HW235142   4.369   1.555   3.311  2.0270  0.3348 -3.0469
 7894SOL     OW35143   2.607   0.683  14.136 -0.2302  0.1071 -0.1706
 7894SOL    HW135144   2.560   0.713  14.058 -3.0877 -3.6925  0.1125
 7894SOL    HW235145   2.612   0.760  14.193  0.6206 -0.6999  0.8391
 7895SOL     OW35146   1.644   1.377   8.536 -0.1789  0.4287  0.4999
 7895SOL    HW135147   1.733   1.405   8.516 -0.3512 -0.4357 -1.5346
 7895SOL    HW235148   1.655   1.354   8.628 -1.0104  0.8335  0.6972
 7896SOL     OW35149   2.055   0.975   6.544  0.6277  0.2725  0.3828
 7896SOL    HW135150   2.001   0.909   6.502  0.1615  1.1571 -0.4113
 7896SOL    HW235151   1.998   1.052   6.551  0.2946  0.0637 -0.0801
 7897SOL     OW35152   1.734   3.792   2.418 -0.0641 -0.0899 -0.5654
 7897SOL    HW135153   1.807   3.833   2.465  0.1650 -0.8901 -0.2139
 7897SOL    HW235154   1.663   3.795   2.481 -0.7910 -0.9800 -1.3505
 7898SOL     OW35155   0.746   0.290   6.533 -0.1930 -0.6153  0.1369
 7898SOL    HW135156   0.716   0.376   6.563  0.0755 -1.1658  2.0104
 7898SOL    HW235157   0.784   0.247   6.610  0.0163 -1.7196 -0.5848
 7899SOL     OW35158   3.954   1.951   8.346 -0.1381  0.1039 -0.2925
 7899SOL    HW135159   3.927   2.028   8.395  0.6841  0.7596 -0.8729
 7899SOL    HW235160   3.899   1.883   8.384  1.2624  0.1226  1.7660
 7900SOL     OW35161   2.081   3.730   6.458 -0.1524 -0.2529 -0.2473
 7900SOL    HW135162   2.099   3.640   6.429 -2.0372 -0.9904  0.8248
 7900SOL    HW235163   2.139   3.779   6.400 -1.2320  2.4551  0.9838
 7901SOL     OW35164   2.988   4.293   2.640  0.3611 -0.1044 -0.2962
 7901SOL    HW135165   2.922   4.319   2.575 -0.4142  1.6849  1.2194
 7901SOL    HW235166   2.938   4.244   2.705  1.6821 -0.7259  0.2370
 7902SOL     OW35167   1.456   4.034   7.774  0.2888  0.0736  0.1179
 7902SOL    HW135168   1.444   4.124   7.804  0.0818  0.0156  0.2096
 7902SOL    HW235169   1.416   4.044   7.687  3.5846 -1.3696 -1.5557
 7903SOL     OW35170   3.248   4.143   8.678  0.0240 -0.0586 -0.6205
 7903SOL    HW135171   3.222   4.228   8.714  0.8437 -0.3676  0.7079
 7903SOL    HW235172   3.161   4.107   8.658  1.3013 -4.1769  1.1681
 7904SOL     OW35173   0.033   4.511  11.232  0.4364  0.4334  0.5225
 7904SOL    HW135174   0.033   4.558  11.315 -2.3224 -1.4569  1.6197
 7904SOL    HW235175   0.050   4.426  11.271 -2.2099  0.4769  1.8105
 7905SOL     OW35176   1.737   3.882  10.647  0.5518  0.1438  0.2388
 7905SOL    HW135177   1.749   3.798  10.602 -1.5869 -0.0222 -0.0099
 7905SOL    HW235178   1.705   3.944  10.581 -1.9153 -0.5463  0.7884
 7906SOL     OW35179   4.503   3.416   6.656  0.1659 -0.1089 -0.0327
 7906SOL    HW135180   4.538   3.394   6.742 -1.6674  1.2238  1.0534
 7906SOL    HW235181   4.453   3.337   6.635 -2.1305  1.5157 -0.7358
 7907SOL     OW35182   0.309   2.609  14.561 -0.0133 -0.7560 -0.3298
 7907SOL    HW135183   0.367   2.670  14.607 -0.2154  0.0399 -1.1421
 7907SOL    HW235184   0.224   2.615  14.605  0.7827  0.8726  1.0208
 7908SOL     OW35185   0.355   1.482   7.304 -0.0391  0.4066  0.0940
 7908SOL    HW135186   0.330   1.570   7.276  2.0948  0.9409 -0.0682
 7908SOL    HW235187   0.401   1.500   7.385  0.0355  1.2949 -0.1458
 7909SOL     OW35188   1.102   2.232   5.172  0.0285  0.0732  0.4642
 7909SOL    HW135189   1.112   2.144   5.208 -1.6995 -0.6257 -0.7406
 7909SOL    HW235190   1.011   2.230   5.141  0.1855 -0.9266  0.0613
 7910SOL     OW35191   2.433   1.015  16.099 -0.1838 -0.1058  0.4648
 7910SOL    HW135192   2.494   1.083  16.069  1.0720 -2.5635 -2.5318
 7910SOL    HW235193   2.420   1.038  16.191 -0.0705  2.2761 -0.1289
 7911SOL     OW35194   4.093   2.125  10.346  0.0153  0.1414 -0.1051
 7911SOL    HW135195   4.148   2.183  10.293 -0.2216  1.2006  0.7955
 7911SOL    HW235196   4.046   2.191  10.398 -0.2342  0.7386 -1.0852
 7912SOL     OW35197   1.934   2.580   5.231  0.3034  0.1270 -0.5755
 7912SOL    HW135198   2.003   2.583   5.164  0.8675 -2.0207 -0.0831
 7912SOL    HW235199   1.994   2.545   5.297 -0.7934  0.4568  0.6008
 7913SOL     OW35200   2.795   3.419   8.261  0.4150 -0.4077  0.0195
 7913SOL    HW135201   2.863   3.358   8.290  1.6897  1.2381  0.4670
 7913SOL    HW235202   2.719   3.363   8.278  0.7910 -1.5590 -2.0138
 7914SOL     OW35203   2.053   4.158  13.958  0.1618 -0.0384 -0.2146
 7914SOL    HW135204   2.006   4.080  13.985 -0.9520  0.8014  0.2894
 7914SOL    HW235205   2.143   4.141  13.985 -0.8843  1.2290  4.1001
 7915SOL     OW35206   0.678   0.045  13.504  0.0906  0.2982 -0.6978
 7915SOL    HW135207   0.658   0.081  13.417  1.8538 -1.7085 -1.9219
 7915SOL    HW235208   0.627   0.096  13.567  1.8817  1.5741 -0.2776
 7916SOL     OW35209   3.201   2.240  11.388 -0.0675  0.4039  0.2809
 7916SOL    HW135210   3.267   2.186  11.345  0.2750  0.7931  0.3133
 7916SOL    HW235211   3.128   2.223  11.329  1.4897 -3.6186 -0.4702
 7917SOL     OW35212   0.525   1.209   9.592 -0.0364 -0.1736 -0.0371
 7917SOL    HW135213   0.488   1.278   9.647 -0.4779 -0.5938  0.1968
 7917SOL    HW235214   0.605   1.248   9.559  0.5903 -1.6672 -0.3116
 7918SOL     OW35215   4.649   3.397   2.893 -0.9633 -0.2598 -0.7736
 7918SOL    HW135216   4.591   3.353   2.954 -0.4536 -0.7499 -0.6440
 7918SOL    HW235217   0.009   3.405   2.941 -1.5736  2.6142 -0.1832
 7919SOL     OW35218   4.625   4.597   7.784  0.0215  0.0796 -0.6096
 7919SOL    HW135219   4.699   4.540   7.766 -0.6731 -1.9039  2.6945
 7919SOL    HW235220   4.640   4.609   7.878  0.3640 -0.3475 -0.6085
 7920SOL     OW35221   3.116   0.843   5.863  0.7152 -0.2932  0.1195
 7920SOL    HW135222   3.160   0.842   5.778  0.6562 -2.9519  0.1322
 7920SOL    HW235223   3.195   0.827   5.914  1.5934 -0.0356 -1.1453
 7921SOL     OW35224   1.757   0.971   9.590 -0.1004 -0.2569 -0.1187
 7921SOL    HW135225   1.803   1.048   9.623 -1.4501  0.4603  0.0904
 7921SOL    HW235226   1.808   0.958   9.511 -1.0008 -0.5250 -0.6612
 7922SOL     OW35227   0.217   0.536   1.222 -0.0612 -0.2176 -0.4457
 7922SOL    HW135228   0.308   0.554   1.248 -0.4248 -0.7471  1.2072
 7922SOL    HW235229   0.235   0.496   1.137 -0.1995 -0.6297 -0.2821
 7923SOL     OW35230   0.035   0.111   5.114 -0.0888  0.3882 -0.0962
 7923SOL    HW135231   4.704   0.032   5.107 -1.3633  1.1790  0.7281
 7923SOL    HW235232   4.719   0.163   5.043 -0.7208  0.1447  0.0645
 7924SOL     OW35233   4.107   2.273   2.040 -0.2631  0.4012  0.5420
 7924SOL    HW135234   4.046   2.201   2.022  0.7277 -0.6471  1.4062
 7924SOL    HW235235   4.196   2.240   2.032 -0.6918 -0.7406  0.3619
 7925SOL     OW35236   2.372   1.259  16.998  0.6183 -0.7406  0.1756
 7925SOL    HW135237   2.450   1.259  16.943  0.9078  0.1221  0.5820
 7925SOL    HW235238   2.325   1.180  16.971  1.5745 -0.7831 -1.3679
 7926SOL     OW35239   2.844   0.505   5.833  0.3995  0.2069 -0.2744
 7926SOL    HW135240   2.854   0.566   5.905 -0.1361  0.9349 -0.8204
 7926SOL    HW235241   2.781   0.557   5.783  2.1496  1.9076 -0.7501
 7927SOL     OW35242   1.490   3.487   6.492 -0.8220  0.4699  0.1152
 7927SOL    HW135243   1.515   3.396   6.507  0.1607  0.4038 -1.9661
 7927SOL    HW235244   1.423   3.504   6.558 -0.2586  1.2478  0.4821
 7928SOL     OW35245   2.710   1.450   5.943 -0.8156 -0.3734 -0.2997
 7928SOL    HW135246   2.635   1.471   5.887 -1.7285  1.1501  1.4568
 7928SOL    HW235247   2.781   1.464   5.881  0.3197 -0.2919  1.0229
 7929SOL     OW35248   0.502   2.492   1.054  0.9007 -0.1410  0.1704
 7929SOL    HW135249   0.558   2.426   1.096  1.5713  1.2190  1.3955
 7929SOL    HW235250   0.417   2.447   1.054  1.3641 -0.9958  1.8561
 7930SOL     OW35251   4.659   2.053  15.051 -0.4883  0.3200 -0.6607
 7930SOL    HW135252   4.667   1.970  15.097  2.7362  1.1977  0.3620
 7930SOL    HW235253   4.602   2.014  14.984 -1.4725 -1.1956  1.0642
 7931SOL     OW35254   0.352   2.875  15.128  0.2046  0.0094 -0.2401
 7931SOL    HW135255   0.429   2.885  15.184  1.5522 -0.1173 -2.0552
 7931SOL    HW235256   0.282   2.914  15.179  1.1293 -0.1488  1.1671
 7932SOL     OW35257   2.259   3.872   7.516 -0.2209 -0.3424  0.0422
 7932SOL    HW135258   2.283   3.792   7.469  0.7339  0.2147 -0.4210
 7932SOL    HW235259   2.181   3.837   7.560  0.3060 -1.2436  0.2665
 7933SOL     OW35260   0.714   4.549   9.107  0.4010 -0.6102  0.4437
 7933SOL    HW135261   0.622   4.576   9.111 -0.0189 -1.9982  0.3981
 7933SOL    HW235262   0.725   4.531   9.013 -1.4246 -1.1536  0.3255
 7934SOL     OW35263   3.358   3.212   8.013  0.0712  0.1320 -0.1868
 7934SOL    HW135264   3.452   3.200   7.999 -0.7765 -2.3034 -3.9449
 7934SOL    HW235265   3.303   3.173   7.945 -0.8523 -1.3833  1.4198
 7935SOL     OW35266   0.182   1.116   0.147 -0.3074 -0.6995  0.0244
 7935SOL    HW135267   0.278   1.105   0.142 -0.1242  0.4947  1.1819
 7935SOL    HW235268   0.161   1.028   0.179 -0.2928 -0.4747  0.6501
 7936SOL     OW35269   4.447   1.852  16.700  0.3191 -0.2374  0.2115
 7936SOL    HW135270   4.401   1.836  16.783 -0.2624 -0.7019 -0.1990
 7936SOL    HW235271   4.523   1.897  16.736 -1.5178  1.5566  1.9106
 7937SOL     OW35272   0.519   0.844   4.311  0.4561 -0.0311  0.1834
 7937SOL    HW135273   0.546   0.792   4.236 -1.3008 -0.8353  0.0883
 7937SOL    HW235274   0.601   0.886   4.336  1.1217 -2.9031  2.9541
 7938SOL     OW35275   4.023   4.100  15.231  0.6362 -0.5251  0.0304
 7938SOL    HW135276   4.067   4.015  15.234 -2.0778 -1.9203  0.1242
 7938SOL    HW235277   4.103   4.142  15.199  0.6109  1.0717  2.0338
 7939SOL     OW35278   1.163   2.618   2.777 -0.3214 -0.1493  0.0443
 7939SOL    HW135279   1.157   2.714   2.775 -2.4278 -0.2695  0.6561
 7939SOL    HW235280   1.206   2.593   2.695  0.9964  1.4124  0.2528
 7940SOL     OW35281   2.631   3.758   0.515  0.2295 -0.0781  0.3987
 7940SOL    HW135282   2.610   3.746   0.608  0.8013 -1.6875  0.3127
 7940SOL    HW235283   2.664   3.848   0.518  0.7988 -0.3017  0.8266
 7941SOL     OW35284   2.073   4.357   7.184  0.1197 -0.6393 -0.2490
 7941SOL    HW135285   1.992   4.344   7.233  0.6479  2.2448  1.4345
 7941SOL    HW235286   2.075   4.284   7.122  0.5160 -0.8765  0.0441
 7942SOL     OW35287   1.004   0.020   5.349  0.9299 -0.1321  0.0260
 7942SOL    HW135288   0.915   0.009   5.382  1.6073 -1.4274  1.4068
 7942SOL    HW235289   1.053   0.009   5.431 -0.7264  2.4458  1.3325
 7943SOL     OW35290   0.960   0.547   1.287  0.1673 -0.1129  0.1486
 7943SOL    HW135291   0.983   0.539   1.380 -0.3528 -1.6792  0.1448
 7943SOL    HW235292   0.880   0.599   1.288  0.3531  0.2125 -1.5496
 7944SOL     OW35293   2.492   1.657   4.242  0.0196 -0.6521 -0.3516
 7944SOL    HW135294   2.528   1.650   4.330  0.9983  2.3857 -0.4938
 7944SOL    HW235295   2.425   1.589   4.241 -0.3827 -0.2091 -3.4014
 7945SOL     OW35296   2.483   1.540  13.258  0.4149  0.3333  0.5660
 7945SOL    HW135297   2.480   1.499  13.171 -1.3403  0.4824  0.5597
 7945SOL    HW235298   2.523   1.466  13.304  1.3000  0.4915  0.0627
 7946SOL     OW35299   0.470   2.973   1.489 -0.9424 -0.0342 -0.3195
 7946SOL    HW135300   0.386   2.931   1.475  0.1568 -2.1146 -0.6742
 7946SOL    HW235301   0.433   3.021   1.563 -3.0503  0.3729 -1.6378
 7947SOL     OW35302   2.891   2.009  14.550  0.2418  0.4358  0.3510
 7947SOL    HW135303   2.826   1.986  14.483  0.5465  0.7040 -0.0319
 7947SOL    HW235304   2.954   2.061  14.501  1.9968 -1.3438  0.7331
 7948SOL     OW35305   4.473   1.004   6.816 -0.0739 -0.7280  0.1493
 7948SOL    HW135306   4.433   0.961   6.739 -1.2067 -1.5134  1.1642
 7948SOL    HW235307   4.473   0.932   6.879 -2.1553 -1.4378 -0.6228
 7949SOL     OW35308   4.191   4.588   4.700 -0.4172 -0.0588 -0.5164
 7949SOL    HW135309   4.222   4.640   4.626  1.4728  0.0773  0.3778
 7949SOL    HW235310   4.098   4.576   4.681 -0.4782  0.1613 -0.3646
 7950SOL     OW35311   3.854   3.457   9.446 -0.0045  0.3684  0.1978
 7950SOL    HW135312   3.931   3.455   9.503  1.7490 -0.2823 -2.1849
 7950SOL    HW235313   3.817   3.369   9.457  1.5524 -0.6007 -2.3245
 7951SOL     OW35314   4.223   3.422   9.482  0.2560  0.3936 -0.8095
 7951SOL    HW135315   4.236   3.386   9.394  3.7392  0.6631 -0.3945
 7951SOL    HW235316   4.303   3.474   9.492  0.1788  0.6309 -1.4418
 7952SOL     OW35317   4.208   0.116  17.197  0.3524  0.3042 -0.2615
 7952SOL    HW135318   4.142   0.180  17.223 -0.1479 -0.7689  1.1102
 7952SOL    HW235319   4.232   0.075  17.280  0.4867 -1.7284 -1.3164
 7953SOL     OW35320   0.992   0.908   4.496 -0.3298  0.4552 -0.2366
 7953SOL    HW135321   1.003   0.853   4.574 -1.8262 -2.9829 -2.4432
 7953SOL    HW235322   1.072   0.882   4.449 -1.2632 -0.1108 -1.5153
 7954SOL     OW35323   2.691   1.756   1.079 -0.3017  0.2406  0.2627
 7954SOL    HW135324   2.695   1.660   1.079 -1.0942  0.2126 -1.1267
 7954SOL    HW235325   2.725   1.764   0.989  0.8285  1.5365  0.8094
 7955SOL     OW35326   4.125   4.174  14.938  0.3725 -0.4420  0.3045
 7955SOL    HW135327   4.050   4.228  14.964  1.0864  1.0807 -0.8509
 7955SOL    HW235328   4.189   4.207  15.002 -1.2096  1.1638  1.0661
 7956SOL     OW35329   0.333   2.607   3.519  0.3378 -0.1022  0.8040
 7956SOL    HW135330   0.398   2.540   3.498 -2.1375 -1.8150 -1.3617
 7956SOL    HW235331   0.319   2.579   3.610 -3.6195  0.5056  0.3770
 7957SOL     OW35332   0.652   3.871  12.383 -0.2164 -0.3963  0.0568
 7957SOL    HW135333   0.587   3.941  12.369  0.1985 -0.6102 -2.9541
 7957SOL    HW235334   0.718   3.901  12.321 -0.2790 -2.0720 -0.8124
 7958SOL     OW35335   4.486   1.787  15.896  0.2864 -0.2132 -0.0939
 7958SOL    HW135336   4.539   1.819  15.968  3.0477  1.2556 -2.7571
 7958SOL    HW235337   4.496   1.860  15.834 -0.6767  2.1779  2.5764
 7959SOL     OW35338   1.371   4.093   3.782 -0.6364 -0.2359  0.0357
 7959SOL    HW135339   1.294   4.045   3.752 -1.6358  0.3624  1.6484
 7959SOL    HW235340   1.348   4.157   3.849  2.0228  0.7480  0.0177
 7960SOL     OW35341   3.953   3.926   5.669  0.0656  0.9412  0.1084
 7960SOL    HW135342   3.859   3.944   5.659 -0.0424  1.3594  1.8344
 7960SOL    HW235343   3.956   3.950   5.761 -0.7632  2.8378 -0.3675
 7961SOL     OW35344   4.273   2.709   7.173 -0.7149 -0.5867 -0.6422
 7961SOL    HW135345   4.350   2.760   7.148 -0.8190  0.0659  0.3801
 7961SOL    HW235346   4.296   2.628   7.218  0.5641  0.7284  1.0568
 7962SOL     OW35347   3.365   3.394   2.495  0.1627 -0.1905 -0.3496
 7962SOL    HW135348   3.397   3.364   2.410  0.2299  0.5051 -0.5699
 7962SOL    HW235349   3.399   3.483   2.486  0.9697 -0.2867  1.6907
 7963SOL     OW35350   2.170   1.862   7.485  0.8826  0.1976 -0.8763
 7963SOL    HW135351   2.191   1.944   7.529 -1.9573  0.7178 -0.4662
 7963SOL    HW235352   2.129   1.802   7.547  2.3160 -0.6463 -0.7372
 7964SOL     OW35353   3.483   1.979   9.761  0.3511  0.3783  0.2936
 7964SOL    HW135354   3.436   1.976   9.678 -2.2452  1.3237  1.7125
 7964SOL    HW235355   3.574   1.963   9.739 -0.5604 -0.3547 -2.8542
 7965SOL     OW35356   2.447   0.275   3.713 -0.0827 -0.0429 -0.1622
 7965SOL    HW135357   2.457   0.186   3.745  0.6091 -0.1103 -0.5595
 7965SOL    HW235358   2.461   0.268   3.618  1.1872  0.9688 -0.0553
 7966SOL     OW35359   3.363   2.821   1.559  0.0012  0.0446 -0.8348
 7966SOL    HW135360   3.326   2.735   1.536  1.0855 -0.9107  1.0326
 7966SOL    HW235361   3.447   2.805   1.516  0.2192 -1.5765  0.1962
 7967SOL     OW35362   3.996   0.245   3.599 -0.1124 -0.1201 -0.1518
 7967SOL    HW135363   4.029   0.331   3.624  0.7104  0.1122 -2.0696
 7967SOL    HW235364   4.002   0.246   3.504 -2.0800  2.6055 -0.2221
 7968SOL     OW35365   2.019   0.374   5.325  0.4049 -0.5945 -0.1575
 7968SOL    HW135366   1.948   0.419   5.280  0.5103  0.8619  1.1257
 7968SOL    HW235367   1.963   0.327   5.387  1.6331  0.1956  1.5654
 7969SOL     OW35368   0.616   3.590  11.655 -0.0495  0.1740  0.0624
 7969SOL    HW135369   0.649   3.518  11.600 -0.6795 -0.8431  1.0210
 7969SOL    HW235370   0.695   3.634  11.684  2.2638 -1.5745 -3.5913
 7970SOL     OW35371   1.292   3.103   8.219  0.3495 -0.2879 -0.4359
 7970SOL    HW135372   1.312   3.010   8.230  2.1064  0.3749  2.2340
 7970SOL    HW235373   1.364   3.143   8.170  1.1251  0.4804  1.3051
 7971SOL     OW35374   2.659   3.443  14.679  0.2288 -0.3442  0.4038
 7971SOL    HW135375   2.728   3.419  14.616  0.4536  0.9154  0.1689
 7971SOL    HW235376   2.693   3.528  14.706  1.5368 -0.3007 -1.3093
 7972SOL     OW35377   4.060   1.232  16.605 -0.2170 -0.0677 -0.0548
 7972SOL    HW135378   3.994   1.247  16.538 -0.4391  1.6486  0.5459
 7972SOL    HW235379   4.021   1.250  16.691 -0.2644 -0.3222 -0.0242
 7973SOL     OW35380   2.672   1.859   7.627  0.0888  0.3982  0.6353
 7973SOL    HW135381   2.713   1.934   7.670  0.6259 -0.0881  0.9645
 7973SOL    HW235382   2.601   1.855   7.691 -0.5868  2.9477  0.0516
 7974SOL     OW35383   4.303   3.609   5.512  0.1494 -0.3090  0.0837
 7974SOL    HW135384   4.255   3.691   5.522 -0.7202 -0.5817 -1.8918
 7974SOL    HW235385   4.284   3.587   5.421  4.6910 -2.6648 -0.3177
 7975SOL     OW35386   0.849   1.183   8.531 -0.5763 -0.1323  0.1124
 7975SOL    HW135387   0.883   1.140   8.452  0.2502 -2.6459  1.8388
 7975SOL    HW235388   0.763   1.209   8.497  0.8539 -0.0419 -3.4064
 7976SOL     OW35389   0.466   1.225  15.195  0.3978 -0.3617  0.2302
 7976SOL    HW135390   0.549   1.177  15.193  0.1829 -0.6405 -2.0169
 7976SOL    HW235391   0.402   1.156  15.211  0.5043 -1.5382 -4.4337
 7977SOL     OW35392   0.255   2.265   8.112 -0.0784 -0.2661  0.2657
 7977SOL    HW135393   0.175   2.240   8.159 -0.0158 -0.8920  0.0437
 7977SOL    HW235394   0.251   2.215   8.030  1.4886 -2.0873  1.3029
 7978SOL     OW35395   0.421   4.010  12.897  0.6685  0.4662 -0.1344
 7978SOL    HW135396   0.464   3.983  12.816  3.1703  0.8364  1.0602
 7978SOL    HW235397   0.349   3.948  12.906  2.3867 -1.6073 -0.4659
 7979SOL     OW35398   3.774   0.041  10.425 -0.2100  0.3858  0.4570
 7979SOL    HW135399   3.852   0.034  10.370 -1.3868 -1.2738 -1.0192
 7979SOL    HW235400   3.793   0.125  10.465 -0.3870  0.3387  0.6397
 7980SOL     OW35401   3.694   3.934  15.106  0.4158  0.4436  0.7281
 7980SOL    HW135402   3.643   3.937  15.187 -3.5636  1.1893 -1.7697
 7980SOL    HW235403   3.629   3.937  15.035  1.0682 -3.3186 -0.0242
 7981SOL     OW35404   1.494   2.120   1.583  0.3421 -0.1089  0.1413
 7981SOL    HW135405   1.446   2.173   1.647 -1.1217 -0.6477 -0.5058
 7981SOL    HW235406   1.448   2.037   1.590 -0.4254  0.1391 -2.0319
 7982SOL     OW35407   4.703   0.738   4.691  0.8139 -0.0756 -0.3481
 7982SOL    HW135408   4.696   0.780   4.777  1.4614 -0.5511 -0.0564
 7982SOL    HW235409   0.010   0.804   4.629 -1.6822  0.2003 -1.2626
 7983SOL     OW35410   3.566   2.995   8.125  0.2753 -0.3439  0.4896
 7983SOL    HW135411   3.571   2.995   8.029  0.0766 -0.8541  0.4820
 7983SOL    HW235412   3.560   2.901   8.140  1.2114 -0.0006  3.0991
 7984SOL     OW35413   3.276   4.529  17.588  0.0626 -0.9017  0.0575
 7984SOL    HW135414   3.271   4.459  17.523 -1.6369 -1.8283  1.2056
 7984SOL    HW235415   3.336   4.494  17.654 -0.0953 -0.9810  0.1570
 7985SOL     OW35416   1.262   0.132   5.486  0.9040 -0.5362  0.6897
 7985SOL    HW135417   1.325   0.071   5.525 -0.6568 -0.0804  3.9988
 7985SOL    HW235418   1.326   0.182   5.436 -1.4518  0.8912 -0.8949
 7986SOL     OW35419   1.619   0.503   8.117  0.1350 -0.2408 -0.0781
 7986SOL    HW135420   1.690   0.528   8.177  1.9050 -1.6342 -1.6101
 7986SOL    HW235421   1.669   0.457   8.050 -0.1240 -2.3413  1.1737
 7987SOL     OW35422   2.943   1.241  15.420 -0.0720 -0.1784 -0.2269
 7987SOL    HW135423   2.914   1.325  15.456  0.3294  0.0948 -0.5342
 7987SOL    HW235424   2.857   1.201  15.402  0.1139 -0.2564 -0.9542
 7988SOL     OW35425   0.879   1.264  10.394  0.0865  0.7366 -0.4776
 7988SOL    HW135426   0.899   1.349  10.434 -1.3595 -0.8969  3.7808
 7988SOL    HW235427   0.832   1.217  10.463 -0.2750  1.5825 -0.1506
 7989SOL     OW35428   3.930   3.028   0.181  0.1099  0.0275  0.2847
 7989SOL    HW135429   3.843   3.032   0.222  0.5100 -0.9985  1.2477
 7989SOL    HW235430   3.979   2.982   0.250  0.9429 -0.4292 -0.6169
 7990SOL     OW35431   1.857   2.724   2.729 -0.3466 -0.3961  0.3619
 7990SOL    HW135432   1.813   2.736   2.646  1.8745 -0.5728 -0.8472
 7990SOL    HW235433   1.784   2.679   2.771 -0.9820  0.7248  0.4539
 7991SOL     OW35434   0.021   4.048   3.458 -0.0509 -0.4133 -0.2468
 7991SOL    HW135435   4.663   4.010   3.492  0.3717 -1.7340 -0.7258
 7991SOL    HW235436   4.707   4.115   3.401  0.2763  0.9295  1.1126
 7992SOL     OW35437   1.638   1.218   3.939 -0.6464  0.1121  0.8090
 7992SOL    HW135438   1.727   1.253   3.945 -0.6078  0.4140 -1.2938
 7992SOL    HW235439   1.586   1.295   3.962  1.3141  1.3584  1.0207
 7993SOL     OW35440   1.732   3.637   0.784 -0.0974 -0.0082 -0.2703
 7993SOL    HW135441   1.778   3.574   0.839  0.2269  0.2378 -0.2624
 7993SOL    HW235442   1.667   3.661   0.850 -0.7813 -0.7298 -0.6902
 7994SOL     OW35443   2.050   1.651   8.738 -0.2249  0.4191 -0.4036
 7994SOL    HW135444   2.090   1.666   8.653 -0.1676 -1.6743 -0.7239
 7994SOL    HW235445   2.127   1.632   8.791 -1.4002 -1.5286  0.5795
 7995SOL     OW35446   3.648   0.366   9.444  0.3862  0.0450 -0.0470
 7995SOL    HW135447   3.718   0.360   9.379  0.6546  0.4916  0.1973
 7995SOL    HW235448   3.694   0.320   9.515  1.1813  0.0215 -0.5753
 7996SOL     OW35449   1.756   1.920   6.515 -0.0891  0.4894  0.2744
 7996SOL    HW135450   1.763   1.951   6.425 -3.0093 -1.3173 -0.5622
 7996SOL    HW235451   1.779   1.828   6.528 -1.9789  0.0316  0.4053
 7997SOL     OW35452   1.886   2.580   4.001 -0.2108  0.2384 -0.3417
 7997SOL    HW135453   1.935   2.661   4.018 -0.9149  0.2816  1.4293
 7997SOL    HW235454   1.938   2.514   4.047 -1.9071 -0.6522  0.2740
 7998SOL     OW35455   4.097   1.225   7.252  0.3684 -0.1476  0.4832
 7998SOL    HW135456   4.159   1.244   7.182 -0.0871 -3.7971 -0.9036
 7998SOL    HW235457   4.020   1.240   7.196  2.2292  2.3480 -1.3613
 7999SOL     OW35458   2.164   0.306   2.206  0.4297  0.3936  0.1569
 7999SOL    HW135459   2.154   0.378   2.143 -1.8346  0.3193  0.4283
 7999SOL    HW235460   2.141   0.227   2.157 -0.0648  1.3757 -1.2248
 8000SOL     OW35461   2.152   1.910   4.243 -0.5450 -0.2455  0.1629
 8000SOL    HW135462   2.093   1.891   4.170 -2.1367  1.6590  0.9499
 8000SOL    HW235463   2.220   1.843   4.233 -1.4339 -1.0878 -0.2551
 8001SOL     OW35464   0.432   2.768   5.349 -0.6976 -0.0500  0.2554
 8001SOL    HW135465   0.385   2.685   5.360  2.0875 -1.6491 -0.0665
 8001SOL    HW235466   0.510   2.742   5.299 -1.4110 -0.8768 -0.4324
 8002SOL     OW35467   4.010   0.454   4.108  0.6053 -0.2799 -0.3051
 8002SOL    HW135468   4.025   0.540   4.070  1.6154 -0.5736 -0.5743
 8002SOL    HW235469   4.095   0.411   4.098  0.5609 -0.9647  2.3855
 8003SOL     OW35470   3.320   1.341   7.403  0.0777 -0.0941 -0.4456
 8003SOL    HW135471   3.233   1.380   7.407  0.4180  0.7126 -1.0474
 8003SOL    HW235472   3.364   1.400   7.342  0.8543 -0.1574  0.0584
 8004SOL     OW35473   1.549   1.012   7.652 -0.0129  0.4864  0.3644
 8004SOL    HW135474   1.542   1.107   7.639 -1.2390  0.6198  1.9958
 8004SOL    HW235475   1.634   1.011   7.696  0.6467 -0.7202 -0.9664
 8005SOL     OW35476   0.880   1.739  15.713  0.0701 -0.2774 -0.3594
 8005SOL    HW135477   0.906   1.684  15.788 -0.9528 -0.1058  0.1296
 8005SOL    HW235478   0.845   1.808  15.770  1.8539 -0.0429  0.4551
 8006SOL     OW35479   3.609   2.779   7.276 -0.7358  0.3521 -0.2564
 8006SOL    HW135480   3.527   2.785   7.326  1.0439  2.7277  2.3612
 8006SOL    HW235481   3.575   2.749   7.192  1.1898 -0.6377 -0.6699
 8007SOL     OW35482   4.441   4.243   3.524 -0.2338 -0.3412 -0.2050
 8007SOL    HW135483   4.479   4.304   3.588  0.5754 -2.1464  1.0230
 8007SOL    HW235484   4.507   4.255   3.455  0.5634 -4.2644 -0.1147
 8008SOL     OW35485   3.450   0.678   2.773  0.3914 -0.6425 -0.0598
 8008SOL    HW135486   3.423   0.703   2.861  0.6953  0.4384 -0.2785
 8008SOL    HW235487   3.411   0.741   2.712  0.6627 -1.0595 -0.6685
 8009SOL     OW35488   2.018   0.565  10.492  0.1166  0.1872 -0.1226
 8009SOL    HW135489   2.112   0.575  10.504  0.3726 -1.7293 -0.5454
 8009SOL    HW235490   2.004   0.601  10.404 -1.3506 -0.2331 -0.0660
 8010SOL     OW35491   3.169   4.517   5.260 -0.3657  0.8290  0.2097
 8010SOL    HW135492   3.168   4.596   5.206 -0.7419  0.9437  0.3916
 8010SOL    HW235493   3.200   4.464   5.187 -1.3770  0.3921  0.1041
 8011SOL     OW35494   1.156   3.467   8.524  0.0349  0.4410  0.0778
 8011SOL    HW135495   1.147   3.378   8.558 -1.5883  0.3139 -0.7292
 8011SOL    HW235496   1.213   3.446   8.450  1.5033 -1.4760  1.7188
 8012SOL     OW35497   2.793   3.501   4.459 -0.0406 -0.3311 -0.1136
 8012SOL    HW135498   2.848   3.445   4.515  2.7317  0.2915 -2.2153
 8012SOL    HW235499   2.800   3.456   4.375 -0.8564 -0.9705  0.1639
 8013SOL     OW35500   3.631   0.927   1.080  0.4308 -0.2700 -0.1010
 8013SOL    HW135501   3.707   0.971   1.118 -0.5160  2.2515 -1.1459
 8013SOL    HW235502   3.557   0.965   1.127 -1.2259 -3.1029 -0.4077
 8014SOL     OW35503   2.108   3.234   5.457 -0.0437  0.7051  0.0285
 8014SOL    HW135504   2.018   3.208   5.473 -0.3071  0.8187 -1.2600
 8014SOL    HW235505   2.136   3.252   5.547 -0.4558 -2.7691  0.8408
 8015SOL     OW35506   2.256   4.490  14.038  0.3376 -0.3294  0.3070
 8015SOL    HW135507   2.252   4.581  14.065 -2.2309 -0.0208 -1.0863
 8015SOL    HW235508   2.193   4.455  14.101 -0.0329 -2.4004 -1.1855
 8016SOL     OW35509   3.999   4.636   8.995  0.3050 -0.5194 -0.3574
 8016SOL    HW135510   3.992   4.676   9.082 -0.3994  0.1656 -0.7300
 8016SOL    HW235511   4.089   4.606   9.008  0.4530 -0.1527 -0.5178
 8017SOL     OW35512   2.356   4.337  17.466 -0.1976  0.3571  0.2330
 8017SOL    HW135513   2.340   4.272  17.398 -2.6514 -0.6010  1.7222
 8017SOL    HW235514   2.452   4.333  17.469 -0.1305  1.5002 -0.3332
 8018SOL     OW35515   1.198   4.011   3.309  0.0949 -0.3383 -0.1820
 8018SOL    HW135516   1.190   4.106   3.318 -1.3398 -0.3943 -0.9842
 8018SOL    HW235517   1.266   3.995   3.375 -0.3084 -0.5922  0.1647
 8019SOL     OW35518   4.180   0.436   9.170 -1.0679 -0.4797  0.2010
 8019SOL    HW135519   4.101   0.398   9.132 -0.2757 -2.4075  0.4952
 8019SOL    HW235520   4.226   0.353   9.184 -2.3133 -0.6446  3.4188
 8020SOL     OW35521   3.490   0.327  10.537  0.2197 -0.1449 -0.6448
 8020SOL    HW135522   3.401   0.308  10.507 -0.5685  1.7770  0.4862
 8020SOL    HW235523   3.490   0.419  10.509  1.2148 -0.1951 -0.7795
 8021SOL     OW35524   2.505   2.002   0.962  0.3727  0.1580 -1.0484
 8021SOL    HW135525   2.585   1.951   0.945 -1.1729 -2.9053  0.7662
 8021SOL    HW235526   2.542   2.069   1.020  0.0331  0.3673 -1.0774
 8022SOL     OW35527   3.208   2.196  10.440  0.4071 -0.1272 -0.0186
 8022SOL    HW135528   3.166   2.216  10.356  0.3992  1.5130  0.3896
 8022SOL    HW235529   3.159   2.115  10.455  2.6674 -0.9452  2.7930
 8023SOL     OW35530   3.798   3.086   5.878 -0.2381  0.2019 -0.1026
 8023SOL    HW135531   3.727   3.034   5.917  0.5677 -1.2901 -0.6304
 8023SOL    HW235532   3.841   3.017   5.828  0.3286 -0.3983  1.2183
 8024SOL     OW35533   2.911   0.071   3.999 -0.0963  0.4088  0.1444
 8024SOL    HW135534   2.942   0.146   4.050  3.3555 -0.3756 -0.7643
 8024SOL    HW235535   2.973   0.077   3.926 -0.4578  1.1270 -0.1096
 8025SOL     OW35536   2.521   3.365   4.490 -0.3181 -0.1058 -0.9359
 8025SOL    HW135537   2.616   3.374   4.504 -0.3911 -0.5905 -0.1425
 8025SOL    HW235538   2.489   3.455   4.481 -1.6454 -0.6915 -1.9312
 8026SOL     OW35539   2.092   2.451   2.403  1.0229 -0.7548  0.3265
 8026SOL    HW135540   2.020   2.513   2.388  0.7823 -1.4092 -1.1081
 8026SOL    HW235541   2.157   2.500   2.352 -1.0242  2.3455  0.6752
 8027SOL     OW35542   1.103   4.526   9.904  0.1239  0.1260 -0.4187
 8027SOL    HW135543   1.194   4.518   9.933 -0.3610 -0.1083  1.0201
 8027SOL    HW235544   1.081   4.603   9.957  2.7733 -0.0951  1.0143
 8028SOL     OW35545   3.407   4.452   3.517 -0.5522 -0.7258 -0.7852
 8028SOL    HW135546   3.490   4.467   3.471 -0.1756  0.8154  0.3720
 8028SOL    HW235547   3.347   4.415   3.453 -0.9232 -0.5096 -0.5587
 8029SOL     OW35548   4.713   2.457   2.551 -0.1506 -0.4585  0.1054
 8029SOL    HW135549   4.638   2.402   2.530  0.5737 -0.7784 -1.5809
 8029SOL    HW235550   0.043   2.475   2.473  1.0682 -0.3310  0.9570
 8030SOL     OW35551   3.785   1.443   1.822  0.4473  0.6258 -0.3002
 8030SOL    HW135552   3.752   1.531   1.844 -0.3868  0.6145 -1.5357
 8030SOL    HW235553   3.818   1.419   1.909  1.8859  1.2872 -0.6677
 8031SOL     OW35554   3.844   2.146   4.672 -0.5677 -0.6002  0.3554
 8031SOL    HW135555   3.776   2.136   4.738  0.3143  1.1923  1.5375
 8031SOL    HW235556   3.928   2.121   4.711 -0.2879  0.1363  0.2301
 8032SOL     OW35557   2.143   3.929   4.104 -0.8142 -0.2888 -0.7753
 8032SOL    HW135558   2.176   3.953   4.017  0.1698 -2.6639 -1.0692
 8032SOL    HW235559   2.101   3.845   4.085 -0.0151 -0.8884  0.1044
 8033SOL     OW35560   3.425   3.213   2.805 -0.0520  0.5704  0.4250
 8033SOL    HW135561   3.393   3.209   2.715  1.3866  2.2337 -0.1734
 8033SOL    HW235562   3.448   3.306   2.809  1.1243  0.1939  2.8112
 8034SOL     OW35563   1.284   0.642   3.410 -0.0453 -0.5309  0.5982
 8034SOL    HW135564   1.335   0.678   3.482  0.4865 -0.0118 -0.0410
 8034SOL    HW235565   1.339   0.652   3.333 -2.1966 -2.3648 -1.2000
 8035SOL     OW35566   0.575   0.373   3.030  0.4044  0.0705 -0.1641
 8035SOL    HW135567   0.592   0.279   3.034  0.2882  0.0398 -0.3752
 8035SOL    HW235568   0.625   0.406   2.954  1.4934  0.5839  0.7704
 8036SOL     OW35569   3.543   4.187   2.679  0.4950 -0.0218  0.3159
 8036SOL    HW135570   3.483   4.130   2.727  0.0861  0.6296  0.5792
 8036SOL    HW235571   3.628   4.144   2.677  0.4222 -0.1121 -0.4699
 8037SOL     OW35572   0.944   1.438  11.535  0.5750 -0.1790  0.3187
 8037SOL    HW135573   1.013   1.499  11.508  0.7910 -0.0199  1.2516
 8037SOL    HW235574   0.979   1.349  11.531  0.0320 -0.2762 -2.8517
 8038SOL     OW35575   1.740   0.360   2.635 -0.4205 -0.1499 -0.4336
 8038SOL    HW135576   1.827   0.385   2.603 -1.4452  2.1457 -1.4108
 8038SOL    HW235577   1.741   0.264   2.644  0.5417  0.0652  1.8274
 8039SOL     OW35578   3.430   2.562   2.632 -0.4001  0.6092 -0.5162
 8039SOL    HW135579   3.360   2.501   2.654 -0.7764  0.9236 -0.8455
 8039SOL    HW235580   3.508   2.509   2.649 -0.0132  0.6868 -2.0284
 8040SOL     OW35581   4.044   4.094  14.351 -0.1973 -0.4669  0.1574
 8040SOL    HW135582   3.986   4.018  14.348 -0.0998 -0.5299 -0.0684
 8040SOL    HW235583   4.124   4.045  14.331 -0.4851 -0.1713 -1.7157
 8041SOL     OW35584   2.286   4.216  16.472 -0.7004 -0.4655  0.0246
 8041SOL    HW135585   2.302   4.123  16.486 -1.1293 -0.3237  1.5282
 8041SOL    HW235586   2.251   4.220  16.383  1.8611  1.8464 -0.9074
 8042SOL     OW35587   2.316   1.985   5.779  0.1717  0.7113 -0.4051
 8042SOL    HW135588   2.266   1.968   5.859  0.0502  0.7935 -0.4622
 8042SOL    HW235589   2.371   1.907   5.781 -0.7244  0.0695 -0.7484
 8043SOL     OW35590   1.252   4.295   2.228 -0.6567  0.0048 -0.0077
 8043SOL    HW135591   1.280   4.246   2.151  1.3367  0.9387  0.1357
 8043SOL    HW235592   1.244   4.375   2.177 -0.3180 -0.2910 -0.5145
 8044SOL     OW35593   0.601   2.219   0.731  0.1471  0.2728 -0.5716
 8044SOL    HW135594   0.559   2.138   0.759 -1.3719  0.7952 -1.2872
 8044SOL    HW235595   0.637   2.242   0.816 -0.8495 -1.8253  0.4203
 8045SOL     OW35596   3.092   3.661  14.668 -0.5907  0.4952  0.1639
 8045SOL    HW135597   3.181   3.632  14.686 -0.0995  1.1100 -1.3396
 8045SOL    HW235598   3.092   3.740  14.722  1.5833  0.0616  0.7827
 8046SOL     OW35599   1.801   0.290   4.694  0.9215 -0.6393 -0.1228
 8046SOL    HW135600   1.813   0.209   4.745 -1.2310 -1.1188 -0.3762
 8046SOL    HW235601   1.809   0.350   4.769 -1.1394  0.2367 -0.6214
 8047SOL     OW35602   0.201   2.068  14.474  0.1029  0.3358 -0.1037
 8047SOL    HW135603   0.112   2.086  14.505  0.3492  1.2992  0.0593
 8047SOL    HW235604   0.259   2.121  14.529 -0.1708  1.4050 -0.8685
 8048SOL     OW35605   1.547   1.485  15.618  0.1473  0.1122 -0.0996
 8048SOL    HW135606   1.452   1.489  15.627  0.1393 -0.6346  0.1141
 8048SOL    HW235607   1.564   1.396  15.649 -1.5481 -1.2313 -3.0394
 8049SOL     OW35608   3.370   3.484  10.422 -0.5650  0.5378  0.0382
 8049SOL    HW135609   3.455   3.485  10.467 -0.8531 -0.3065  0.5934
 8049SOL    HW235610   3.377   3.401  10.374  0.9026 -0.5684  2.1919
 8050SOL     OW35611   0.602   3.513   1.329  0.4469 -0.2109  0.3769
 8050SOL    HW135612   0.639   3.514   1.241 -0.0161  0.2654  0.1866
 8050SOL    HW235613   0.651   3.438   1.363 -1.0052 -2.2043 -1.8551
 8051SOL     OW35614   3.446   4.414   8.524  0.4944 -0.0598 -0.6967
 8051SOL    HW135615   3.404   4.391   8.442 -2.7899  0.5133  0.8244
 8051SOL    HW235616   3.371   4.442   8.577 -0.9792  1.1788 -3.4376
 8052SOL     OW35617   1.176   3.423   1.227  0.0215 -0.1357  0.5396
 8052SOL    HW135618   1.254   3.446   1.177  0.3829  1.3449  1.7794
 8052SOL    HW235619   1.192   3.472   1.308  0.7104  0.6501 -0.0716
 8053SOL     OW35620   0.136   3.832   8.253 -0.2292 -0.1192 -0.3712
 8053SOL    HW135621   0.144   3.858   8.345  0.2004 -0.4894 -0.3038
 8053SOL    HW235622   0.157   3.739   8.256  0.0985  0.0145  1.3816
 8054SOL     OW35623   3.705   4.199   7.565 -0.2539 -0.3297  0.6995
 8054SOL    HW135624   3.749   4.274   7.604 -1.0635  0.2062  0.5967
 8054SOL    HW235625   3.668   4.251   7.494 -0.0240 -1.7657 -0.4852
 8055SOL     OW35626   0.605   2.047  13.721  0.0234 -0.0374 -0.5101
 8055SOL    HW135627   0.589   2.082  13.809 -0.6238 -1.4839 -0.0507
 8055SOL    HW235628   0.601   2.121  13.661  0.5936 -0.6222 -1.2694
 8056SOL     OW35629   0.519   1.804  10.849 -0.0087  0.1911  0.5377
 8056SOL    HW135630   0.466   1.869  10.803  0.0140  1.6004  2.4707
 8056SOL    HW235631   0.592   1.857  10.883 -0.4804  1.7688 -0.9207
 8057SOL     OW35632   0.779   0.072   7.646 -0.5227  0.2596 -0.3040
 8057SOL    HW135633   0.690   0.039   7.633 -0.3857 -0.3432  0.3226
 8057SOL    HW235634   0.817   0.006   7.704  1.3785  2.5076  0.9979
 8058SOL     OW35635   0.671   2.395   2.792 -0.4100 -0.2295 -0.3081
 8058SOL    HW135636   0.676   2.482   2.753  3.1483 -0.7229 -1.0169
 8058SOL    HW235637   0.721   2.340   2.731 -0.8351 -0.2416 -0.6423
 8059SOL     OW35638   1.261   4.248   6.288 -0.2524 -0.3191 -0.0084
 8059SOL    HW135639   1.311   4.167   6.301 -2.4657 -1.9494 -1.6796
 8059SOL    HW235640   1.280   4.273   6.197  1.3943 -0.5085  0.2788
 8060SOL     OW35641   3.018   4.656  16.815  0.1517  0.1357  0.1509
 8060SOL    HW135642   2.945   4.684  16.871 -1.5651 -1.3545 -1.3433
 8060SOL    HW235643   3.006   4.561  16.815  0.5628  0.0854  0.0374
 8061SOL     OW35644   1.255   3.592   6.117 -0.0545  0.2883 -0.5891
 8061SOL    HW135645   1.312   3.669   6.105 -0.4337  0.5776 -0.5387
 8061SOL    HW235646   1.268   3.547   6.034  3.2377  2.4105 -1.2362
 8062SOL     OW35647   0.322   0.322   2.815  0.4634 -0.1730 -0.1106
 8062SOL    HW135648   0.305   0.273   2.735  0.7000 -1.9202  0.9056
 8062SOL    HW235649   0.313   0.261   2.889  1.0203 -0.0428  0.0716
 8063SOL     OW35650   3.451   1.337  10.083 -0.3987 -0.6153 -0.1519
 8063SOL    HW135651   3.406   1.420  10.065  0.2669 -0.1744  0.2274
 8063SOL    HW235652   3.422   1.320  10.172  0.5921 -0.3446  0.2158
 8064SOL     OW35653   4.143   3.416   7.891  0.1471  0.2685  0.9531
 8064SOL    HW135654   4.068   3.360   7.869  0.5614 -0.0475  0.3404
 8064SOL    HW235655   4.133   3.491   7.832  0.2747 -0.3874  0.0921
 8065SOL     OW35656   1.073   3.762   7.324  0.7050 -0.4784  0.1452
 8065SOL    HW135657   1.062   3.746   7.418 -0.6885 -1.3678 -0.1666
 8065SOL    HW235658   0.989   3.728   7.293  1.0242 -1.1688  0.0372
 8066SOL     OW35659   3.856   2.120   8.543 -0.9400  0.1422 -0.1126
 8066SOL    HW135660   3.763   2.128   8.564 -1.3263 -2.3315 -0.9062
 8066SOL    HW235661   3.896   2.198   8.582 -1.6776  0.1526  0.6241
 8067SOL     OW35662   1.040   4.245   8.791 -0.0351 -0.3880  0.0150
 8067SOL    HW135663   1.121   4.202   8.764  0.9557  1.4622  0.0759
 8067SOL    HW235664   0.988   4.168   8.815  0.2986 -0.7126 -0.3054
 8068SOL     OW35665   4.531   2.056   5.648  0.0246  0.0093  0.6452
 8068SOL    HW135666   4.620   2.077   5.677 -0.0707  3.7929 -1.7366
 8068SOL    HW235667   4.475   2.019   5.716  0.4242 -0.2509  0.8326
 8069SOL     OW35668   1.115   3.923   1.946 -0.1601  0.1156 -0.2997
 8069SOL    HW135669   1.148   3.874   1.870 -0.8153 -0.0406 -0.4841
 8069SOL    HW235670   1.021   3.912   1.936 -0.4001  0.9202  1.1189
 8070SOL     OW35671   2.845   2.396  10.010  0.0103  0.2907  0.2447
 8070SOL    HW135672   2.919   2.424  10.064  1.2132 -1.1730 -0.6389
 8070SOL    HW235673   2.894   2.364   9.934  0.2994 -1.1827  1.0437
 8071SOL     OW35674   3.519   4.384   3.977  0.1535  0.5930 -0.6509
 8071SOL    HW135675   3.490   4.440   3.905 -0.4071  0.6879 -0.3501
 8071SOL    HW235676   3.560   4.449   4.034 -3.1213  2.9678 -1.0238
 8072SOL     OW35677   3.963   2.035  10.677  0.4826  0.5914 -0.5342
 8072SOL    HW135678   3.942   1.955  10.726 -1.7903  0.4531 -1.6978
 8072SOL    HW235679   3.880   2.050  10.631 -1.0402 -1.2049  1.6043
 8073SOL     OW35680   1.820   4.578   6.209  0.1611  0.8615 -0.6748
 8073SOL    HW135681   1.776   4.530   6.279 -0.7764  1.6976 -0.6900
 8073SOL    HW235682   1.742   4.624   6.177 -1.4680 -1.0076  0.5956
 8074SOL     OW35683   1.958   3.950  14.150  0.2073  0.1546 -0.2846
 8074SOL    HW135684   1.930   3.870  14.194 -1.4989  0.7809 -0.2435
 8074SOL    HW235685   1.886   4.012  14.164 -0.0005  0.1588 -1.3973
 8075SOL     OW35686   3.356   1.610   6.911  0.2223 -0.4894 -0.0222
 8075SOL    HW135687   3.266   1.629   6.886 -0.2147 -1.5301  0.7725
 8075SOL    HW235688   3.390   1.689   6.953  0.0222  0.3294 -1.3954
 8076SOL     OW35689   0.289   2.725   8.558  0.2609 -0.8108 -0.2980
 8076SOL    HW135690   0.268   2.816   8.538 -0.5398 -0.8703  0.2953
 8076SOL    HW235691   0.209   2.694   8.600  1.3108 -3.3455 -0.1439
 8077SOL     OW35692   4.131   2.205  12.287 -0.1109 -0.1881 -0.2533
 8077SOL    HW135693   4.069   2.137  12.262 -1.3281  0.0499  2.0530
 8077SOL    HW235694   4.085   2.279  12.248 -0.4015 -0.5604 -0.6143
 8078SOL     OW35695   1.791   1.896   1.658  0.6626 -0.2179  0.0084
 8078SOL    HW135696   1.734   1.881   1.583  0.8751 -2.0739  0.2055
 8078SOL    HW235697   1.849   1.820   1.650 -1.2024 -1.7553  0.9107
 8079SOL     OW35698   2.549   1.929  12.003  0.1905  0.1644  0.0633
 8079SOL    HW135699   2.631   1.969  12.030  0.8087 -0.3036 -1.1153
 8079SOL    HW235700   2.568   1.836  11.990  0.7121  0.8288 -3.8062
 8080SOL     OW35701   2.064   3.794   6.781 -0.2798  0.0246 -0.3570
 8080SOL    HW135702   2.066   3.719   6.721 -0.5887 -0.3311  0.0808
 8080SOL    HW235703   2.094   3.748   6.859 -2.9932  1.1302  1.3358
 8081SOL     OW35704   1.523   3.137   9.519 -0.0261 -0.3962 -0.0201
 8081SOL    HW135705   1.473   3.103   9.445  0.8190 -1.3230 -0.1594
 8081SOL    HW235706   1.511   3.058   9.573  1.8693 -0.6251  0.0492
 8082SOL     OW35707   0.145   4.084   1.584 -0.4423 -0.6207 -0.7070
 8082SOL    HW135708   0.061   4.108   1.621 -1.0170 -0.2635 -2.2234
 8082SOL    HW235709   0.119   4.064   1.494  0.3521  2.3138 -1.5929
 8083SOL     OW35710   3.826   0.519   8.777 -0.7931  0.4385 -0.9148
 8083SOL    HW135711   3.883   0.459   8.826 -0.5910  0.7515 -0.7604
 8083SOL    HW235712   3.859   0.495   8.690 -0.5305  1.3938 -1.0817
 8084SOL     OW35713   1.763   0.993   7.797  0.0086 -0.2035  0.0355
 8084SOL    HW135714   1.828   0.977   7.728  0.2116  0.3499  0.0985
 8084SOL    HW235715   1.756   0.907   7.837 -1.8580  0.9740  2.2762
 8085SOL     OW35716   1.416   4.003   3.491  0.1911  0.6946 -0.2373
 8085SOL    HW135717   1.378   3.981   3.576  1.2503  0.0044  0.0660
 8085SOL    HW235718   1.440   4.094   3.507  2.7289  0.2808 -1.6210
 8086SOL     OW35719   2.140   3.147   6.667 -0.6111  0.2479  0.2342
 8086SOL    HW135720   2.062   3.160   6.614 -0.2717  2.7359  0.3859
 8086SOL    HW235721   2.162   3.238   6.682  1.8304  0.1116 -2.5466
 8087SOL     OW35722   1.076   1.988  15.707 -0.0678 -0.3109  0.5440
 8087SOL    HW135723   1.101   1.966  15.797 -2.2956 -1.9482  0.7575
 8087SOL    HW235724   1.010   2.053  15.730  0.4255  0.6722 -0.8004
 8088SOL     OW35725   3.605   2.951   3.533  0.2877  0.6692 -0.7772
 8088SOL    HW135726   3.696   2.975   3.550  0.1493  0.1383  0.7197
 8088SOL    HW235727   3.562   3.004   3.599 -0.5923 -3.5320  2.0464
 8089SOL     OW35728   4.131   3.656  10.422  0.1413 -0.8699 -0.3963
 8089SOL    HW135729   4.192   3.693  10.358 -0.9436 -3.2074 -2.7806
 8089SOL    HW235730   4.159   3.705  10.500 -1.3042  0.4008 -0.6946
 8090SOL     OW35731   0.700   3.144   1.666  0.0560  0.2382 -0.4163
 8090SOL    HW135732   0.605   3.138   1.661 -0.0145  1.2233 -0.2790
 8090SOL    HW235733   0.717   3.130   1.573  1.8667 -0.6097  0.0293
 8091SOL     OW35734   0.410   4.696   9.446 -0.0812  0.5968  0.8131
 8091SOL    HW135735   0.335   0.032   9.455  0.2861  1.3281 -0.7478
 8091SOL    HW235736   0.478   0.041   9.451 -0.8021  1.3377  0.5174
 8092SOL     OW35737   3.718   0.016   0.205  0.3222 -0.3229  0.4318
 8092SOL    HW135738   3.737   0.032   0.113  0.0783  0.3933  0.5069
 8092SOL    HW235739   3.664   0.093   0.224  0.2570 -0.2781  0.0607
 8093SOL     OW35740   0.417   2.234   6.517  0.0025 -0.2319  0.2519
 8093SOL    HW135741   0.346   2.182   6.478  1.8712 -0.9000 -2.2155
 8093SOL    HW235742   0.487   2.168   6.513  0.9638  0.7525  0.9684
 8094SOL     OW35743   1.144   0.434   8.952  0.2880  0.2377  0.0073
 8094SOL    HW135744   1.097   0.456   9.033 -0.7998  2.5109 -1.2215
 8094SOL    HW235745   1.094   0.495   8.897  1.7889 -0.6047 -2.2353
 8095SOL     OW35746   3.850   3.833   9.195  0.5410  0.0635  0.1752
 8095SOL    HW135747   3.763   3.796   9.211  0.4941  0.4091  0.7379
 8095SOL    HW235748   3.831   3.924   9.218  0.8876  0.4574 -1.0706
 8096SOL     OW35749   3.846   4.451   7.102 -0.1654 -0.5706 -0.1759
 8096SOL    HW135750   3.826   4.544   7.109 -0.4596 -0.6961  0.6263
 8096SOL    HW235751   3.778   4.408   7.152 -1.1884  0.8304 -0.3813
 8097SOL     OW35752   2.367   3.755   6.802  0.1805 -0.4850  0.5326
 8097SOL    HW135753   2.408   3.842   6.803 -0.9996  0.0420  1.7256
 8097SOL    HW235754   2.279   3.768   6.836  0.2803  0.1442  0.5449
 8098SOL     OW35755   1.474   1.897  11.173  0.1587 -0.4943  0.3806
 8098SOL    HW135756   1.389   1.875  11.135  0.2156 -0.3367  0.1640
 8098SOL    HW235757   1.446   1.939  11.255 -0.9549  0.2155 -0.3685
 8099SOL     OW35758   3.961   3.832   8.029 -0.1891 -0.0618 -0.6919
 8099SOL    HW135759   3.940   3.917   8.067  1.5823  0.1353 -0.1422
 8099SOL    HW235760   3.895   3.778   8.073 -1.6436  0.9854 -1.5889
 8100SOL     OW35761   0.287   2.342   1.170  0.7707 -0.2133 -0.2590
 8100SOL    HW135762   0.360   2.330   1.231  0.7554 -3.4341 -0.8787
 8100SOL    HW235763   0.279   2.258   1.126 -0.3782 -1.5673  2.5364
 8101SOL     OW35764   0.686   2.595  13.446  0.2966 -0.2961  0.6904
 8101SOL    HW135765   0.761   2.571  13.499  0.2480 -0.6228  0.6083
 8101SOL    HW235766   0.683   2.690  13.462  0.5991  0.1488 -1.9316
 8102SOL     OW35767   3.590   3.861   4.559 -0.6169 -0.1054  0.5499
 8102SOL    HW135768   3.500   3.895   4.554 -1.6099 -2.8414 -0.2245
 8102SOL    HW235769   3.569   3.768   4.567  0.9935 -0.4271  1.0016
 8103SOL     OW35770   3.571   0.108   0.545 -0.6911  0.4396 -0.0920
 8103SOL    HW135771   3.525   0.185   0.511 -1.1176  1.0321  1.7986
 8103SOL    HW235772   3.632   0.140   0.611 -0.1858 -0.7771  0.0159
 8104SOL     OW35773   2.273   0.361  11.355 -0.3574  0.0034  0.0178
 8104SOL    HW135774   2.267   0.454  11.331 -1.7000 -0.5370 -1.8240
 8104SOL    HW235775   2.290   0.331  11.265 -1.0791 -1.8699  0.5115
 8105SOL     OW35776   3.285   0.252  10.254 -0.1343  0.1081 -0.7094
 8105SOL    HW135777   3.225   0.322  10.230 -0.3876 -0.2776 -1.2137
 8105SOL    HW235778   3.256   0.232  10.343 -1.0857  0.5357 -0.9213
 8106SOL     OW35779   4.147   3.135   8.622 -0.7105  0.2730  0.2152
 8106SOL    HW135780   4.183   3.142   8.534 -0.4649  0.0533  0.2984
 8106SOL    HW235781   4.187   3.054   8.652 -0.4047 -0.7858 -3.1088
 8107SOL     OW35782   4.067   0.354   5.452 -0.9149 -0.1215  0.3640
 8107SOL    HW135783   3.982   0.379   5.417 -1.2419 -0.0535  1.1911
 8107SOL    HW235784   4.116   0.432   5.430  1.5607 -2.0307 -0.8551
 8108SOL     OW35785   2.886   2.605   3.311  0.2261  0.2508  0.2432
 8108SOL    HW135786   2.910   2.693   3.340 -0.1728  0.5514 -0.3135
 8108SOL    HW235787   2.884   2.553   3.391  1.1615 -0.6351 -0.3110
 8109SOL     OW35788   0.664   2.255   7.581  0.3157  0.4200 -0.1639
 8109SOL    HW135789   0.661   2.239   7.675 -1.1651 -2.8629 -0.7910
 8109SOL    HW235790   0.575   2.289   7.570 -0.0519 -0.3423  0.4838
 8110SOL     OW35791   2.537   3.273   6.690  0.1618  0.6429 -0.0966
 8110SOL    HW135792   2.624   3.250   6.657 -0.5379 -0.3289 -1.2615
 8110SOL    HW235793   2.509   3.346   6.634 -0.5393  0.3848 -0.0809
 8111SOL     OW35794   3.614   2.847   6.307  0.4742  0.2080  0.3533
 8111SOL    HW135795   3.644   2.886   6.390  2.0988 -0.5053  0.1025
 8111SOL    HW235796   3.520   2.850   6.322  0.7093 -0.1215  1.8623
 8112SOL     OW35797   0.945   0.120   7.230  0.1089 -0.2824  0.2762
 8112SOL    HW135798   0.985   0.196   7.187 -0.8854 -0.0863 -0.2993
 8112SOL    HW235799   1.022   0.063   7.240 -1.1073 -1.9473  0.1876
 8113SOL     OW35800   0.284   4.401   9.649  0.1278  0.6474 -0.0203
 8113SOL    HW135801   0.374   4.432   9.652  0.1958  0.5628 -1.1178
 8113SOL    HW235802   0.237   4.480   9.675  3.3049  2.1509  1.0589
 8114SOL     OW35803   2.142   1.828  16.384  0.7797  0.5738 -0.4004
 8114SOL    HW135804   2.145   1.921  16.364 -0.7907  0.8235  0.5581
 8114SOL    HW235805   2.124   1.799  16.294  1.2135  0.4924 -0.4630
 8115SOL     OW35806   4.051   2.260   7.262  0.1484  0.3616  0.6033
 8115SOL    HW135807   4.100   2.195   7.312 -0.7495 -0.1457  0.8284
 8115SOL    HW235808   4.114   2.331   7.253  0.5312 -0.0520  0.0603
 8116SOL     OW35809   0.558   0.059   8.151  0.0720  0.3188 -0.1707
 8116SOL    HW135810   0.605   0.044   8.233 -1.4382  0.9327  0.8053
 8116SOL    HW235811   0.637   0.049   8.097 -0.3074  1.9459 -1.0208
 8117SOL     OW35812   3.060   3.717  14.375  0.1127  0.0476 -0.0961
 8117SOL    HW135813   3.120   3.740  14.303  0.1088 -0.3059 -0.2117
 8117SOL    HW235814   3.126   3.689  14.438 -0.5789  0.1394  0.6663
 8118SOL     OW35815   3.147   0.596   4.354 -0.2893 -0.6999  0.1105
 8118SOL    HW135816   3.065   0.590   4.305 -0.1160  3.3379 -0.6494
 8118SOL    HW235817   3.178   0.674   4.310  0.4369  0.0225  1.8948
 8119SOL     OW35818   3.770   2.902   7.955  0.2333  0.1824  0.0035
 8119SOL    HW135819   3.713   2.827   7.937  2.4295 -1.1026 -1.6341
 8119SOL    HW235820   3.778   2.899   8.050  1.8971 -1.8918 -0.2056
 8120SOL     OW35821   3.315   0.859   9.893 -0.1017  0.4208  0.1778
 8120SOL    HW135822   3.225   0.828   9.903 -0.1619  0.8709  1.0669
 8120SOL    HW235823   3.351   0.807   9.821  3.7687  2.0884  0.8649
 8121SOL     OW35824   1.148   1.511   4.183 -0.6123 -0.1691  0.2241
 8121SOL    HW135825   1.147   1.415   4.184 -0.8070 -0.1555  2.0635
 8121SOL    HW235826   1.149   1.534   4.090  0.1920  1.4169  0.6292
 8122SOL     OW35827   0.088   2.300   6.381  0.2115 -0.0205  0.0630
 8122SOL    HW135828   0.135   2.234   6.432  0.1542 -1.2667 -1.4935
 8122SOL    HW235829   0.147   2.375   6.393  0.4966 -0.3225  0.5256
 8123SOL     OW35830   0.998   3.278  13.361 -0.3504  0.1679 -0.1024
 8123SOL    HW135831   0.995   3.185  13.387  0.2070  0.2290  0.1943
 8123SOL    HW235832   0.929   3.279  13.295 -1.0924  3.5205  0.7607
 8124SOL     OW35833   3.653   0.830   4.131  0.6162  0.1209 -0.2788
 8124SOL    HW135834   3.650   0.744   4.089  1.0123 -0.9600  1.9541
 8124SOL    HW235835   3.562   0.834   4.161  2.1891  2.4404  4.1076
 8125SOL     OW35836   2.941   0.606   4.563 -0.0578  0.4862  0.2724
 8125SOL    HW135837   2.981   0.571   4.643  0.2626 -0.1596 -0.1703
 8125SOL    HW235838   3.021   0.619   4.511 -0.3649  0.3895 -0.2241
 8126SOL     OW35839   4.374   2.004   0.825  0.4996 -0.3744 -0.5865
 8126SOL    HW135840   4.340   2.084   0.865  1.6642  1.5316 -3.4318
 8126SOL    HW235841   4.406   2.045   0.745 -0.6692 -1.7768 -1.7909
 8127SOL     OW35842   4.493   1.407   2.825 -0.5175 -0.1013  0.7090
 8127SOL    HW135843   4.541   1.489   2.837 -0.9848  0.4559 -1.2218
 8127SOL    HW235844   4.403   1.437   2.841 -0.6289 -1.1359  2.0067
 8128SOL     OW35845   0.673   3.380   3.928 -0.5067 -0.1403 -0.2597
 8128SOL    HW135846   0.720   3.323   3.867 -1.0359  0.6951 -1.4383
 8128SOL    HW235847   0.709   3.464   3.901 -0.0696  0.5066  2.3120
 8129SOL     OW35848   4.154   4.163   3.655  0.3304 -0.4504  0.5722
 8129SOL    HW135849   4.085   4.228   3.642 -0.7842 -2.0972 -1.6870
 8129SOL    HW235850   4.213   4.221   3.704 -0.3888  1.1917 -0.5192
 8130SOL     OW35851   2.251   2.713   5.693 -0.2242  0.4531 -0.2665
 8130SOL    HW135852   2.295   2.682   5.772  0.9585 -0.6331 -1.3456
 8130SOL    HW235853   2.166   2.745   5.722 -0.3159  0.8014 -0.9244
 8131SOL     OW35854   2.010   0.792  17.516  0.1854 -0.3722  0.2256
 8131SOL    HW135855   2.004   0.861  17.581 -2.2842 -0.2542 -0.1044
 8131SOL    HW235856   1.961   0.831  17.444 -1.2177 -0.9641  0.8503
 8132SOL     OW35857   0.347   4.042  14.982  0.1784 -0.4894  0.1248
 8132SOL    HW135858   0.281   4.042  15.052 -0.0415  0.6108 -0.0877
 8132SOL    HW235859   0.312   4.106  14.920 -2.9781 -1.0314  1.3179
 8133SOL     OW35860   2.786   2.447   9.377 -0.6755  0.3019 -0.4284
 8133SOL    HW135861   2.707   2.396   9.395 -0.4433  0.3778  0.8344
 8133SOL    HW235862   2.799   2.492   9.461  0.0087  1.5092 -1.1822
 8134SOL     OW35863   1.679   3.935  13.839 -0.3928 -0.0857 -0.0923
 8134SOL    HW135864   1.688   3.872  13.910  0.1477 -0.6029 -0.6187
 8134SOL    HW235865   1.586   3.947  13.824 -0.3142 -0.2938 -0.7429
 8135SOL     OW35866   3.197   2.530   7.415 -0.2359  0.3122 -0.2479
 8135SOL    HW135867   3.104   2.542   7.432 -0.6081  0.9870 -2.7039
 8135SOL    HW235868   3.217   2.463   7.480 -2.2697 -0.3019 -0.2643
 8136SOL     OW35869   0.829   4.195   8.477 -0.1757  0.2575 -0.3596
 8136SOL    HW135870   0.814   4.266   8.540  0.1419  0.6228 -0.6953
 8136SOL    HW235871   0.778   4.128   8.522  2.4834 -1.3248  0.2877
 8137SOL     OW35872   4.619   3.258  15.228  0.5322 -0.2501 -0.2499
 8137SOL    HW135873   4.689   3.282  15.168 -1.1091  1.1508 -1.5895
 8137SOL    HW235874   4.567   3.337  15.243 -2.6547 -2.5628  0.9252
 8138SOL     OW35875   4.035   1.439   7.841 -0.4367 -0.3287  0.5525
 8138SOL    HW135876   4.050   1.533   7.834 -2.4989 -0.2361 -2.5391
 8138SOL    HW235877   4.071   1.414   7.756 -0.1175  1.6201  0.1136
 8139SOL     OW35878   4.480   2.098   5.960  0.1727 -0.0077 -0.1701
 8139SOL    HW135879   4.433   2.111   6.042  2.5938  1.8315  0.9428
 8139SOL    HW235880   4.449   2.010   5.938  1.7352 -0.5570 -0.1776
 8140SOL     OW35881   2.638   4.516   0.767  0.4962  0.3256 -0.3287
 8140SOL    HW135882   2.669   4.455   0.835  1.4300  2.2743  0.9892
 8140SOL    HW235883   2.572   4.564   0.816  1.1313 -0.1470  1.0173
 8141SOL     OW35884   2.948   1.841   3.379 -0.5415  0.3281 -0.1454
 8141SOL    HW135885   2.980   1.927   3.352  0.9410  0.3120  1.6406
 8141SOL    HW235886   2.859   1.855   3.345 -0.5939  1.9692  0.6611
 8142SOL     OW35887   0.922   4.390   5.004 -0.2078 -0.6701  0.0951
 8142SOL    HW135888   0.835   4.401   4.964 -0.8292 -3.1640  0.7406
 8142SOL    HW235889   0.894   4.339   5.080  0.9738 -0.6728  0.5155
 8143SOL     OW35890   2.651   2.034   8.663 -0.0867  0.1761 -0.0447
 8143SOL    HW135891   2.584   2.099   8.642 -0.5274  0.1920  1.3761
 8143SOL    HW235892   2.686   2.078   8.741 -0.3950  0.8334 -0.2798
 8144SOL     OW35893   3.483   4.522   4.605 -0.4282 -0.4084 -0.3242
 8144SOL    HW135894   3.469   4.443   4.554 -0.0327  0.2262 -1.4064
 8144SOL    HW235895   3.549   4.492   4.668  1.1970  0.5766 -1.5749
 8145SOL     OW35896   3.549   2.778   9.420 -0.3150 -0.6277 -0.4393
 8145SOL    HW135897   3.466   2.805   9.379 -0.2062  2.0221  1.0565
 8145SOL    HW235898   3.568   2.850   9.480  0.2689 -0.0616 -1.2913
 8146SOL     OW35899   0.328   4.095   4.706  0.1240  0.1029  0.3397
 8146SOL    HW135900   0.249   4.149   4.719 -0.1875 -0.1661 -0.4362
 8146SOL    HW235901   0.363   4.090   4.795  1.6919 -2.5339 -0.4312
 8147SOL     OW35902   1.853   0.199  11.068  0.3820  0.6789 -0.1925
 8147SOL    HW135903   1.787   0.224  11.004  0.1167 -0.0655 -0.2096
 8147SOL    HW235904   1.840   0.257  11.143  1.1477 -1.5960  1.7233
 8148SOL     OW35905   1.473   4.027  10.777  0.4597  0.1478  0.2712
 8148SOL    HW135906   1.545   3.974  10.743 -0.7841 -1.5158  0.2502
 8148SOL    HW235907   1.402   4.002  10.718 -0.0669 -0.7642  1.2847
 8149SOL     OW35908   4.426   2.087   2.702  0.7956 -0.0245  0.0194
 8149SOL    HW135909   4.497   2.043   2.655  0.6018  0.1982 -0.4817
 8149SOL    HW235910   4.346   2.037   2.689  0.7790 -0.0942  0.4065
 8150SOL     OW35911   1.072   2.101   6.840 -0.0172 -0.4050 -0.0308
 8150SOL    HW135912   1.165   2.082   6.851  0.7661  2.4725 -1.8031
 8150SOL    HW235913   1.028   2.056   6.912  1.0632 -0.7638  0.4091
 8151SOL     OW35914   1.556   4.500   1.387 -0.1753  0.6400  0.3176
 8151SOL    HW135915   1.497   4.491   1.313  1.5055  2.3470 -1.2239
 8151SOL    HW235916   1.552   4.412   1.425  1.6392 -0.1498 -1.3043
 8152SOL     OW35917   3.082   1.719   4.107  0.5615  0.0846 -0.0974
 8152SOL    HW135918   3.058   1.637   4.149 -2.2427  1.2629  0.5623
 8152SOL    HW235919   3.073   1.705   4.013  0.4560  0.6279 -0.1715
 8153SOL     OW35920   4.102   4.677   5.086 -0.1533 -0.1661 -0.1338
 8153SOL    HW135921   4.103   4.707   5.177 -0.7431  1.2471 -0.5964
 8153SOL    HW235922   4.075   0.029   5.032  1.3099  0.9429  0.6577
 8154SOL     OW35923   2.336   4.396  10.773  0.2766  0.2805  0.3837
 8154SOL    HW135924   2.338   4.490  10.755  0.2133 -0.0204 -1.1471
 8154SOL    HW235925   2.405   4.358  10.719  3.5040  2.4247  3.0392
 8155SOL     OW35926   1.040   1.783   8.732 -0.1131 -0.4921  1.0535
 8155SOL    HW135927   1.059   1.842   8.805 -0.8213  1.7035 -0.5233
 8155SOL    HW235928   1.101   1.814   8.666 -2.5764  0.9597 -0.5469
 8156SOL     OW35929   3.434   0.421  12.733  0.5378 -0.4695  0.0014
 8156SOL    HW135930   3.357   0.445  12.681  1.8950 -0.4971 -1.9796
 8156SOL    HW235931   3.402   0.350  12.790 -1.0684 -0.1385 -0.4818
 8157SOL     OW35932   4.485   0.989   6.054  0.2003  0.2372 -0.1211
 8157SOL    HW135933   4.441   0.981   5.969 -0.6952  1.5765  0.2177
 8157SOL    HW235934   4.568   0.945   6.033  0.5977  1.4019 -1.0151
 8158SOL     OW35935   2.186   0.469   1.613 -0.0788 -0.3484  0.0528
 8158SOL    HW135936   2.229   0.545   1.573 -0.8625  0.3694  0.5767
 8158SOL    HW235937   2.255   0.446   1.675 -1.9173  0.4372  2.3626
 8159SOL     OW35938   2.901   1.455   7.291 -0.1199  0.2925  0.3791
 8159SOL    HW135939   2.913   1.531   7.233 -0.3710  1.3402  1.6988
 8159SOL    HW235940   2.988   1.453   7.332 -1.6333 -0.6657  3.4688
 8160SOL     OW35941   1.680   4.252   6.407  0.0504  0.3604 -0.3896
 8160SOL    HW135942   1.649   4.274   6.319 -3.7144 -0.3225  0.7521
 8160SOL    HW235943   1.689   4.337   6.449  0.3702  0.3145 -0.3644
 8161SOL     OW35944   1.716   1.349  17.157 -0.0369  0.1237  0.2011
 8161SOL    HW135945   1.723   1.403  17.235  3.5533 -1.3116  0.8781
 8161SOL    HW235946   1.645   1.290  17.182  0.1514  0.7645  2.1906
 8162SOL     OW35947   3.717   1.715   0.325  0.0067 -0.2608  0.4274
 8162SOL    HW135948   3.704   1.743   0.416  1.9932  0.5983  0.4419
 8162SOL    HW235949   3.666   1.786   0.286  0.0866 -0.2240  0.3905
 8163SOL     OW35950   2.041   0.758   6.951 -0.5434 -0.0366 -0.3838
 8163SOL    HW135951   1.996   0.788   7.030 -2.7688 -2.7340 -0.6186
 8163SOL    HW235952   1.973   0.718   6.896 -1.4938  0.2684  0.5572
 8164SOL     OW35953   1.442   4.477   7.117 -0.1573 -0.1782 -0.0358
 8164SOL    HW135954   1.537   4.492   7.116 -0.4329  1.3912 -1.9216
 8164SOL    HW235955   1.415   4.520   7.198  0.9952 -1.6924  1.1645
 8165SOL     OW35956   3.514   3.567   5.195 -0.0662  0.4586  0.1353
 8165SOL    HW135957   3.524   3.496   5.258 -2.7683  0.9900  1.1679
 8165SOL    HW235958   3.507   3.513   5.116 -0.7207  1.0956 -0.2487
 8166SOL     OW35959   3.547   1.592   3.940 -0.2691  0.3570  0.6797
 8166SOL    HW135960   3.538   1.614   3.847  0.5020  0.8158  0.7137
 8166SOL    HW235961   3.625   1.537   3.939  1.9681  3.5606 -0.1519
 8167SOL     OW35962   1.227   2.626   8.384 -0.1446  0.5179 -0.0924
 8167SOL    HW135963   1.178   2.622   8.466 -1.0304  0.8063 -0.6088
 8167SOL    HW235964   1.300   2.685   8.400  0.1537  0.0591  0.2529
 8168SOL     OW35965   1.749   3.554   6.168  0.1830  0.2261 -0.1839
 8168SOL    HW135966   1.813   3.620   6.143 -0.0033  1.3244  2.2960
 8168SOL    HW235967   1.668   3.592   6.135 -0.0735  0.0638  0.2566
 8169SOL     OW35968   2.732   0.625  14.988  0.3797 -0.1263  0.0382
 8169SOL    HW135969   2.802   0.686  15.011 -0.6237  1.6649 -1.6439
 8169SOL    HW235970   2.655   0.680  14.976  0.6996  0.1744 -0.6822
 8170SOL     OW35971   4.422   4.336  12.196  0.2726  0.9439 -0.0953
 8170SOL    HW135972   4.384   4.409  12.244 -1.1360 -0.4052  0.8605
 8170SOL    HW235973   4.515   4.347  12.219  0.6870  0.4471 -1.5242
 8171SOL     OW35974   4.106   4.644  10.040 -0.1111  0.6354 -0.0649
 8171SOL    HW135975   4.139   4.709   9.978 -0.6107  1.6956  0.7910
 8171SOL    HW235976   4.136   4.565   9.994  2.4779  2.0337 -0.7492
 8172SOL     OW35977   0.027   0.624   7.760 -0.2504 -0.0580 -0.0293
 8172SOL    HW135978   4.711   0.651   7.843  0.2478 -0.3943  0.3041
 8172SOL    HW235979   0.117   0.626   7.790 -0.9906  2.0786  2.0572
 8173SOL     OW35980   2.213   3.582   3.525  0.8896  0.4353  0.1912
 8173SOL    HW135981   2.173   3.517   3.583 -0.2860  0.9715 -0.0202
 8173SOL    HW235982   2.209   3.661   3.578  1.3061  1.3964 -1.1883
 8174SOL     OW35983   4.638   3.852  13.114  0.3941 -0.1536 -0.6538
 8174SOL    HW135984   4.554   3.897  13.124 -0.1330 -2.0282  2.9297
 8174SOL    HW235985   4.700   3.925  13.125 -0.4917  0.7995 -2.0071
 8175SOL     OW35986   0.443   2.878   6.846 -0.2400 -0.1296 -0.6633
 8175SOL    HW135987   0.402   2.959   6.816  0.7426  0.8566  0.6738
 8175SOL    HW235988   0.528   2.911   6.875 -0.8737 -0.6748  1.8102
 8176SOL     OW35989   1.292   0.926   7.530  0.4784  0.2750  0.6874
 8176SOL    HW135990   1.259   0.983   7.600  1.1405  0.5806  0.7486
 8176SOL    HW235991   1.349   0.864   7.575  0.7700 -1.8558 -2.6317
 8177SOL     OW35992   1.636   3.312   1.433  0.2361  0.1223 -0.5206
 8177SOL    HW135993   1.577   3.384   1.411 -0.4778  0.4158  2.4178
 8177SOL    HW235994   1.721   3.356   1.439 -0.2631  0.7557  1.9074
 8178SOL     OW35995   2.422   0.622   2.032 -0.4185 -0.3873 -0.0617
 8178SOL    HW135996   2.489   0.555   2.016  0.7256  1.1790 -1.7074
 8178SOL    HW235997   2.433   0.686   1.963  1.0711  1.6670  2.0882
 8179SOL     OW35998   1.791   1.518  17.371 -0.1261 -0.5216  0.0254
 8179SOL    HW135999   1.837   1.595  17.335  1.6058 -1.2462  0.6873
 8179SOL    HW236000   1.704   1.555  17.385 -0.5569 -0.4780 -2.7774
 8180SOL     OW36001   3.538   3.757   7.017  0.9142 -0.2627  0.0703
 8180SOL    HW136002   3.599   3.682   7.011  0.6284 -0.4954  0.0775
 8180SOL    HW236003   3.531   3.779   7.110 -0.3571 -1.0266  0.1501
 8181SOL     OW36004   4.146   1.947   2.916 -0.0387 -0.4545  0.1529
 8181SOL    HW136005   4.160   2.040   2.901 -1.1422 -0.4639 -0.9296
 8181SOL    HW236006   4.174   1.909   2.833  3.0110 -0.8276  1.3538
 8182SOL     OW36007   0.741   2.517   7.289 -0.3155  0.3402 -0.1788
 8182SOL    HW136008   0.825   2.512   7.334 -0.7464 -0.9834  0.4853
 8182SOL    HW236009   0.679   2.485   7.354 -1.5823 -1.0423 -2.0828
 8183SOL     OW36010   0.972   0.838   8.090 -0.0881  0.6515  0.1512
 8183SOL    HW136011   0.955   0.746   8.108  0.9010  0.7330  1.5050
 8183SOL    HW236012   0.911   0.856   8.019  0.8529 -1.8571 -1.2588
 8184SOL     OW36013   1.701   1.120   3.244 -0.0559 -0.6427  0.3434
 8184SOL    HW136014   1.708   1.114   3.149 -0.6554 -0.4852  0.2910
 8184SOL    HW236015   1.635   1.059   3.277  1.0765 -1.5228  1.0036
 8185SOL     OW36016   1.086   2.662   2.248 -0.4603 -0.2241  0.0672
 8185SOL    HW136017   1.117   2.708   2.326 -2.7103 -1.0341  1.4345
 8185SOL    HW236018   1.156   2.598   2.238 -0.1961 -0.5241  4.0332
 8186SOL     OW36019   2.345   3.067   9.558  0.1807 -0.1118  0.1759
 8186SOL    HW136020   2.435   3.102   9.556 -0.6367  2.0098  0.2524
 8186SOL    HW236021   2.316   3.105   9.475 -1.0171 -0.8251  0.2662
 8187SOL     OW36022   4.688   0.635   3.121 -0.0467 -0.0436  0.1629
 8187SOL    HW136023   4.717   0.686   3.196 -0.7889 -1.0874  1.1742
 8187SOL    HW236024   4.722   0.692   3.052 -0.9478  1.2515  0.7874
 8188SOL     OW36025   0.005   0.279   6.752 -0.2942  0.0635  0.4891
 8188SOL    HW136026   4.634   0.297   6.747  0.0658  2.3669  1.9288
 8188SOL    HW236027   0.024   0.286   6.845  2.2183  0.3699 -0.0548
 8189SOL     OW36028   1.737   0.572   4.028 -0.8235 -0.3841  0.4038
 8189SOL    HW136029   1.643   0.567   4.043 -0.9795  0.8785 -0.1877
 8189SOL    HW236030   1.753   0.631   3.954 -0.8122 -0.4057  0.3889
 8190SOL     OW36031   3.592   2.049   4.267 -0.0510  0.0138 -0.0041
 8190SOL    HW136032   3.630   2.010   4.188  0.4340  0.2267  0.1257
 8190SOL    HW236033   3.677   2.050   4.311  0.3622 -1.4321 -0.7639
 8191SOL     OW36034   2.857   3.083   8.738 -0.6384  0.2780 -0.0754
 8191SOL    HW136035   2.911   3.004   8.736 -0.2903  0.4937  0.6280
 8191SOL    HW236036   2.916   3.132   8.795  0.2951 -1.5482  0.5369
 8192SOL     OW36037   3.417   3.039   2.315 -0.1023 -0.3543 -0.0497
 8192SOL    HW136038   3.444   3.005   2.230 -0.7589  2.7031 -1.4924
 8192SOL    HW236039   3.455   2.980   2.380 -0.3678 -0.7869 -0.2862
 8193SOL     OW36040   2.692   2.157   3.456  0.4248  0.2888 -0.0231
 8193SOL    HW136041   2.693   2.063   3.440  1.2687  0.5498 -1.5488
 8193SOL    HW236042   2.775   2.166   3.503  1.7671  1.5634 -2.6522
 8194SOL     OW36043   3.297   0.712   1.834  0.1957  0.9057  0.6646
 8194SOL    HW136044   3.307   0.786   1.775  1.3380  0.3327  0.1551
 8194SOL    HW236045   3.305   0.758   1.917 -0.0996 -0.4615  1.4684
 8195SOL     OW36046   0.286   1.723   7.104  0.4102 -0.0106  0.3329
 8195SOL    HW136047   0.202   1.686   7.131  1.7812 -2.2854  1.4380
 8195SOL    HW236048   0.281   1.815   7.128  2.2599  0.3519 -0.6764
 8196SOL     OW36049   1.111   2.769   6.750 -0.1884 -0.1011 -0.4176
 8196SOL    HW136050   1.024   2.743   6.781  0.5595 -0.6704  1.2401
 8196SOL    HW236051   1.147   2.681   6.741  1.0846  0.2226  1.4504
 8197SOL     OW36052   2.550   0.066   0.046 -0.0722  0.2630  0.4451
 8197SOL    HW136053   2.539   4.717   0.109 -1.4697 -0.5915 -0.7499
 8197SOL    HW236054   2.645   0.073   0.052 -0.0000 -0.5473  0.2629
 8198SOL     OW36055   1.419   4.643  16.453  0.3131  0.2253 -0.1493
 8198SOL    HW136056   1.366   4.703  16.400  1.7440  0.5026 -1.2547
 8198SOL    HW236057   1.449   4.709  16.515 -0.2690 -0.0824  0.4627
 8199SOL     OW36058   3.961   2.170  17.419 -0.3612 -0.3762  1.0611
 8199SOL    HW136059   3.925   2.084  17.443 -2.1115  0.0127 -0.1699
 8199SOL    HW236060   3.896   2.207  17.359  1.2958  2.6111  1.1063
 8200SOL     OW36061   4.046   1.631   5.398 -0.8442  0.0417  0.1885
 8200SOL    HW136062   4.120   1.621   5.339  0.1566 -2.6929  1.9185
 8200SOL    HW236063   4.007   1.715   5.375  2.2320  1.8414  1.4446
 8201SOL     OW36064   4.488   0.502   4.952  0.2486 -0.1152  0.0648
 8201SOL    HW136065   4.495   0.430   5.015 -0.5404  0.9397  1.3555
 8201SOL    HW236066   4.471   0.456   4.869  0.3556 -1.4680  0.7802
 8202SOL     OW36067   1.021   4.400   6.146 -0.2849  0.0207  0.5325
 8202SOL    HW136068   0.990   4.313   6.121  0.9464  0.6050 -3.0362
 8202SOL    HW236069   1.056   4.446   6.070 -0.0675  0.3984  0.8546
 8203SOL     OW36070   3.873   0.353   3.874  0.1589  0.3893 -0.6083
 8203SOL    HW136071   3.953   0.375   3.827 -0.8227 -0.4799 -2.7099
 8203SOL    HW236072   3.901   0.348   3.965  0.8575 -1.6621 -0.9536
 8204SOL     OW36073   4.512   3.870   8.744 -0.0022  0.1346  0.1003
 8204SOL    HW136074   4.545   3.938   8.685  1.2567 -1.1412 -0.6916
 8204SOL    HW236075   4.422   3.900   8.750 -0.7153 -1.6009 -1.8659
 8205SOL     OW36076   1.169   0.813   2.428 -0.0072  0.3687  0.1681
 8205SOL    HW136077   1.196   0.740   2.371 -0.7992 -0.0483  0.3256
 8205SOL    HW236078   1.126   0.766   2.499  0.7334  1.9905  1.6743
 8206SOL     OW36079   0.057   4.354   2.444  0.4650 -0.4587 -0.0397
 8206SOL    HW136080   0.114   4.353   2.521  0.8753 -1.1104 -0.3524
 8206SOL    HW236081   0.126   4.353   2.377 -0.5772  0.2696 -1.1151
 8207SOL     OW36082   1.353   3.166   3.262 -0.4449 -0.1468 -0.0237
 8207SOL    HW136083   1.364   3.261   3.260 -0.6623 -0.1488 -1.3698
 8207SOL    HW236084   1.438   3.128   3.284  1.1853  2.8403 -1.1594
 8208SOL     OW36085   1.692   2.754  13.249 -0.1114  0.0771  0.4553
 8208SOL    HW136086   1.708   2.812  13.175  1.6219  0.3626  1.0531
 8208SOL    HW236087   1.654   2.680  13.201 -1.7147 -0.1291  2.0624
 8209SOL     OW36088   3.804   0.662   5.198 -0.5408 -0.2188  0.9889
 8209SOL    HW136089   3.871   0.730   5.198 -0.6761 -0.0888  0.1733
 8209SOL    HW236090   3.726   0.714   5.217  0.5494  0.4498  3.5832
 8210SOL     OW36091   2.010   4.205   2.185 -0.4871 -0.1631  0.3277
 8210SOL    HW136092   1.982   4.200   2.276  0.6432 -0.2674  0.6780
 8210SOL    HW236093   1.937   4.248   2.140 -0.0373 -0.5669 -0.8023
 8211SOL     OW36094   1.150   0.639  16.455  0.7696  0.5615  0.3789
 8211SOL    HW136095   1.179   0.643  16.547  0.2568  0.1938  0.5555
 8211SOL    HW236096   1.227   0.686  16.423  1.8784 -2.3820 -1.1949
 8212SOL     OW36097   0.380   4.043   8.188  0.0141 -1.1549 -0.3134
 8212SOL    HW136098   0.304   4.005   8.143 -0.9643  2.6654 -1.8388
 8212SOL    HW236099   0.352   4.133   8.204  0.5128 -0.9498 -0.5850
 8213SOL     OW36100   2.882   3.713   0.373  0.0172  0.0475  0.2499
 8213SOL    HW136101   2.959   3.769   0.388  0.2303 -0.2377  0.2193
 8213SOL    HW236102   2.815   3.759   0.423 -1.3680  0.4997 -2.0321
 8214SOL     OW36103   0.839   2.863  13.408 -0.5059 -0.1551  0.2756
 8214SOL    HW136104   0.933   2.845  13.405 -0.5923 -0.5589  0.0349
 8214SOL    HW236105   0.823   2.924  13.480 -1.0705  1.0370 -0.8763
 8215SOL     OW36106   3.124   1.956   4.731 -0.4578 -0.2628  0.0794
 8215SOL    HW136107   3.209   1.999   4.744  0.0797 -1.8472  1.8174
 8215SOL    HW236108   3.093   2.003   4.654  0.0454 -1.6220 -0.9600
 8216SOL     OW36109   1.539   2.857   2.309  0.0090  0.4317  0.1136
 8216SOL    HW136110   1.487   2.821   2.237  0.6434  0.7896 -0.5174
 8216SOL    HW236111   1.472   2.854   2.377 -1.0504  0.7075 -0.9378
 8217SOL     OW36112   3.426   1.780   4.629  0.1478  0.2659  0.2291
 8217SOL    HW136113   3.480   1.856   4.653  0.7295 -0.3820  0.9803
 8217SOL    HW236114   3.385   1.798   4.544 -0.4442  0.2408  0.5105
 8218SOL     OW36115   2.158   3.159  17.648 -0.3388 -0.2491 -0.0048
 8218SOL    HW136116   2.219   3.191   0.022 -0.7002  1.2984 -0.4310
 8218SOL    HW236117   2.077   3.184  17.692  0.2859 -0.5724  1.3643
 8219SOL     OW36118   2.844   0.004  17.013 -0.3033  0.6394 -0.0642
 8219SOL    HW136119   2.794   0.078  16.980 -0.8949  0.9463  1.5034
 8219SOL    HW236120   2.790   4.668  17.067  2.3714  0.1455  2.0911
 8220SOL     OW36121   1.245   3.273   3.860  0.2857 -0.2543 -0.1773
 8220SOL    HW136122   1.230   3.187   3.821  1.4245 -0.8442  0.6933
 8220SOL    HW236123   1.307   3.314   3.800  1.0717 -1.8629 -0.4611
 8221SOL     OW36124   0.734   4.460   0.474  0.2354 -0.1588  0.0386
 8221SOL    HW136125   0.730   4.368   0.449  0.1447  0.3782 -1.9208
 8221SOL    HW236126   0.733   4.455   0.570 -0.2226  0.5525  0.0738
 8222SOL     OW36127   1.090   2.013  15.973 -0.1878 -0.2204  0.6660
 8222SOL    HW136128   1.015   2.049  16.021  0.7372  4.1583 -1.1194
 8222SOL    HW236129   1.161   2.027  16.036 -1.5543 -2.2416  2.6511
 8223SOL     OW36130   0.533   0.383   7.847 -0.4098 -0.1786 -0.4093
 8223SOL    HW136131   0.495   0.470   7.834  1.4933  0.6727 -0.2000
 8223SOL    HW236132   0.489   0.342   7.922  0.2853  0.4276  0.3310
 8224SOL     OW36133   0.789   1.415  10.157 -0.7056 -0.0872 -0.5292
 8224SOL    HW136134   0.766   1.484  10.220  1.2938  2.4994 -2.6431
 8224SOL    HW236135   0.848   1.356  10.203 -0.3962  1.4672  1.0985
 8225SOL     OW36136   3.455   0.077  15.449 -0.2896 -0.4708  0.3917
 8225SOL    HW136137   3.500   0.105  15.370 -1.0867 -2.1874 -0.6557
 8225SOL    HW236138   3.373   0.046  15.410  0.3010 -2.2583  0.5914
 8226SOL     OW36139   1.410   3.905  15.678  0.2629  0.6958  0.1652
 8226SOL    HW136140   1.453   3.901  15.764  3.9679  1.1285 -1.6914
 8226SOL    HW236141   1.428   3.997  15.658 -0.3268  0.9296  0.7050
 8227SOL     OW36142   4.247   2.296   2.448 -0.4489  0.2894 -0.6700
 8227SOL    HW136143   4.163   2.310   2.493  1.3658 -1.4695  3.2474
 8227SOL    HW236144   4.230   2.215   2.399  0.5728 -0.9808  1.0960
 8228SOL     OW36145   4.018   4.466   4.337 -0.2250 -0.2307 -0.2529
 8228SOL    HW136146   3.998   4.395   4.276  0.8263 -0.0215 -0.8432
 8228SOL    HW236147   3.932   4.497   4.367 -0.2480 -0.8420  0.3167
 8229SOL     OW36148   2.939   4.099  11.691 -0.0773 -0.5639  0.4077
 8229SOL    HW136149   2.967   4.023  11.640 -0.4766 -0.3960 -0.0592
 8229SOL    HW236150   2.900   4.050  11.763 -1.4647  1.1718  0.8231
 8230SOL     OW36151   2.618   2.699   9.691 -0.2603  0.8463 -0.3760
 8230SOL    HW136152   2.527   2.717   9.713  0.4820  0.4837  3.0062
 8230SOL    HW236153   2.649   2.699   9.782  1.8522  0.6546 -1.0995
 8231SOL     OW36154   3.492   2.941   2.781  0.4129 -0.1029  0.6629
 8231SOL    HW136155   3.490   2.945   2.877  0.6821 -3.1050  0.7847
 8231SOL    HW236156   3.511   3.034   2.767 -4.6702  1.3541  3.1143
 8232SOL     OW36157   4.657   3.443   5.310  0.0963  0.4620  0.8303
 8232SOL    HW136158   4.561   3.442   5.318  0.0543 -2.0443  0.0955
 8232SOL    HW236159   4.654   3.538   5.297 -1.7082  0.6016  2.2179
 8233SOL     OW36160   3.359   1.271  14.513  0.4858 -0.3494  0.3205
 8233SOL    HW136161   3.402   1.189  14.538 -0.1014 -0.8564 -0.3440
 8233SOL    HW236162   3.412   1.295  14.437 -1.2025  0.0760 -0.7225
 8234SOL     OW36163   0.054   2.854  13.753  0.2230  0.5000 -0.5709
 8234SOL    HW136164   4.696   2.898  13.781  0.6288  2.1888 -2.0413
 8234SOL    HW236165   0.110   2.928  13.728  0.2086  0.4259 -0.8233
 8235SOL     OW36166   3.934   4.655   7.434  0.0528 -0.0705 -0.1975
 8235SOL    HW136167   3.896   4.673   7.520  2.3825  1.9603  0.3732
 8235SOL    HW236168   3.906   4.564   7.422  0.9530 -0.7824  3.1086
 8236SOL     OW36169   4.017   3.307   2.435  0.1590  0.5231  0.5566
 8236SOL    HW136170   3.968   3.359   2.499  1.2847 -0.9414  2.6010
 8236SOL    HW236171   3.968   3.303   2.353 -0.7730 -0.2049  1.1434
 8237SOL     OW36172   1.441   4.521   6.362 -0.0601 -0.3987 -0.4155
 8237SOL    HW136173   1.369   4.548   6.304  0.3395 -0.2649 -0.8496
 8237SOL    HW236174   1.391   4.482   6.434  2.1738  1.1882  1.9953
 8238SOL     OW36175   0.261   3.255   1.367  0.2438  0.0837 -0.0826
 8238SOL    HW136176   0.219   3.186   1.420  1.6311  0.5562  1.6521
 8238SOL    HW236177   0.322   3.290   1.432  0.4501 -0.0612 -0.2022
 8239SOL     OW36178   2.997   3.923   6.935 -0.3815 -0.2451  0.2314
 8239SOL    HW136179   2.923   3.862   6.929 -2.3036  2.0469  0.7279
 8239SOL    HW236180   3.043   3.897   6.855 -0.7621 -0.9838  0.2566
 8240SOL     OW36181   2.059   0.893   3.190 -0.6721 -0.0156 -0.0436
 8240SOL    HW136182   2.101   0.834   3.253  0.0430 -2.4095 -2.7854
 8240SOL    HW236183   2.140   0.939   3.172 -0.7808 -0.1413 -0.8520
 8241SOL     OW36184   0.288   3.659   2.891  0.0706  0.6840  0.4857
 8241SOL    HW136185   0.334   3.703   2.819  1.9069 -0.1515  1.1366
 8241SOL    HW236186   0.252   3.586   2.841  1.8517 -0.8953  1.5039
 8242SOL     OW36187   2.181   1.029   4.378  0.2772 -0.0613 -0.1037
 8242SOL    HW136188   2.141   1.083   4.309 -1.8366 -1.4682  0.0257
 8242SOL    HW236189   2.270   1.024   4.342 -0.8914  0.8188 -3.1720
 8243SOL     OW36190   3.318   4.502   2.556  0.3773  0.5578  0.4741
 8243SOL    HW136191   3.337   4.549   2.475 -0.7111  1.0362  0.4982
 8243SOL    HW236192   3.397   4.508   2.610  0.7793  0.1054 -0.0721
 8244SOL     OW36193   2.450   2.929   2.619  0.0073  0.1571 -0.6985
 8244SOL    HW136194   2.533   2.959   2.657 -0.4521  1.1629 -0.5079
 8244SOL    HW236195   2.449   2.844   2.662 -1.7780 -0.3097 -1.6617
 8245SOL     OW36196   0.509   0.229   8.734 -0.5022 -0.3762  0.0153
 8245SOL    HW136197   0.580   0.187   8.784  0.4891  0.7921 -0.4062
 8245SOL    HW236198   0.441   0.162   8.742  0.5607 -1.7452 -2.5311
 8246SOL     OW36199   4.252   3.974  17.409  0.1851  0.0489  0.7222
 8246SOL    HW136200   4.264   4.004  17.499 -0.0268 -0.9759  1.0884
 8246SOL    HW236201   4.324   4.017  17.364 -1.3644  1.0979 -0.7794
 8247SOL     OW36202   2.212   0.032  15.538 -0.7083  0.6937  0.3392
 8247SOL    HW136203   2.129   0.051  15.493 -0.9996 -1.6537 -0.1273
 8247SOL    HW236204   2.259   4.697  15.477  2.1042 -0.0932  3.3038
 8248SOL     OW36205   3.206   0.567   0.342  0.2913  0.2429  0.1920
 8248SOL    HW136206   3.301   0.574   0.332 -0.0375  2.1143 -1.6781
 8248SOL    HW236207   3.199   0.564   0.437  0.0759 -0.2077  0.1637
 8249SOL     OW36208   2.472   4.087   4.042 -0.1481 -0.4751 -0.4882
 8249SOL    HW136209   2.445   4.096   4.134  1.3411  0.2845 -0.1312
 8249SOL    HW236210   2.531   4.162   4.032 -2.1865  1.4106  1.6499
 8250SOL     OW36211   4.420   2.322   3.423 -0.3184  0.0185  0.0327
 8250SOL    HW136212   4.494   2.276   3.383  0.5768 -0.4421  2.2398
 8250SOL    HW236213   4.464   2.380   3.484 -1.6210  2.7246 -1.6240
 8251SOL     OW36214   3.942   3.410   7.614  0.0983 -0.3291 -0.2136
 8251SOL    HW136215   3.937   3.469   7.538 -0.4578  0.5135  0.4788
 8251SOL    HW236216   3.952   3.474   7.684  2.6763 -1.6763  0.6396
 8252SOL     OW36217   0.842   4.281   5.255 -0.4958 -0.1004  0.2849
 8252SOL    HW136218   0.877   4.193   5.263 -1.9976 -0.8744 -1.9082
 8252SOL    HW236219   0.850   4.309   5.347 -0.8182 -3.6771  1.3999
 8253SOL     OW36220   1.163   4.335   7.190  0.4388 -0.2947 -0.0975
 8253SOL    HW136221   1.101   4.281   7.239  0.6096  0.3527  0.8401
 8253SOL    HW236222   1.208   4.272   7.135 -0.9568 -2.2639  0.9987
 8254SOL     OW36223   3.583   2.596   2.910  0.2171 -0.5896  0.7130
 8254SOL    HW136224   3.491   2.572   2.922  0.3979  0.0226  3.5250
 8254SOL    HW236225   3.614   2.517   2.864  0.1371 -0.6306  0.7296
 8255SOL     OW36226   0.333   2.540  11.355  0.8705  0.6874  0.3695
 8255SOL    HW136227   0.238   2.528  11.358  1.2678 -2.5455 -0.0162
 8255SOL    HW236228   0.319   2.632  11.331 -1.2695  0.0235 -0.8579
 8256SOL     OW36229   0.944   4.649   7.819 -0.0464 -0.2178 -0.3625
 8256SOL    HW136230   1.025   4.654   7.770  1.2555  2.8658  2.1057
 8256SOL    HW236231   0.972   4.596   7.894 -1.8307 -0.3201  0.2387
 8257SOL     OW36232   2.958   0.283   4.617  0.5413 -0.0866 -0.4146
 8257SOL    HW136233   2.881   0.320   4.574 -0.0151  0.8757  1.4118
 8257SOL    HW236234   2.967   0.351   4.684  0.9482 -0.2191 -0.3360
 8258SOL     OW36235   3.338   1.845   7.531 -0.0153 -0.3552  0.3377
 8258SOL    HW136236   3.387   1.928   7.537  0.4059 -0.4540 -1.6601
 8258SOL    HW236237   3.390   1.795   7.594 -1.2459  2.0304  3.2908
 8259SOL     OW36238   4.060   1.357   6.408  0.2145 -0.5607 -0.0876
 8259SOL    HW136239   4.047   1.448   6.433 -3.1707 -0.6443 -1.4537
 8259SOL    HW236240   3.986   1.316   6.452 -0.5051 -0.2972 -1.0356
 8260SOL     OW36241   3.834   3.209  14.383 -0.1715 -0.6294 -0.2323
 8260SOL    HW136242   3.777   3.253  14.320  0.3172 -0.1510 -0.3357
 8260SOL    HW236243   3.907   3.183  14.327  1.3778  0.7598  1.1552
 8261SOL     OW36244   4.550   3.835  16.229 -0.1520  0.6745 -0.3340
 8261SOL    HW136245   4.601   3.780  16.288  0.1054  1.5463  0.2667
 8261SOL    HW236246   4.626   3.876  16.187  1.1594 -2.0586 -0.5831
 8262SOL     OW36247   0.554   0.981   5.211  0.0671 -0.0120 -0.6734
 8262SOL    HW136248   0.488   0.926   5.169 -0.3415  0.2725 -0.4053
 8262SOL    HW236249   0.499   1.058   5.225 -0.4157 -0.8395  1.8767
 8263SOL     OW36250   1.772   3.752  12.665  0.5674  0.1543  0.1284
 8263SOL    HW136251   1.765   3.703  12.747 -1.2779 -0.4523 -0.3967
 8263SOL    HW236252   1.864   3.738  12.647 -0.6362 -3.0857 -3.2573
 8264SOL     OW36253   2.302   2.724   3.017  0.1290  0.0385  0.5895
 8264SOL    HW136254   2.260   2.671   2.949  1.6621  1.8776 -1.8115
 8264SOL    HW236255   2.388   2.748   2.982  0.1327 -0.7391  0.0741
 8265SOL     OW36256   3.011   2.671  11.919  0.1675 -0.0282 -0.5440
 8265SOL    HW136257   3.008   2.711  11.832 -1.4618 -1.6433 -1.2054
 8265SOL    HW236258   2.930   2.708  11.953  0.2242  0.8323 -1.3215
 8266SOL     OW36259   2.464   0.958   4.321  0.2031  0.0309 -0.4641
 8266SOL    HW136260   2.472   0.873   4.364 -1.3190  0.0377 -0.1817
 8266SOL    HW236261   2.493   0.939   4.232 -0.5997 -1.1587 -0.4761
 8267SOL     OW36262   1.947   1.257   3.822  0.2810 -0.1074 -0.2083
 8267SOL    HW136263   1.932   1.317   3.894 -0.9224 -1.0861  0.3583
 8267SOL    HW236264   1.936   1.304   3.740  0.5588  0.5295  0.1222
 8268SOL     OW36265   0.359   1.828   9.709 -0.5241 -0.2335 -0.2499
 8268SOL    HW136266   0.356   1.804   9.802 -1.6606  0.8030 -0.0205
 8268SOL    HW236267   0.454   1.817   9.701 -0.2661  0.7061  1.4728
 8269SOL     OW36268   1.038   2.820  12.530  0.0198 -0.2437 -0.4918
 8269SOL    HW136269   1.064   2.898  12.579 -1.5355  0.8320 -1.3603
 8269SOL    HW236270   0.956   2.857  12.497 -0.3071 -1.0241 -0.5365
 8270SOL     OW36271   0.063   3.433  16.498  0.0753  0.5253 -0.2363
 8270SOL    HW136272   0.067   3.490  16.422 -4.3217  0.8974 -0.1829
 8270SOL    HW236273   0.158   3.429  16.512 -0.2083 -0.1932  1.4937
 8271SOL     OW36274   3.593   1.178   2.704 -0.3661 -0.2304 -0.3518
 8271SOL    HW136275   3.589   1.195   2.798 -0.4144 -0.6554 -0.2768
 8271SOL    HW236276   3.683   1.147   2.696 -0.3487  0.1754 -1.7322
 8272SOL     OW36277   2.489   2.189  14.669  0.9414  0.2576  0.2383
 8272SOL    HW136278   2.468   2.258  14.732  0.1449  1.7735 -1.6953
 8272SOL    HW236279   2.584   2.197  14.656  1.1242 -2.5138 -0.2111
 8273SOL     OW36280   3.203   4.558   6.722 -0.1894  0.3090 -0.1952
 8273SOL    HW136281   3.255   4.603   6.789  1.8105 -1.6541 -0.4349
 8273SOL    HW236282   3.237   4.602   6.644  1.8999 -1.4355 -0.2910
 8274SOL     OW36283   0.040   0.188   7.371  0.4520  0.0070 -0.1426
 8274SOL    HW136284   0.025   0.151   7.458  1.6151  0.0648  0.0815
 8274SOL    HW236285   4.699   0.259   7.370  0.7075  0.2168 -1.0214
 8275SOL     OW36286   0.645   1.893   5.737  0.0786 -0.2145  0.2735
 8275SOL    HW136287   0.637   1.816   5.794 -0.2302  0.8212  1.6248
 8275SOL    HW236288   0.559   1.897   5.694  1.2515  1.9529 -1.8209
 8276SOL     OW36289   2.153   4.571  14.902  0.8304  0.2778 -0.0870
 8276SOL    HW136290   2.066   4.598  14.930  0.8623  0.1635  0.1190
 8276SOL    HW236291   2.192   4.568  14.989  2.0141 -0.7485 -0.6542
 8277SOL     OW36292   0.875   1.289   8.780 -0.1221 -0.5180 -0.3281
 8277SOL    HW136293   0.802   1.351   8.776  0.1455 -0.2492 -0.9658
 8277SOL    HW236294   0.873   1.248   8.694 -1.3524 -1.1482 -0.0151
 8278SOL     OW36295   3.182   1.427  11.525 -0.4058 -0.3664 -0.1826
 8278SOL    HW136296   3.092   1.451  11.545  0.1362  1.1799  0.4365
 8278SOL    HW236297   3.170   1.332  11.522  1.8373 -0.6457 -0.6880
 8279SOL     OW36298   1.151   4.226   0.510 -0.5792 -0.6602  0.6257
 8279SOL    HW136299   1.101   4.280   0.571  0.6142  0.9787  0.1300
 8279SOL    HW236300   1.117   4.270   0.432  0.4874  2.0431  1.6953
 8280SOL     OW36301   2.199   4.221   6.780 -0.6026  0.4449  0.0702
 8280SOL    HW136302   2.261   4.265   6.838  0.5914 -2.5020  1.0421
 8280SOL    HW236303   2.183   4.289   6.715 -1.2630 -0.6239 -0.8996
 8281SOL     OW36304   0.225   1.991   9.419 -0.0497  0.0269  0.4585
 8281SOL    HW136305   0.188   1.911   9.381  2.3288 -0.8641 -0.0214
 8281SOL    HW236306   0.219   2.050   9.345 -1.2622 -2.1545 -1.1788
 8282SOL     OW36307   1.524   1.417   4.840  0.5564  0.9147 -0.1041
 8282SOL    HW136308   1.559   1.333   4.809 -3.7023 -0.8515 -0.0509
 8282SOL    HW236309   1.517   1.408   4.935 -0.8604 -1.3064 -0.4313
 8283SOL     OW36310   3.932   3.116  17.609  0.4048 -0.4011  0.0296
 8283SOL    HW136311   3.904   3.092   0.004  0.0153  0.5420  0.1610
 8283SOL    HW236312   4.015   3.069  17.598  0.6189 -0.4595  1.9829
 8284SOL     OW36313   1.739   4.100   6.633  0.0884 -0.1278 -0.0196
 8284SOL    HW136314   1.711   4.151   6.557  0.5704 -0.8986 -0.7225
 8284SOL    HW236315   1.813   4.048   6.600  1.2822  0.9175  1.0288
 8285SOL     OW36316   1.270   1.251   7.698 -0.1248  0.3518 -0.5321
 8285SOL    HW136317   1.360   1.257   7.732 -0.0930  1.8719 -0.8985
 8285SOL    HW236318   1.251   1.159   7.715 -0.7641  1.2039  3.3044
 8286SOL     OW36319   0.121   1.927   0.708  0.0848  0.1636  0.0218
 8286SOL    HW136320   0.096   1.835   0.718 -0.4455  0.3035  0.0356
 8286SOL    HW236321   0.119   1.942   0.614  1.6713 -1.1146 -0.2152
 8287SOL     OW36322   3.700   1.242  10.066  0.5362 -0.0461  0.4064
 8287SOL    HW136323   3.610   1.277  10.065  0.4930 -0.2206 -1.4022
 8287SOL    HW236324   3.725   1.287  10.146  1.0762  0.5204 -0.0892
 8288SOL     OW36325   1.252   2.064  14.963  0.1529 -0.1203  0.2099
 8288SOL    HW136326   1.244   2.159  14.959 -2.1304 -0.3546 -0.8231
 8288SOL    HW236327   1.317   2.045  14.896  1.3799 -3.1587  2.2584
 8289SOL     OW36328   3.644   0.330   5.696  0.9121  0.0242 -0.0471
 8289SOL    HW136329   3.673   0.292   5.614 -0.1447  0.6867 -0.7248
 8289SOL    HW236330   3.633   0.252   5.751 -1.8826 -0.7964 -1.7933
 8290SOL     OW36331   1.468   3.292   5.118  0.0339 -0.3065  0.5282
 8290SOL    HW136332   1.381   3.287   5.158  0.2332  0.3755  1.0626
 8290SOL    HW236333   1.458   3.244   5.037  1.2357  1.6372 -0.7791
 8291SOL     OW36334   4.388   1.084   4.941 -0.2170  0.1519 -0.2449
 8291SOL    HW136335   4.403   1.009   4.884 -2.9974  0.7902 -1.8365
 8291SOL    HW236336   4.379   1.149   4.872 -3.0299  1.2140  1.0993
 8292SOL     OW36337   1.094   4.556   5.914 -0.5789  0.1559 -0.1185
 8292SOL    HW136338   1.026   4.551   5.847 -0.4770  1.4628 -0.3186
 8292SOL    HW236339   1.163   4.507   5.870  0.5729  0.4460  1.3935
 8293SOL     OW36340   4.477   1.300   8.052 -0.1728 -0.3977 -0.6304
 8293SOL    HW136341   4.546   1.278   8.114  2.4631  1.5794 -2.8810
 8293SOL    HW236342   4.398   1.303   8.106  2.6690 -0.1392  3.4525
 8294SOL     OW36343   3.891   3.463   8.921 -0.2140 -0.1572 -0.1842
 8294SOL    HW136344   3.983   3.434   8.920  0.4064  1.9096 -1.6286
 8294SOL    HW236345   3.898   3.487   9.013 -2.1303  1.9593 -0.6167
 8295SOL     OW36346   2.834   4.332  16.008 -0.1970  0.3366  0.0137
 8295SOL    HW136347   2.850   4.246  15.970  0.8912  0.0863  1.0215
 8295SOL    HW236348   2.898   4.325  16.078 -1.0658 -0.3557  0.7311
 8296SOL     OW36349   0.944   2.464  10.210 -0.4125 -0.1246  0.2711
 8296SOL    HW136350   0.951   2.426  10.298  0.6831 -3.3009 -1.1745
 8296SOL    HW236351   1.014   2.529  10.212  0.9270 -1.5364 -0.1313
 8297SOL     OW36352   1.780   2.746  12.501 -0.4315  0.5076  0.4916
 8297SOL    HW136353   1.833   2.825  12.500 -1.5237  1.2275 -0.6148
 8297SOL    HW236354   1.712   2.762  12.435  0.7480  1.2913 -0.5329
 8298SOL     OW36355   2.542   1.873  14.472 -0.2202  0.0040 -0.1485
 8298SOL    HW136356   2.619   1.866  14.416 -1.0804  0.1205 -1.3419
 8298SOL    HW236357   2.492   1.927  14.410  2.6247  1.2872 -1.3520
 8299SOL     OW36358   1.840   4.558   0.998  0.3242 -0.4412  0.0113
 8299SOL    HW136359   1.793   4.543   0.916  2.7817 -1.4946 -1.1872
 8299SOL    HW236360   1.930   4.563   0.966  0.3626 -0.0058  0.1820
 8300SOL     OW36361   2.577   0.919   8.788 -0.1030  0.1162 -0.4637
 8300SOL    HW136362   2.626   0.917   8.870  2.4825  2.8921 -1.9664
 8300SOL    HW236363   2.554   0.828   8.768 -0.0203 -0.3741  1.7232
 8301SOL     OW36364   2.348   3.093  11.095  0.6194  0.6332  0.1667
 8301SOL    HW136365   2.342   2.998  11.091 -0.4043  0.7642 -1.0745
 8301SOL    HW236366   2.421   3.105  11.035  1.2062 -0.4374  0.6662
 8302SOL     OW36367   0.103   1.106   9.485 -0.3778  0.1436  0.0918
 8302SOL    HW136368   0.030   1.147   9.531 -0.2541 -0.7663  1.1065
 8302SOL    HW236369   0.071   1.083   9.397  1.2999  0.6545 -0.6485
 8303SOL     OW36370   1.572   3.513  13.216  0.1011 -0.0309 -0.0886
 8303SOL    HW136371   1.658   3.498  13.177  0.7389  1.8281  0.5885
 8303SOL    HW236372   1.528   3.555  13.142  0.1534 -0.3758 -0.3152
 8304SOL     OW36373   0.366   3.848  16.774 -0.1442  0.0665 -0.4617
 8304SOL    HW136374   0.339   3.869  16.864 -0.1220 -1.2671 -0.1538
 8304SOL    HW236375   0.425   3.917  16.745 -0.0347 -0.0850 -0.5983
 8305SOL     OW36376   1.906   2.269   2.475  0.4810  0.1843  0.2803
 8305SOL    HW136377   1.943   2.252   2.562  0.4089  0.6816  0.4104
 8305SOL    HW236378   1.971   2.328   2.438 -1.2052  1.0934 -1.2696
 8306SOL     OW36379   0.968   3.556   6.648  0.0283 -0.0349 -0.7225
 8306SOL    HW136380   1.050   3.522   6.683 -0.7140  0.3719  1.4087
 8306SOL    HW236381   0.991   3.612   6.574  0.9864 -0.7761 -0.9910
 8307SOL     OW36382   2.141   4.142   6.367 -0.4182  0.0685 -0.1601
 8307SOL    HW136383   2.055   4.110   6.339 -0.7277  0.5395  0.2532
 8307SOL    HW236384   2.204   4.070   6.363 -0.8811 -0.3449 -0.0578
 8308SOL     OW36385   3.104   2.333   4.990 -0.2722 -0.3430 -0.6653
 8308SOL    HW136386   3.098   2.357   5.082  1.3269 -2.0165 -0.1395
 8308SOL    HW236387   3.079   2.241   5.000 -0.2950 -0.2176  0.4410
 8309SOL     OW36388   0.506   2.337   1.333 -0.0363 -0.3626 -0.2742
 8309SOL    HW136389   0.564   2.385   1.392 -1.1626  0.0960  0.4654
 8309SOL    HW236390   0.459   2.280   1.395  0.8327 -0.4144  0.3297
 8310SOL     OW36391   3.532   0.815   9.095 -0.0358 -0.6097  0.1868
 8310SOL    HW136392   3.589   0.833   9.169  2.1262  2.2642 -2.2101
 8310SOL    HW236393   3.530   0.720   9.110 -1.8263 -0.1148  3.1647
 8311SOL     OW36394   2.488   2.358  11.876 -0.4788 -0.3400 -0.4732
 8311SOL    HW136395   2.527   2.445  11.869 -2.9721  0.8217  0.1419
 8311SOL    HW236396   2.485   2.341  11.970 -2.8697  0.8252 -0.3443
 8312SOL     OW36397   1.205   2.927   4.034  0.1883 -0.3496  0.3910
 8312SOL    HW136398   1.270   2.953   3.969 -1.0287 -2.0795 -1.5041
 8312SOL    HW236399   1.225   2.833   4.037  1.3328 -0.1898 -2.4050
 8313SOL     OW36400   2.028   0.833   4.518 -0.5648  0.1112  0.0971
 8313SOL    HW136401   2.052   0.923   4.495 -0.8109 -0.1688 -1.2887
 8313SOL    HW236402   1.950   0.839   4.573  0.1750 -0.1841  1.1795
 8314SOL     OW36403   2.040   2.752   2.479 -0.7932 -0.2446 -0.1859
 8314SOL    HW136404   2.001   2.833   2.510  0.0438  0.0489  0.1100
 8314SOL    HW236405   1.970   2.705   2.435 -1.7914  1.0419  0.0405
 8315SOL     OW36406   3.392   1.975  14.095 -0.3823  0.1665  0.4502
 8315SOL    HW136407   3.473   1.975  14.145 -2.0532 -0.7420  3.1966
 8315SOL    HW236408   3.385   1.884  14.066 -2.5622  0.5084 -0.1444
 8316SOL     OW36409   1.929   4.660   2.681  0.3993  0.4825  0.5402
 8316SOL    HW136410   1.939   0.015   2.626 -2.0142 -0.7341 -1.5959
 8316SOL    HW236411   1.877   4.689   2.756 -2.3324  1.7866 -1.8719
 8317SOL     OW36412   0.184   3.264  15.130 -0.5252 -0.0987  0.3249
 8317SOL    HW136413   0.279   3.253  15.125 -0.2595  2.8037 -0.7807
 8317SOL    HW236414   0.156   3.215  15.052  0.9984 -0.2708 -0.1323
 8318SOL     OW36415   0.484   0.981   6.601 -0.0842  0.0922 -0.4743
 8318SOL    HW136416   0.456   1.070   6.578 -0.2905 -0.0749 -0.8562
 8318SOL    HW236417   0.402   0.933   6.591  0.6662 -1.2672 -0.1131
 8319SOL     OW36418   2.674   1.380   9.848 -0.3342 -0.6364 -0.5364
 8319SOL    HW136419   2.648   1.467   9.878  0.3237  0.1049 -2.1409
 8319SOL    HW236420   2.602   1.319   9.863  0.4872 -1.1752  1.2691
 8320SOL     OW36421   3.558   1.445  17.348 -0.0874  0.2361  0.0048
 8320SOL    HW136422   3.490   1.409  17.291  0.2519  0.9160 -0.8303
 8320SOL    HW236423   3.634   1.402  17.309 -0.4416 -0.0663 -0.3570
 8321SOL     OW36424   1.853   0.153   5.101  0.5803 -0.0013 -0.2222
 8321SOL    HW136425   1.897   0.237   5.091 -1.9663  1.4846  1.1854
 8321SOL    HW236426   1.869   0.114   5.015  1.1315 -1.3456  0.4827
 8322SOL     OW36427   3.909   2.416   2.853 -0.2613 -0.5854 -0.4500
 8322SOL    HW136428   3.967   2.490   2.870  0.7871 -1.9636  1.9130
 8322SOL    HW236429   3.841   2.448   2.793 -0.4371  0.5007  0.3411
 8323SOL     OW36430   0.450   1.820   2.764 -0.2604 -0.0027 -0.2088
 8323SOL    HW136431   0.447   1.833   2.859 -1.7538  0.7711 -0.3517
 8323SOL    HW236432   0.485   1.731   2.763  2.5138  1.1165 -1.0820
 8324SOL     OW36433   4.242   4.671   4.015 -0.0701  0.0301 -0.1087
 8324SOL    HW136434   4.199   4.719   3.944 -0.3325  2.9732  2.0438
 8324SOL    HW236435   4.176   4.602   4.022 -1.7938  1.6945 -0.2175
 8325SOL     OW36436   1.070   2.549  12.647  0.9747  0.1316 -0.3197
 8325SOL    HW136437   0.997   2.492  12.624  1.9340 -1.7600  1.2680
 8325SOL    HW236438   1.038   2.632  12.612  1.7688 -0.1822 -1.7610
 8326SOL     OW36439   3.314   1.849  15.013 -0.1311 -0.6860  0.4295
 8326SOL    HW136440   3.295   1.756  14.999 -0.4590 -0.5071 -0.3532
 8326SOL    HW236441   3.379   1.863  14.944 -0.2071 -0.8356  0.3283
 8327SOL     OW36442   3.359   1.789  17.323 -0.2705  0.3281  0.4206
 8327SOL    HW136443   3.445   1.762  17.358 -1.1931 -0.7225  1.8777
 8327SOL    HW236444   3.308   1.780  17.404 -2.0825 -0.5424 -0.8353
 8328SOL     OW36445   2.871   0.663   0.515  0.0962 -0.1008  0.3986
 8328SOL    HW136446   2.882   0.571   0.494 -0.2261 -0.0407 -0.0377
 8328SOL    HW236447   2.949   0.700   0.472  0.5077 -0.7076  0.6325
 8329SOL     OW36448   2.428   1.593  12.049 -0.1574  0.2518  0.3169
 8329SOL    HW136449   2.434   1.540  12.129 -0.7671 -0.0146  0.1856
 8329SOL    HW236450   2.518   1.594  12.016 -0.4128  0.2796 -0.3605
 8330SOL     OW36451   2.546   2.963  16.907  0.0457 -0.1711  0.4338
 8330SOL    HW136452   2.612   3.029  16.928 -1.0629  1.4119 -1.0850
 8330SOL    HW236453   2.600   2.900  16.858 -1.5639 -0.7776 -0.5741
 8331SOL     OW36454   0.991   2.676   7.731  0.5203 -0.3088 -0.5376
 8331SOL    HW136455   1.037   2.600   7.695  0.7554  0.0942 -1.0895
 8331SOL    HW236456   1.054   2.693   7.801 -0.8089 -0.1496  0.6074
 8332SOL     OW36457   3.222   1.248   8.560  0.3128  0.4631  0.0264
 8332SOL    HW136458   3.158   1.265   8.491  0.5147  0.9203 -0.0549
 8332SOL    HW236459   3.232   1.334   8.601 -0.6432  0.6857 -0.2188
 8333SOL     OW36460   0.037   2.175   5.840 -0.2051  0.2562  0.0264
 8333SOL    HW136461   4.698   2.150   5.909  0.1276 -1.1395 -0.2014
 8333SOL    HW236462   0.111   2.118   5.861 -0.3148 -0.2855 -1.0918
 8334SOL     OW36463   0.876   3.286   6.414 -0.5362 -0.1344 -0.2660
 8334SOL    HW136464   0.896   3.373   6.380 -0.2185 -0.3297 -0.5731
 8334SOL    HW236465   0.875   3.294   6.510  0.1370  1.7643 -0.4148
 8335SOL     OW36466   0.445   4.217   6.807  0.3528  0.1179  0.2606
 8335SOL    HW136467   0.488   4.291   6.850  0.0441  0.6250 -0.2932
 8335SOL    HW236468   0.513   4.171   6.757 -0.2415 -0.5637  0.0910
 8336SOL     OW36469   0.455   3.700   8.991 -0.4157 -0.3480 -0.3684
 8336SOL    HW136470   0.479   3.758   9.063 -2.6607  0.2581 -0.0969
 8336SOL    HW236471   0.373   3.665   9.025 -0.4088 -0.0844 -0.0794
 8337SOL     OW36472   3.922   3.394  17.595 -0.6224  0.8438 -0.0021
 8337SOL    HW136473   3.898   3.303  17.584  0.8362  0.6915 -1.9167
 8337SOL    HW236474   3.839   3.438  17.611 -1.7165 -1.8356  1.6679
 8338SOL     OW36475   4.004   2.991  12.065 -0.5777 -0.7449  0.2104
 8338SOL    HW136476   3.935   2.929  12.042 -1.4595  0.9743 -1.7396
 8338SOL    HW236477   4.078   2.934  12.046 -1.0298 -1.9050  1.8262
 8339SOL     OW36478   3.146   0.482   1.058  0.0476  0.7154 -0.4262
 8339SOL    HW136479   3.121   0.396   1.024 -4.2315  0.6474  2.8690
 8339SOL    HW236480   3.091   0.487   1.136 -1.6019  1.3814 -1.6157
 8340SOL     OW36481   1.955   1.624   2.687  0.0905  0.6199 -0.5525
 8340SOL    HW136482   2.020   1.615   2.617 -0.1893 -2.6639 -0.4060
 8340SOL    HW236483   1.876   1.601   2.639  0.1876 -1.6106  0.3694
 8341SOL     OW36484   2.182   4.577   5.864 -0.9750 -0.4297  0.0381
 8341SOL    HW136485   2.126   4.549   5.937  1.2312  0.1402  1.9431
 8341SOL    HW236486   2.114   4.625   5.817 -1.1529 -0.7441 -0.0260
 8342SOL     OW36487   3.886   4.555   4.688 -0.5116 -0.3468 -0.0336
 8342SOL    HW136488   3.809   4.513   4.726 -0.6221  1.1302  1.3442
 8342SOL    HW236489   3.858   4.566   4.597 -0.8561 -0.4420  0.0618
 8343SOL     OW36490   2.709   3.869   3.021  0.5179 -0.0398  0.3586
 8343SOL    HW136491   2.647   3.797   3.009  0.5280 -0.2202  1.3592
 8343SOL    HW236492   2.652   3.941   3.048 -1.0597 -0.8287 -0.8529
 8344SOL     OW36493   1.484   4.335   5.223 -0.1600 -0.3588 -0.3494
 8344SOL    HW136494   1.444   4.333   5.137  1.1505 -2.7618 -0.9075
 8344SOL    HW236495   1.549   4.403   5.205 -1.1067  0.0314 -2.1783
 8345SOL     OW36496   3.578   1.501   4.939 -0.4472  0.0242  0.2545
 8345SOL    HW136497   3.613   1.469   5.022 -1.2035 -2.0711 -0.2243
 8345SOL    HW236498   3.638   1.479   4.868 -2.1892 -0.2438 -1.1476
 8346SOL     OW36499   0.231   1.593   4.647 -0.0521  0.2453 -0.1180
 8346SOL    HW136500   0.324   1.609   4.661  0.3868 -1.9354 -0.4986
 8346SOL    HW236501   0.222   1.573   4.554  0.3753 -0.5057  0.0056
 8347SOL     OW36502   1.553   2.889   5.480 -0.1807 -0.6072 -0.1894
 8347SOL    HW136503   1.556   2.848   5.393  2.7086  0.6641 -0.6919
 8347SOL    HW236504   1.484   2.956   5.478 -2.4194 -2.9392 -0.7313
 8348SOL     OW36505   3.859   0.026  11.669  0.5995  0.3373  0.1797
 8348SOL    HW136506   3.869   0.091  11.599 -0.0494  0.9174  0.6260
 8348SOL    HW236507   3.938   0.037  11.722  2.0638 -0.3820 -1.8337
 8349SOL     OW36508   1.495   2.395  14.565 -0.0311 -0.3966 -0.3603
 8349SOL    HW136509   1.543   2.428  14.490  0.9585 -1.0330 -0.0147
 8349SOL    HW236510   1.431   2.333  14.531 -2.2233  0.5261  2.0439
 8350SOL     OW36511   4.064   3.379   8.481 -0.2316 -0.0318 -0.2757
 8350SOL    HW136512   4.150   3.413   8.506 -0.7289  1.0002  0.0416
 8350SOL    HW236513   4.072   3.284   8.490 -0.6547 -0.1121 -0.7881
 8351SOL     OW36514   0.937   1.805   5.589 -0.2527 -0.4023 -0.4697
 8351SOL    HW136515   0.994   1.755   5.531  1.8825  1.9173 -0.3400
 8351SOL    HW236516   0.862   1.819   5.532 -0.1089  1.1310 -0.2655
 8352SOL     OW36517   2.991   1.099   0.517 -0.4457 -0.0573  0.2471
 8352SOL    HW136518   3.003   1.111   0.423 -1.6893 -3.5056 -0.3463
 8352SOL    HW236519   3.034   1.179   0.546  3.4125 -1.5490 -1.3786
 8353SOL     OW36520   3.896   4.690   9.248 -0.1951  0.1869 -0.3226
 8353SOL    HW136521   3.825   0.028   9.270 -0.2730  0.5653 -1.5940
 8353SOL    HW236522   3.935   4.668   9.332  1.2234  1.4213 -0.6477
 8354SOL     OW36523   0.850   4.017   5.847  0.2323 -0.5674 -0.0852
 8354SOL    HW136524   0.756   3.999   5.842  0.7410 -3.5606  1.3775
 8354SOL    HW236525   0.898   3.970   5.779  0.6351 -1.0087  0.5028
 8355SOL     OW36526   3.749   2.250  17.290 -0.6030 -0.1482  0.1658
 8355SOL    HW136527   3.776   2.342  17.296 -0.0193 -0.3821  1.0770
 8355SOL    HW236528   3.718   2.243  17.200  0.5880 -0.8112 -0.1927
 8356SOL     OW36529   3.994   1.898   6.016  0.4839 -0.4338 -0.1103
 8356SOL    HW136530   4.060   1.957   6.050 -0.8689  1.0117  0.0264
 8356SOL    HW236531   4.030   1.876   5.930  2.8299 -0.6472  0.9445
 8357SOL     OW36532   1.106   4.187   4.879  0.2399 -0.0307  0.1411
 8357SOL    HW136533   1.078   4.212   4.790  2.0824 -0.9434 -0.6876
 8357SOL    HW236534   1.073   4.257   4.936 -1.6108  1.2611 -2.4970
 8358SOL     OW36535   3.340   0.768   4.784 -0.3439 -0.4324  0.3440
 8358SOL    HW136536   3.419   0.805   4.745  0.5669 -0.4552  2.1393
 8358SOL    HW236537   3.302   0.841   4.833  0.3591  0.2300 -0.1100
 8359SOL     OW36538   4.293   0.262   3.075  0.0221  0.3494 -0.0748
 8359SOL    HW136539   4.199   0.276   3.062  0.0064 -0.3803 -0.7503
 8359SOL    HW236540   4.319   0.345   3.114  2.3679 -0.1873 -0.4748
 8360SOL     OW36541   4.300   2.362   2.754 -0.1041  0.5658 -0.2158
 8360SOL    HW136542   4.356   2.342   2.680 -0.0196 -0.4941  0.1375
 8360SOL    HW236543   4.220   2.330   2.712  0.4825 -0.1192 -0.8056
 8361SOL     OW36544   2.513   2.247  10.444  0.5571 -0.2817 -0.4425
 8361SOL    HW136545   2.493   2.278  10.356  0.5318 -1.2214 -0.7712
 8361SOL    HW236546   2.559   2.318  10.489  0.4108 -0.3765 -0.1441
 8362SOL     OW36547   3.214   0.172   6.762 -0.2105  0.3538 -0.0093
 8362SOL    HW136548   3.170   0.205   6.840  0.9068  0.6107  0.5215
 8362SOL    HW236549   3.306   0.200   6.769 -0.0298 -0.4247  0.7915
 8363SOL     OW36550   1.622   4.367   7.455 -0.1756  0.7038 -0.5316
 8363SOL    HW136551   1.579   4.450   7.435  0.9847  1.6280  0.8406
 8363SOL    HW236552   1.550   4.309   7.430 -0.6097  0.3952  1.4106
 8364SOL     OW36553   2.566   1.710   9.955 -0.3460  0.3203 -0.6346
 8364SOL    HW136554   2.661   1.722   9.963 -0.5088 -1.9257  4.0212
 8364SOL    HW236555   2.554   1.660   9.875 -0.8898 -1.6906  0.7295
 8365SOL     OW36556   2.416   0.822   6.201  0.0745 -0.3725 -0.5668
 8365SOL    HW136557   2.353   0.776   6.257 -0.1637  2.5146  1.5560
 8365SOL    HW236558   2.475   0.748   6.188  0.1275 -0.5314  0.5542
 8366SOL     OW36559   3.365   0.873   3.727 -0.3434  0.7128 -0.3348
 8366SOL    HW136560   3.399   0.785   3.745  0.1585  1.0934  0.5603
 8366SOL    HW236561   3.323   0.856   3.642  1.5521 -0.2842 -1.0888
 8367SOL     OW36562   1.735   1.024  14.240 -0.2412 -0.0780  0.4380
 8367SOL    HW136563   1.654   1.075  14.248 -1.6115 -2.3801  1.4034
 8367SOL    HW236564   1.785   1.034  14.320 -0.8800 -0.1192  0.8453
 8368SOL     OW36565   1.345   0.043   2.069  0.2562 -0.4470  0.3034
 8368SOL    HW136566   1.325   0.082   2.154 -1.7422  2.5882 -1.5632
 8368SOL    HW236567   1.433   0.076   2.049  0.0376 -0.9996 -1.6148
 8369SOL     OW36568   4.141   2.598  16.447 -0.1908  0.2552 -0.5297
 8369SOL    HW136569   4.170   2.571  16.360  1.5499 -0.2808  0.2073
 8369SOL    HW236570   4.066   2.652  16.424 -0.8866  0.8325  3.1151
 8370SOL     OW36571   2.606   3.624  16.268 -0.5658  0.5573 -0.0678
 8370SOL    HW136572   2.600   3.569  16.190 -1.0367  0.8412 -0.2292
 8370SOL    HW236573   2.689   3.610  16.314  0.6847  1.8910 -1.9311
 8371SOL     OW36574   4.253   2.053   8.525 -0.4329 -0.1786 -0.2174
 8371SOL    HW136575   4.295   1.972   8.495  0.2205  0.7939 -1.9861
 8371SOL    HW236576   4.188   2.064   8.455  1.0619 -0.5270 -1.6781
 8372SOL     OW36577   1.535   2.076   8.916 -0.2851  0.0535 -0.3971
 8372SOL    HW136578   1.607   2.112   8.968 -0.3793  0.1483 -0.3311
 8372SOL    HW236579   1.456   2.126   8.937 -0.0520  0.8010 -1.2773
 8373SOL     OW36580   4.217   4.102   3.129  0.2874 -0.5012 -0.5878
 8373SOL    HW136581   4.297   4.050   3.140 -0.4928 -1.1376  2.0404
 8373SOL    HW236582   4.189   4.129   3.217 -0.4431 -1.7310 -0.4370
 8374SOL     OW36583   3.241   0.446   3.610 -0.4000  0.2818  0.0501
 8374SOL    HW136584   3.236   0.372   3.550 -2.0056  0.7517 -0.3920
 8374SOL    HW236585   3.281   0.518   3.560  1.4689 -0.6704  0.1585
 8375SOL     OW36586   4.101   3.137   6.893 -0.6885  0.3274  0.1288
 8375SOL    HW136587   4.195   3.138   6.911 -0.1832  1.7433 -2.6383
 8375SOL    HW236588   4.069   3.073   6.957 -2.4702  0.1197 -0.9721
 8376SOL     OW36589   2.667   3.311   8.686  0.0267  0.3276  0.9160
 8376SOL    HW136590   2.734   3.260   8.731 -0.5900 -0.8558  0.4710
 8376SOL    HW236591   2.720   3.391   8.674 -0.2513  0.7153  2.2450
 8377SOL     OW36592   0.511   2.984   2.578  0.5592  0.1241  0.2134
 8377SOL    HW136593   0.549   2.896   2.586 -0.7762 -0.4492  0.1415
 8377SOL    HW236594   0.483   2.985   2.487 -0.0318  1.6267  0.4071
 8378SOL     OW36595   1.655   3.697   3.807  0.3562 -0.0508 -0.1084
 8378SOL    HW136596   1.742   3.664   3.829 -0.5233  0.2089  3.6325
 8378SOL    HW236597   1.669   3.759   3.735  0.9078  0.7184  0.6513
 8379SOL     OW36598   4.172   4.255   5.726 -0.3238  0.3232 -0.3354
 8379SOL    HW136599   4.213   4.194   5.787 -1.4352 -0.3734 -0.2916
 8379SOL    HW236600   4.130   4.318   5.784 -2.2951 -1.5177  0.2266
 8380SOL     OW36601   4.047   4.174   8.851  0.2968  0.1143 -0.1973
 8380SOL    HW136602   3.987   4.213   8.788 -1.8022 -2.0888  0.4229
 8380SOL    HW236603   4.025   4.231   8.925  3.0325  0.7480  0.1579
 8381SOL     OW36604   0.805   0.993   1.249 -0.5191  0.4145 -0.5375
 8381SOL    HW136605   0.885   1.017   1.202  0.3254  0.3988  0.8670
 8381SOL    HW236606   0.748   1.069   1.256 -1.8533 -0.6182  0.0507
 8382SOL     OW36607   4.482   0.489  10.249 -0.2055 -0.7041  0.2930
 8382SOL    HW136608   4.538   0.496  10.171  1.5610  0.1359  1.6334
 8382SOL    HW236609   4.521   0.415  10.297  1.3769  0.0034  0.1172
 8383SOL     OW36610   2.618   2.707  10.242 -0.0529 -0.1898  0.3505
 8383SOL    HW136611   2.705   2.745  10.256 -1.0752  2.3820 -0.1156
 8383SOL    HW236612   2.559   2.783  10.244  0.0946  0.0540 -3.1595
 8384SOL     OW36613   1.093   1.448   1.415 -0.5652 -0.5269  0.5734
 8384SOL    HW136614   1.072   1.539   1.435  0.1402  0.1353 -1.7713
 8384SOL    HW236615   1.004   1.415   1.425  0.1110 -2.0580  1.5725
 8385SOL     OW36616   2.260   2.235   2.486  0.0161  0.5036 -0.2070
 8385SOL    HW136617   2.254   2.243   2.581  1.1289  0.8445 -0.1682
 8385SOL    HW236618   2.203   2.309   2.468 -1.9221 -1.7568 -3.4376
 8386SOL     OW36619   3.736   1.814   8.440  0.3926  0.4950  0.6726
 8386SOL    HW136620   3.749   1.733   8.489 -0.9176  0.1081  0.3969
 8386SOL    HW236621   3.658   1.856   8.477 -0.4741 -0.6708  0.1879
 8387SOL     OW36622   3.014   0.975   8.396 -0.2033 -0.1957  0.5003
 8387SOL    HW136623   2.982   0.984   8.486 -1.0495  0.8858  0.0825
 8387SOL    HW236624   3.008   1.066   8.368 -1.6390 -0.4610 -0.0581
 8388SOL     OW36625   1.368   1.571   5.996 -0.1352 -0.7982 -0.1223
 8388SOL    HW136626   1.376   1.620   6.078 -0.9099  0.8416 -1.0028
 8388SOL    HW236627   1.327   1.636   5.939  2.2323  0.6460 -0.1772
 8389SOL     OW36628   0.006   1.930  13.301 -0.4793  0.0975  0.1571
 8389SOL    HW136629   0.002   1.835  13.288  0.6870 -0.1055  1.2762
 8389SOL    HW236630   4.639   1.943  13.330  0.2276  1.0136  1.9701
 8390SOL     OW36631   3.871   3.784  10.375  0.2367 -0.0359  0.3113
 8390SOL    HW136632   3.946   3.733  10.406  1.4796  2.0849  0.7790
 8390SOL    HW236633   3.904   3.873  10.365  2.6950 -1.0656 -0.8548
 8391SOL     OW36634   3.474   2.311   6.947  0.0950  0.4053 -0.2881
 8391SOL    HW136635   3.498   2.255   6.873 -0.0864 -1.6976  1.2688
 8391SOL    HW236636   3.550   2.370   6.949  0.9205 -0.7208  1.0622
 8392SOL     OW36637   3.622   1.177   8.080 -0.5639 -0.3138  0.0654
 8392SOL    HW136638   3.678   1.186   8.003 -0.9762 -1.4072 -0.3606
 8392SOL    HW236639   3.591   1.087   8.071 -0.0855 -0.4941  0.2324
 8393SOL     OW36640   0.131   1.769   7.375  0.0455 -0.4386 -0.2388
 8393SOL    HW136641   0.127   1.864   7.363 -3.3976 -1.0536 -4.1932
 8393SOL    HW236642   0.158   1.759   7.466  2.9387 -2.0534 -1.2954
 8394SOL     OW36643   4.278   1.659   1.025  0.1284 -0.2434 -0.3341
 8394SOL    HW136644   4.285   1.568   1.052  0.4752  0.1948  1.0975
 8394SOL    HW236645   4.363   1.677   0.986 -0.5721  1.2979 -1.1620
 8395SOL     OW36646   2.308   0.307   2.440  0.1177  1.0940  0.0408
 8395SOL    HW136647   2.394   0.342   2.415  0.6308  0.3337  0.7387
 8395SOL    HW236648   2.268   0.302   2.353 -1.1524 -1.8557  0.7931
 8396SOL     OW36649   2.370   0.437   0.285 -0.4259  0.1481  0.2486
 8396SOL    HW136650   2.334   0.350   0.270 -2.8342  1.4238 -1.3652
 8396SOL    HW236651   2.338   0.478   0.205 -0.9842  0.3262  0.5617
 8397SOL     OW36652   0.522   0.742   0.644  0.0914 -0.1798  0.0149
 8397SOL    HW136653   0.559   0.764   0.558  0.2538  1.1314  0.4198
 8397SOL    HW236654   0.480   0.826   0.664  1.0638  0.6445 -1.3911
 8398SOL     OW36655   1.430   0.881   8.004  0.3067  0.5345 -0.2726
 8398SOL    HW136656   1.361   0.880   8.071  1.5164  0.6361  0.9731
 8398SOL    HW236657   1.509   0.923   8.039  2.4715 -2.4514 -1.6244
 8399SOL     OW36658   1.516   1.920   6.933  0.0592  0.4938  0.3586
 8399SOL    HW136659   1.444   1.900   6.993 -0.6040  0.3527 -0.4951
 8399SOL    HW236660   1.535   1.833   6.896 -0.4763  0.7119 -0.4255
 8400SOL     OW36661   0.206   3.927   8.497  0.4174  0.0251  0.3349
 8400SOL    HW136662   0.214   3.884   8.582 -1.6244  2.7542  1.8930
 8400SOL    HW236663   0.298   3.950   8.482  0.8275 -1.4474  0.5524
 8401SOL     OW36664   0.023   3.409   4.566  0.4603 -0.4945 -0.4866
 8401SOL    HW136665   4.671   3.459   4.532  1.2936  1.5966  0.7225
 8401SOL    HW236666   0.045   3.345   4.498 -1.4884 -2.0190  0.3294
 8402SOL     OW36667   1.011   3.703   6.055 -0.3368  0.0991  0.3920
 8402SOL    HW136668   0.960   3.668   5.982 -0.5242  3.0085 -0.9039
 8402SOL    HW236669   1.067   3.629   6.075  1.1927  1.1184 -0.0524
 8403SOL     OW36670   2.173   4.279   7.880 -0.4153  0.3331  0.3523
 8403SOL    HW136671   2.266   4.291   7.860 -1.0253  3.3486 -0.6718
 8403SOL    HW236672   2.146   4.210   7.821 -1.0501  1.9009 -1.1808
 8404SOL     OW36673   2.603   1.809   6.550 -0.2660  0.4621  0.0972
 8404SOL    HW136674   2.551   1.843   6.623  1.2039 -0.9264  1.7821
 8404SOL    HW236675   2.573   1.719   6.550  1.9277 -0.2802 -0.5081
 8405SOL     OW36676   0.156   2.524   8.788 -0.4752  0.1141 -0.1730
 8405SOL    HW136677   0.091   2.454   8.790 -1.2413  0.7860 -1.5037
 8405SOL    HW236678   0.229   2.465   8.803 -1.0676 -0.2350  1.3272
 8406SOL     OW36679   3.679   4.485   6.408  0.3819  0.0036  0.4633
 8406SOL    HW136680   3.695   4.441   6.491  0.0853  1.7339  1.4425
 8406SOL    HW236681   3.747   4.552   6.411 -2.0615  2.5229  0.0041
 8407SOL     OW36682   1.606   2.888   1.324  0.5114  0.7098 -0.3735
 8407SOL    HW136683   1.537   2.934   1.275 -0.3925  0.0079  0.2356
 8407SOL    HW236684   1.612   2.803   1.280 -1.6694  0.5822 -0.4626
 8408SOL     OW36685   3.123   3.381  11.389  0.1165  0.3432  0.1240
 8408SOL    HW136686   3.203   3.433  11.377 -0.1351  0.8913  0.8008
 8408SOL    HW236687   3.162   3.294  11.396 -1.0073 -0.2370 -0.8105
 8409SOL     OW36688   1.370   4.377   6.890  0.1097 -0.6273  0.5679
 8409SOL    HW136689   1.455   4.348   6.856  0.8326  0.9755  1.0257
 8409SOL    HW236690   1.395   4.403   6.978 -1.3125  1.0709  0.4765
 8410SOL     OW36691   1.825   0.006   6.723 -0.6338 -0.0572 -0.1601
 8410SOL    HW136692   1.777   4.654   6.687 -0.7942  0.1113 -0.3024
 8410SOL    HW236693   1.906   4.680   6.718 -2.1048 -2.3904 -1.3065
 8411SOL     OW36694   2.505   3.181   8.036 -0.7389  0.4394  0.4657
 8411SOL    HW136695   2.552   3.168   8.119 -4.3131 -0.1131  2.4480
 8411SOL    HW236696   2.487   3.088   8.024  0.1169  0.2619  0.5405
 8412SOL     OW36697   1.681   0.999  16.904 -0.4233 -0.5800  0.6306
 8412SOL    HW136698   1.734   1.037  16.834  1.6156 -4.7010 -0.0463
 8412SOL    HW236699   1.703   0.910  16.878  0.5562 -0.3464  0.6518
 8413SOL     OW36700   4.136   3.706   4.664  0.7090 -0.3771 -0.0376
 8413SOL    HW136701   4.228   3.726   4.679  0.5227  0.1978  0.3149
 8413SOL    HW236702   4.130   3.683   4.571  3.0424 -1.5923  0.1121
 8414SOL     OW36703   3.704   4.043  17.429  0.4679  0.3845  0.0834
 8414SOL    HW136704   3.728   4.127  17.389 -0.6392  1.0606  0.8324
 8414SOL    HW236705   3.617   4.020  17.396  0.1513 -0.3065  1.3887
 8415SOL     OW36706   1.533   3.728   6.405  0.6544 -0.1125  0.8186
 8415SOL    HW136707   1.536   3.635   6.430 -0.6721 -0.8329 -1.6994
 8415SOL    HW236708   1.557   3.764   6.490 -0.1572  0.3131  0.8637
 8416SOL     OW36709   0.246   3.804   1.392  0.1199  0.0604 -0.0651
 8416SOL    HW136710   0.292   3.884   1.366 -0.6335  0.8683  1.0938
 8416SOL    HW236711   0.314   3.763   1.445  1.0282  1.0588 -0.4534
 8417SOL     OW36712   1.617   0.914   9.868 -0.4515 -0.5017  0.1347
 8417SOL    HW136713   1.609   1.010   9.863  1.3352 -0.3387  0.5530
 8417SOL    HW236714   1.594   0.891   9.958  0.9437 -0.0931  0.5939
 8418SOL     OW36715   0.212   4.670   5.687  0.5722  0.1397 -0.5249
 8418SOL    HW136716   0.269   4.615   5.633  0.4483  0.7053 -1.2168
 8418SOL    HW236717   0.260   0.030   5.690  2.2461 -0.8018 -0.9043
 8419SOL     OW36718   3.670   1.700   1.837 -0.2131 -0.4242 -0.1423
 8419SOL    HW136719   3.678   1.782   1.789  0.4948 -0.8476 -0.7578
 8419SOL    HW236720   3.578   1.689   1.817  0.0179 -0.4695 -1.1685
 8420SOL     OW36721   3.165   0.444   2.477 -0.5028 -0.2958  0.2321
 8420SOL    HW136722   3.230   0.383   2.442  0.8671  0.3689  1.5976
 8420SOL    HW236723   3.172   0.422   2.569  0.3663  0.6506  0.3911
 8421SOL     OW36724   0.451   4.559   4.861  0.1768 -0.4011 -0.2765
 8421SOL    HW136725   0.379   4.513   4.905  0.8056 -0.6477  0.5101
 8421SOL    HW236726   0.405   4.623   4.807 -0.8998  1.6468  3.0322
 8422SOL     OW36727   2.459   0.204   8.607 -0.4744  0.7638 -0.0736
 8422SOL    HW136728   2.549   0.238   8.600  0.2002 -1.0439 -0.1640
 8422SOL    HW236729   2.419   0.250   8.534  3.3036 -0.4150 -2.8992
 8423SOL     OW36730   4.123   0.793   4.991  0.2859 -0.3037  0.1181
 8423SOL    HW136731   4.083   0.836   4.915  0.7569  2.0187  1.1766
 8423SOL    HW236732   4.216   0.806   4.972  0.3065  1.2926  1.3870
 8424SOL     OW36733   1.383   3.438   0.429 -0.3688 -0.7330  0.1861
 8424SOL    HW136734   1.403   3.362   0.375 -2.7517 -1.1426 -0.0992
 8424SOL    HW236735   1.354   3.498   0.360  2.3119  0.7294  0.3292
 8425SOL     OW36736   1.300   0.400   0.954  0.1205  0.2855  0.7834
 8425SOL    HW136737   1.317   0.309   0.928 -0.9528  0.4515 -0.5125
 8425SOL    HW236738   1.274   0.399   1.046 -0.5142  0.3531  0.5988
 8426SOL     OW36739   0.690   1.373   2.339 -0.1038  0.4913 -0.4412
 8426SOL    HW136740   0.671   1.449   2.395 -0.4963 -0.6631  1.0113
 8426SOL    HW236741   0.735   1.322   2.406  0.9141  2.6761  0.5430
 8427SOL     OW36742   4.562   4.316   6.583 -0.3440 -0.1197  0.2797
 8427SOL    HW136743   4.602   4.231   6.562 -1.1189 -0.2491 -0.6656
 8427SOL    HW236744   4.593   4.360   6.505 -1.5502  1.2533  0.5754
 8428SOL     OW36745   2.345   2.262   6.495 -0.1070 -0.4318 -0.4311
 8428SOL    HW136746   2.306   2.190   6.446 -3.4055  0.5765  0.6808
 8428SOL    HW236747   2.269   2.308   6.531  2.0972  0.4965  3.0650
 8429SOL     OW36748   3.752   2.837   1.176  0.3625 -0.0274 -0.6743
 8429SOL    HW136749   3.776   2.900   1.243  1.4044 -0.6670 -0.4522
 8429SOL    HW236750   3.824   2.833   1.113  0.5931  0.0249 -0.4130
 8430SOL     OW36751   1.411   0.986  10.339  0.0724  0.0913  0.1460
 8430SOL    HW136752   1.435   0.968  10.430 -1.8078  0.3071  0.6916
 8430SOL    HW236753   1.353   0.911  10.323  0.5711 -0.8134  2.5781
 8431SOL     OW36754   4.713   1.112   4.997  0.6671  0.0259  0.2121
 8431SOL    HW136755   4.623   1.142   4.987  0.3610 -0.4931  1.5380
 8431SOL    HW236756   0.035   1.194   4.978  0.9047 -0.4874 -1.4514
 8432SOL     OW36757   0.269   0.759   1.517  0.0740  0.0725 -0.1967
 8432SOL    HW136758   0.258   0.772   1.611  0.0581  0.4644 -0.2538
 8432SOL    HW236759   0.200   0.696   1.497 -0.6406  0.7454  0.1660
 8433SOL     OW36760   1.079   4.197  10.959 -0.0025  0.3136 -0.2251
 8433SOL    HW136761   1.129   4.116  10.966  2.6610  1.6153 -3.9611
 8433SOL    HW236762   1.140   4.261  10.996 -0.6741 -0.8090  2.7881
 8434SOL     OW36763   2.256   2.470  13.123  0.3099  0.2694 -0.4164
 8434SOL    HW136764   2.220   2.419  13.195 -0.9077  1.2002 -0.3563
 8434SOL    HW236765   2.184   2.469  13.060  1.0728 -2.1116 -1.2285
 8435SOL     OW36766   2.404   2.660  12.211 -0.3487 -0.4844 -0.6150
 8435SOL    HW136767   2.423   2.691  12.299  0.6763  0.6958 -1.2519
 8435SOL    HW236768   2.497   2.651  12.189  0.1849  0.3569  1.3527
 8436SOL     OW36769   1.604   2.067   3.254  0.2720  0.2243  1.0050
 8436SOL    HW136770   1.651   1.984   3.262  0.8184  0.3717 -0.5716
 8436SOL    HW236771   1.619   2.102   3.166  0.9582 -2.6606 -0.0313
 8437SOL     OW36772   3.767   4.041   6.158 -0.1039  0.1623 -0.0599
 8437SOL    HW136773   3.854   4.079   6.154  0.2374 -0.6067  0.0691
 8437SOL    HW236774   3.718   4.119   6.184 -0.7949  0.2055 -1.4863
 8438SOL     OW36775   0.224   3.008   8.521 -0.5279 -0.0746  0.2514
 8438SOL    HW136776   0.142   3.009   8.571 -1.6156  0.5601 -1.5315
 8438SOL    HW236777   0.269   3.081   8.563  0.5882 -0.2842 -0.5744
 8439SOL     OW36778   3.492   4.465   7.653  0.4075 -0.9224 -0.3059
 8439SOL    HW136779   3.436   4.498   7.582 -0.0091 -1.9876 -0.4668
 8439SOL    HW236780   3.576   4.453   7.609  1.1821  1.8565  0.4357
 8440SOL     OW36781   0.508   2.453   8.363  0.1780 -0.1924 -0.5792
 8440SOL    HW136782   0.586   2.502   8.391 -0.2902  0.7986 -0.9879
 8440SOL    HW236783   0.465   2.455   8.448 -1.5280  0.9949 -1.4676
 8441SOL     OW36784   1.478   2.127   2.382  0.8945  0.0050 -0.5980
 8441SOL    HW136785   1.392   2.158   2.354  0.7176  1.2589  1.4166
 8441SOL    HW236786   1.540   2.197   2.363  0.0056  0.9921  0.1505
 8442SOL     OW36787   3.745   0.737   0.727 -0.2702  0.2443  0.7853
 8442SOL    HW136788   3.730   0.807   0.790 -2.7790  1.1358 -0.7871
 8442SOL    HW236789   3.686   0.760   0.655  2.0130  2.5640 -0.3148
 8443SOL     OW36790   4.077   2.985   1.974  0.7547  0.6799  0.0168
 8443SOL    HW136791   4.095   3.010   1.884  0.1710 -2.0195 -0.8463
 8443SOL    HW236792   3.988   2.950   1.969  0.9432  0.1382  0.4203
 8444SOL     OW36793   4.335   4.364   2.430 -0.2899 -0.1686  0.6228
 8444SOL    HW136794   4.343   4.458   2.414 -0.7358 -0.3287 -0.5498
 8444SOL    HW236795   4.389   4.315   2.368  0.0451  0.0811  0.7168
 8445SOL     OW36796   3.500   3.948   6.845  0.5659 -0.4955 -0.1872
 8445SOL    HW136797   3.427   4.002   6.876 -0.0502 -0.4384 -1.7485
 8445SOL    HW236798   3.523   3.889   6.917  0.9067  0.8370  0.7850
 8446SOL     OW36799   1.382   1.971   8.186 -0.3229  0.6246  0.8367
 8446SOL    HW136800   1.347   1.971   8.275  0.1314 -1.4891  1.0167
 8446SOL    HW236801   1.448   1.902   8.184  0.8634  1.7619  0.9606
 8447SOL     OW36802   2.824   4.572   5.781  0.1100  0.3677  0.6793
 8447SOL    HW136803   2.789   4.635   5.845 -0.7294  0.9779 -0.3834
 8447SOL    HW236804   2.863   4.627   5.714 -1.1632  1.5941  0.9214
 8448SOL     OW36805   2.797   1.164  16.496  0.2720 -0.5067  0.6891
 8448SOL    HW136806   2.787   1.141  16.404  0.2295 -1.7197  0.9903
 8448SOL    HW236807   2.806   1.259  16.496 -1.2507 -0.3764 -1.5352
 8449SOL     OW36808   1.065   0.693  12.225  0.8718 -0.0373 -0.2748
 8449SOL    HW136809   1.139   0.685  12.166  0.3262 -1.4531 -0.7586
 8449SOL    HW236810   1.106   0.684  12.311  2.4285 -0.7736 -1.1010
 8450SOL     OW36811   1.031   3.324   5.953  0.1040 -0.1070 -0.6200
 8450SOL    HW136812   1.090   3.306   6.026  0.2098 -2.0929 -1.2020
 8450SOL    HW236813   1.094   3.347   5.884 -1.1873  0.5888 -1.5770
 8451SOL     OW36814   2.222   0.421   0.921  0.1225  0.2712 -0.3357
 8451SOL    HW136815   2.212   0.440   0.828 -2.6540  1.5005  0.2165
 8451SOL    HW236816   2.154   0.480   0.954  0.4171 -0.2621  1.2557
 8452SOL     OW36817   4.418   4.165   4.714 -0.0417 -0.5286  0.6042
 8452SOL    HW136818   4.325   4.146   4.722 -0.3473  1.5483  1.9102
 8452SOL    HW236819   4.421   4.258   4.734  2.1641 -0.0048 -2.1159
 8453SOL     OW36820   1.130   2.840   1.361  0.3943  0.3486 -0.0445
 8453SOL    HW136821   1.171   2.756   1.339  1.5383  0.4955  1.5283
 8453SOL    HW236822   1.201   2.903   1.371  1.5719 -0.7517 -1.4561
 8454SOL     OW36823   3.175   3.149   3.003 -0.5447  0.2567 -0.2080
 8454SOL    HW136824   3.096   3.200   2.985 -0.2792  1.2903  1.5733
 8454SOL    HW236825   3.161   3.081   2.937  1.8267  0.8100 -1.2943
 8455SOL     OW36826   1.346   0.131   0.881  0.0584  0.3050  0.6049
 8455SOL    HW136827   1.400   0.069   0.832 -1.6767  0.2171 -1.1939
 8455SOL    HW236828   1.331   0.078   0.960 -1.4885  0.5709  0.4857
 8456SOL     OW36829   1.385   3.304   6.848 -0.3789 -0.1140  0.0093
 8456SOL    HW136830   1.361   3.225   6.800 -1.2495  0.0482  0.1720
 8456SOL    HW236831   1.468   3.274   6.885 -0.1222  0.3004 -0.2314
 8457SOL     OW36832   3.989   1.330   9.701  0.0968  0.0061  0.1976
 8457SOL    HW136833   3.900   1.303   9.724  0.7790 -1.4317  1.1237
 8457SOL    HW236834   3.969   1.335   9.607 -2.2925  2.7540  0.8325
 8458SOL     OW36835   1.098   3.930   2.230 -0.1090  0.8518  0.4646
 8458SOL    HW136836   1.105   4.023   2.251 -0.7800  0.9413  0.3139
 8458SOL    HW236837   1.146   3.929   2.147 -1.5178 -1.6578 -0.3267
 8459SOL     OW36838   3.254   2.505  11.515 -0.5094  0.9281 -0.3897
 8459SOL    HW136839   3.317   2.445  11.555 -0.7996  1.3074  0.6537
 8459SOL    HW236840   3.254   2.488  11.421 -3.3695  0.2386 -0.2778
 8460SOL     OW36841   2.609   2.135  13.122  0.3957 -0.1333 -0.1014
 8460SOL    HW136842   2.644   2.211  13.076 -0.9858 -0.2920 -1.4148
 8460SOL    HW236843   2.689   2.120  13.173  2.4700  2.8456 -2.5247
 8461SOL     OW36844   1.862   3.125   7.578 -0.0754 -0.6462 -0.4200
 8461SOL    HW136845   1.802   3.051   7.588 -0.7697 -0.4006 -2.9515
 8461SOL    HW236846   1.808   3.203   7.571 -0.4172 -0.9991 -1.6768
 8462SOL     OW36847   0.874   2.961   3.073 -0.3520 -0.4621  0.0034
 8462SOL    HW136848   0.883   3.037   3.015  0.2437  0.5314  1.3779
 8462SOL    HW236849   0.966   2.945   3.092  0.6206  0.7157 -3.8627
 8463SOL     OW36850   0.549   3.069  15.485 -0.3999  0.5916  0.4003
 8463SOL    HW136851   0.632   3.095  15.525  0.1685  1.1889 -1.1797
 8463SOL    HW236852   0.558   2.974  15.480  0.4534  0.6347  1.0317
 8464SOL     OW36853   4.427   2.304   0.378 -0.8414  0.0556  0.3337
 8464SOL    HW136854   4.425   2.296   0.282  1.9026 -1.2709  0.4017
 8464SOL    HW236855   4.446   2.396   0.394  1.9763 -0.1049 -2.0629
 8465SOL     OW36856   4.569   0.259   2.987 -0.1112  0.4954 -0.5579
 8465SOL    HW136857   4.575   0.263   2.892 -1.6571 -2.4378 -0.7824
 8465SOL    HW236858   4.479   0.285   3.009 -0.3435 -1.2472  0.5289
 8466SOL     OW36859   0.494   0.343   1.048  0.5296  0.4379  0.2586
 8466SOL    HW136860   0.427   0.282   1.079 -0.2969 -0.4767 -3.3195
 8466SOL    HW236861   0.575   0.293   1.057  1.5379  2.0172 -0.0853
 8467SOL     OW36862   2.497   1.869   3.683  0.0607  0.4006  0.0292
 8467SOL    HW136863   2.508   1.934   3.753 -1.6253  1.9591 -1.1424
 8467SOL    HW236864   2.508   1.799   3.747  1.8909  0.8781  0.2469
 8468SOL     OW36865   0.507   0.713   7.646  0.3094  0.2013 -0.0096
 8468SOL    HW136866   0.453   0.719   7.725 -1.0570  0.1284 -0.9482
 8468SOL    HW236867   0.490   0.622   7.623  0.2919  0.2103 -0.0332
 8469SOL     OW36868   1.518   0.391   7.384 -0.2156  0.1580  0.1475
 8469SOL    HW136869   1.546   0.331   7.315 -1.9449 -0.1914 -0.2367
 8469SOL    HW236870   1.491   0.346   7.464 -2.8905  0.1137 -0.7763
 8470SOL     OW36871   3.020   3.059   6.543 -0.1521 -0.5026  0.1234
 8470SOL    HW136872   3.109   3.025   6.530 -0.2301 -0.7991  0.3664
 8470SOL    HW236873   3.049   3.150   6.551  0.8260 -0.6051 -2.2738
 8471SOL     OW36874   1.988   1.995   7.311  0.1309 -0.0004 -0.6078
 8471SOL    HW136875   2.009   1.956   7.226 -1.8381 -1.1871 -0.5377
 8471SOL    HW236876   2.046   1.941   7.365  2.0391  2.8620  0.2226
 8472SOL     OW36877   1.924   4.696  13.116 -0.3839 -0.3323 -0.2718
 8472SOL    HW136878   1.920   4.622  13.055  1.0046 -0.3631 -0.3240
 8472SOL    HW236879   1.956   4.656  13.196 -0.6829 -0.9307 -0.4501
 8473SOL     OW36880   2.763   2.026   6.476 -0.5425 -0.2102  0.3285
 8473SOL    HW136881   2.760   2.079   6.555 -0.5015  0.6167 -0.2281
 8473SOL    HW236882   2.719   1.944   6.501  0.5576 -0.9560 -0.1626
 8474SOL     OW36883   3.513   1.188   2.994 -0.4762 -0.1360 -0.4478
 8474SOL    HW136884   3.491   1.279   2.973 -1.4693 -0.1083  0.7027
 8474SOL    HW236885   3.562   1.198   3.075 -0.8727 -0.1277 -0.2080
 8475SOL     OW36886   1.467   2.871   4.451  0.1556  0.4022 -0.0101
 8475SOL    HW136887   1.376   2.865   4.478 -0.4164  2.7501 -1.4231
 8475SOL    HW236888   1.487   2.777   4.447 -1.7758  0.0718 -1.7102
 8476SOL     OW36889   3.811   1.247   6.953 -0.1596  0.0698  0.1231
 8476SOL    HW136890   3.756   1.175   6.924 -0.7311  0.5945 -0.1077
 8476SOL    HW236891   3.777   1.317   6.898 -0.4420 -0.2288 -0.0793
 8477SOL     OW36892   0.074   1.585   2.586  0.2287  0.0617 -0.2380
 8477SOL    HW136893   0.107   1.673   2.568  0.6447 -0.3566 -1.4355
 8477SOL    HW236894   4.709   1.577   2.549  0.4652  1.4562 -1.0905
 8478SOL     OW36895   2.033   3.618   4.126 -0.0294 -0.0946  0.0835
 8478SOL    HW136896   2.086   3.540   4.112  0.5179 -0.2019  2.7135
 8478SOL    HW236897   1.987   3.584   4.203  0.9728 -1.5727  0.0244
 8479SOL     OW36898   0.495   3.257  12.775 -0.0824  0.0452 -0.4176
 8479SOL    HW136899   0.546   3.317  12.721  0.3502 -0.1124 -0.1804
 8479SOL    HW236900   0.490   3.183  12.714  0.9861  1.2535 -1.9604
 8480SOL     OW36901   0.079   1.184  10.286  0.0444 -0.0095 -0.1715
 8480SOL    HW136902   0.010   1.182  10.353 -2.0565  1.4688 -2.3068
 8480SOL    HW236903   0.085   1.090  10.273 -0.0018  0.2860 -2.2779
 8481SOL     OW36904   2.234   2.820   4.278  0.2206  0.3546 -0.0914
 8481SOL    HW136905   2.223   2.828   4.183 -0.0588  0.7330 -0.0308
 8481SOL    HW236906   2.212   2.729   4.298  1.5289 -0.0528 -0.5136
 8482SOL     OW36907   3.484   1.120   3.824  0.0654 -0.4522 -0.4375
 8482SOL    HW136908   3.439   1.166   3.753  0.0809 -0.0992 -0.2155
 8482SOL    HW236909   3.424   1.046   3.835 -0.9273  0.4371  0.1006
 8483SOL     OW36910   3.513   0.217   0.227  0.3823 -0.6438 -0.2268
 8483SOL    HW136911   3.466   0.263   0.298  1.0094  0.3425 -0.4453
 8483SOL    HW236912   3.445   0.199   0.162 -0.3128  1.6438 -0.1386
 8484SOL     OW36913   3.294   0.250   7.882 -0.3031 -0.9332  0.3797
 8484SOL    HW136914   3.290   0.216   7.792  1.0340  0.2557 -0.1230
 8484SOL    HW236915   3.203   0.275   7.899 -0.5051 -2.1087  1.0477
 8485SOL     OW36916   0.837   4.084  11.661  0.7594  0.0576 -0.1989
 8485SOL    HW136917   0.773   4.089  11.590 -0.0954 -0.4672  0.5457
 8485SOL    HW236918   0.911   4.043  11.616  1.5818  0.7036  0.5526
 8486SOL     OW36919   3.567   0.243   7.358 -0.2223  0.2549  0.3372
 8486SOL    HW136920   3.586   0.332   7.386  0.8364 -0.4814  1.9491
 8486SOL    HW236921   3.634   0.186   7.396  0.0599 -0.2965 -0.9999
 8487SOL     OW36922   2.673   0.902  13.795  0.6710  0.0213  0.6304
 8487SOL    HW136923   2.621   0.929  13.719 -1.1706  0.4102  2.0194
 8487SOL    HW236924   2.665   0.983  13.845  0.3126  0.5576 -0.2887
 8488SOL     OW36925   2.072   4.286   7.559  0.4141 -0.1958  0.2237
 8488SOL    HW136926   2.094   4.196   7.533  0.0056  0.0159 -0.8436
 8488SOL    HW236927   2.138   4.326   7.502  0.2940 -1.4406 -0.8092
 8489SOL     OW36928   2.503   3.203   2.180  0.1126 -0.5972 -0.5214
 8489SOL    HW136929   2.462   3.287   2.158 -1.8956 -1.8648 -1.5885
 8489SOL    HW236930   2.536   3.168   2.097  0.7659 -0.8496 -0.1563
 8490SOL     OW36931   4.584   1.158  10.430  0.6013  1.3428 -0.6297
 8490SOL    HW136932   4.527   1.091  10.392 -0.6958  0.9640  1.9520
 8490SOL    HW236933   4.629   1.107  10.498 -0.0114 -0.5223 -1.6391
 8491SOL     OW36934   4.354   0.030   3.354  0.0704  0.0633  0.1657
 8491SOL    HW136935   4.415   4.699   3.404  0.2183  0.0828  0.0039
 8491SOL    HW236936   4.403   0.111   3.341  2.0045 -1.0967  0.2825
 8492SOL     OW36937   2.254   1.178   3.427  0.8403 -0.5823 -0.6374
 8492SOL    HW136938   2.217   1.185   3.339 -2.6033  0.5055  0.9148
 8492SOL    HW236939   2.264   1.083   3.424  0.7051 -0.5875 -0.9797
 8493SOL     OW36940   4.378   2.659   9.181  0.0574  0.0216 -0.4787
 8493SOL    HW136941   4.345   2.679   9.093  0.8160  1.2202 -0.4923
 8493SOL    HW236942   4.444   2.727   9.195  0.5652  0.2987 -4.3245
 8494SOL     OW36943   4.444   1.929  15.688 -0.2177  0.5441 -0.6208
 8494SOL    HW136944   4.348   1.928  15.679 -0.4028 -3.8407  1.9520
 8494SOL    HW236945   4.455   1.916  15.594  1.2347 -1.4619 -0.1648
 8495SOL     OW36946   4.310   2.254   4.961  0.3032 -0.2029 -0.2752
 8495SOL    HW136947   4.362   2.312   4.906  0.5578  1.2437  1.5045
 8495SOL    HW236948   4.315   2.303   5.043  0.3903 -1.2011  0.3249
 8496SOL     OW36949   4.669   0.653   4.326 -0.0193  0.3120  0.5604
 8496SOL    HW136950   4.643   0.743   4.346  0.1530  0.2826  0.9174
 8496SOL    HW236951   4.628   0.605   4.399 -1.8933 -0.4288 -0.9712
 8497SOL     OW36952   4.149   1.182   1.841 -0.4527  0.5218 -0.2677
 8497SOL    HW136953   4.067   1.156   1.800 -0.8553 -1.0562  1.5243
 8497SOL    HW236954   4.126   1.173   1.934  0.1302 -2.1271 -0.3623
 8498SOL     OW36955   2.950   0.351   1.969 -0.8353  0.0804  0.1406
 8498SOL    HW136956   2.901   0.341   1.888 -1.1507  0.5876  0.2630
 8498SOL    HW236957   3.017   0.285   1.951 -0.5582  0.2280  0.6239
 8499SOL     OW36958   3.198   2.006  12.055 -0.2441 -0.0047 -0.2671
 8499SOL    HW136959   3.112   2.011  12.097  0.7830  0.8338  1.7494
 8499SOL    HW236960   3.243   2.086  12.083 -1.1910 -0.0400  1.3460
 8500SOL     OW36961   2.242   0.908   3.461  0.1856 -0.3833  0.4059
 8500SOL    HW136962   2.230   0.823   3.419  0.1282  0.1982 -0.7584
 8500SOL    HW236963   2.204   0.888   3.546 -1.4500  0.6501 -0.0886
 8501SOL     OW36964   0.739   3.653  14.466 -0.4681  0.0518 -0.2806
 8501SOL    HW136965   0.675   3.584  14.485 -0.6141 -0.5973 -3.0917
 8501SOL    HW236966   0.677   3.714  14.425 -0.3807  0.1113 -0.3221
 8502SOL     OW36967   0.385   0.570   3.778  0.0393  0.1786  0.1897
 8502SOL    HW136968   0.329   0.510   3.828  2.0435  0.1212  2.4251
 8502SOL    HW236969   0.469   0.541   3.814 -1.8684 -3.1124  2.0634
 8503SOL     OW36970   0.671   4.520   5.226 -0.1557 -0.0423 -0.1829
 8503SOL    HW136971   0.699   4.504   5.136 -0.2871  1.2389 -0.4468
 8503SOL    HW236972   0.726   4.451   5.263 -1.0371 -0.1154  1.0080
 8504SOL     OW36973   2.794   2.346   2.686 -0.0041 -0.1240  0.0671
 8504SOL    HW136974   2.745   2.267   2.665  0.2115  0.6725 -3.4459
 8504SOL    HW236975   2.848   2.355   2.607 -1.1553 -0.6032 -0.7840
 8505SOL     OW36976   0.243   4.178   1.827 -0.5341  0.8773 -0.7358
 8505SOL    HW136977   0.221   4.150   1.738 -1.5033 -3.2958  0.8160
 8505SOL    HW236978   0.273   4.101   1.875 -0.2010  0.2216 -2.0002
 8506SOL     OW36979   4.705   0.484   7.191  0.2017  0.2132 -0.4893
 8506SOL    HW136980   4.641   0.512   7.126 -0.4533 -0.0422  0.0426
 8506SOL    HW236981   4.650   0.481   7.270 -0.4982 -1.5370 -1.0418
 8507SOL     OW36982   3.600   2.912   9.034  0.3029 -0.3681  0.0376
 8507SOL    HW136983   3.544   2.961   8.973  2.2774 -0.1107 -1.5856
 8507SOL    HW236984   3.587   2.971   9.108  1.2142  0.2844 -0.3286
 8508SOL     OW36985   4.063   2.491   8.202 -0.2359  0.6161  0.0437
 8508SOL    HW136986   4.022   2.556   8.145  1.0680  0.7277 -0.7672
 8508SOL    HW236987   4.077   2.415   8.145  0.8873 -0.3965  1.6497
 8509SOL     OW36988   2.097   0.156   2.552  0.2301  0.0953 -0.0353
 8509SOL    HW136989   2.090   0.217   2.626  2.3424 -0.2832  0.4988
 8509SOL    HW236990   2.167   0.211   2.517  1.0724 -0.9991 -0.0765
 8510SOL     OW36991   1.523   0.650   0.882 -0.1298 -0.2627  0.7556
 8510SOL    HW136992   1.514   0.721   0.819 -1.7139 -1.1727 -0.0462
 8510SOL    HW236993   1.606   0.615   0.850  0.0078  0.8147 -0.0689
 8511SOL     OW36994   2.009   1.421   7.017 -0.4271 -0.5235 -0.1904
 8511SOL    HW136995   1.919   1.399   7.043 -0.4251  0.1452  0.3749
 8511SOL    HW236996   2.061   1.358   7.067 -0.1094  0.4495  0.7077
 8512SOL     OW36997   1.410   0.526   5.271 -0.1534 -0.4135  0.0770
 8512SOL    HW136998   1.480   0.578   5.313  1.5830 -1.9176 -0.9408
 8512SOL    HW236999   1.329   0.571   5.293 -0.4768 -1.2908  0.6659
 8513SOL     OW37000   2.234   1.250   7.853 -0.1862  0.1151 -0.0774
 8513SOL    HW137001   2.238   1.338   7.815  2.6039  0.0339  0.0403
 8513SOL    HW237002   2.252   1.270   7.944 -1.3403 -2.1611  0.6602
 8514SOL     OW37003   1.467   1.055   1.542  0.2545  0.3130 -0.1525
 8514SOL    HW137004   1.420   1.137   1.555 -0.8214 -0.3296  0.0322
 8514SOL    HW237005   1.410   0.992   1.587 -0.6889 -0.2287 -2.1125
 8515SOL     OW37006   3.961   2.448   2.274  0.2059 -0.0454  0.1584
 8515SOL    HW137007   4.020   2.394   2.222  0.4490 -1.9677  2.4356
 8515SOL    HW237008   3.977   2.536   2.240  2.0640 -0.5565 -0.2390
 8516SOL     OW37009   0.537   0.386   6.346  0.1039 -0.3826  0.4121
 8516SOL    HW137010   0.590   0.431   6.412 -0.3093  0.3163  0.2620
 8516SOL    HW237011   0.496   0.320   6.402 -0.9846 -0.4446 -0.4704
 8517SOL     OW37012   2.430   0.334   3.984  0.6223 -0.2406 -0.0776
 8517SOL    HW137013   2.456   0.416   4.025 -0.1157  0.1419 -0.3766
 8517SOL    HW237014   2.417   0.354   3.891 -0.7623 -0.7224  0.0070
 8518SOL     OW37015   3.127   1.336   9.673  0.0595  0.2060  0.6275
 8518SOL    HW137016   3.051   1.324   9.729 -0.5254 -0.8255 -0.3776
 8518SOL    HW237017   3.171   1.253   9.687  0.7596  0.9240  2.6878
 8519SOL     OW37018   2.557   1.091  10.427 -0.2400 -0.3658  0.1802
 8519SOL    HW137019   2.468   1.084  10.461 -0.7386 -0.6298 -1.1527
 8519SOL    HW237020   2.570   1.186  10.425 -1.4744 -0.2131 -1.6035
 8520SOL     OW37021   4.231   1.400   8.430 -0.4690 -0.0555  0.3850
 8520SOL    HW137022   4.136   1.391   8.428 -0.2313 -2.3600 -1.0546
 8520SOL    HW237023   4.237   1.431   8.520 -0.3235 -2.0272  1.0626
 8521SOL     OW37024   0.520   3.041  12.155 -0.2293 -0.6727 -0.2100
 8521SOL    HW137025   0.452   3.033  12.088 -0.4028  1.8482 -0.3033
 8521SOL    HW237026   0.557   3.121  12.119 -3.1149  1.1241  0.8610
 8522SOL     OW37027   4.198   3.040   3.870  0.4747  0.0168  0.0925
 8522SOL    HW137028   4.171   2.971   3.931  0.8649 -0.7621 -0.6209
 8522SOL    HW237029   4.262   2.982   3.828 -0.2243 -2.3906  2.3193
 8523SOL     OW37030   4.360   4.203   7.366 -0.2767  0.4677 -0.5001
 8523SOL    HW137031   4.418   4.137   7.326 -1.8488 -0.9036 -0.5355
 8523SOL    HW237032   4.418   4.273   7.394  1.9574 -1.2944 -0.6697
 8524SOL     OW37033   0.689   0.653   9.811  0.1030  0.3362  0.4228
 8524SOL    HW137034   0.682   0.562   9.783  0.4065  0.5613 -0.3781
 8524SOL    HW237035   0.597   0.679   9.813  0.4190  1.6336 -1.5455
 8525SOL     OW37036   1.561   1.791   7.665 -0.3306  0.6841 -0.2464
 8525SOL    HW137037   1.565   1.858   7.733  2.4760  0.1907  0.0842
 8525SOL    HW237038   1.496   1.834   7.609 -0.7629 -0.2225 -0.4403
 8526SOL     OW37039   4.429   1.276   4.753  0.3846  0.5304  0.4650
 8526SOL    HW137040   4.382   1.310   4.677 -0.3642  0.0886  0.7278
 8526SOL    HW237041   4.511   1.248   4.714  0.0073 -0.1575  0.1685
 8527SOL     OW37042   3.797   0.382  10.539 -0.5291  0.3100  0.2063
 8527SOL    HW137043   3.848   0.325  10.597  0.7131  0.4488 -0.7417
 8527SOL    HW237044   3.709   0.354  10.564 -0.7833  1.1844  0.2840
 8528SOL     OW37045   3.940   4.295  16.222  0.1427  0.2707  0.0574
 8528SOL    HW137046   3.853   4.273  16.189 -0.8525  0.8194  2.3297
 8528SOL    HW237047   3.973   4.207  16.235 -0.4736  0.1018  0.4628
 8529SOL     OW37048   0.942   3.147   8.245 -0.3350 -0.3037  0.0765
 8529SOL    HW137049   0.847   3.162   8.242 -0.4927 -1.7976 -2.2425
 8529SOL    HW237050   0.960   3.137   8.338 -0.8340 -1.0685  0.0959
 8530SOL     OW37051   3.111   2.639  13.608 -0.2479  0.2491 -0.1339
 8530SOL    HW137052   3.160   2.718  13.587  0.6831 -0.4954 -0.7709
 8530SOL    HW237053   3.103   2.598  13.521 -0.9527 -0.5912  0.3277
 8531SOL     OW37054   0.679   1.440  16.858  0.7639 -0.0645  0.1960
 8531SOL    HW137055   0.722   1.389  16.927  0.1323  1.5530  1.7768
 8531SOL    HW237056   0.622   1.367  16.833  0.5502  0.3330 -0.4921
 8532SOL     OW37057   1.366   4.085   5.687  0.1085 -0.3013 -0.0277
 8532SOL    HW137058   1.446   4.114   5.644  0.9306 -1.6466  0.5798
 8532SOL    HW237059   1.386   3.991   5.684  1.2184 -0.0296 -1.3547
 8533SOL     OW37060   2.198   1.636   1.018 -0.4358  0.0342  0.0487
 8533SOL    HW137061   2.128   1.633   0.953 -1.7207 -2.7549  1.5441
 8533SOL    HW237062   2.213   1.731   1.020  2.3322 -0.4199  1.0373
 8534SOL     OW37063   1.095   3.995  16.756 -0.4569 -0.5020  0.1214
 8534SOL    HW137064   1.049   3.967  16.836 -0.2153 -0.1110  0.3956
 8534SOL    HW237065   1.141   4.069  16.797 -0.6580 -0.5193  0.3757
 8535SOL     OW37066   2.168   0.460   6.316  0.4359 -0.5291  0.3900
 8535SOL    HW137067   2.154   0.401   6.390  0.3374  1.0706  1.6437
 8535SOL    HW237068   2.088   0.447   6.266  1.3837  1.7768 -1.7380
 8536SOL     OW37069   4.053   0.535   9.991 -0.0705  0.4257  0.0960
 8536SOL    HW137070   4.071   0.614  10.042  0.8338 -0.6304  1.4042
 8536SOL    HW237071   4.105   0.467  10.034 -0.9950 -0.3681 -0.0324
 8537SOL     OW37072   0.313   2.869  13.184  0.2347  0.1074 -0.1470
 8537SOL    HW137073   0.237   2.811  13.189 -0.6816  1.3147 -0.1604
 8537SOL    HW237074   0.284   2.937  13.245  0.0013  0.9360 -1.1827
 8538SOL     OW37075   2.930   0.368   5.002  0.1006  0.2568 -0.4157
 8538SOL    HW137076   2.940   0.338   5.092  0.1070 -0.3193 -0.6086
 8538SOL    HW237077   2.984   0.303   4.958 -0.2214  1.0333 -1.9666
 8539SOL     OW37078   3.727   4.411   1.399 -0.0581  0.5315 -0.3144
 8539SOL    HW137079   3.731   4.357   1.320 -3.0066  0.6528 -0.5563
 8539SOL    HW237080   3.741   4.343   1.464  0.0563  1.0134  0.1697
 8540SOL     OW37081   3.549   2.204  14.998 -0.2346 -0.6455  0.5685
 8540SOL    HW137082   3.461   2.237  15.017  0.9300  3.2932 -0.9173
 8540SOL    HW237083   3.594   2.210  15.082 -1.0426  0.9061  0.8923
 8541SOL     OW37084   1.211   3.970  11.547  0.4064 -0.6194 -0.0987
 8541SOL    HW137085   1.151   4.013  11.486 -0.4733 -1.0402  0.4821
 8541SOL    HW237086   1.297   3.995  11.512  1.1037 -1.2326  1.2042
 8542SOL     OW37087   1.577   2.292   8.420  0.3977  0.0099 -0.5421
 8542SOL    HW137088   1.649   2.282   8.482 -0.8278  1.2201  1.0965
 8542SOL    HW237089   1.537   2.374   8.448 -0.3114 -1.2762  2.2513
 8543SOL     OW37090   0.661   3.154   7.241 -0.2934 -0.1618 -0.0404
 8543SOL    HW137091   0.642   3.169   7.334 -0.4228  0.3106 -0.1406
 8543SOL    HW237092   0.703   3.069   7.244 -0.6833 -0.4352 -2.1438
 8544SOL     OW37093   2.280   4.241   1.792 -0.1733  0.1749 -0.5948
 8544SOL    HW137094   2.234   4.303   1.849  1.9006  0.8049  0.3980
 8544SOL    HW237095   2.230   4.267   1.715  0.9744  0.7705 -1.1511
 8545SOL     OW37096   2.810   2.973  17.269  0.2943  0.0951 -0.0687
 8545SOL    HW137097   2.904   2.965  17.280  0.2922  2.8718  2.0509
 8545SOL    HW237098   2.789   2.905  17.204 -1.2465  0.6172 -0.1324
 8546SOL     OW37099   0.241   4.077   5.677 -0.1346  0.4428  0.0360
 8546SOL    HW137100   0.212   4.146   5.736 -0.5715  0.0769  0.2532
 8546SOL    HW237101   0.159   4.029   5.668 -1.9905  3.7321 -0.5743
 8547SOL     OW37102   1.698   4.351  10.154  0.0658 -0.1380  0.2641
 8547SOL    HW137103   1.735   4.283  10.097 -1.8563 -1.0115  0.0832
 8547SOL    HW237104   1.606   4.326  10.145 -0.0170  1.6452 -3.6244
 8548SOL     OW37105   4.186   0.967   5.884  0.0335  0.2622  0.2744
 8548SOL    HW137106   4.268   0.938   5.845 -0.8803 -2.6519  0.4676
 8548SOL    HW237107   4.161   0.882   5.921  0.2731 -0.5799 -1.5297
 8549SOL     OW37108   0.016   0.252   5.366 -0.0707  0.4731  0.2401
 8549SOL    HW137109   0.051   0.186   5.306 -0.4390 -1.2109  1.8789
 8549SOL    HW237110   4.688   0.193   5.421 -0.1059  0.1356 -0.1561
 8550SOL     OW37111   0.930   0.554   8.039  0.2073 -0.1914  0.1702
 8550SOL    HW137112   0.877   0.548   7.959  0.5709 -0.3768 -0.0559
 8550SOL    HW237113   0.892   0.483   8.091 -0.4671  0.9815  1.2839
 8551SOL     OW37114   0.072   0.431   2.202 -0.3941  0.3184  0.2588
 8551SOL    HW137115   0.091   0.341   2.230 -1.0109 -1.0698 -3.7234
 8551SOL    HW237116   0.131   0.439   2.127 -0.0894  0.2951  0.4914
 8552SOL     OW37117   4.580   0.155   6.347  1.0601  0.1726 -0.2562
 8552SOL    HW137118   4.657   0.174   6.401  0.3720  0.6629  0.5512
 8552SOL    HW237119   4.593   0.193   6.261 -0.4538  0.8571 -0.1917
 8553SOL     OW37120   0.120   4.453   7.708 -0.2167  0.7207 -0.6429
 8553SOL    HW137121   0.136   4.366   7.742 -0.8325  0.9957  0.3439
 8553SOL    HW237122   0.199   4.450   7.654  0.4504  0.5552  0.3596
 8554SOL     OW37123   1.201   0.499   9.971 -0.2597  0.3989 -0.2084
 8554SOL    HW137124   1.168   0.585   9.998 -0.4143  0.4987 -0.7169
 8554SOL    HW237125   1.294   0.498   9.995  0.1287  1.9536 -1.6974
 8555SOL     OW37126   1.203   0.919   9.667  0.4003 -0.3645 -0.0608
 8555SOL    HW137127   1.122   0.893   9.712  1.0041  2.9366  2.9094
 8555SOL    HW237128   1.249   0.914   9.750  0.0598 -0.4158  0.1254
 8556SOL     OW37129   2.878   2.228   6.320  0.4071 -0.0788 -0.0758
 8556SOL    HW137130   2.898   2.286   6.393  2.1566 -0.7294 -0.0435
 8556SOL    HW237131   2.823   2.165   6.366 -0.2901  0.2917 -0.3939
 8557SOL     OW37132   0.351   0.285   6.522  0.1040 -0.0602  0.6330
 8557SOL    HW137133   0.313   0.198   6.525  0.8024 -0.4772 -2.2294
 8557SOL    HW237134   0.390   0.284   6.609 -0.2165 -1.9718  0.7449
 8558SOL     OW37135   0.350   2.788   0.008  0.2346  0.6225  0.1185
 8558SOL    HW137136   0.443   2.810   0.003  0.6746 -1.0329  1.0935
 8558SOL    HW237137   0.349   2.725   0.080 -0.9649 -1.5201 -1.7914
 8559SOL     OW37138   0.590   2.054   2.106 -0.3274  0.6428 -0.2908
 8559SOL    HW137139   0.673   2.047   2.059 -1.1237  2.5221 -1.9819
 8559SOL    HW237140   0.557   1.964   2.103  1.2437  0.0424  0.5557
 8560SOL     OW37141   2.613   0.990   7.978  0.4438  0.5628  0.5011
 8560SOL    HW137142   2.620   1.016   7.886  1.4994  0.1162  0.4571
 8560SOL    HW237143   2.696   0.946   7.997  0.8864  0.5985 -1.3229
 8561SOL     OW37144   2.821   4.249   6.849 -0.1181  0.2949 -0.1183
 8561SOL    HW137145   2.825   4.339   6.817  0.4153 -0.0589 -1.0557
 8561SOL    HW237146   2.905   4.233   6.894  0.6734  0.0830 -1.6898
 8562SOL     OW37147   4.026   0.612  11.917 -0.1957  0.0665  0.4959
 8562SOL    HW137148   3.976   0.686  11.951  0.0639 -0.4001  1.9005
 8562SOL    HW237149   4.112   0.622  11.959  1.5950 -1.7131 -2.7153
 8563SOL     OW37150   0.663   3.045   3.512 -0.0412 -0.2522  0.6018
 8563SOL    HW137151   0.639   2.958   3.544  0.2190 -0.0013  1.4881
 8563SOL    HW237152   0.652   3.094   3.594 -1.4907 -1.2370  0.9864
 8564SOL     OW37153   1.313   2.614  14.649  0.7878 -0.2093 -0.1086
 8564SOL    HW137154   1.372   2.547  14.615  0.7008  0.2923 -1.2639
 8564SOL    HW237155   1.229   2.567  14.647  0.9139 -0.3507 -2.2183
 8565SOL     OW37156   2.578   3.992   7.724  0.0278  0.1366 -0.0955
 8565SOL    HW137157   2.582   3.917   7.664 -3.9264 -0.7426  0.6891
 8565SOL    HW237158   2.515   3.957   7.787  2.3288 -0.7570  1.7180
 8566SOL     OW37159   4.337   0.662   8.508  0.7121  0.0024  0.2293
 8566SOL    HW137160   4.243   0.679   8.501  0.9476  1.2728  0.1895
 8566SOL    HW237161   4.378   0.747   8.525  0.9949  0.1405 -1.1793
 8567SOL     OW37162   1.718   2.644   5.996  0.0205  0.3362 -0.3018
 8567SOL    HW137163   1.665   2.721   6.017  0.3632  0.4182  0.2360
 8567SOL    HW237164   1.653   2.587   5.954  0.6868 -0.6132 -0.0509
 8568SOL     OW37165   3.913   1.570   8.093  0.0699  0.2135  0.3695
 8568SOL    HW137166   3.915   1.541   8.002 -1.1291  0.7928  0.1641
 8568SOL    HW237167   3.842   1.634   8.098  1.7908  2.1977 -0.5715
 8569SOL     OW37168   4.068   2.226   4.837 -0.0187  0.1191  0.4916
 8569SOL    HW137169   4.081   2.286   4.764  0.4678  1.1996  1.4738
 8569SOL    HW237170   4.152   2.219   4.882  0.8088 -0.3993 -1.1077
 8570SOL     OW37171   2.474   0.580   4.117 -0.6537 -0.1208 -0.6213
 8570SOL    HW137172   2.535   0.646   4.151 -0.4142 -0.2890 -0.7261
 8570SOL    HW237173   2.395   0.630   4.139 -0.7783 -0.8022  0.4861
 8571SOL     OW37174   4.547   2.411   7.655 -0.2496 -0.1786  0.0376
 8571SOL    HW137175   4.575   2.327   7.620  0.7442  0.0285  0.3336
 8571SOL    HW237176   4.491   2.378   7.726  0.0630 -0.8767 -0.0450
 8572SOL     OW37177   1.814   2.422   6.267  0.0096 -0.8641  0.1293
 8572SOL    HW137178   1.812   2.467   6.352 -0.1322  0.2420 -0.4484
 8572SOL    HW237179   1.737   2.366   6.279 -1.1687  1.1266  1.8508
 8573SOL     OW37180   4.587   2.694  12.662  0.5947 -0.1708  0.0111
 8573SOL    HW137181   4.531   2.638  12.716 -1.0705  0.6513 -0.8690
 8573SOL    HW237182   4.644   2.631  12.617 -0.7360 -0.1431 -1.6967
 8574SOL     OW37183   1.956   4.601  11.459 -0.7546 -0.3812  0.0894
 8574SOL    HW137184   2.017   4.556  11.399 -1.6704 -3.7347  1.6532
 8574SOL    HW237185   1.895   4.644  11.400 -1.4131  1.2286  1.9217
 8575SOL     OW37186   1.563   2.240   4.611 -0.7432 -0.0601 -0.5630
 8575SOL    HW137187   1.596   2.278   4.692 -1.3489 -0.8769  0.0628
 8575SOL    HW237188   1.512   2.176   4.661  1.5169 -0.8511  0.7076
 8576SOL     OW37189   0.822   0.182   2.740  0.4165 -0.0257 -0.2425
 8576SOL    HW137190   0.732   0.151   2.735 -0.3499  2.6660 -3.1094
 8576SOL    HW237191   0.852   0.115   2.802 -0.5350 -1.5617 -1.4296
 8577SOL     OW37192   3.823   2.096   9.026 -0.1137  0.0459 -0.5522
 8577SOL    HW137193   3.730   2.101   9.005 -0.0223 -0.8333 -1.1772
 8577SOL    HW237194   3.863   2.043   8.957  1.7847  1.4515 -0.5204
 8578SOL     OW37195   1.894   1.324   2.386 -0.3016 -0.1555  0.0926
 8578SOL    HW137196   1.987   1.328   2.361 -0.3737 -1.3030 -0.3675
 8578SOL    HW237197   1.850   1.330   2.301  1.4657 -0.1927 -0.8339
 8579SOL     OW37198   3.040   2.074   4.985  1.0448 -0.0976  0.1882
 8579SOL    HW137199   3.018   2.055   4.893  0.6691 -0.5738  0.3776
 8579SOL    HW237200   2.982   2.023   5.041  1.8213 -2.3271 -1.0290
 8580SOL     OW37201   4.051   1.078  13.119 -0.2824  0.0280 -0.2841
 8580SOL    HW137202   3.958   1.058  13.115 -0.0288 -1.0744 -0.8706
 8580SOL    HW237203   4.097   0.996  13.099  1.7871  0.4716  2.7504
 8581SOL     OW37204   4.718   0.551   0.970 -0.0490 -0.2283  0.2002
 8581SOL    HW137205   0.076   0.504   0.949 -0.8009 -0.2711 -2.6341
 8581SOL    HW237206   0.016   0.637   0.933  0.6877 -0.5831 -0.2141
 8582SOL     OW37207   0.527   0.735   1.413  0.1356  0.9244  0.0296
 8582SOL    HW137208   0.447   0.715   1.463 -0.3190  1.7158 -0.3857
 8582SOL    HW237209   0.511   0.670   1.344  1.3105 -0.4235  1.0250
 8583SOL     OW37210   1.579   0.736   8.740  0.4813  0.3442  0.0014
 8583SOL    HW137211   1.669   0.715   8.767  0.4289  0.6778  0.4203
 8583SOL    HW237212   1.531   0.711   8.818  2.7344  2.1792  1.9840
 8584SOL     OW37213   4.275   2.878   7.556 -0.0032  0.3015  0.3515
 8584SOL    HW137214   4.341   2.926   7.506  0.9126  0.1781  1.4596
 8584SOL    HW237215   4.321   2.841   7.631  0.8900  1.2709  0.2693
 8585SOL     OW37216   1.904   1.561  16.283  0.5813 -0.8099  0.1539
 8585SOL    HW137217   1.983   1.576  16.231  0.4742 -2.7552 -0.5794
 8585SOL    HW237218   1.875   1.478  16.244 -2.9742  1.3627 -1.8628
 8586SOL     OW37219   0.717   4.485  16.187 -0.4858  0.0405  0.1771
 8586SOL    HW137220   0.777   4.556  16.166  0.8079 -1.0579  0.1312
 8586SOL    HW237221   0.722   4.491  16.282 -1.9509  0.8028  0.2113
 8587SOL     OW37222   1.550   2.393  15.676  0.2082 -0.1101  0.1805
 8587SOL    HW137223   1.613   2.429  15.614 -0.3859  1.3560  0.4432
 8587SOL    HW237224   1.574   2.452  15.747  1.0061 -1.0020  0.6512
 8588SOL     OW37225   0.047   4.109   6.576  0.1523 -0.0709  0.1807
 8588SOL    HW137226   0.101   4.156   6.640  0.1821  0.4076 -0.1992
 8588SOL    HW237227   4.700   4.072   6.630 -1.1360  2.3663  0.2115
 8589SOL     OW37228   1.242   2.185  16.471 -0.2979 -0.0254 -0.6295
 8589SOL    HW137229   1.237   2.249  16.400  0.0386  2.5312  1.6663
 8589SOL    HW237230   1.148   2.192  16.488 -0.4667 -0.7920 -1.2199
 8590SOL     OW37231   2.080   2.284   4.508 -0.2163  0.1999 -0.9592
 8590SOL    HW137232   2.088   2.350   4.577  0.8444 -1.6909  0.7358
 8590SOL    HW237233   2.024   2.332   4.447 -0.2258 -0.2525 -1.3019
 8591SOL     OW37234   0.202   4.635   1.415  0.2915 -0.4608 -0.6562
 8591SOL    HW137235   0.107   4.645   1.406  0.2705  0.4627  0.7385
 8591SOL    HW237236   0.215   4.541   1.429 -2.3674 -0.7899 -0.3587
 8592SOL     OW37237   0.860   2.294   2.042  0.3845  0.2691 -0.0365
 8592SOL    HW137238   0.831   2.363   2.102 -0.1510 -0.0556  0.0851
 8592SOL    HW237239   0.854   2.222   2.105  0.9097  1.4531  1.3545
 8593SOL     OW37240   1.167   4.279   5.778 -0.2757 -0.2114  0.6434
 8593SOL    HW137241   1.135   4.317   5.696 -0.3445 -2.4372 -0.3688
 8593SOL    HW237242   1.205   4.195   5.752  0.0614 -0.3132  1.4727
 8594SOL     OW37243   3.874   1.346   3.718  0.1441 -0.0939  0.1671
 8594SOL    HW137244   3.818   1.415   3.679 -1.4785 -2.1645 -1.1653
 8594SOL    HW237245   3.811   1.289   3.761  0.4645  1.1133  2.2376
 8595SOL     OW37246   2.512   1.945   7.859 -0.4961  0.5690 -0.1851
 8595SOL    HW137247   2.435   1.992   7.826 -0.2215  0.3202 -1.1770
 8595SOL    HW237248   2.471   1.861   7.882 -0.4382  1.5488  3.3599
 8596SOL     OW37249   2.335   4.095   2.742 -0.1468  0.1574 -0.1692
 8596SOL    HW137250   2.262   4.058   2.691 -0.3117 -0.6410  0.6425
 8596SOL    HW237251   2.291   4.172   2.779  1.7695  1.2201 -0.1457
 8597SOL     OW37252   0.691   1.264   3.209  0.3394  0.4835 -0.5521
 8597SOL    HW137253   0.669   1.344   3.257 -0.4165 -0.5281  0.7779
 8597SOL    HW237254   0.620   1.269   3.145 -0.6535 -1.0592  0.4388
 8598SOL     OW37255   3.473   0.053  15.752 -0.1615  0.3471  0.4329
 8598SOL    HW137256   3.442   0.066  15.663  0.5748  1.6552  0.3708
 8598SOL    HW237257   3.511   4.688  15.750 -0.2589  0.3374 -1.1376
 8599SOL     OW37258   3.309   1.435  14.719 -0.1084 -0.4328 -0.2394
 8599SOL    HW137259   3.383   1.401  14.770 -0.0107  3.0400  1.8985
 8599SOL    HW237260   3.325   1.394  14.634  2.0755  3.6876 -1.7935
 8600SOL     OW37261   3.826   2.068   6.298 -0.0720 -0.1852  0.4143
 8600SOL    HW137262   3.897   2.106   6.247 -1.7435  1.4896 -0.6268
 8600SOL    HW237263   3.872   1.990   6.329 -0.1411  0.4714  2.1629
 8601SOL     OW37264   3.871   0.981   4.048  0.0454  0.2462 -0.5114
 8601SOL    HW137265   3.863   1.053   4.111  0.7498  0.6158 -0.8401
 8601SOL    HW237266   3.787   0.940   4.069 -0.5934  0.6172 -2.3145
 8602SOL     OW37267   3.081   1.623  15.137  0.2611 -0.4070 -0.4596
 8602SOL    HW137268   3.127   1.545  15.165  0.7694  0.2441  0.5366
 8602SOL    HW237269   3.111   1.632  15.047 -2.5101  1.5004 -1.2298
 8603SOL     OW37270   0.024   1.639   0.624 -0.4328  0.0111  0.1207
 8603SOL    HW137271   0.089   1.615   0.690 -2.8753 -0.5657  2.3080
 8603SOL    HW237272   0.043   1.580   0.551 -2.0673  0.4152 -0.6389
 8604SOL     OW37273   3.924   4.055   0.633  0.3317  0.1038  0.0743
 8604SOL    HW137274   3.877   4.068   0.715 -1.1163 -0.1627 -0.7065
 8604SOL    HW237275   3.938   3.961   0.646 -1.5043 -0.3027 -0.7485
 8605SOL     OW37276   2.072   0.409   3.157 -0.0036 -0.7259  0.4052
 8605SOL    HW137277   2.084   0.331   3.102  0.8890 -0.7240  0.6050
 8605SOL    HW237278   2.112   0.385   3.240  4.1755  0.6356 -1.2492
 8606SOL     OW37279   2.549   0.380   2.905  0.5276 -0.6775  0.3773
 8606SOL    HW137280   2.496   0.303   2.887 -0.4573 -0.3126  1.6690
 8606SOL    HW237281   2.493   0.456   2.922 -1.1225 -1.9335  0.5978
 8607SOL     OW37282   3.772   1.569   4.772  0.1786  0.0455 -0.5247
 8607SOL    HW137283   3.771   1.661   4.745  0.6019  0.5778  1.2825
 8607SOL    HW237284   3.777   1.537   4.682 -1.3379 -1.3399 -0.0945
 8608SOL     OW37285   1.555   4.244   4.299  0.2440 -0.2307  0.9383
 8608SOL    HW137286   1.549   4.335   4.268  4.3788 -1.1443 -2.5497
 8608SOL    HW237287   1.643   4.257   4.335  0.0721  0.6484  1.0577
 8609SOL     OW37288   1.182   2.810   6.373 -0.2715  0.0904  0.0498
 8609SOL    HW137289   1.217   2.839   6.458 -1.0051 -0.9690  0.7261
 8609SOL    HW237290   1.250   2.750   6.344  0.7627  1.0645  0.5002
 8610SOL     OW37291   2.830   3.106   3.317 -0.6555  0.3295  0.1933
 8610SOL    HW137292   2.918   3.095   3.281 -0.5330  1.7644  0.0313
 8610SOL    HW237293   2.855   3.167   3.387 -3.4275  0.2589  1.2470
 8611SOL     OW37294   2.840   4.071   7.937 -0.3507  0.6229 -0.6824
 8611SOL    HW137295   2.781   4.125   7.886  1.4434  3.2752  0.0793
 8611SOL    HW237296   2.924   4.087   7.894  0.2026 -1.0496 -0.2376
 8612SOL     OW37297   1.691   4.488   5.666 -0.7949 -0.0406  0.3854
 8612SOL    HW137298   1.722   4.504   5.577  0.7762  1.4497  1.1983
 8612SOL    HW237299   1.778   4.480   5.704 -1.4018 -2.7207  1.2458
 8613SOL     OW37300   4.291   1.378  15.151 -0.2373 -0.4162 -0.2571
 8613SOL    HW137301   4.321   1.469  15.149 -0.1687 -0.4284  0.0600
 8613SOL    HW237302   4.197   1.383  15.134 -0.1547 -0.7693 -0.8130
 8614SOL     OW37303   1.178   3.008   3.704  0.0714  0.1725  0.5065
 8614SOL    HW137304   1.091   2.970   3.719  0.4898  0.5191  3.9346
 8614SOL    HW237305   1.182   3.041   3.614 -0.7646  0.5194  0.5892
 8615SOL     OW37306   0.358   2.884  14.338  0.3556  0.0648 -0.7962
 8615SOL    HW137307   0.419   2.827  14.291  1.3386 -0.0189  0.6194
 8615SOL    HW237308   0.281   2.839  14.300 -0.7833  0.9510  0.4823
 8616SOL     OW37309   4.216   2.062  17.389  0.7153 -0.2260 -0.0866
 8616SOL    HW137310   4.269   2.116  17.448  1.7188  2.8229 -3.7065
 8616SOL    HW237311   4.134   2.111  17.387  0.2913 -0.9793 -1.0844
 8617SOL     OW37312   1.274   2.363   4.193 -0.4429  0.1214  0.0937
 8617SOL    HW137313   1.255   2.276   4.229 -1.5513  0.4324  0.2501
 8617SOL    HW237314   1.254   2.409   4.274 -1.4996 -0.6397  0.2701
 8618SOL     OW37315   0.193   4.298   4.403  0.2247 -0.0691  0.3249
 8618SOL    HW137316   0.127   4.332   4.463 -0.6687 -2.4654  0.6819
 8618SOL    HW237317   0.160   4.210   4.389  0.1040 -0.1471  1.1448
 8619SOL     OW37318   1.199   4.163  15.825 -0.5539 -0.1633 -0.0819
 8619SOL    HW137319   1.126   4.223  15.814 -0.3567  0.2112  0.6487
 8619SOL    HW237320   1.241   4.199  15.904  2.7759  0.0276 -1.9127
 8620SOL     OW37321   3.086   1.334   0.577 -0.7852 -0.5746 -0.2349
 8620SOL    HW137322   2.997   1.366   0.594 -0.6257  0.5861 -1.5654
 8620SOL    HW237323   3.099   1.378   0.493 -0.8777  1.4926  0.8350
 8621SOL     OW37324   4.055   0.327   2.957 -0.2002  0.4826  0.1806
 8621SOL    HW137325   4.087   0.411   2.923  0.9817  0.2500  0.7009
 8621SOL    HW237326   3.963   0.330   2.933  0.1563 -0.3356 -1.2669
 8622SOL     OW37327   0.922   1.212   5.115  0.0337 -0.1174 -0.5693
 8622SOL    HW137328   0.907   1.120   5.136 -0.1632 -0.1500 -0.8546
 8622SOL    HW237329   1.015   1.205   5.091  0.3253 -2.0694  1.2190
 8623SOL     OW37330   3.555   4.228  12.891  0.1093 -0.4319  0.8629
 8623SOL    HW137331   3.504   4.300  12.853  0.6355 -0.7446 -0.4213
 8623SOL    HW237332   3.526   4.156  12.835 -2.5830  1.2800  0.0308
 8624SOL     OW37333   2.316   1.363   0.945 -0.1754 -1.1255 -0.0358
 8624SOL    HW137334   2.280   1.451   0.949  1.2028 -0.6170  1.2715
 8624SOL    HW237335   2.239   1.311   0.924 -1.1775  0.5985 -0.6172
 8625SOL     OW37336   0.439   1.441   4.484  0.0734  0.2454 -0.4868
 8625SOL    HW137337   0.382   1.508   4.447  1.3838  0.5688 -1.9150
 8625SOL    HW237338   0.384   1.363   4.477 -0.9753  0.8848  0.6476
 8626SOL     OW37339   2.812   0.199   6.015  0.3558  0.6207  0.5100
 8626SOL    HW137340   2.881   0.149   6.057  1.0105  0.5384 -0.6599
 8626SOL    HW237341   2.793   0.260   6.086  1.2807 -0.4548  1.6632
 8627SOL     OW37342   0.549   3.453   5.870 -0.0719  0.0117 -0.3663
 8627SOL    HW137343   0.494   3.376   5.882 -0.4141  0.2594 -0.3422
 8627SOL    HW237344   0.598   3.462   5.952 -2.0093  0.6416  0.7123
 8628SOL     OW37345   4.376   2.542  12.981 -0.2082 -0.1384 -0.3227
 8628SOL    HW137346   4.347   2.632  12.992 -1.4140 -0.8341  2.3268
 8628SOL    HW237347   4.375   2.527  12.886  2.9222  1.6431 -0.5987
 8629SOL     OW37348   1.099   3.068  14.977  0.2337  0.3445 -0.2261
 8629SOL    HW137349   1.111   2.996  14.916 -2.6026 -0.3624  0.0128
 8629SOL    HW237350   1.055   3.029  15.053  0.3726 -2.7066 -1.7104
 8630SOL     OW37351   2.594   0.352   2.405 -0.3940  0.4665  0.3466
 8630SOL    HW137352   2.685   0.379   2.394  0.1221 -2.1182 -1.6887
 8630SOL    HW237353   2.594   0.384   2.495  0.2165  0.4899  0.3366
 8631SOL     OW37354   4.178   0.722   6.591  0.7094 -0.1699 -0.1109
 8631SOL    HW137355   4.191   0.679   6.507 -1.1472 -2.0948  0.6051
 8631SOL    HW237356   4.086   0.750   6.587  1.0795  0.9437 -0.8250
 8632SOL     OW37357   4.304   4.683  17.385  0.4723 -0.0800  0.1080
 8632SOL    HW137358   4.216   4.649  17.365  1.2117 -1.2556 -1.1908
 8632SOL    HW237359   4.294   4.677  17.480  0.3691  0.6042  0.1386
 8633SOL     OW37360   3.501   1.095   9.853 -0.2560 -0.1047  0.3185
 8633SOL    HW137361   3.418   1.053   9.833  0.0862 -0.7038  0.1555
 8633SOL    HW237362   3.492   1.104   9.948 -0.9677  3.7694 -0.1324
 8634SOL     OW37363   0.505   0.769   7.279 -0.6468  0.1018 -0.7998
 8634SOL    HW137364   0.574   0.702   7.279 -0.4407  0.3139  0.0983
 8634SOL    HW237365   0.432   0.726   7.325  0.8246 -1.8425 -0.2504
 8635SOL     OW37366   2.789   2.538   7.643 -0.4247  0.2888 -0.0342
 8635SOL    HW137367   2.751   2.621   7.671 -1.3725 -0.1944  0.1320
 8635SOL    HW237368   2.774   2.490   7.725  0.5360 -1.1290 -0.7045
 8636SOL     OW37369   3.507   1.643   2.334  0.4948  0.0798  0.3662
 8636SOL    HW137370   3.534   1.722   2.381 -2.1077  1.2488 -0.0908
 8636SOL    HW237371   3.582   1.585   2.322  1.6758  1.6795  0.0841
 8637SOL     OW37372   0.105   2.374   1.632  0.3891  0.8911 -0.5166
 8637SOL    HW137373   0.011   2.363   1.622  0.1189  2.6040  0.1376
 8637SOL    HW237374   0.120   2.458   1.589 -0.6786  0.1944 -2.2292
 8638SOL     OW37375   3.992   0.318   7.636 -0.0980  0.3096 -0.1086
 8638SOL    HW137376   3.908   0.297   7.677  0.9080 -1.0221  1.2803
 8638SOL    HW237377   4.033   0.369   7.706 -0.0152 -0.5527  0.4780
 8639SOL     OW37378   1.642   1.876   1.345  0.5319  0.2145 -0.0422
 8639SOL    HW137379   1.576   1.889   1.414 -0.5488  0.1916 -1.0639
 8639SOL    HW237380   1.602   1.809   1.290  2.1447 -0.6421 -0.1592
 8640SOL     OW37381   1.726   4.359   4.501  0.3939 -0.1892 -0.6152
 8640SOL    HW137382   1.814   4.359   4.465 -0.1302 -1.6751 -1.9441
 8640SOL    HW237383   1.709   4.453   4.505  1.1894 -0.1564  2.0099
 8641SOL     OW37384   3.221   4.655   8.141 -0.1904  0.0564  0.1173
 8641SOL    HW137385   3.285   4.722   8.166  0.0683 -0.1070 -0.1135
 8641SOL    HW237386   3.135   4.696   8.151 -0.8844 -0.9680 -1.6326
 8642SOL     OW37387   3.111   0.101   1.982 -0.0786 -0.2720 -0.0357
 8642SOL    HW137388   3.109   0.033   1.915  0.2691  1.9903 -2.3502
 8642SOL    HW237389   3.202   0.100   2.011 -0.6568  1.2773  1.8370
 8643SOL     OW37390   4.626   2.850  13.116  0.2751 -0.6537 -0.5285
 8643SOL    HW137391   4.653   2.937  13.147 -0.2149  0.0400 -2.0155
 8643SOL    HW237392   4.676   2.836  13.035 -0.9197 -0.2373 -1.3323
 8644SOL     OW37393   2.039   2.374   8.675  0.2474  0.0464  0.5896
 8644SOL    HW137394   2.090   2.297   8.648  0.3755  0.7479 -1.1917
 8644SOL    HW237395   2.081   2.445   8.627 -2.7289  0.9369 -0.6539
 8645SOL     OW37396   2.224   1.687   6.672 -0.4341  0.0855 -0.3824
 8645SOL    HW137397   2.277   1.686   6.751  0.0277  0.0985 -0.6939
 8645SOL    HW237398   2.163   1.758   6.693 -1.3263 -0.6937 -0.3482
 8646SOL     OW37399   2.423   2.079   2.885  0.2049 -0.1460 -0.1451
 8646SOL    HW137400   2.441   2.056   2.977  2.1029 -0.6959 -0.6387
 8646SOL    HW237401   2.397   1.988   2.866  0.1620 -0.3420  0.8381
 8647SOL     OW37402   3.032   0.742   1.596  0.5159 -0.0453  0.0989
 8647SOL    HW137403   3.107   0.774   1.645 -0.8217  3.7284 -0.3145
 8647SOL    HW237404   3.063   0.662   1.554  2.1059  0.8226 -0.3576
 8648SOL     OW37405   1.196   0.035   7.714 -0.8008  0.0029  0.3223
 8648SOL    HW137406   1.139   0.094   7.665  1.5636  2.0747  0.1048
 8648SOL    HW237407   1.233   0.098   7.776  2.0156  0.4218 -1.7945
 8649SOL     OW37408   3.100   3.937   2.734 -0.5749  0.1969 -0.5001
 8649SOL    HW137409   3.117   3.960   2.642  0.7163 -0.3844 -0.4080
 8649SOL    HW237410   3.050   3.856   2.727  1.7956 -1.5958  3.2705
 8650SOL     OW37411   4.240   2.469   8.803 -0.4843  0.3924 -0.3915
 8650SOL    HW137412   4.226   2.432   8.716 -1.8679 -1.1500  0.4936
 8650SOL    HW237413   4.173   2.537   8.804 -1.6023 -0.7166  0.4897
 8651SOL     OW37414   2.340   4.058   8.153  0.9209  0.1826 -0.5341
 8651SOL    HW137415   2.265   4.029   8.102 -0.0231 -0.1562  1.0679
 8651SOL    HW237416   2.351   3.983   8.211 -1.8120  0.2827  0.0848
 8652SOL     OW37417   1.509   3.580   9.497 -0.5806  0.1903  0.3759
 8652SOL    HW137418   1.496   3.522   9.422 -0.7507  0.6220  0.0744
 8652SOL    HW237419   1.541   3.527   9.571 -1.7230 -1.7963 -0.5368
 8653SOL     OW37420   2.625   2.138   7.237  0.8166  0.4122  0.1589
 8653SOL    HW137421   2.615   2.189   7.156  2.4543 -0.2608 -0.4729
 8653SOL    HW237422   2.704   2.180   7.269 -0.2908  1.2600  1.7411
 8654SOL     OW37423   2.313   4.147   7.494 -0.0046  0.6057 -0.3304
 8654SOL    HW137424   2.340   4.151   7.586  0.5792 -0.6294 -0.4506
 8654SOL    HW237425   2.298   4.053   7.486  0.5231  0.5107 -0.1963
 8655SOL     OW37426   2.742   1.581   3.990  0.3201  0.4432  0.0574
 8655SOL    HW137427   2.715   1.638   4.062  1.4830 -0.3626  1.1394
 8655SOL    HW237428   2.825   1.550   4.028 -0.2113 -0.1325  0.7318
 8656SOL     OW37429   2.898   0.513   2.457  0.1546 -0.9770 -0.4627
 8656SOL    HW137430   2.992   0.495   2.459  0.3718  0.1424 -0.9771
 8656SOL    HW237431   2.872   0.443   2.396 -0.2257  0.4927 -1.9841
 8657SOL     OW37432   3.930   1.919   8.827  0.3809 -0.2244 -0.1476
 8657SOL    HW137433   3.880   1.914   8.746  1.2836 -0.0916 -0.7159
 8657SOL    HW237434   4.019   1.951   8.813  1.4824 -1.8610  3.2304
 8658SOL     OW37435   4.306   4.315   8.887 -0.1841  0.5501 -0.3142
 8658SOL    HW137436   4.253   4.240   8.859  0.1183  0.2909 -0.1969
 8658SOL    HW237437   4.392   4.284   8.917 -0.4930  1.0929  1.1170
 8659SOL     OW37438   1.587   0.717   2.564 -0.5351 -0.4366 -0.0772
 8659SOL    HW137439   1.659   0.712   2.628 -0.8309  1.4728  0.4068
 8659SOL    HW237440   1.550   0.629   2.572  0.1385 -0.5108  2.2373
 8660SOL     OW37441   1.992   1.528   5.138 -0.5910 -0.1469 -0.6099
 8660SOL    HW137442   1.977   1.498   5.048 -0.9320  2.8267 -1.5373
 8660SOL    HW237443   2.064   1.588   5.119  0.3273 -1.2801 -0.6852
 8661SOL     OW37444   1.030   2.202   6.248  0.0365  0.1764  0.2438
 8661SOL    HW137445   0.972   2.220   6.322  1.0159 -2.1284  1.5762
 8661SOL    HW237446   0.981   2.227   6.169  2.4604  3.1946 -0.3229
 8662SOL     OW37447   0.777   2.078  17.084  0.4182  0.0421  0.4643
 8662SOL    HW137448   0.742   2.021  17.016 -0.4553  1.3501 -0.1925
 8662SOL    HW237449   0.796   2.159  17.036  1.4410  0.3563  1.4012
 8663SOL     OW37450   0.932   3.408   8.762 -0.2529  0.4571  0.4299
 8663SOL    HW137451   0.989   3.452   8.825 -0.4818 -0.3150  1.1836
 8663SOL    HW237452   0.913   3.478   8.700  0.2776  1.2486  1.1714
 8664SOL     OW37453   0.372   0.748  17.358  0.4447  0.0843  0.0066
 8664SOL    HW137454   0.447   0.696  17.331 -0.0803 -0.2070 -0.8861
 8664SOL    HW237455   0.409   0.833  17.381  0.9018  0.0917 -0.7835
 8665SOL     OW37456   4.399   4.442   4.743 -0.6034 -0.3079 -0.0372
 8665SOL    HW137457   4.322   4.497   4.753  0.3652  1.3247 -1.6030
 8665SOL    HW237458   4.474   4.502   4.741  1.8192 -3.3580 -1.3806
 8666SOL     OW37459   2.195   0.670   3.311  0.1815 -0.1761 -0.1226
 8666SOL    HW137460   2.271   0.629   3.270  1.6753  0.4123  2.1011
 8666SOL    HW237461   2.178   0.602   3.376  1.8990 -0.0492  0.4572
 8667SOL     OW37462   2.959   2.421  15.955 -0.7691  0.0720  0.1670
 8667SOL    HW137463   2.891   2.488  15.953  0.3866  1.2135 -1.8686
 8667SOL    HW237464   3.012   2.453  16.028 -0.3750  0.3616 -0.2469
 8668SOL     OW37465   0.154   1.321   4.900  0.1047 -0.5462  0.1330
 8668SOL    HW137466   0.184   1.406   4.933  2.4195 -1.1413 -0.4654
 8668SOL    HW237467   0.232   1.301   4.848  0.3514  1.4502 -0.2770
 8669SOL     OW37468   0.144   2.508   8.318 -0.0272  0.4406  0.3543
 8669SOL    HW137469   0.214   2.519   8.254 -1.0523 -0.0491 -0.8473
 8669SOL    HW237470   0.167   2.422   8.355 -1.0836  0.6037  1.4087
 8670SOL     OW37471   0.828   4.290   1.919  0.2544  0.0665 -0.8829
 8670SOL    HW137472   0.790   4.333   1.843  0.6280 -1.0715 -1.7078
 8670SOL    HW237473   0.748   4.274   1.969  0.2773  1.5182 -0.3832
 8671SOL     OW37474   0.439   2.200  17.461 -0.0112  0.2365 -0.4306
 8671SOL    HW137475   0.358   2.243  17.488  0.7946  1.9257 -0.6795
 8671SOL    HW237476   0.491   2.186  17.540  2.1453 -0.5866 -2.0059
 8672SOL     OW37477   0.707   0.586   2.554 -0.1520 -0.7432  0.2761
 8672SOL    HW137478   0.771   0.596   2.484  1.1207 -0.7942  1.4227
 8672SOL    HW237479   0.648   0.519   2.520 -0.0287 -0.5848 -0.2439
 8673SOL     OW37480   0.353   1.525   6.926 -0.1599  0.3901  0.0798
 8673SOL    HW137481   0.325   1.609   6.962  0.3143  0.4184  0.3940
 8673SOL    HW237482   0.274   1.485   6.889 -1.9121  1.6503  2.5083
 8674SOL     OW37483   3.132   2.810  16.922 -0.1220  0.1086 -0.2776
 8674SOL    HW137484   3.176   2.811  17.007  0.8801  1.6984 -0.8221
 8674SOL    HW237485   3.207   2.795  16.865 -0.0280 -2.7157  0.6102
 8675SOL     OW37486   3.234   4.325   7.590 -0.5705  0.1526 -0.0162
 8675SOL    HW137487   3.253   4.408   7.634  0.9031  0.1295 -0.6230
 8675SOL    HW237488   3.319   4.283   7.578 -0.9536 -0.5257 -0.3843
 8676SOL     OW37489   2.238   2.946   9.783 -0.3889 -0.2448 -0.2404
 8676SOL    HW137490   2.274   2.857   9.778 -1.0758 -0.5132 -0.3927
 8676SOL    HW237491   2.294   2.994   9.721 -0.3497  0.2467  0.1763
 8677SOL     OW37492   4.684   3.387   8.307  0.0164 -0.2221 -0.3502
 8677SOL    HW137493   4.648   3.308   8.347 -1.0096  2.5968  4.2247
 8677SOL    HW237494   4.616   3.380   8.240 -0.9270  0.8097  0.4812
 8678SOL     OW37495   1.031   1.427   5.263  0.3176  0.2001 -0.1502
 8678SOL    HW137496   0.986   1.365   5.206 -3.4365  1.9614  0.8872
 8678SOL    HW237497   1.071   1.481   5.195 -2.7873  1.3103 -1.1118
 8679SOL     OW37498   1.188   1.187   8.737  0.2187  0.8385  0.1310
 8679SOL    HW137499   1.125   1.117   8.722  1.8438 -0.5994  0.0486
 8679SOL    HW237500   1.222   1.173   8.825 -0.6583 -1.4714  0.0927
 8680SOL     OW37501   4.605   2.992  10.085 -0.3300 -0.0796 -0.6662
 8680SOL    HW137502   4.576   2.921  10.142 -0.5958  1.8784  1.6317
 8680SOL    HW237503   4.568   2.966  10.001  0.1517  2.2500 -1.5982
 8681SOL     OW37504   0.105   2.604  13.809  0.2950  0.3121  0.2597
 8681SOL    HW137505   0.079   2.689  13.775 -1.6792 -0.7712 -0.9355
 8681SOL    HW237506   0.136   2.577  13.723 -2.0768  0.1765 -0.5516
 8682SOL     OW37507   4.081   1.919   3.394 -0.1868  0.5819  0.2212
 8682SOL    HW137508   4.019   1.883   3.330 -0.5415  0.9541  0.3558
 8682SOL    HW237509   4.016   1.936   3.462 -0.5518  1.3801 -0.3267
 8683SOL     OW37510   0.184   4.253   3.143 -0.5687 -0.2249  0.3742
 8683SOL    HW137511   0.200   4.184   3.078  0.5805  2.8461 -2.6094
 8683SOL    HW237512   0.250   4.316   3.114 -0.4327 -0.3073  0.5090
 8684SOL     OW37513   4.174   1.222   5.677 -0.0174 -0.3672  0.8273
 8684SOL    HW137514   4.268   1.231   5.690  0.4486 -2.5962 -0.9357
 8684SOL    HW237515   4.142   1.306   5.642  1.6028 -0.7748 -1.6727
 8685SOL     OW37516   2.254   0.186   1.094  0.5546 -0.0672 -0.7387
 8685SOL    HW137517   2.209   0.201   1.177  1.8485  1.0501 -0.2544
 8685SOL    HW237518   2.241   0.269   1.048  0.9368  0.1428 -0.4579
 8686SOL     OW37519   0.337   3.436   1.555  0.4404  0.2197  0.2283
 8686SOL    HW137520   0.250   3.459   1.587  0.2977  1.1210 -0.8075
 8686SOL    HW237521   0.369   3.518   1.518  0.8452 -0.5345 -1.0946
 8687SOL     OW37522   1.948   0.868  12.905  0.4743  0.5685 -0.1663
 8687SOL    HW137523   2.010   0.818  12.852 -0.9509 -0.7130 -0.6269
 8687SOL    HW237524   1.864   0.852  12.861  0.1126  0.4615  0.5417
 8688SOL     OW37525   1.824   1.366  15.323 -0.0065 -0.7737 -0.1538
 8688SOL    HW137526   1.754   1.431  15.331  1.4325  0.7369 -0.0872
 8688SOL    HW237527   1.894   1.413  15.279 -0.5864 -1.5904 -1.9341
 8689SOL     OW37528   3.231   1.689   9.625 -0.2663  0.4212  0.0976
 8689SOL    HW137529   3.256   1.746   9.698 -0.4294  1.2660 -0.5051
 8689SOL    HW237530   3.212   1.757   9.560  2.1625  0.3490 -0.6800
 8690SOL     OW37531   0.239   4.630   2.462  0.5086 -0.1716  0.7101
 8690SOL    HW137532   0.219   4.538   2.443  1.9708 -0.3741  0.1845
 8690SOL    HW237533   0.225   4.665   2.374 -0.5676 -2.5455 -0.0765
 8691SOL     OW37534   2.119   4.330  12.349 -0.5342 -0.2774  0.3672
 8691SOL    HW137535   2.128   4.255  12.289 -0.6976 -0.4521  0.5584
 8691SOL    HW237536   2.072   4.289  12.421  1.9081  0.6940  2.4808
 8692SOL     OW37537   1.690   4.477   2.611 -0.1298  0.1144 -0.4462
 8692SOL    HW137538   1.733   4.473   2.525  0.3216  0.0245 -0.2161
 8692SOL    HW237539   1.736   4.549   2.655  0.8012  0.4429 -1.9723
 8693SOL     OW37540   2.601   3.900   2.754  0.2196 -0.0255  0.1568
 8693SOL    HW137541   2.515   3.905   2.796 -0.0013 -2.0167 -0.0617
 8693SOL    HW237542   2.649   3.875   2.834  0.7525  2.2041  0.5278
 8694SOL     OW37543   2.647   4.720   5.950 -0.3748  0.0353 -0.0502
 8694SOL    HW137544   2.569   0.053   5.943 -0.8586 -0.3823  2.2613
 8694SOL    HW237545   2.702   0.070   5.978 -1.5293  0.8711  0.0563
 8695SOL     OW37546   4.000   2.340   8.674  0.4165  0.1840 -0.2523
 8695SOL    HW137547   3.969   2.427   8.699  1.8323  0.4890  0.4420
 8695SOL    HW237548   4.045   2.309   8.753 -0.5803  0.1650  0.3112
 8696SOL     OW37549   4.165   4.259   9.645  0.0093  0.0138 -0.2178
 8696SOL    HW137550   4.124   4.244   9.560  1.2863 -0.7255 -0.6966
 8696SOL    HW237551   4.257   4.276   9.630 -0.0298 -0.4794 -1.0254
 8697SOL     OW37552   2.063   1.512   4.339  0.2178  0.2377  0.8035
 8697SOL    HW137553   2.101   1.539   4.256 -1.8835  0.2873 -0.1284
 8697SOL    HW237554   2.041   1.589   4.392 -1.8220 -0.8051  1.4724
 8698SOL     OW37555   1.716   2.473   9.923 -0.3287  0.4451 -0.8564
 8698SOL    HW137556   1.692   2.560   9.955  2.6058  0.4636  1.2935
 8698SOL    HW237557   1.632   2.430   9.943 -0.2739  0.5555 -0.3965
 8699SOL     OW37558   0.876   3.953  15.129  0.2011 -1.0181 -0.3364
 8699SOL    HW137559   0.786   3.973  15.105 -0.0686 -0.6415  0.9993
 8699SOL    HW237560   0.867   3.931  15.221  2.7968 -0.3490  0.0860
 8700SOL     OW37561   3.305   2.146   5.623  0.2405 -0.5126 -0.3350
 8700SOL    HW137562   3.305   2.111   5.712 -3.9014  1.6555  0.5277
 8700SOL    HW237563   3.396   2.175   5.610 -0.3831  1.5037 -0.2957
 8701SOL     OW37564   3.373   3.696  16.398 -0.2207 -0.4421 -0.2413
 8701SOL    HW137565   3.466   3.676  16.401  0.2871  2.1813  1.1767
 8701SOL    HW237566   3.369   3.776  16.450  2.2142 -0.6757  0.2975
 8702SOL     OW37567   1.415   1.135   0.886  0.0530  0.0195 -0.2946
 8702SOL    HW137568   1.506   1.131   0.857 -0.4815 -0.5915 -1.8724
 8702SOL    HW237569   1.438   1.122   0.978  0.9327 -0.4491 -0.5793
 8703SOL     OW37570   0.471   2.662   7.714  0.0900 -0.0076  0.4000
 8703SOL    HW137571   0.392   2.659   7.769  0.6878  0.7654  1.2941
 8703SOL    HW237572   0.548   2.656   7.770 -1.1129 -0.1623  2.0496
 8704SOL     OW37573   1.503   0.256  11.077  0.7528  0.0105  0.4152
 8704SOL    HW137574   1.564   0.330  11.077  0.3594  0.3178  2.1102
 8704SOL    HW237575   1.501   0.227  11.168 -2.2729  2.2011  1.0571
 8705SOL     OW37576   1.364   3.141   7.269  0.2977 -0.0309  0.5114
 8705SOL    HW137577   1.313   3.182   7.199  1.1876  1.2097  0.5922
 8705SOL    HW237578   1.444   3.108   7.227  1.2245  1.7897  0.8715
 8706SOL     OW37579   1.383   0.757   8.369  0.5282  0.5244  0.7835
 8706SOL    HW137580   1.411   0.669   8.396 -2.2894 -0.2851  1.0949
 8706SOL    HW237581   1.306   0.785   8.417 -1.9283  1.8042 -3.9012
 8707SOL     OW37582   3.333   2.757   7.323  0.0339  0.0503 -0.1139
 8707SOL    HW137583   3.252   2.807   7.321 -0.3725 -0.6709 -2.1922
 8707SOL    HW237584   3.304   2.670   7.352 -0.2858 -0.3833 -1.6768
 8708SOL     OW37585   3.203   1.493   8.669 -0.2232  0.1252 -0.2277
 8708SOL    HW137586   3.231   1.584   8.672  0.5674 -0.1400  0.4219
 8708SOL    HW237587   3.109   1.509   8.674 -0.2872 -0.3634  0.1827
 8709SOL     OW37588   4.040   0.900   3.801  0.2090  0.1071 -0.2544
 8709SOL    HW137589   4.045   0.995   3.800  0.5603  0.1075  1.2771
 8709SOL    HW237590   3.952   0.894   3.766 -0.3233 -1.5576  1.3252
 8710SOL     OW37591   4.226   3.155   2.644  0.1233  0.3594 -0.2249
 8710SOL    HW137592   4.243   3.249   2.646  3.6322 -0.3135  0.7017
 8710SOL    HW237593   4.156   3.144   2.578  0.3192 -0.1210 -0.3567
 8711SOL     OW37594   3.813   2.349   7.376  0.2511 -0.4066 -0.3636
 8711SOL    HW137595   3.760   2.282   7.333 -2.0081 -0.0585  1.8584
 8711SOL    HW237596   3.897   2.313   7.348  0.3753  1.3258 -2.1913
 8712SOL     OW37597   1.218   2.354   8.430  0.7964  0.4423  0.5708
 8712SOL    HW137598   1.231   2.448   8.417 -0.1162  0.2608 -1.6678
 8712SOL    HW237599   1.284   2.309   8.377  0.5458 -0.0017  0.6393
 8713SOL     OW37600   4.206   3.728   3.663  0.1283 -0.0236 -0.5880
 8713SOL    HW137601   4.258   3.659   3.622  0.6879 -0.6400  1.1721
 8713SOL    HW237602   4.215   3.797   3.598  1.7560  1.2859  1.0381
 8714SOL     OW37603   1.343   0.797   5.635 -0.1539  0.0934 -0.0149
 8714SOL    HW137604   1.328   0.717   5.685 -1.2678 -0.9531 -2.0374
 8714SOL    HW237605   1.253   0.813   5.606 -1.1320 -2.1471  1.7464
 8715SOL     OW37606   1.111   0.372   2.978 -0.2708  0.2646 -0.0873
 8715SOL    HW137607   1.033   0.393   2.927 -1.3112  1.0668  1.8234
 8715SOL    HW237608   1.186   0.407   2.929  1.3132 -2.0176  0.6952
 8716SOL     OW37609   1.274   0.534   5.739 -0.2624 -0.2303  0.1941
 8716SOL    HW137610   1.306   0.561   5.825  0.2117  1.7377 -0.6119
 8716SOL    HW237611   1.191   0.488   5.752  0.7199 -0.6716  5.0126
 8717SOL     OW37612   1.201   0.863   4.745  0.2946  0.0930 -0.3115
 8717SOL    HW137613   1.276   0.809   4.721 -0.6789 -1.4344  0.1216
 8717SOL    HW237614   1.149   0.791   4.779  1.4683 -0.6567 -0.1202
 8718SOL     OW37615   3.959   0.320   9.039  0.3574  0.1701  0.0690
 8718SOL    HW137616   3.968   0.288   8.950  3.1367  0.8208  0.1072
 8718SOL    HW237617   3.870   0.293   9.061  0.4488 -2.3724 -2.8209
 8719SOL     OW37618   3.388   0.419  12.395  0.8116 -0.7756 -0.0136
 8719SOL    HW137619   3.391   0.324  12.389  1.6203 -0.6892 -1.0046
 8719SOL    HW237620   3.478   0.430  12.426  0.1583  1.4355  1.1370
 8720SOL     OW37621   3.213   4.569   3.988 -0.4263  0.3332 -0.1984
 8720SOL    HW137622   3.307   4.563   3.977 -0.4213  5.2237 -2.7587
 8720SOL    HW237623   3.204   4.567   4.083  1.4967  1.5646  0.0073
 8721SOL     OW37624   2.278   2.847   9.432 -0.1914 -0.6205  0.3057
 8721SOL    HW137625   2.295   2.916   9.497 -2.4525 -1.9347  2.3086
 8721SOL    HW237626   2.182   2.852   9.422 -0.2542  0.4497  1.3643
 8722SOL     OW37627   2.469   3.200   0.381 -0.3412  0.4343 -1.2263
 8722SOL    HW137628   2.492   3.274   0.436  0.4567 -1.5189  1.0436
 8722SOL    HW237629   2.508   3.125   0.426 -1.9114  0.3104 -0.0666
 8723SOL     OW37630   2.683   1.463   0.835  0.6240  0.2896  0.1844
 8723SOL    HW137631   2.714   1.467   0.926 -0.5848  2.1712  0.5206
 8723SOL    HW237632   2.612   1.527   0.832 -1.2064 -1.7299  0.2887
 8724SOL     OW37633   1.031   3.684  14.705  0.0309 -0.0357  0.6464
 8724SOL    HW137634   1.016   3.653  14.795  0.9432  1.3541  1.2761
 8724SOL    HW237635   1.036   3.778  14.721 -0.9678  0.1335 -0.0252
 8725SOL     OW37636   3.239   1.708   7.323 -0.3162  0.2733  0.2335
 8725SOL    HW137637   3.269   1.764   7.395 -0.8483  2.7458 -1.4698
 8725SOL    HW237638   3.317   1.669   7.284  0.2625  0.6814  0.9799
 8726SOL     OW37639   3.696   2.625   3.224  0.0333 -0.8684  0.2866
 8726SOL    HW137640   3.676   2.679   3.148  3.2804 -0.4113 -0.2627
 8726SOL    HW237641   3.747   2.672   3.290 -0.8288  1.2018 -0.5181
 8727SOL     OW37642   2.143   2.521   9.878  0.3437 -0.1984  0.0341
 8727SOL    HW137643   2.077   2.583   9.847 -0.8643 -0.4089  2.2308
 8727SOL    HW237644   2.144   2.466   9.799  0.2067  0.5434 -0.4801
 8728SOL     OW37645   3.530   2.162   9.200  0.5953  0.2606  0.1447
 8728SOL    HW137646   3.556   2.238   9.252  0.8807  1.4490 -1.7207
 8728SOL    HW237647   3.553   2.199   9.115  0.6912 -1.8325 -0.7573
 8729SOL     OW37648   2.310   1.445   4.389  0.5376 -0.3317 -0.2645
 8729SOL    HW137649   2.337   1.465   4.479 -1.9317 -0.9412  0.5953
 8729SOL    HW237650   2.217   1.461   4.403 -0.3314 -2.5670 -3.5947
 8730SOL     OW37651   1.566   1.641   1.711 -0.1014  0.2400 -0.5440
 8730SOL    HW137652   1.529   1.646   1.623 -3.1462  3.6848  0.8825
 8730SOL    HW237653   1.482   1.629   1.755 -0.7969  2.2122 -1.3058
 8731SOL     OW37654   3.851   1.615   2.984  0.5513  0.0212 -0.1021
 8731SOL    HW137655   3.824   1.542   2.929  0.6766 -0.4512  0.4525
 8731SOL    HW237656   3.879   1.678   2.918  0.9677  0.1472  0.1943
 8732SOL     OW37657   0.354   2.418   2.476 -0.3096  0.4461  0.4376
 8732SOL    HW137658   0.418   2.369   2.424 -1.0915 -0.0961 -0.0156
 8732SOL    HW237659   0.377   2.509   2.457  1.2083  0.2548  1.3756
 8733SOL     OW37660   1.253   1.445   6.297 -0.4867  0.5119 -0.1037
 8733SOL    HW137661   1.198   1.501   6.241  0.0450  1.7215  0.5738
 8733SOL    HW237662   1.200   1.409   6.368  0.5908  1.2491  1.0593
 8734SOL     OW37663   2.375   2.834   5.011 -0.8517 -0.1074 -0.2548
 8734SOL    HW137664   2.294   2.883   4.997 -2.1265 -1.4573  2.3896
 8734SOL    HW237665   2.405   2.821   4.921 -2.4019 -0.7773 -0.6767
 8735SOL     OW37666   0.185   2.608  13.001  0.2206 -0.1472  0.6258
 8735SOL    HW137667   0.135   2.537  12.960 -0.4936  0.9398 -0.3868
 8735SOL    HW237668   0.251   2.557  13.048 -1.1781 -1.1957  1.4421
 8736SOL     OW37669   0.537   0.076  16.818  0.5351  0.0930  0.1570
 8736SOL    HW137670   0.611   0.113  16.866  0.0282  2.1561 -0.6391
 8736SOL    HW237671   0.467   0.139  16.837 -0.4684 -0.6660 -0.9624
 8737SOL     OW37672   3.752   4.704   7.124  0.0844 -0.1855  0.0829
 8737SOL    HW137673   3.676   4.673   7.173  1.6430 -3.9598  0.1514
 8737SOL    HW237674   3.734   0.072   7.100  0.2565 -0.5193 -1.3125
 8738SOL     OW37675   3.531   3.217   6.936 -0.4377 -0.5524 -0.5587
 8738SOL    HW137676   3.489   3.148   6.987 -0.0720 -1.0850 -0.9860
 8738SOL    HW237677   3.467   3.286   6.955 -0.9229 -1.0475 -0.3977
 8739SOL     OW37678   3.585   4.500   4.210  0.3391  0.4717  0.0139
 8739SOL    HW137679   3.507   4.521   4.262  0.6187 -0.7647  0.9296
 8739SOL    HW237680   3.610   4.421   4.257  0.6154 -0.0026 -0.9388
 8740SOL     OW37681   3.315   2.868  10.904 -0.4487  0.4394  0.1303
 8740SOL    HW137682   3.367   2.889  10.981 -0.3970 -1.5790  0.6424
 8740SOL    HW237683   3.375   2.797  10.879 -0.2690  0.2300  1.1480
 8741SOL     OW37684   2.007   2.944   5.695  0.2558 -0.2707 -0.2848
 8741SOL    HW137685   1.949   2.947   5.619  0.3736 -0.0004 -0.3615
 8741SOL    HW237686   2.089   2.957   5.647  1.9836 -1.5147  2.2658
 8742SOL     OW37687   1.442   1.436  14.543  0.3424  0.4714 -0.1832
 8742SOL    HW137688   1.411   1.455  14.632  3.7185  1.2335  0.8133
 8742SOL    HW237689   1.358   1.449  14.498  0.0053  0.8444  0.5511
 8743SOL     OW37690   4.324   3.389   5.016  0.0787  0.5402 -0.0236
 8743SOL    HW137691   4.285   3.304   5.036 -0.1851  0.7997  0.5492
 8743SOL    HW237692   4.256   3.432   4.964 -1.1494 -1.4230 -0.0301
 8744SOL     OW37693   3.389   4.679  11.350 -0.0071 -0.4573  0.5034
 8744SOL    HW137694   3.362   4.662  11.259 -2.4514  0.3608  1.0781
 8744SOL    HW237695   3.480   4.704  11.334 -0.4852  0.1778 -1.2434
 8745SOL     OW37696   2.913   2.592   5.271 -0.3770 -0.9814  0.2999
 8745SOL    HW137697   2.941   2.578   5.362  0.2699 -1.5412  0.0107
 8745SOL    HW237698   2.874   2.679   5.277  1.9673  0.0360  0.7496
 8746SOL     OW37699   3.460   1.683   9.844  0.6669 -0.2108 -0.4669
 8746SOL    HW137700   3.529   1.708   9.905  0.1901 -2.9163  1.2101
 8746SOL    HW237701   3.489   1.725   9.764  2.7580  0.6183  0.7316
 8747SOL     OW37702   0.715   3.713   3.552 -0.5177 -0.2105 -0.2560
 8747SOL    HW137703   0.655   3.707   3.478  0.7789  1.7033 -1.4775
 8747SOL    HW237704   0.730   3.619   3.565  1.3452  0.1559  0.2887
 8748SOL     OW37705   3.459   0.206   6.115 -0.1218  0.5944  0.2289
 8748SOL    HW137706   3.405   0.172   6.044 -0.0373 -1.0469  0.9349
 8748SOL    HW237707   3.517   0.136   6.146 -3.0814 -2.4721 -1.1438
 8749SOL     OW37708   0.038   3.056  17.557  0.4249  0.7555 -0.9487
 8749SOL    HW137709   0.024   3.072  17.463  0.4840  2.3222 -0.6967
 8749SOL    HW237710   0.017   3.137  17.604 -1.5520 -0.4565  0.2571
 8750SOL     OW37711   1.150   3.849   8.241  0.3063  0.0450  0.7218
 8750SOL    HW137712   1.185   3.899   8.167 -3.4089  0.0960 -1.0002
 8750SOL    HW237713   1.113   3.918   8.296  1.1838  1.8688 -1.0045
 8751SOL     OW37714   2.767   2.028  15.551  0.4836  0.5016 -0.0668
 8751SOL    HW137715   2.716   1.947  15.556  2.3701 -0.7451 -1.0429
 8751SOL    HW237716   2.819   2.016  15.631 -1.0414  1.5476  1.0862
 8752SOL     OW37717   3.615   2.791   1.433 -0.0061 -0.0818 -0.3539
 8752SOL    HW137718   3.674   2.857   1.397 -0.1365  0.4663  0.4504
 8752SOL    HW237719   3.642   2.704   1.403 -1.4679 -1.4837  2.3748
 8753SOL     OW37720   4.058   4.478   4.002  0.0796 -0.1634 -0.2913
 8753SOL    HW137721   4.027   4.409   4.061  0.5445 -0.5263 -0.4776
 8753SOL    HW237722   3.975   4.511   3.967 -0.0468  0.7927  0.8770
 8754SOL     OW37723   2.347   3.856  16.922  0.1708 -0.8598  0.2878
 8754SOL    HW137724   2.332   3.807  16.841  0.4556 -1.4462  0.5840
 8754SOL    HW237725   2.277   3.821  16.977 -0.7235 -0.4735 -0.6179
 8755SOL     OW37726   2.170   3.428   9.930 -0.6473 -0.1444 -0.5283
 8755SOL    HW137727   2.217   3.348   9.907  0.9358 -0.0294  2.2804
 8755SOL    HW237728   2.081   3.391   9.935 -0.6032 -0.3384 -1.1122
 8756SOL     OW37729   1.847   0.884  17.312  0.1794  0.0287  0.0122
 8756SOL    HW137730   1.771   0.842  17.273  0.7843 -2.3687  1.4218
 8756SOL    HW237731   1.805   0.968  17.332  0.5315  0.6096 -1.6470
 8757SOL     OW37732   3.919   0.323  14.690  0.0900 -0.2229 -0.4406
 8757SOL    HW137733   3.979   0.303  14.761  1.2281 -1.8011 -1.8438
 8757SOL    HW237734   3.882   0.238  14.665 -0.4214 -0.4552  1.1069
 8758SOL     OW37735   3.981   2.618   1.135  0.0052 -0.2798  0.2606
 8758SOL    HW137736   3.974   2.659   1.049  0.4996 -0.5483  0.0947
 8758SOL    HW237737   3.994   2.526   1.113 -0.6073 -0.9047  2.4746
 8759SOL     OW37738   4.320   2.904   7.844 -0.0064 -0.4244  0.3451
 8759SOL    HW137739   4.360   2.817   7.851  1.5113  0.3521  1.4662
 8759SOL    HW237740   4.234   2.882   7.880 -0.3794 -1.2007 -1.0472
 8760SOL     OW37741   3.892   0.256   7.279 -0.2194  0.8758 -0.0568
 8760SOL    HW137742   3.899   0.252   7.375 -0.3826 -0.3976 -0.1013
 8760SOL    HW237743   3.956   0.186   7.266 -0.7097  0.1761  1.3670
 8761SOL     OW37744   1.344   0.888   1.720  0.2437  0.3742 -0.4082
 8761SOL    HW137745   1.421   0.853   1.764  0.0874  0.5251 -0.0131
 8761SOL    HW237746   1.336   0.972   1.766 -0.6674 -0.1483  0.3845
 8762SOL     OW37747   4.338   1.554  16.825 -0.1673  0.5299  0.7579
 8762SOL    HW137748   4.312   1.463  16.839  0.5279 -0.0725 -1.9580
 8762SOL    HW237749   4.419   1.559  16.876  0.1695  2.2618  0.0273
 8763SOL     OW37750   1.709   3.393   5.561  0.3338  0.1851  0.1263
 8763SOL    HW137751   1.737   3.366   5.473 -1.9267 -0.0922 -0.5232
 8763SOL    HW237752   1.628   3.436   5.532  0.4713  0.3458 -0.0208
 8764SOL     OW37753   3.948   1.756  13.242  0.7971 -0.0929  0.5655
 8764SOL    HW137754   4.004   1.687  13.278 -0.7613 -0.0494  3.0828
 8764SOL    HW237755   3.868   1.746  13.294  0.2878  1.7741  0.1603
 8765SOL     OW37756   4.092   0.254  14.891 -0.6113  0.1852  0.2334
 8765SOL    HW137757   4.155   0.228  14.824  0.1617 -0.5344  1.2400
 8765SOL    HW237758   4.150   0.294  14.956 -0.6179  0.6721 -0.0581
 8766SOL     OW37759   3.102   2.326  10.098 -0.0734 -0.1313  0.1636
 8766SOL    HW137760   3.185   2.355  10.060 -0.3363 -0.8843 -0.9894
 8766SOL    HW237761   3.089   2.398  10.159  0.5177  0.9276 -0.9699
 8767SOL     OW37762   0.466   1.923   7.238 -0.1834  0.0495 -0.4928
 8767SOL    HW137763   0.443   1.962   7.322 -0.3542  0.3469 -0.6788
 8767SOL    HW237764   0.386   1.949   7.194 -0.1187  0.8432 -0.1428
 8768SOL     OW37765   2.880   0.974   8.645 -0.5350 -0.1390 -0.2548
 8768SOL    HW137766   2.951   0.944   8.701  0.5674  1.6065 -0.7093
 8768SOL    HW237767   2.860   1.053   8.695 -2.0881 -0.2760 -0.6556
 8769SOL     OW37768   3.993   2.912   5.756 -0.2822 -0.8078  0.1916
 8769SOL    HW137769   4.079   2.873   5.740  0.6535  0.5389  1.8907
 8769SOL    HW237770   3.989   2.975   5.685 -1.7385  0.3940  1.3490
 8770SOL     OW37771   1.533   4.513   4.258 -0.0713 -0.2017  0.2640
 8770SOL    HW137772   1.437   4.522   4.264  0.1249  2.0754 -0.0728
 8770SOL    HW237773   1.571   4.599   4.273 -0.5905 -0.2119  1.6803
 8771SOL     OW37774   3.854   0.602  10.387 -0.1729 -0.8158  0.1752
 8771SOL    HW137775   3.816   0.582  10.301  0.3445 -0.7489 -0.0712
 8771SOL    HW237776   3.837   0.522  10.436  1.9855 -1.0179  0.6019
 8772SOL     OW37777   2.235   0.229   3.372  0.1420  0.0819 -0.5163
 8772SOL    HW137778   2.320   0.246   3.332 -0.8258  0.9407 -2.2138
 8772SOL    HW237779   2.204   0.153   3.324 -0.0196 -0.1804  0.0058
 8773SOL     OW37780   2.934   1.195   7.169  0.8458  0.1815 -0.4402
 8773SOL    HW137781   2.921   1.288   7.187  0.4304 -0.4815  2.5752
 8773SOL    HW237782   2.960   1.188   7.076 -1.0164  0.3265 -0.9572
 8774SOL     OW37783   3.872   3.713   6.818 -0.0811  0.2783 -0.3787
 8774SOL    HW137784   3.936   3.737   6.886  0.6113 -0.6522 -0.7051
 8774SOL    HW237785   3.822   3.794   6.808 -0.3393  0.4518  2.1301
 8775SOL     OW37786   1.541   2.431   0.206  0.0005 -0.6962 -0.9563
 8775SOL    HW137787   1.502   2.518   0.196 -0.0640 -0.9719 -3.0848
 8775SOL    HW237788   1.522   2.391   0.121  1.2384  1.7230 -2.3658
 8776SOL     OW37789   3.228   0.135  16.747  0.2818  0.1337 -0.3242
 8776SOL    HW137790   3.162   0.196  16.780 -3.2104 -5.5393  3.2991
 8776SOL    HW237791   3.182   0.052  16.762 -1.5520  1.0444 -0.9417
 8777SOL     OW37792   0.123   3.412   3.063 -0.4753  0.1788 -0.4749
 8777SOL    HW137793   0.123   3.459   3.147  1.2177  1.0428 -0.9528
 8777SOL    HW237794   0.201   3.357   3.055 -1.7070 -1.4331 -1.2250
 8778SOL     OW37795   3.587   2.835  12.714  0.1730 -0.0571 -0.0160
 8778SOL    HW137796   3.638   2.863  12.789  2.2264  1.1331 -1.8844
 8778SOL    HW237797   3.657   2.796  12.663 -0.2454  0.0178 -0.6547
 8779SOL     OW37798   2.815   2.378  14.471 -0.5269  0.6631  0.1828
 8779SOL    HW137799   2.722   2.392  14.453 -0.5241  2.3141  1.4612
 8779SOL    HW237800   2.842   2.319  14.401 -4.9909  0.9036 -1.7462
 8780SOL     OW37801   2.919   0.699   1.962  0.0039  0.1985 -0.0672
 8780SOL    HW137802   2.963   0.776   1.997  0.2240  0.3385 -0.6385
 8780SOL    HW237803   2.876   0.679   2.045 -1.2764 -1.7003 -1.1780
 8781SOL     OW37804   1.283   2.621   9.065 -0.1123 -0.2655  0.3705
 8781SOL    HW137805   1.293   2.651   9.155 -2.0955 -1.6743  1.0650
 8781SOL    HW237806   1.191   2.596   9.070 -0.4568  0.9682  0.0493
 8782SOL     OW37807   2.096   2.286  13.392 -0.2101 -0.6589  0.4464
 8782SOL    HW137808   2.030   2.325  13.449 -0.1595  2.2205 -1.4439
 8782SOL    HW237809   2.096   2.193  13.415 -1.1295 -0.5525  0.8809
 8783SOL     OW37810   4.043   0.946   8.936  0.3565  0.2758 -0.5391
 8783SOL    HW137811   3.997   0.920   8.856 -2.2929  2.1695  0.3553
 8783SOL    HW237812   3.974   0.954   9.002  2.5525 -0.0460  1.8070
 8784SOL     OW37813   0.785   2.231   2.617 -0.3047  0.4479 -0.0858
 8784SOL    HW137814   0.740   2.175   2.554 -0.8216  0.9489 -0.1727
 8784SOL    HW237815   0.787   2.315   2.570  2.8212  1.0324  1.1211
 8785SOL     OW37816   3.353   2.123   8.933  0.5040 -0.3093 -0.3440
 8785SOL    HW137817   3.330   2.117   9.026  2.0908  0.3963  0.0957
 8785SOL    HW237818   3.309   2.204   8.906 -1.0401 -1.8478 -2.4488
 8786SOL     OW37819   0.055   0.964   1.166 -0.4453  0.2904  0.3190
 8786SOL    HW137820   0.067   0.873   1.195 -2.8083  0.2942  1.3111
 8786SOL    HW237821   0.109   1.011   1.229  2.0804 -1.1867 -0.7566
 8787SOL     OW37822   4.348   3.167   6.573  0.5366  0.1819  0.0555
 8787SOL    HW137823   4.259   3.201   6.584  0.7306  0.4318  0.8355
 8787SOL    HW237824   4.343   3.100   6.641  0.7843  1.0985  0.9746
 8788SOL     OW37825   3.013   4.371   7.137  0.4276 -0.0582 -0.4029
 8788SOL    HW137826   3.046   4.305   7.075  3.8176  0.3880  0.9231
 8788SOL    HW237827   2.966   4.328   7.209  0.8811  0.6975  0.3435
 8789SOL     OW37828   0.004   4.065  10.074  0.2380 -0.5419 -0.4868
 8789SOL    HW137829   0.008   4.039   9.982  0.7839 -0.5805 -0.4497
 8789SOL    HW237830   0.098   4.079  10.086  0.4110 -1.2729 -0.9603
 8790SOL     OW37831   0.748   4.014   7.208  0.2965 -0.3960  0.2469
 8790SOL    HW137832   0.655   4.006   7.229  0.7116 -2.5502  1.3449
 8790SOL    HW237833   0.781   3.924   7.216 -2.7333 -1.5883 -0.4307
 8791SOL     OW37834   0.377   2.203   1.530 -0.3215  0.2078 -0.2469
 8791SOL    HW137835   0.335   2.124   1.565 -1.0592 -0.5074 -2.7962
 8791SOL    HW237836   0.370   2.263   1.605 -1.5675  2.6705 -2.3307
 8792SOL     OW37837   2.130   2.878  13.945  0.0551  0.1023  0.1306
 8792SOL    HW137838   2.218   2.916  13.950 -0.0762  0.4083  0.1315
 8792SOL    HW237839   2.072   2.948  13.916  2.6908  2.0922 -0.3557
 8793SOL     OW37840   1.539   3.505   5.745  0.3201 -0.4457 -0.0862
 8793SOL    HW137841   1.554   3.598   5.728  0.8504 -0.1901  1.8584
 8793SOL    HW237842   1.619   3.472   5.704  0.0721  0.0505 -0.9781
 8794SOL     OW37843   2.838   1.874   4.598  0.2697  0.9406  0.1155
 8794SOL    HW137844   2.871   1.964   4.593 -0.4518  1.2993  1.7571
 8794SOL    HW237845   2.898   1.828   4.539  2.0488 -0.0880  2.7278
 8795SOL     OW37846   4.255   3.313   3.268  0.0440  0.7635 -0.5679
 8795SOL    HW137847   4.304   3.256   3.329 -2.2020 -1.0111 -0.4212
 8795SOL    HW237848   4.176   3.261   3.254  0.0669  0.7416 -0.6151
 8796SOL     OW37849   0.679   4.281  16.042  0.0716 -0.6380 -0.4674
 8796SOL    HW137850   0.691   4.360  16.094 -0.7451 -0.9818  0.2438
 8796SOL    HW237851   0.634   4.315  15.965 -2.9999 -2.6779  0.4348
 8797SOL     OW37852   4.030   3.765   7.047 -0.2199 -0.0275  0.6735
 8797SOL    HW137853   3.989   3.744   7.131 -0.4185 -0.8337  0.3732
 8797SOL    HW237854   4.112   3.715   7.052 -0.1879 -0.1158 -0.6449
 8798SOL     OW37855   0.936   2.877   5.655 -0.4790  0.1470 -0.6332
 8798SOL    HW137856   0.880   2.820   5.604 -0.2647 -0.4920 -0.1596
 8798SOL    HW237857   0.970   2.821   5.725 -2.1624 -0.2723 -0.1701
 8799SOL     OW37858   3.312   4.271  17.463  0.2052 -0.6660  0.5629
 8799SOL    HW137859   3.323   4.182  17.430  0.5049  0.2698 -1.8324
 8799SOL    HW237860   3.399   4.281  17.501 -1.0903  0.1850  3.3331
 8800SOL     OW37861   3.204   1.403   3.212 -0.0128 -0.2113 -0.1213
 8800SOL    HW137862   3.230   1.468   3.277 -2.7688  1.5333 -0.7695
 8800SOL    HW237863   3.248   1.327   3.251  0.5622 -0.4146 -1.1573
 8801SOL     OW37864   4.608   1.842  12.210  0.0412  0.8173 -0.0578
 8801SOL    HW137865   4.575   1.773  12.151  1.1019 -2.0891  2.7573
 8801SOL    HW237866   4.700   1.818  12.225  0.1567  1.1162 -0.2870
 8802SOL     OW37867   4.041   1.063   2.088 -0.3447  0.0259 -0.1485
 8802SOL    HW137868   4.094   0.991   2.052 -0.7601  1.6920 -4.1049
 8802SOL    HW237869   3.950   1.038   2.070  0.0922 -2.2787  0.8091
 8803SOL     OW37870   0.462   1.761   8.897 -0.1600 -0.2056  0.4929
 8803SOL    HW137871   0.549   1.756   8.859 -1.7582 -1.3145 -3.0620
 8803SOL    HW237872   0.402   1.733   8.827  0.5677  0.9528 -0.5869
 8804SOL     OW37873   4.334   0.585   5.650 -0.8660 -0.0090  0.3572
 8804SOL    HW137874   4.245   0.580   5.684 -0.8449 -3.3495 -0.1406
 8804SOL    HW237875   4.315   0.559   5.560  1.6963 -0.0244 -0.1984
 8805SOL     OW37876   1.586   2.772   6.587 -0.0817 -0.2478  0.0166
 8805SOL    HW137877   1.544   2.846   6.632 -1.0489  0.9402 -2.8731
 8805SOL    HW237878   1.670   2.812   6.566 -0.2724 -0.7628 -1.6911
 8806SOL     OW37879   0.116   4.241   7.919  0.4926  0.0254  0.5259
 8806SOL    HW137880   0.127   4.231   8.014 -1.0045  0.4864  0.7472
 8806SOL    HW237881   0.021   4.253   7.910  0.7367  1.4465 -0.1689
 8807SOL     OW37882   4.599   4.185   8.825 -0.3228  0.3860  0.9077
 8807SOL    HW137883   4.688   4.214   8.847  0.3088 -0.2167 -0.8994
 8807SOL    HW237884   4.608   4.132   8.746 -0.8285  0.2002  0.9760
 8808SOL     OW37885   3.430   1.636   8.135  0.0653  0.3122  0.1782
 8808SOL    HW137886   3.523   1.659   8.131  0.3721 -1.0324 -0.6435
 8808SOL    HW237887   3.428   1.547   8.099  1.0529  1.1709 -1.9806
 8809SOL     OW37888   4.431   2.258   6.992 -0.4552  0.4093 -0.5459
 8809SOL    HW137889   4.365   2.207   6.945 -1.4564  1.6054 -0.4443
 8809SOL    HW237890   4.383   2.340   6.985  0.2720  0.9574  0.8506
 8810SOL     OW37891   2.573   1.008  17.013 -0.1462 -0.5160 -0.8401
 8810SOL    HW137892   2.551   1.031  16.923  1.2493 -1.6308 -1.4622
 8810SOL    HW237893   2.662   0.978  16.997 -0.0099  0.1928 -1.3718
 8811SOL     OW37894   1.097   3.796   8.790 -0.6055 -0.1032  0.0263
 8811SOL    HW137895   1.152   3.718   8.778  0.8932  0.5707  2.4803
 8811SOL    HW237896   1.140   3.829   8.869 -1.4714  1.7423 -0.2749
 8812SOL     OW37897   3.339   3.287   3.568 -0.5417  0.1727 -0.3906
 8812SOL    HW137898   3.405   3.356   3.562  1.6363 -1.9613 -0.6631
 8812SOL    HW237899   3.273   3.327   3.625 -1.8347 -2.3389 -0.1331
 8813SOL     OW37900   3.162   1.399  15.238  0.4241 -0.0355 -0.5645
 8813SOL    HW137901   3.081   1.376  15.282  1.1641 -2.2200 -0.3482
 8813SOL    HW237902   3.204   1.317  15.212 -0.5502 -0.3876 -1.0119
 8814SOL     OW37903   2.609   2.003   8.262 -0.2224 -0.6052 -0.1536
 8814SOL    HW137904   2.701   2.026   8.249 -0.3278  0.3907  0.8717
 8814SOL    HW237905   2.567   2.082   8.297  1.5522 -0.1200  0.8455
 8815SOL     OW37906   4.706   2.022   7.020 -0.9225  0.2797 -0.4030
 8815SOL    HW137907   4.639   2.027   7.088 -0.3362  0.7547  0.1537
 8815SOL    HW237908   4.681   1.960   6.953  1.5594 -2.1428  0.9117
 8816SOL     OW37909   2.782   0.331  11.072  0.3033 -0.0474 -0.4923
 8816SOL    HW137910   2.718   0.318  11.142  0.1822  1.5622 -0.2902
 8816SOL    HW237911   2.862   0.300  11.114  0.8366 -0.3009 -1.6918
 8817SOL     OW37912   0.089   2.614   6.585  0.3466 -0.6341  0.2457
 8817SOL    HW137913   0.110   2.657   6.668  0.2629 -0.3335  0.1092
 8817SOL    HW237914   0.054   2.532   6.621  2.0526 -1.2524  0.4983
 8818SOL     OW37915   3.044   1.216   5.947  0.1474 -0.5847  0.0002
 8818SOL    HW137916   3.087   1.291   5.990 -0.5307  1.3399 -2.6668
 8818SOL    HW237917   3.112   1.149   5.951 -0.3604 -1.1775 -1.5954
 8819SOL     OW37918   4.451   3.952  13.543 -1.0826  0.5589  0.0854
 8819SOL    HW137919   4.408   3.905  13.614 -1.9899  1.7817  0.3437
 8819SOL    HW237920   4.442   3.884  13.476 -0.8989  1.1223 -0.5143
 8820SOL     OW37921   3.011   4.498  11.010 -0.3987  0.6938  0.1203
 8820SOL    HW137922   3.029   4.590  11.031 -0.8590  1.4020 -2.5776
 8820SOL    HW237923   2.935   4.490  11.068 -0.1140 -0.3724  0.3439
 8821SOL     OW37924   0.079   1.453   0.446 -0.0964 -0.4819  0.1887
 8821SOL    HW137925   0.152   1.479   0.391  1.0306 -0.3692  1.7286
 8821SOL    HW237926   0.081   1.358   0.436  0.2416 -0.5947  1.3276
 8822SOL     OW37927   0.775   3.888   1.209  0.2706  0.6729  0.1237
 8822SOL    HW137928   0.681   3.880   1.226  0.4178  1.7899  1.4667
 8822SOL    HW237929   0.791   3.966   1.263 -1.4061  0.5540  0.7816
 8823SOL     OW37930   0.268   1.642   3.978 -0.0179  0.1065  0.5155
 8823SOL    HW137931   0.246   1.714   4.037  0.9900 -0.1111  1.1600
 8823SOL    HW237932   0.185   1.638   3.931 -2.0913 -0.1423  4.1470
 8824SOL     OW37933   3.958   1.977   7.586 -0.5451 -0.3109  0.4840
 8824SOL    HW137934   4.041   1.993   7.629 -1.6322  0.0438  2.4275
 8824SOL    HW237935   3.906   2.041   7.636  0.0531  0.7798 -0.2724
 8825SOL     OW37936   0.913   0.549  12.569 -0.3216  0.0050 -0.3178
 8825SOL    HW137937   0.993   0.553  12.620 -0.1076  3.9697 -0.9605
 8825SOL    HW237938   0.857   0.614  12.611  1.3017  1.3054 -0.1770
 8826SOL     OW37939   3.017   2.835   3.395 -0.8035  0.5381 -0.1875
 8826SOL    HW137940   2.988   2.874   3.478  0.3304  3.5440 -1.2534
 8826SOL    HW237941   3.056   2.908   3.348  0.7654  0.4050  0.9200
 8827SOL     OW37942   2.958   0.940  14.113 -0.1461 -0.9920 -0.7442
 8827SOL    HW137943   3.016   0.868  14.138  1.6564  1.1068  1.1268
 8827SOL    HW237944   2.903   0.902  14.045  0.0375 -0.2658 -1.2975
 8828SOL     OW37945   1.980   2.150   3.238  0.2594 -0.7303 -0.0072
 8828SOL    HW137946   2.014   2.113   3.156  1.3117 -1.3649  0.7140
 8828SOL    HW237947   1.974   2.240   3.205 -1.8589  0.4906  3.7308
 8829SOL     OW37948   1.805   3.213   0.327 -0.1197 -1.0190 -1.4255
 8829SOL    HW137949   1.883   3.212   0.271 -0.2056 -3.6393 -1.5354
 8829SOL    HW237950   1.745   3.262   0.272  1.7330  1.7042 -1.0163
 8830SOL     OW37951   1.949   4.645  15.207 -0.0902 -0.4309 -0.2610
 8830SOL    HW137952   1.946   4.610  15.296 -0.0962  1.5090  0.4952
 8830SOL    HW237953   1.971   4.567  15.156  1.4017  0.1690 -0.5154
 8831SOL     OW37954   2.075   3.254   4.760  0.2372  0.3016 -0.0348
 8831SOL    HW137955   2.141   3.322   4.748 -0.0680  0.2792 -1.9253
 8831SOL    HW237956   2.036   3.240   4.674  1.2153  0.0230 -0.4299
 8832SOL     OW37957   1.782   3.036   3.023 -0.7633  0.0944  0.0488
 8832SOL    HW137958   1.790   2.948   3.060  0.0708 -0.1104 -0.6149
 8832SOL    HW237959   1.874   3.058   3.009 -0.8608  0.2808 -0.2930
 8833SOL     OW37960   3.422   0.780  10.896 -0.3968  0.2185 -0.0578
 8833SOL    HW137961   3.380   0.806  10.814  0.7298 -1.6824 -1.2347
 8833SOL    HW237962   3.387   0.692  10.908 -0.5159  0.4436  1.2150
 8834SOL     OW37963   0.141   1.575   9.097 -0.3764 -0.0909 -0.3716
 8834SOL    HW137964   0.115   1.503   9.154  1.9000 -2.3304 -2.1545
 8834SOL    HW237965   0.236   1.570   9.108 -0.1622 -2.3245 -3.1591
 8835SOL     OW37966   2.172   2.122  11.394  0.1607  0.9962 -0.0907
 8835SOL    HW137967   2.150   2.031  11.373 -0.0407  0.9861  0.1655
 8835SOL    HW237968   2.179   2.158  11.306  0.0919  1.3441  0.0459
 8836SOL     OW37969   3.262   1.528   9.910  0.3030 -0.0311 -0.0024
 8836SOL    HW137970   3.254   1.463   9.840 -1.5370  0.4743 -0.2719
 8836SOL    HW237971   3.336   1.579   9.880 -0.7296  1.7542  0.4839
 8837SOL     OW37972   1.704   0.026  17.017 -0.0435  0.2585 -0.0287
 8837SOL    HW137973   1.658   0.069  17.089  2.1285  2.6647 -0.0972
 8837SOL    HW237974   1.789   0.069  17.021  0.5550 -0.7994 -1.3730
 8838SOL     OW37975   1.749   0.149  11.752 -0.1708  0.5974  0.1207
 8838SOL    HW137976   1.704   0.227  11.721 -1.9071 -0.4765 -0.0663
 8838SOL    HW237977   1.770   0.186  11.838 -1.4137  1.2176  0.1647
 8839SOL     OW37978   3.303   2.739  17.493  0.5831 -0.1162  0.2074
 8839SOL    HW137979   3.391   2.704  17.478  0.2852 -0.5179 -0.6035
 8839SOL    HW237980   3.315   2.781  17.578  1.0904 -0.9786  0.5542
 8840SOL     OW37981   1.506   1.411   6.398 -0.1554  0.4970 -0.8683
 8840SOL    HW137982   1.514   1.348   6.469 -0.8595  0.1815 -1.0675
 8840SOL    HW237983   1.411   1.416   6.382 -0.0048  1.8932 -1.3707
 8841SOL     OW37984   3.039   3.622  11.047  0.4426 -0.1062 -0.8139
 8841SOL    HW137985   2.986   3.665  11.115  1.8829 -0.3674  0.4757
 8841SOL    HW237986   2.972   3.619  10.979  1.3141  0.3286 -1.6851
 8842SOL     OW37987   3.704   1.169   7.788  0.1586 -0.3039  0.2565
 8842SOL    HW137988   3.760   1.119   7.730  0.8940 -0.3584  1.0067
 8842SOL    HW237989   3.622   1.123   7.771  0.9804 -1.7554  0.2428
 8843SOL     OW37990   1.280   0.662   6.451  0.2955 -0.7047 -0.1457
 8843SOL    HW137991   1.344   0.625   6.512  0.5788  1.9042  1.1729
 8843SOL    HW237992   1.200   0.618   6.477  0.6507 -1.0518  0.3728
 8844SOL     OW37993   2.612   2.841  14.950 -0.7939  0.0891 -0.2756
 8844SOL    HW137994   2.570   2.758  14.927  0.0582 -0.0404 -1.3174
 8844SOL    HW237995   2.591   2.899  14.878 -0.3886 -0.3165 -0.7166
 8845SOL     OW37996   0.079   0.861  13.235  0.1385  0.4123 -0.4053
 8845SOL    HW137997   4.711   0.831  13.228  0.5491 -1.0977  1.0731
 8845SOL    HW237998   0.088   0.924  13.307  3.5031 -1.6699  0.9672
 8846SOL     OW37999   3.616   2.129   8.857  0.3722 -0.0234 -0.3408
 8846SOL    HW138000   3.626   2.168   8.770  0.9752  1.2713  0.3097
 8846SOL    HW238001   3.522   2.113   8.861  0.3856 -0.3567 -1.4127
 8847SOL     OW38002   3.926   2.339  10.828  0.1663  0.0798 -0.0083
 8847SOL    HW138003   3.999   2.385  10.786  0.8760  1.2111  2.4524
 8847SOL    HW238004   3.971   2.305  10.906 -0.6234 -0.0224  0.4005
 8848SOL     OW38005   1.058   0.224   1.671  0.5543 -0.5150  0.0419
 8848SOL    HW138006   1.089   0.147   1.717  2.6086 -0.3452 -1.0466
 8848SOL    HW238007   1.127   0.287   1.691  0.6709 -0.7205  0.2812
 8849SOL     OW38008   0.763   1.258   4.399  0.1505  0.5486 -0.3537
 8849SOL    HW138009   0.819   1.294   4.467 -0.5864 -0.5233  0.8177
 8849SOL    HW238010   0.765   1.341   4.351  0.8027 -0.2989 -1.7906
 8850SOL     OW38011   1.087   4.694   8.465 -0.2593  0.2840 -0.0385
 8850SOL    HW138012   1.180   4.700   8.489 -0.8434  1.7860  1.8922
 8850SOL    HW238013   1.063   4.613   8.509  0.1339  0.9319  1.3622
 8851SOL     OW38014   1.053   3.670   7.563  0.5112 -0.0680 -0.1596
 8851SOL    HW138015   1.142   3.671   7.597  0.6907 -1.8381 -0.5818
 8851SOL    HW238016   1.034   3.582   7.596 -0.0421  1.2546  2.9941
 8852SOL     OW38017   2.693   3.843  14.190  0.0961 -0.6151  0.2446
 8852SOL    HW138018   2.608   3.829  14.149 -0.6894 -0.2046  1.7787
 8852SOL    HW238019   2.668   3.915  14.248 -0.2624 -3.7378  3.9736
 8853SOL     OW38020   1.697   0.337  16.538  0.3426  0.3940 -0.1514
 8853SOL    HW138021   1.670   0.378  16.456 -0.1770 -0.4427 -0.3997
 8853SOL    HW238022   1.720   0.418  16.582  2.4319 -1.4293  2.1031
 8854SOL     OW38023   3.159   3.763  14.106  0.8920  0.4368 -0.0245
 8854SOL    HW138024   3.112   3.757  14.023  1.6887  0.8180 -0.4961
 8854SOL    HW238025   3.238   3.814  14.091 -0.1762  1.7969 -0.9255
 8855SOL     OW38026   1.320   2.147   9.499  0.1785  0.4120  0.1197
 8855SOL    HW138027   1.253   2.171   9.435 -0.8242 -0.3956  0.8541
 8855SOL    HW238028   1.295   2.059   9.528 -2.3072  0.1895 -2.6968
 8856SOL     OW38029   4.414   2.479  12.686  0.4779 -0.0293 -0.1770
 8856SOL    HW138030   4.494   2.431  12.662 -0.5943 -1.0990 -1.5840
 8856SOL    HW238031   4.350   2.448  12.622  0.9259 -1.8060  0.2305
 8857SOL     OW38032   0.520   1.008  11.045 -0.0368 -0.5997 -0.6850
 8857SOL    HW138033   0.462   1.037  11.115  0.8368 -0.3725 -0.0563
 8857SOL    HW238034   0.485   0.924  11.019 -3.7696  0.8786 -0.4018
 8858SOL     OW38035   3.672   4.156   8.983  0.0364 -0.0219  0.6336
 8858SOL    HW138036   3.599   4.156   8.922 -0.1317 -0.4007  0.8371
 8858SOL    HW238037   3.702   4.069   8.959  1.5902  0.1192  2.0186
 8859SOL     OW38038   2.189   2.306   5.172  0.2277  0.1828  0.1047
 8859SOL    HW138039   2.227   2.246   5.108  0.1494 -2.1817  2.2796
 8859SOL    HW238040   2.221   2.393   5.150  0.6537 -0.2782 -1.1037
 8860SOL     OW38041   2.424   1.602  15.282  0.0438 -0.3240 -0.8874
 8860SOL    HW138042   2.346   1.636  15.326  0.3567  2.4587 -2.4584
 8860SOL    HW238043   2.368   1.539  15.237 -2.8481  2.5763 -1.3512
 8861SOL     OW38044   0.970   2.214  17.693  0.2316 -0.6481 -0.1816
 8861SOL    HW138045   0.986   2.304   0.030 -0.4876 -0.3339 -0.7131
 8861SOL    HW238046   1.059   2.181   0.002  1.7273  3.4293 -0.4390
 8862SOL     OW38047   1.286   3.513   4.890  0.2718  0.5396 -0.3733
 8862SOL    HW138048   1.207   3.551   4.930  0.8524  0.8307  0.5026
 8862SOL    HW238049   1.275   3.518   4.795 -3.5017  0.2871  0.0600
 8863SOL     OW38050   2.524   2.479  13.168  0.0341 -0.3180  0.0692
 8863SOL    HW138051   2.432   2.459  13.152  0.6478 -2.5065 -0.7449
 8863SOL    HW238052   2.520   2.531  13.248 -0.6703  0.8769 -0.7522
 8864SOL     OW38053   3.209   0.955  16.136 -0.7212 -0.0109  0.0491
 8864SOL    HW138054   3.118   0.977  16.115 -1.2613  1.6287  4.0916
 8864SOL    HW238055   3.216   0.873  16.087 -0.0774 -0.8280  1.5419
 8865SOL     OW38056   4.580   1.660   5.259 -0.1404  0.6655 -0.0420
 8865SOL    HW138057   4.495   1.675   5.218 -0.0050  0.2367 -0.4850
 8865SOL    HW238058   4.571   1.568   5.284  1.0738  0.5073 -0.2088
 8866SOL     OW38059   3.107   3.420  12.967  0.2906  0.0171 -0.6140
 8866SOL    HW138060   3.093   3.338  13.014 -0.1383  0.0770 -0.6416
 8866SOL    HW238061   3.019   3.450  12.947 -0.2570 -0.9560  0.3773
 8867SOL     OW38062   4.227   4.201  16.014  0.0424 -1.0486 -0.1605
 8867SOL    HW138063   4.192   4.278  15.969 -1.5306 -1.3850  0.4963
 8867SOL    HW238064   4.288   4.226  16.083  2.4113  1.2711 -3.0670
 8868SOL     OW38065   0.999   3.433   0.409 -0.5575 -0.0459 -0.3116
 8868SOL    HW138066   0.912   3.474   0.412  0.8335  2.5930  3.1603
 8868SOL    HW238067   1.053   3.492   0.462 -1.4105  0.6261 -0.1820
 8869SOL     OW38068   0.627   0.053  16.071 -0.0981 -0.0458 -0.1366
 8869SOL    HW138069   0.608   0.055  16.165  0.0628  0.5904 -0.1177
 8869SOL    HW238070   0.609   0.143  16.042 -2.3838 -0.0489  1.3226
 8870SOL     OW38071   0.332   3.467  14.315  0.1981  0.5628  0.3723
 8870SOL    HW138072   0.361   3.503  14.399 -2.1498 -2.1513  2.3339
 8870SOL    HW238073   0.350   3.536  14.251  1.1542  0.4553  0.5356
 8871SOL     OW38074   2.139   4.485   1.921 -0.3369  0.1879  0.2987
 8871SOL    HW138075   2.139   4.550   1.851  1.1384 -1.7015 -1.4583
 8871SOL    HW238076   2.045   4.468   1.918 -0.6369  1.9765 -0.5917
 8872SOL     OW38077   0.368   2.952   3.609  0.1931 -0.0118  0.0876
 8872SOL    HW138078   0.438   2.985   3.665  0.5254  0.3747 -0.5612
 8872SOL    HW238079   0.299   3.016   3.629  0.5303  0.8989 -1.6572
 8873SOL     OW38080   0.930   3.351   5.377  0.2002 -0.4145 -0.2105
 8873SOL    HW138081   0.945   3.445   5.377  3.0217 -0.8541 -1.8530
 8873SOL    HW238082   0.953   3.328   5.467  1.6200  0.6915 -0.2922
 8874SOL     OW38083   1.457   2.125   5.382  0.2547  0.0736 -0.2902
 8874SOL    HW138084   1.544   2.149   5.413  1.0180 -0.1466 -2.2839
 8874SOL    HW238085   1.475   2.032   5.369  2.6622  0.7221 -1.5227
 8875SOL     OW38086   2.904   3.566  11.409  0.7455  0.3563 -0.7614
 8875SOL    HW138087   2.852   3.531  11.482  1.0355 -0.3864 -0.9123
 8875SOL    HW238088   2.986   3.518  11.420  0.9565  0.6352 -1.1570
 8876SOL     OW38089   0.902   0.378  17.303 -1.2816 -0.1881 -0.9650
 8876SOL    HW138090   0.972   0.439  17.326 -0.8326 -1.0821  0.0351
 8876SOL    HW238091   0.822   0.428  17.315 -0.3925  0.6611  1.4450
 8877SOL     OW38092   3.955   0.978  10.704 -0.0754 -0.2591 -0.1576
 8877SOL    HW138093   3.952   1.005  10.796 -2.8823 -0.0251 -0.3059
 8877SOL    HW238094   4.009   1.046  10.664 -0.0881 -0.7088 -0.9362
 8878SOL     OW38095   3.396   3.442   4.932 -0.3131  0.1048 -0.3067
 8878SOL    HW138096   3.409   3.350   4.953  1.2598 -0.0075 -1.8060
 8878SOL    HW238097   3.301   3.454   4.926 -0.5975 -2.2372 -0.1544
 8879SOL     OW38098   2.684   2.877   4.214  0.6647  0.6478  0.1206
 8879SOL    HW138099   2.675   2.782   4.216 -0.4492  0.7604  0.5016
 8879SOL    HW238100   2.679   2.902   4.306 -0.1322  1.3663 -0.1135
 8880SOL     OW38101   0.793   1.144  12.056 -0.2286 -0.0104  1.0121
 8880SOL    HW138102   0.838   1.182  12.132 -2.6194  1.1704  1.8399
 8880SOL    HW238103   0.841   1.064  12.037  1.1104  1.5805 -2.2922
 8881SOL     OW38104   4.694   2.161   0.744  0.2107  0.2875  0.7066
 8881SOL    HW138105   0.006   2.188   0.659  0.1845  2.5383  1.4229
 8881SOL    HW238106   4.706   2.066   0.740 -1.3978  0.0551  1.3417
 8882SOL     OW38107   1.026   1.924   7.580  1.0977  0.5055  0.0884
 8882SOL    HW138108   1.048   1.954   7.492  2.0044 -2.0168 -0.5567
 8882SOL    HW238109   0.931   1.919   7.580  1.1213 -0.0026 -0.4512
 8883SOL     OW38110   1.799   0.140  13.964 -0.6260  0.4280 -0.1318
 8883SOL    HW138111   1.884   0.101  13.987 -1.2193  0.3990  1.9897
 8883SOL    HW238112   1.772   0.060  13.919 -2.9947  0.7001  0.8606
 8884SOL     OW38113   1.811   4.375   1.304 -0.1346  0.0414  0.7070
 8884SOL    HW138114   1.867   4.401   1.230  1.6842 -1.6377  1.5082
 8884SOL    HW238115   1.768   4.458   1.326 -2.0198 -0.5497 -0.7434
 8885SOL     OW38116   3.794   1.051   4.552  0.4301 -0.3207  0.5668
 8885SOL    HW138117   3.890   1.053   4.560  0.2936 -1.9175  2.4327
 8885SOL    HW238118   3.766   1.139   4.577 -0.4491 -0.3965 -0.1653
 8886SOL     OW38119   3.872   3.412   8.285  0.0253  0.0920  0.2265
 8886SOL    HW138120   3.951   3.395   8.337 -0.1242 -1.0571  0.0787
 8886SOL    HW238121   3.869   3.327   8.241  1.1418 -0.0162  0.3692
 8887SOL     OW38122   3.561   3.789  10.374  1.0188  0.7542  0.3523
 8887SOL    HW138123   3.581   3.826  10.288 -2.8206 -1.5247 -1.5489
 8887SOL    HW238124   3.622   3.716  10.360  3.2595  2.4216  1.4020
 8888SOL     OW38125   2.481   3.542   2.682 -0.6903  0.0518 -0.2892
 8888SOL    HW138126   2.455   3.510   2.596  0.0972 -0.8196 -0.2102
 8888SOL    HW238127   2.430   3.622   2.681 -1.1734 -0.2398  0.9005
 8889SOL     OW38128   2.828   2.452   4.542  0.1140 -0.2482  0.5853
 8889SOL    HW138129   2.816   2.523   4.605  1.4821 -1.4051  2.1375
 8889SOL    HW238130   2.919   2.426   4.557 -0.1868 -1.9718 -0.6414
 8890SOL     OW38131   1.048   2.541  11.500  0.2942  0.2574 -0.2128
 8890SOL    HW138132   1.021   2.529  11.408 -0.6378 -0.7609  0.1941
 8890SOL    HW238133   1.045   2.447  11.518 -0.4004  0.3531  0.1518
 8891SOL     OW38134   1.488   2.278   3.472 -0.1223 -0.6021  0.7380
 8891SOL    HW138135   1.553   2.337   3.510 -1.3009  0.0447  1.7648
 8891SOL    HW238136   1.555   2.234   3.420  2.1752  0.4770  2.8015
 8892SOL     OW38137   3.820   0.385  17.552 -0.6434  0.2794 -0.1232
 8892SOL    HW138138   3.912   0.410  17.562 -0.3855  1.0224 -4.2406
 8892SOL    HW238139   3.794   0.442  17.479 -0.6961 -0.5874 -0.7867
 8893SOL     OW38140   0.975   0.589  15.706 -0.0691 -1.0812  0.1011
 8893SOL    HW138141   0.972   0.685  15.710  0.7736 -1.0010 -1.1625
 8893SOL    HW238142   0.935   0.568  15.790 -0.5906  0.5608  0.2659
 8894SOL     OW38143   1.053   3.185  15.337  0.1006 -0.1539  0.1676
 8894SOL    HW138144   1.080   3.261  15.284 -1.3884  0.7956  0.7741
 8894SOL    HW238145   1.087   3.201  15.425 -1.1468  0.0307  0.6182
 8895SOL     OW38146   1.039   0.637  15.400 -0.6724 -0.0580 -0.1902
 8895SOL    HW138147   0.966   0.692  15.428  0.0688  0.6988  0.2859
 8895SOL    HW238148   1.053   0.609  15.491  0.2596  1.0778  0.0278
 8896SOL     OW38149   0.528   0.810   8.676 -0.3524  0.7040 -0.2003
 8896SOL    HW138150   0.530   0.720   8.643 -2.1621 -0.4548  2.8643
 8896SOL    HW238151   0.454   0.835   8.621 -1.3276  0.7397  1.1524
 8897SOL     OW38152   1.322   4.272   6.021  0.3746  0.2198 -0.0487
 8897SOL    HW138153   1.369   4.227   5.951  0.1046  0.1388 -0.1735
 8897SOL    HW238154   1.241   4.302   5.981  0.3568 -1.3995 -1.1941
 8898SOL     OW38155   3.915   0.710   4.592  0.1807 -0.1401 -0.3634
 8898SOL    HW138156   3.901   0.615   4.601  0.6601 -0.2286 -0.6048
 8898SOL    HW238157   3.882   0.722   4.503  0.3215  2.3944 -0.0618
 8899SOL     OW38158   4.057   4.091  17.278 -0.1801  0.2673  0.9772
 8899SOL    HW138159   4.113   4.032  17.328 -0.5006 -1.9107 -1.2223
 8899SOL    HW238160   4.118   4.159  17.253 -0.7160  1.5845  3.2231
 8900SOL     OW38161   2.183   2.393   5.977  0.2329 -0.2950 -0.1124
 8900SOL    HW138162   2.175   2.396   5.882 -0.9486  0.0245 -0.0039
 8900SOL    HW238163   2.107   2.443   6.008  0.0777  0.9327 -2.4897
 8901SOL     OW38164   2.057   3.971  11.628  0.4163 -0.1837  0.1220
 8901SOL    HW138165   2.147   3.955  11.658  0.6418 -0.7486 -0.8437
 8901SOL    HW238166   2.071   4.044  11.567  1.3279  0.5922  1.2455
 8902SOL     OW38167   2.886   3.905   5.517  0.1037  0.1669  0.2663
 8902SOL    HW138168   2.933   3.833   5.559  0.5934  1.0412  1.2235
 8902SOL    HW238169   2.809   3.909   5.575 -0.4840  1.0834 -0.5906
 8903SOL     OW38170   1.964   0.267  11.936 -0.6769 -0.9499  0.0394
 8903SOL    HW138171   1.958   0.185  11.985 -1.4223  0.0089  1.5616
 8903SOL    HW238172   2.045   0.254  11.888  0.6679 -0.2660  2.1208
 8904SOL     OW38173   2.578   2.494  10.025 -0.6735  0.1718 -0.0839
 8904SOL    HW138174   2.545   2.480  10.113 -0.9859  1.0750 -0.0570
 8904SOL    HW238175   2.669   2.467  10.023 -0.5942  0.4672 -0.7332
 8905SOL     OW38176   4.403   3.941   5.461  0.3211  0.5310 -0.4568
 8905SOL    HW138177   4.325   3.901   5.499  1.3874  0.3736  1.5640
 8905SOL    HW238178   4.392   3.923   5.368 -0.6557  2.1051 -0.6524
 8906SOL     OW38179   3.379   4.000   4.020  0.2695  0.5758 -0.0163
 8906SOL    HW138180   3.363   4.079   4.072 -0.7501  0.0484  0.4784
 8906SOL    HW238181   3.374   4.034   3.931  1.5193 -0.3335 -0.4248
 8907SOL     OW38182   2.268   2.889   2.430 -0.0850 -0.1734  0.4816
 8907SOL    HW138183   2.227   2.808   2.458  3.5858 -2.0355  0.4575
 8907SOL    HW238184   2.340   2.901   2.492  0.5440 -0.3490 -0.2188
 8908SOL     OW38185   3.089   1.716   4.835 -0.0960  0.2755 -0.0366
 8908SOL    HW138186   3.074   1.793   4.781 -2.8984 -0.4920 -0.3737
 8908SOL    HW238187   3.149   1.757   4.897  0.5425 -2.5036  1.2166
 8909SOL     OW38188   1.201   2.745   7.915 -0.1970  0.2623  0.2163
 8909SOL    HW138189   1.231   2.688   7.985 -2.2103 -0.5083  0.4589
 8909SOL    HW238190   1.279   2.765   7.863  0.9841  1.1897  2.3689
 8910SOL     OW38191   2.250   0.729   4.104  0.0863 -0.1738  0.6932
 8910SOL    HW138192   2.200   0.792   4.052 -0.2770 -0.2259  0.9786
 8910SOL    HW238193   2.182   0.661   4.108 -0.3584  0.1938 -0.5502
 8911SOL     OW38194   4.627   3.834   2.996 -0.0770 -0.1274 -0.6140
 8911SOL    HW138195   4.700   3.878   3.040 -0.0080 -0.5315 -0.3300
 8911SOL    HW238196   4.645   3.866   2.908  0.4904  1.5528  0.1050
 8912SOL     OW38197   4.579   3.731   8.108 -0.1114  0.5465  0.4249
 8912SOL    HW138198   4.615   3.756   8.193  1.1727 -1.4695  0.4678
 8912SOL    HW238199   4.566   3.637   8.114  1.0457  0.4112  0.8169
 8913SOL     OW38200   3.674   1.325   6.021 -0.1332  0.8916 -0.3389
 8913SOL    HW138201   3.724   1.287   5.948 -0.1329  2.2499 -1.0386
 8913SOL    HW238202   3.594   1.355   5.979 -0.4502  0.2621 -0.1851
 8914SOL     OW38203   4.552   0.832  12.556  0.1286  0.4095 -0.2471
 8914SOL    HW138204   4.634   0.783  12.563 -1.2685 -1.4702  2.5626
 8914SOL    HW238205   4.500   0.766  12.510 -1.0650  1.4702 -0.4108
 8915SOL     OW38206   1.747   2.584  12.910 -0.5994  0.2226  0.4299
 8915SOL    HW138207   1.691   2.659  12.891 -0.5944  0.1079 -0.0372
 8915SOL    HW238208   1.691   2.521  12.955  2.1110 -2.7729 -0.3701
 8916SOL     OW38209   3.888   2.398   3.171  0.2665 -0.7158  0.1521
 8916SOL    HW138210   3.798   2.428   3.157  0.0248 -1.8734 -0.7266
 8916SOL    HW238211   3.937   2.478   3.190  1.0286 -1.5747  1.8175
 8917SOL     OW38212   1.706   4.302  10.447  0.4726 -0.0241  0.0134
 8917SOL    HW138213   1.664   4.217  10.460 -0.5807  0.6014  0.6567
 8917SOL    HW238214   1.671   4.318  10.359  0.4877  0.1668  0.0411
 8918SOL     OW38215   0.647   2.841  11.401 -0.4264 -0.1568 -0.3144
 8918SOL    HW138216   0.730   2.852  11.448 -2.0120  1.8466  1.9985
 8918SOL    HW238217   0.673   2.783  11.329 -1.7690 -0.8461 -0.2301
 8919SOL     OW38218   1.393   3.805   0.453  0.1118  0.7928  0.7420
 8919SOL    HW138219   1.363   3.885   0.408 -2.1941 -1.3420 -1.5187
 8919SOL    HW238220   1.355   3.749   0.385  1.1700  0.6783  0.2448
 8920SOL     OW38221   1.614   0.037   1.458 -0.0495  0.5734  0.0291
 8920SOL    HW138222   1.624   0.079   1.373  2.3902 -1.8926 -0.9176
 8920SOL    HW238223   1.593   4.669   1.438  0.6252  0.3837  0.1686
 8921SOL     OW38224   2.752   2.466  13.544  0.7492 -0.3926  0.5054
 8921SOL    HW138225   2.698   2.535  13.506  1.3214 -0.5963 -0.6457
 8921SOL    HW238226   2.721   2.386  13.503 -1.9088  1.6915 -1.5563
 8922SOL     OW38227   2.224   1.954   2.523  0.0379  0.4056 -0.6913
 8922SOL    HW138228   2.213   2.050   2.526 -3.1799 -0.0567  2.5043
 8922SOL    HW238229   2.154   1.917   2.470  1.7654 -1.4273 -1.6769
 8923SOL     OW38230   0.734   3.487   7.733  0.3230 -0.4601 -0.3343
 8923SOL    HW138231   0.823   3.452   7.724 -0.1314 -0.7684 -3.6352
 8923SOL    HW238232   0.755   3.554   7.798  2.1429 -0.8572 -0.5216
 8924SOL     OW38233   0.380   0.571   9.022 -0.5614  0.4896  0.0959
 8924SOL    HW138234   0.421   0.590   9.106 -1.9781 -0.3744  0.9818
 8924SOL    HW238235   0.360   0.661   8.997 -3.8530 -0.4200 -0.6099
 8925SOL     OW38236   0.992   1.158   1.560 -0.2083 -0.4875 -0.2973
 8925SOL    HW138237   0.904   1.174   1.526  0.2537 -0.6628 -1.5816
 8925SOL    HW238238   1.000   1.067   1.530 -1.5264 -0.4404 -0.8056
 8926SOL     OW38239   2.504   3.139   0.658  0.0121 -0.6576  0.0593
 8926SOL    HW138240   2.462   3.220   0.687  0.5652 -0.1718 -0.4947
 8926SOL    HW238241   2.457   3.068   0.701  0.3193 -1.5129 -1.0311
 8927SOL     OW38242   1.705   3.369   7.476 -0.2657  0.1346 -0.1199
 8927SOL    HW138243   1.643   3.441   7.462 -0.5592  0.0922  0.9353
 8927SOL    HW238244   1.708   3.372   7.572 -3.4860  1.6412 -0.0740
 8928SOL     OW38245   0.801   1.884   5.352 -0.4598 -0.3876  0.1702
 8928SOL    HW138246   0.758   1.969   5.358  0.6932  0.0051  2.7818
 8928SOL    HW238247   0.724   1.832   5.374 -2.2453  1.8589 -0.7677
 8929SOL     OW38248   0.126   3.678  11.810 -0.5634 -0.0799 -0.7670
 8929SOL    HW138249   0.047   3.722  11.780  0.0280  1.4930  0.0267
 8929SOL    HW238250   0.199   3.740  11.803  1.1006 -2.2624 -3.0394
 8930SOL     OW38251   0.702   2.145  15.518 -0.3544 -0.2796 -0.2401
 8930SOL    HW138252   0.745   2.120  15.600 -0.3318 -0.5496 -0.3372
 8930SOL    HW238253   0.654   2.224  15.544  0.8692  0.1698  0.7041
 8931SOL     OW38254   4.186   1.795  11.778  0.5361 -0.5719 -0.0815
 8931SOL    HW138255   4.135   1.876  11.789 -1.8277 -1.9257 -0.9923
 8931SOL    HW238256   4.274   1.825  11.799 -0.7849  2.9637  0.3885
 8932SOL     OW38257   4.631   0.650  12.836 -0.2644 -0.3582 -0.2339
 8932SOL    HW138258   4.542   0.633  12.868 -0.8390  0.4009 -1.4283
 8932SOL    HW238259   4.629   0.594  12.758 -2.0129  0.0096 -0.4585
 8933SOL     OW38260   2.969   0.408   5.482  0.5006 -0.1290  0.4993
 8933SOL    HW138261   2.981   0.351   5.557 -0.3251 -1.5701 -0.4689
 8933SOL    HW238262   2.980   0.348   5.408 -0.8087  0.5694 -0.2678
 8934SOL     OW38263   1.934   0.788  12.065 -0.4271 -0.0244 -0.6129
 8934SOL    HW138264   1.962   0.733  11.992  0.5827 -0.3941  0.0552
 8934SOL    HW238265   1.946   0.719  12.131  0.4007  1.2624  0.5711
 8935SOL     OW38266   3.066   1.497  16.958 -0.2807 -0.0134  0.0167
 8935SOL    HW138267   3.070   1.544  17.041 -2.1214 -2.0524  1.2639
 8935SOL    HW238268   3.150   1.518  16.917 -0.5455 -0.2504 -0.6473
 8936SOL     OW38269   0.851   3.157   2.881  0.6885 -0.3787 -0.0124
 8936SOL    HW138270   0.913   3.168   2.809  1.3074  0.2221  0.6193
 8936SOL    HW238271   0.783   3.115   2.827 -1.0584  0.2225  1.7078
 8937SOL     OW38272   0.183   3.302   1.105  0.2175  0.5817  0.2762
 8937SOL    HW138273   0.204   3.209   1.094  0.4954  0.4510  2.0303
 8937SOL    HW238274   0.202   3.306   1.198 -2.1230 -0.8336  0.8278
 8938SOL     OW38275   1.607   0.408   1.085  0.3098 -0.5827 -0.0531
 8938SOL    HW138276   1.691   0.436   1.049 -0.8403  1.6159 -0.9993
 8938SOL    HW238277   1.551   0.485   1.080 -0.1848 -0.9514 -0.2605
 8939SOL     OW38278   1.156   4.295   4.286 -0.0927  0.0729 -0.2428
 8939SOL    HW138279   1.181   4.384   4.260  1.7201  0.0973  1.5458
 8939SOL    HW238280   1.193   4.242   4.216  1.3713  1.3624 -0.4614
 8940SOL     OW38281   2.265   1.676   5.318 -0.3650  0.2381 -0.1808
 8940SOL    HW138282   2.262   1.702   5.226 -0.2114  0.3000 -0.1678
 8940SOL    HW238283   2.293   1.586   5.297 -0.6474 -0.2360  1.4643
 8941SOL     OW38284   1.269   4.643   9.089  0.0910 -0.4306 -0.7319
 8941SOL    HW138285   1.238   0.002   9.051  1.0666  0.9078  1.3193
 8941SOL    HW238286   1.233   4.572   9.037 -3.0849  1.0994 -0.6520
 8942SOL     OW38287   3.146   0.790  13.171 -0.3347  0.0733 -0.4041
 8942SOL    HW138288   3.136   0.861  13.234  0.3265 -1.1231  1.0789
 8942SOL    HW238289   3.080   0.734  13.212 -0.5054  0.3602 -0.2885
 8943SOL     OW38290   1.339   4.400   8.640  0.9781  0.2303 -0.1832
 8943SOL    HW138291   1.410   4.335   8.644  1.7723  1.0140 -1.3814
 8943SOL    HW238292   1.319   4.417   8.732  3.3728 -0.9314  0.5606
 8944SOL     OW38293   0.812   2.507   8.143 -0.1240  0.5356 -0.0518
 8944SOL    HW138294   0.907   2.521   8.137 -0.0006 -0.7987 -1.3501
 8944SOL    HW238295   0.782   2.567   8.075 -0.7529  0.5292  0.2243
 8945SOL     OW38296   1.547   0.986   6.171  0.3943 -0.3628 -0.1502
 8945SOL    HW138297   1.585   1.074   6.174  1.0142 -0.6301 -0.0745
 8945SOL    HW238298   1.514   0.982   6.261  0.7597  0.3864  0.0163
 8946SOL     OW38299   1.853   1.310  15.592  0.2124  0.8535 -0.4182
 8946SOL    HW138300   1.769   1.300  15.637 -0.4842  2.5338 -1.3403
 8946SOL    HW238301   1.839   1.289  15.499 -0.7974  0.3999 -0.1695
 8947SOL     OW38302   3.650   3.432   8.530 -0.4532  0.1650  0.0559
 8947SOL    HW138303   3.729   3.482   8.507  0.7834 -3.6667 -3.9298
 8947SOL    HW238304   3.645   3.386   8.446  1.4633 -1.3730  0.7887
 8948SOL     OW38305   2.745   3.930   5.751 -0.7086 -0.5149  0.2855
 8948SOL    HW138306   2.663   3.973   5.773 -1.6355 -2.4316  0.5410
 8948SOL    HW238307   2.749   3.856   5.811 -0.9632 -1.0603 -0.3768
 8949SOL     OW38308   2.594   1.004  16.590  0.4956 -0.6209 -0.6046
 8949SOL    HW138309   2.652   1.064  16.542  1.2811 -1.3452 -0.5661
 8949SOL    HW238310   2.659   0.935  16.602  0.2130 -0.5016  1.5794
 8950SOL     OW38311   3.136   1.494  10.774 -0.4780  0.0844  0.2255
 8950SOL    HW138312   3.204   1.508  10.840  0.7013 -0.3698 -0.8822
 8950SOL    HW238313   3.056   1.489  10.826 -0.4228 -1.8224  0.1112
 8951SOL     OW38314   0.668   0.157  10.373  0.6106  0.1245  0.0614
 8951SOL    HW138315   0.731   0.110  10.318  1.0968 -0.6395  1.2910
 8951SOL    HW238316   0.725   0.190  10.441  1.0016 -2.7838  1.1187
 8952SOL     OW38317   0.606   2.139   6.998  0.6517 -0.5865  0.3506
 8952SOL    HW138318   0.563   2.224   7.008 -0.5633 -1.0489 -0.8564
 8952SOL    HW238319   0.695   2.158   7.029  0.7061 -0.6653  0.2407
 8953SOL     OW38320   0.408   2.495  13.146 -0.6726  0.5716 -0.2589
 8953SOL    HW138321   0.431   2.414  13.193 -0.8419  0.7244  0.0873
 8953SOL    HW238322   0.396   2.548  13.225 -0.0065  0.7376 -0.2698
 8954SOL     OW38323   3.990   1.359   5.124 -0.0117 -0.2354  0.4556
 8954SOL    HW138324   4.085   1.348   5.130  0.0933  0.6137  0.3801
 8954SOL    HW238325   3.958   1.276   5.159  1.6623 -1.1159 -0.0894
 8955SOL     OW38326   0.907   1.917   3.998  0.0612  0.4370  0.4214
 8955SOL    HW138327   0.841   1.847   3.998 -0.9091  1.3403  2.4465
 8955SOL    HW238328   0.978   1.878   3.948 -2.2515 -2.6162 -0.5287
 8956SOL     OW38329   1.578   0.848  10.125  0.0660  0.7305  0.0065
 8956SOL    HW138330   1.632   0.923  10.150 -1.2021  1.6874 -0.1613
 8956SOL    HW238331   1.506   0.852  10.187  0.3405  0.5290  0.3408
 8957SOL     OW38332   4.021   4.256   4.174  0.2569 -0.0535  0.7083
 8957SOL    HW138333   3.960   4.186   4.152 -2.0460  2.4891 -0.9395
 8957SOL    HW238334   4.103   4.212   4.152  0.3242 -0.2460  1.3315
 8958SOL     OW38335   2.134   3.207   6.002  0.2247 -0.2765 -0.1742
 8958SOL    HW138336   2.059   3.216   6.062 -1.0886 -0.9351 -1.6942
 8958SOL    HW238337   2.202   3.252   6.052 -0.2279  1.6881 -1.3344
 8959SOL     OW38338   2.477   2.371   3.865 -0.0610  0.2815  0.5265
 8959SOL    HW138339   2.481   2.387   3.960  0.3295  0.4907  0.4757
 8959SOL    HW238340   2.548   2.314   3.837 -1.4033 -1.3342  0.4635
 8960SOL     OW38341   0.038   2.042   7.332  0.5200 -0.0831  0.0202
 8960SOL    HW138342   0.075   2.111   7.277  0.5402 -0.3051 -0.2423
 8960SOL    HW238343   4.694   2.016   7.270  1.0904  0.1414 -0.6877
 8961SOL     OW38344   3.710   1.737   8.160  0.1991  0.6834  0.1090
 8961SOL    HW138345   3.690   1.823   8.123  1.9436  0.6837 -0.8304
 8961SOL    HW238346   3.693   1.761   8.251 -0.0353 -3.6340  1.2061
 8962SOL     OW38347   3.566   3.879   4.869  0.4251 -0.0617 -0.3047
 8962SOL    HW138348   3.624   3.862   4.943  1.3427  1.0709 -0.7655
 8962SOL    HW238349   3.618   3.850   4.794 -0.4415  0.7355 -1.2199
 8963SOL     OW38350   1.997   4.417   2.813  0.0408 -0.0346 -0.0880
 8963SOL    HW138351   1.998   4.389   2.722 -1.3572 -0.8325  0.1472
 8963SOL    HW238352   1.970   4.505   2.786 -0.1057  0.0813  0.4235
 8964SOL     OW38353   1.523   2.445   7.246  0.0457 -0.0894  0.1770
 8964SOL    HW138354   1.542   2.518   7.186  1.0676 -0.1719  0.4098
 8964SOL    HW238355   1.550   2.369   7.195  0.2247 -0.2373  0.4922
 8965SOL     OW38356   2.793   0.209   3.680  0.0151  0.1013 -0.2663
 8965SOL    HW138357   2.720   0.252   3.635  1.5041  0.6805 -2.1282
 8965SOL    HW238358   2.823   0.279   3.739 -0.2685 -1.3179  1.5614
 8966SOL     OW38359   1.080   2.797  14.831  0.2885 -0.5271  0.3847
 8966SOL    HW138360   0.985   2.802  14.820  0.3708 -0.9492 -0.5002
 8966SOL    HW238361   1.102   2.709  14.800 -1.3702 -1.3256  1.4892
 8967SOL     OW38362   1.946   3.890   3.817 -0.3687  0.4290  0.2248
 8967SOL    HW138363   1.995   3.966   3.786 -0.2279  0.9693  1.8065
 8967SOL    HW238364   1.864   3.935   3.835 -1.4643 -1.6548  0.4978
 8968SOL     OW38365   2.869   1.275   8.691 -0.0020 -0.2201 -0.1406
 8968SOL    HW138366   2.774   1.269   8.682 -0.1371  0.5209  0.8169
 8968SOL    HW238367   2.884   1.370   8.698 -0.5064 -0.1469 -0.0762
 8969SOL     OW38368   1.652   4.569  17.333 -0.8440  0.7000 -0.7720
 8969SOL    HW138369   1.605   4.588  17.414  0.2690 -1.4084  0.3470
 8969SOL    HW238370   1.626   4.651  17.289 -3.0725  0.3240 -0.1716
 8970SOL     OW38371   3.739   1.058   5.484 -0.2299  0.0476 -0.7681
 8970SOL    HW138372   3.768   0.991   5.545  2.2942  0.4241 -1.5367
 8970SOL    HW238373   3.646   1.072   5.502 -0.1898  1.5530 -1.6979
 8971SOL     OW38374   0.487   0.224  10.701  0.2928 -0.3869 -0.1646
 8971SOL    HW138375   0.580   0.238  10.720  0.0599  3.3354 -1.9806
 8971SOL    HW238376   0.480   0.146  10.757 -1.4459 -0.0822  0.0321
 8972SOL     OW38377   0.573   2.412   4.393 -0.5312 -0.3665  0.2125
 8972SOL    HW138378   0.615   2.483   4.442 -1.7683  1.5640 -1.5616
 8972SOL    HW238379   0.494   2.398   4.446 -0.2407  2.2088  1.3519
 8973SOL     OW38380   4.505   2.904   8.359  0.6587  0.1790 -0.3222
 8973SOL    HW138381   4.478   2.832   8.416  1.5381  0.1459  0.0399
 8973SOL    HW238382   4.588   2.871   8.326  0.6662 -0.8546  0.7593
 8974SOL     OW38383   0.658   0.347  10.127 -0.0581 -0.7826  0.3357
 8974SOL    HW138384   0.639   0.275  10.187 -2.3438  0.4167  1.0687
 8974SOL    HW238385   0.736   0.386  10.167 -1.4740  2.8100 -0.4016
 8975SOL     OW38386   1.766   4.569   8.141  0.7223  0.3625 -0.3895
 8975SOL    HW138387   1.855   4.579   8.109 -0.0699  0.9808 -2.3813
 8975SOL    HW238388   1.715   4.519   8.078 -1.3076  0.7234  0.9382
 8976SOL     OW38389   0.961   2.017   3.169 -0.3937 -0.4955 -0.0094
 8976SOL    HW138390   0.881   2.036   3.121  1.4242  0.6394 -2.6162
 8976SOL    HW238391   0.976   1.928   3.136  1.7146  0.4933 -1.7403
 8977SOL     OW38392   0.016   1.219   6.997  0.0573  0.7954 -0.1641
 8977SOL    HW138393   0.076   1.256   7.061  2.1454 -1.1392 -1.0124
 8977SOL    HW238394   4.708   1.147   7.052 -2.2682  0.8586 -1.3697
 8978SOL     OW38395   4.036   2.834   1.417 -0.2120 -0.2842  0.1231
 8978SOL    HW138396   4.105   2.864   1.476 -1.5027  0.2576  1.3631
 8978SOL    HW238397   3.967   2.809   1.478  0.8647 -0.5293  1.2449
 8979SOL     OW38398   4.097   3.871   9.041  0.6153  0.1728 -0.2553
 8979SOL    HW138399   4.124   3.949   9.090  0.0319 -1.2476  2.2938
 8979SOL    HW238400   4.011   3.852   9.078  1.9424 -0.2159  2.6426
 8980SOL     OW38401   4.075   1.653   8.738  0.3748 -0.0714  0.4930
 8980SOL    HW138402   4.087   1.707   8.660 -0.3598 -2.1101 -1.0420
 8980SOL    HW238403   4.007   1.703   8.784 -1.1966 -3.1303  1.4872
 8981SOL     OW38404   3.021   3.048   5.240  0.2166  0.1272  0.4504
 8981SOL    HW138405   3.059   3.057   5.327  1.0029 -0.2451  0.1500
 8981SOL    HW238406   2.953   2.983   5.258 -1.3558  2.3402  2.3781
 8982SOL     OW38407   0.945   1.691  11.290 -0.0297  0.0755 -0.2036
 8982SOL    HW138408   0.906   1.649  11.213 -1.2252  2.0919 -0.6918
 8982SOL    HW238409   0.865   1.725  11.330  0.4094 -0.8809  1.4690
 8983SOL     OW38410   0.500   1.728  11.140  0.4037  0.1794  0.8254
 8983SOL    HW138411   0.527   1.684  11.059  1.0668 -3.1748  2.8607
 8983SOL    HW238412   0.476   1.808  11.093  0.8110 -0.2162 -0.0557
 8984SOL     OW38413   4.650   0.717   0.377 -0.3429 -0.0956  0.3647
 8984SOL    HW138414   4.653   0.630   0.418  3.1097 -0.6497 -1.0344
 8984SOL    HW238415   4.580   0.756   0.428 -0.2486 -0.5617  0.8540
 8985SOL     OW38416   2.668   0.874   0.780 -0.4912  0.3613  0.0241
 8985SOL    HW138417   2.715   0.791   0.767 -0.8973  0.3518 -1.4531
 8985SOL    HW238418   2.602   0.847   0.843 -1.0921  1.0396 -0.3181
 8986SOL     OW38419   0.760   3.692  10.756  1.3895 -0.4520  0.3226
 8986SOL    HW138420   0.724   3.660  10.673 -2.0218 -0.5262  1.8664
 8986SOL    HW238421   0.702   3.654  10.821 -0.7373 -0.1108 -1.3942
 8987SOL     OW38422   0.197   2.155  14.830  0.1448 -0.0637 -0.2333
 8987SOL    HW138423   0.107   2.128  14.849  0.4075 -1.3922 -0.8845
 8987SOL    HW238424   0.252   2.139  14.907 -1.4915  1.6124  1.2830
 8988SOL     OW38425   0.097   0.481   8.644 -0.4255 -0.2575  0.1896
 8988SOL    HW138426   0.045   0.501   8.722 -1.6554 -1.0430 -0.4489
 8988SOL    HW238427   0.187   0.472   8.678 -0.2643 -0.5363 -0.3195
 8989SOL     OW38428   1.509   2.962   6.788  0.0147 -0.1385 -0.5420
 8989SOL    HW138429   1.433   2.916   6.823  0.6117  0.0283  0.9683
 8989SOL    HW238430   1.576   2.912   6.835  0.5541  1.0028 -0.0986
 8990SOL     OW38431   3.142   1.499   0.278  0.2093 -0.7333  0.1757
 8990SOL    HW138432   3.055   1.534   0.257  0.7311 -0.5417 -1.7131
 8990SOL    HW238433   3.143   1.412   0.238 -0.2227  0.6824 -2.9113
 8991SOL     OW38434   2.549   1.180   0.430  0.6651  0.0670 -0.1009
 8991SOL    HW138435   2.544   1.273   0.452  0.2225 -0.2388  1.0837
 8991SOL    HW238436   2.541   1.137   0.515 -1.2423 -2.6549 -1.6422
 8992SOL     OW38437   1.670   0.691   7.167  0.4288  0.1930  0.2281
 8992SOL    HW138438   1.697   0.627   7.101  1.2436  0.4449  0.3175
 8992SOL    HW238439   1.727   0.668   7.240 -0.3535 -0.5267  0.6066
 8993SOL     OW38440   4.108   2.884   8.074  0.2685 -0.0203  0.0444
 8993SOL    HW138441   4.086   2.977   8.075  0.9615  0.1300  0.7828
 8993SOL    HW238442   4.187   2.871   8.125 -0.7437 -2.6062  0.9641
 8994SOL     OW38443   2.407   1.358  15.895 -0.1154  0.4361 -0.1722
 8994SOL    HW138444   2.453   1.440  15.879  0.8694 -0.7049 -3.1284
 8994SOL    HW238445   2.333   1.391  15.946 -0.7039  1.4257 -1.6583
 8995SOL     OW38446   2.834   3.235   5.467 -0.3365 -0.1387  0.2668
 8995SOL    HW138447   2.790   3.233   5.382 -1.1814 -0.4662  0.7024
 8995SOL    HW238448   2.907   3.175   5.452  0.0039  0.6687 -1.2595
 8996SOL     OW38449   1.975   0.662   8.098 -0.4374 -0.1196 -0.1767
 8996SOL    HW138450   1.932   0.735   8.143  1.4204 -0.8350  2.7214
 8996SOL    HW238451   1.922   0.586   8.122  0.3201 -0.8013 -0.6695
 8997SOL     OW38452   1.400   2.302   1.810 -0.3783  0.5046 -0.7047
 8997SOL    HW138453   1.314   2.345   1.813 -0.0350  0.9714  2.3252
 8997SOL    HW238454   1.461   2.366   1.774 -2.6965  2.3687 -1.2723
 8998SOL     OW38455   3.327   3.855   2.400 -0.2575 -0.4051  0.5461
 8998SOL    HW138456   3.247   3.905   2.414  0.8680  1.1420  1.3891
 8998SOL    HW238457   3.339   3.860   2.306  2.7060  0.0381  0.9632
 8999SOL     OW38458   2.350   2.324  11.647 -0.2617  0.1961  0.3094
 8999SOL    HW138459   2.387   2.343  11.733  2.1272 -0.2094 -0.6241
 8999SOL    HW238460   2.291   2.399  11.647 -1.8184 -1.0446 -0.5348
 9000SOL     OW38461   0.877   3.028   3.358  0.3408  0.1022 -0.4878
 9000SOL    HW138462   0.796   3.018   3.406  1.9772  2.9947  2.9102
 9000SOL    HW238463   0.845   3.062   3.274 -0.3127  1.2977  0.2463
 9001SOL     OW38464   1.672   2.938   7.586  0.0835 -0.0116  0.0040
 9001SOL    HW138465   1.669   2.931   7.681  1.3570  0.6107  0.0965
 9001SOL    HW238466   1.587   2.977   7.568 -0.3813 -0.2992  1.5736
 9002SOL     OW38467   2.461   3.511   7.034  0.4861  0.0918  0.4694
 9002SOL    HW138468   2.442   3.429   7.078 -3.6435  0.7752 -0.0081
 9002SOL    HW238469   2.399   3.563   7.085  0.8042  0.2305  0.7161
 9003SOL     OW38470   4.707   2.142   3.133 -0.3611 -0.3026 -0.0667
 9003SOL    HW138471   0.068   2.136   3.087  0.4893  1.0252  1.2818
 9003SOL    HW238472   4.670   2.224   3.101  1.4942  0.2551 -0.8355
 9004SOL     OW38473   3.945   1.021   0.103  0.0092 -0.5426 -0.6338
 9004SOL    HW138474   3.953   1.073   0.023 -1.6512 -0.1878 -0.5703
 9004SOL    HW238475   3.884   1.078   0.150  0.1095 -0.3672 -0.7166
 9005SOL     OW38476   3.294   3.639   6.889 -0.1486 -0.1055  0.7370
 9005SOL    HW138477   3.227   3.696   6.851  2.5728  1.8827 -1.0937
 9005SOL    HW238478   3.336   3.691   6.958 -1.9503  0.8404  1.0954
 9006SOL     OW38479   3.513   1.686   6.665  0.0516 -0.4760  0.0583
 9006SOL    HW138480   3.426   1.716   6.639 -0.2714 -1.0992  0.4346
 9006SOL    HW238481   3.486   1.607   6.712  0.4802 -0.6950 -0.0608
 9007SOL     OW38482   3.189   0.706   8.079 -0.3177 -0.1805 -0.1617
 9007SOL    HW138483   3.252   0.775   8.103 -1.0902  0.2441  0.6069
 9007SOL    HW238484   3.117   0.723   8.139 -0.8759 -0.6548 -0.7036
 9008SOL     OW38485   1.548   0.974   8.643  0.9779 -0.0509 -0.0830
 9008SOL    HW138486   1.643   0.986   8.633  0.8619  1.0385  0.1416
 9008SOL    HW238487   1.545   0.882   8.670  0.6997 -0.1710 -0.5321
 9009SOL     OW38488   3.141   1.575   5.710 -0.1626  0.3750  0.2858
 9009SOL    HW138489   3.204   1.542   5.774  0.9919  1.7216 -0.1458
 9009SOL    HW238490   3.147   1.669   5.728 -1.4744  0.6238 -0.5880
 9010SOL     OW38491   3.316   2.419  14.953  0.2165 -0.1241 -1.0449
 9010SOL    HW138492   3.233   2.466  14.947 -0.5494 -1.0002  2.4111
 9010SOL    HW238493   3.294   2.327  14.967  1.4883 -0.2742 -0.0392
 9011SOL     OW38494   4.043   0.566   9.553 -0.8551  0.3985 -0.2072
 9011SOL    HW138495   4.019   0.611   9.472 -2.6504 -0.6889 -0.2657
 9011SOL    HW238496   4.132   0.601   9.558 -0.2460 -0.9145 -1.8230
 9012SOL     OW38497   3.370   3.102   3.371 -0.2248 -0.6777 -0.3476
 9012SOL    HW138498   3.381   3.147   3.287  0.6952  1.6670  1.0181
 9012SOL    HW238499   3.395   3.168   3.436 -0.4620 -2.0618  1.1383
 9013SOL     OW38500   4.042   4.623  17.368  0.3592 -0.2635 -0.2822
 9013SOL    HW138501   3.970   4.683  17.347 -0.3381 -0.0405  2.7255
 9013SOL    HW238502   4.000   4.554  17.420 -1.7449  2.0060  1.0334
 9014SOL     OW38503   4.485   2.450   4.788  0.6663 -0.1674 -0.4906
 9014SOL    HW138504   4.445   2.534   4.769  1.7216  0.3043 -0.6145
 9014SOL    HW238505   4.577   2.473   4.794  0.2614  0.9635  1.5324
 9015SOL     OW38506   2.525   0.497   6.862  0.0567  0.2344 -0.0396
 9015SOL    HW138507   2.437   0.533   6.862  0.5799  1.5038 -2.1083
 9015SOL    HW238508   2.521   0.414   6.815  3.0669  1.0671 -1.8266
 9016SOL     OW38509   2.361   0.234   6.248  0.0752  0.2966 -0.0205
 9016SOL    HW138510   2.446   0.228   6.291 -1.3698  0.8881  2.9468
 9016SOL    HW238511   2.315   0.297   6.304 -2.2561  0.6698 -2.3634
 9017SOL     OW38512   4.504   4.320  16.178  0.1758  0.1553  0.1721
 9017SOL    HW138513   4.577   4.379  16.161 -1.5358  1.9395 -0.8253
 9017SOL    HW238514   4.458   4.368  16.246  0.5954  1.4839 -0.4928
 9018SOL     OW38515   0.628   0.311  14.754  0.3995  0.5073 -0.0416
 9018SOL    HW138516   0.538   0.287  14.774  0.0525  2.1003  0.2530
 9018SOL    HW238517   0.667   0.331  14.840 -0.1773 -0.9853  0.5668
 9019SOL     OW38518   4.455   0.629  16.789  0.2252 -0.1312 -0.0073
 9019SOL    HW138519   4.392   0.560  16.764  0.6530 -0.1126 -1.1411
 9019SOL    HW238520   4.514   0.633  16.714  2.0194  1.1835  1.5017
 9020SOL     OW38521   2.483   4.454   1.889 -0.1964  0.7930 -0.3827
 9020SOL    HW138522   2.469   4.371   1.844 -3.2529  1.9861 -1.5775
 9020SOL    HW238523   2.579   4.454   1.887 -0.1770 -1.2478  2.0422
 9021SOL     OW38524   1.018   3.221   4.916 -0.1615  0.1686 -0.1321
 9021SOL    HW138525   1.099   3.231   4.866  0.8370  0.3622  1.5437
 9021SOL    HW238526   0.968   3.299   4.892 -0.7479 -0.9961 -2.7532
 9022SOL     OW38527   2.071   2.468   4.694  0.0778  0.3921  0.5073
 9022SOL    HW138528   2.009   2.540   4.685  1.8284  1.8931  0.4832
 9022SOL    HW238529   2.137   2.490   4.760 -0.2545 -0.9652  1.2897
 9023SOL     OW38530   0.506   4.537   9.663 -0.3299 -0.2095 -0.6628
 9023SOL    HW138531   0.474   4.598   9.597 -1.1409  0.4175  0.3171
 9023SOL    HW238532   0.600   4.533   9.644 -0.5122  1.1766 -1.7781
 9024SOL     OW38533   1.059   1.163   1.121 -0.0033  0.0792 -0.1799
 9024SOL    HW138534   1.143   1.208   1.120 -0.5830  1.2212  1.2680
 9024SOL    HW238535   1.090   1.078   1.149  4.1252  2.0886  1.3275
 9025SOL     OW38536   1.646   0.050   0.380 -0.4653  0.1245 -0.3246
 9025SOL    HW138537   1.639   0.079   0.289 -1.9253 -1.4253 -0.7106
 9025SOL    HW238538   1.554   0.042   0.406 -0.4063  1.1110  0.2000
 9026SOL     OW38539   0.485   0.965   7.619 -0.0420 -0.7296  0.1056
 9026SOL    HW138540   0.423   0.960   7.546  1.6226 -0.2635 -1.3668
 9026SOL    HW238541   0.516   0.875   7.605 -1.9172 -1.5236  1.1175
 9027SOL     OW38542   4.146   2.705  15.854  0.1729 -0.7507 -1.0885
 9027SOL    HW138543   4.153   2.756  15.774 -1.0533 -0.9370 -1.2995
 9027SOL    HW238544   4.210   2.748  15.911 -0.4235 -0.8968 -0.3129
 9028SOL     OW38545   1.698   3.707   5.544  0.1241  0.0522 -0.3218
 9028SOL    HW138546   1.630   3.701   5.478 -0.2880 -0.0042  0.1076
 9028SOL    HW238547   1.741   3.775   5.493  0.4041 -0.8806 -1.3330
 9029SOL     OW38548   0.694   2.961  11.792  0.2991 -0.0649  0.2452
 9029SOL    HW138549   0.617   2.938  11.741  1.8495 -3.3643 -0.5969
 9029SOL    HW238550   0.760   2.949  11.723  0.4727 -2.5859  0.8506
 9030SOL     OW38551   0.639   0.746   2.863  0.2463 -0.3101 -0.1892
 9030SOL    HW138552   0.587   0.672   2.830 -1.2681  0.7480 -0.1963
 9030SOL    HW238553   0.650   0.797   2.783 -0.8553 -0.9686 -0.7643
 9031SOL     OW38554   3.707   1.345   8.375  0.1216  0.0791 -0.0507
 9031SOL    HW138555   3.647   1.360   8.303  0.6580  0.5578 -0.3969
 9031SOL    HW238556   3.644   1.352   8.447 -0.3292 -0.1125 -0.4311
 9032SOL     OW38557   0.939   4.697   4.693  0.2548  0.3369  0.0727
 9032SOL    HW138558   0.989   0.025   4.629 -1.8300  1.4129 -0.7167
 9032SOL    HW238559   0.885   4.635   4.644  2.9628  1.0188 -3.7886
 9033SOL     OW38560   0.766   2.701   3.575 -0.4414  0.3121  0.3934
 9033SOL    HW138561   0.828   2.664   3.512 -1.4752 -0.7292 -0.0171
 9033SOL    HW238562   0.740   2.637   3.641  1.2415  0.8665  1.6052
 9034SOL     OW38563   2.477   0.719  15.013 -0.7019 -0.6389 -0.0013
 9034SOL    HW138564   2.404   0.662  15.036 -1.1693  0.5186  1.4092
 9034SOL    HW238565   2.423   0.777  14.958 -0.9194 -0.5829  0.2715
 9035SOL     OW38566   0.507   1.217   3.693  0.0593 -0.2303  0.0878
 9035SOL    HW138567   0.496   1.148   3.628 -1.8325  0.8285 -0.7032
 9035SOL    HW238568   0.602   1.225   3.695  0.1175 -1.4171  3.5624
 9036SOL     OW38569   2.705   3.918  13.182  0.2006  0.5296  0.2003
 9036SOL    HW138570   2.680   3.852  13.246  0.8408  1.6168  1.5816
 9036SOL    HW238571   2.788   3.951  13.216 -0.2221  2.6261 -0.7841
 9037SOL     OW38572   0.977   1.157   2.860  0.3642 -0.3318  0.3739
 9037SOL    HW138573   0.945   1.073   2.894  1.8188 -2.1337 -2.6939
 9037SOL    HW238574   0.998   1.205   2.940 -0.2149  1.1398 -0.3772
 9038SOL     OW38575   4.618   4.251  15.141  0.2726  0.4101 -0.4244
 9038SOL    HW138576   4.546   4.311  15.161  0.2085 -0.6052  2.4376
 9038SOL    HW238577   4.622   4.241  15.046  2.3798 -0.4432 -0.2572
 9039SOL     OW38578   0.802   0.057   3.338  0.0681  0.3787  0.0970
 9039SOL    HW138579   0.708   0.043   3.330  0.1089  0.1836 -0.0802
 9039SOL    HW238580   0.793   0.124   3.405 -1.5061  0.7444 -0.4975
 9040SOL     OW38581   4.396   0.308  12.912 -0.5117 -0.0657 -0.5733
 9040SOL    HW138582   4.420   0.277  12.825 -0.9974  0.5931 -0.9393
 9040SOL    HW238583   4.446   0.254  12.973 -1.9945 -1.2189 -0.3640
 9041SOL     OW38584   0.271   1.660   3.339  0.2214  0.4796  0.2072
 9041SOL    HW138585   0.191   1.708   3.318  1.1838  2.0373  0.0220
 9041SOL    HW238586   0.282   1.684   3.431  0.2163 -1.5247  0.7165
 9042SOL     OW38587   3.089   1.063  14.372 -0.0910  0.1883  0.0715
 9042SOL    HW138588   3.152   0.991  14.376 -1.2444 -0.7532  1.2141
 9042SOL    HW238589   3.012   1.018  14.336 -0.9273  0.8058  1.1082
 9043SOL     OW38590   0.246   2.239   6.728 -0.3507 -0.0280 -0.5791
 9043SOL    HW138591   0.323   2.242   6.671  0.5122 -1.1853  0.5241
 9043SOL    HW238592   0.260   2.153   6.768  3.4940  1.2347  0.8598
 9044SOL     OW38593   0.055   4.328   6.326  0.3324  0.0196 -0.7295
 9044SOL    HW138594   0.097   4.274   6.393  0.1576  0.4957 -0.2261
 9044SOL    HW238595   0.122   4.394   6.309 -1.6252  2.3136  0.2907
 9045SOL     OW38596   2.346   1.461   5.175  0.1371 -0.2487 -0.2041
 9045SOL    HW138597   2.425   1.506   5.204 -1.3323  1.9433  0.4981
 9045SOL    HW238598   2.381   1.392   5.120  0.4866 -1.1014  1.0837
 9046SOL     OW38599   3.226   0.663  16.524 -0.4091 -0.4949  0.5037
 9046SOL    HW138600   3.303   0.624  16.565  1.3850  3.1182  0.6061
 9046SOL    HW238601   3.244   0.748  16.566 -2.1487  1.7981 -3.4138
 9047SOL     OW38602   2.930   3.536  13.244 -0.0286  0.4254 -0.1696
 9047SOL    HW138603   2.924   3.527  13.149  1.1229  2.4728 -0.4381
 9047SOL    HW238604   3.013   3.585  13.247 -0.0389  0.4578 -0.4496
 9048SOL     OW38605   4.072   0.283  17.565 -0.6610  0.2598  0.2929
 9048SOL    HW138606   4.060   0.223  17.639  2.1657 -3.1929 -2.0617
 9048SOL    HW238607   4.165   0.305  17.573 -0.9229  1.2075  0.7316
 9049SOL     OW38608   2.857   0.950   2.456  0.0383 -0.0379 -0.1132
 9049SOL    HW138609   2.867   1.002   2.377  2.1086 -1.1896 -0.6229
 9049SOL    HW238610   2.924   0.994   2.509 -0.8958  0.8449  0.3351
 9050SOL     OW38611   2.029   2.321  11.510 -0.1657  0.1020 -1.0242
 9050SOL    HW138612   1.996   2.378  11.440  0.1448 -1.0895 -2.1577
 9050SOL    HW238613   2.059   2.243  11.462  0.0312 -0.4756  0.0544
 9051SOL     OW38614   3.825   3.023   5.564  0.4568  0.1035  0.5036
 9051SOL    HW138615   3.820   2.930   5.542 -1.5083  0.4125 -0.3606
 9051SOL    HW238616   3.740   3.030   5.607  0.6223 -0.6368  0.9454
 9052SOL     OW38617   2.170   0.778   4.942 -0.0317  0.0690  0.1081
 9052SOL    HW138618   2.096   0.726   4.910  0.6014 -0.8039  0.0695
 9052SOL    HW238619   2.238   0.715   4.918 -1.1394 -0.1739 -2.3575
 9053SOL     OW38620   2.080   0.790   3.699 -0.0837  0.7399  0.2846
 9053SOL    HW138621   2.082   0.877   3.660  2.7826  0.5268 -0.0383
 9053SOL    HW238622   2.047   0.821   3.784 -0.2643  1.8097 -0.1752
 9054SOL     OW38623   4.638   3.339   6.895 -0.0510  0.0496 -0.3637
 9054SOL    HW138624   4.702   3.288   6.944 -0.5874 -1.1835 -0.9469
 9054SOL    HW238625   4.656   3.421   6.940 -0.2991 -1.1393  1.8759
 9055SOL     OW38626   1.861   4.190   3.601  0.7128  0.0291  0.3039
 9055SOL    HW138627   1.848   4.157   3.512 -0.6405  0.1600  0.4661
 9055SOL    HW238628   1.811   4.123   3.647  0.4286  0.4837  0.6547
 9056SOL     OW38629   3.392   0.278   0.455 -0.0332 -0.0707 -0.3458
 9056SOL    HW138630   3.399   0.361   0.504  0.7888 -0.6139  0.4716
 9056SOL    HW238631   3.317   0.243   0.502 -0.8705  0.6717 -1.1461
 9057SOL     OW38632   3.902   2.755  16.805 -0.8005 -0.2142 -0.2176
 9057SOL    HW138633   3.867   2.836  16.770  0.6976 -0.2345 -1.8073
 9057SOL    HW238634   3.832   2.691  16.790 -0.0675 -0.5955 -2.0543
 9058SOL     OW38635   2.338   3.650   7.225 -0.4080  0.0849  0.7721
 9058SOL    HW138636   2.400   3.723   7.234  0.2264 -0.4233  0.5814
 9058SOL    HW238637   2.329   3.624   7.317 -1.8502 -0.8448  0.3696
 9059SOL     OW38638   1.439   3.056   7.530  0.3347 -0.2913 -0.8398
 9059SOL    HW138639   1.420   3.090   7.442  0.7472  1.4404 -0.2509
 9059SOL    HW238640   1.384   3.117   7.578 -0.7413 -0.0927 -2.3392
 9060SOL     OW38641   0.715   4.694   2.298  0.0278  0.0354 -0.4057
 9060SOL    HW138642   0.636   4.657   2.259 -0.2238 -0.2317  0.3463
 9060SOL    HW238643   0.732   0.048   2.244  1.1312  1.3889  1.8288
 9061SOL     OW38644   4.545   4.574  17.049  0.9807 -0.1071 -0.3644
 9061SOL    HW138645   4.471   4.619  17.008  1.2630 -0.5698 -1.3901
 9061SOL    HW238646   4.617   4.606  16.995 -0.3897 -0.6930 -2.5440
 9062SOL     OW38647   1.208   0.060   2.294 -0.3462 -0.5357  0.2345
 9062SOL    HW138648   1.157   0.141   2.285 -1.6112 -1.4648 -0.9398
 9062SOL    HW238649   1.243   0.073   2.382  1.7817 -0.4404 -0.6406
 9063SOL     OW38650   1.354   2.151   2.963  0.0558  0.2005  0.5865
 9063SOL    HW138651   1.446   2.164   2.987 -0.2029  0.7131  1.3029
 9063SOL    HW238652   1.363   2.062   2.930  0.3192  0.4828 -0.0972
 9064SOL     OW38653   3.224   2.661   3.907  0.4303  0.0399  0.4720
 9064SOL    HW138654   3.307   2.702   3.882  0.0844  0.1360 -0.5388
 9064SOL    HW238655   3.226   2.576   3.863 -1.5606  0.0169  0.4134
 9065SOL     OW38656   2.601   2.202  10.116 -0.0799 -0.4655  0.2988
 9065SOL    HW138657   2.673   2.262  10.094 -2.6999  2.6264  0.1646
 9065SOL    HW238658   2.544   2.234  10.046 -0.1329  0.9238  0.9685
 9066SOL     OW38659   4.172   3.345   8.853  0.4737  0.3651  0.6997
 9066SOL    HW138660   4.153   3.266   8.803  1.2316  0.6820 -0.0746
 9066SOL    HW238661   4.240   3.298   8.901  1.3351  0.0128 -0.8944
 9067SOL     OW38662   3.879   4.198   6.479 -0.6968  0.0423  0.4964
 9067SOL    HW138663   3.948   4.132   6.471  0.8789  1.9219 -1.6710
 9067SOL    HW238664   3.879   4.250   6.399  0.2411 -1.8097 -0.7086
 9068SOL     OW38665   4.295   2.301   4.081 -0.2079  0.4981 -0.5454
 9068SOL    HW138666   4.301   2.205   4.074 -1.3454  0.2364  2.3690
 9068SOL    HW238667   4.289   2.312   4.175  4.5141  2.7743 -0.4709
 9069SOL     OW38668   3.460   2.784   6.562 -0.2111 -0.0949 -0.2166
 9069SOL    HW138669   3.451   2.876   6.537  0.7865  0.2182  0.5827
 9069SOL    HW238670   3.555   2.778   6.571 -0.3231  0.8249  1.7292
 9070SOL     OW38671   3.043   1.095   7.427 -0.0837  0.4546 -0.0155
 9070SOL    HW138672   3.005   1.110   7.340 -0.4886 -1.6931 -0.2329
 9070SOL    HW238673   2.963   1.104   7.479  1.1039 -0.4162  1.9719
 9071SOL     OW38674   3.398   2.441  16.664  0.5116  0.4625  0.1124
 9071SOL    HW138675   3.332   2.380  16.632  1.6983 -1.2539  0.9434
 9071SOL    HW238676   3.345   2.493  16.724 -0.5669  1.0242 -1.3188
 9072SOL     OW38677   1.290   0.414  13.030  0.5713 -0.1449 -0.2309
 9072SOL    HW138678   1.340   0.494  13.046 -2.1592  1.7324 -1.0590
 9072SOL    HW238679   1.203   0.451  13.014 -0.1402 -0.5694  2.7826
 9073SOL     OW38680   1.723   0.785   3.589  0.1754  0.0546  0.0839
 9073SOL    HW138681   1.763   0.850   3.531  0.8082 -1.7569 -1.5508
 9073SOL    HW238682   1.775   0.705   3.601 -0.7105 -0.5864 -0.3775
 9074SOL     OW38683   4.099   0.011   8.728 -0.8837 -0.1588 -0.4144
 9074SOL    HW138684   4.113   4.645   8.696  0.3349  0.0176 -0.3689
 9074SOL    HW238685   4.060   4.720   8.814 -0.6982  1.7399 -0.0118
 9075SOL     OW38686   3.811   2.587  12.826  0.4903  0.1710 -0.5943
 9075SOL    HW138687   3.849   2.588  12.914  0.3611 -1.3376 -0.5223
 9075SOL    HW238688   3.867   2.641  12.770 -0.1480  0.4516 -0.9605
 9076SOL     OW38689   4.158   2.521   9.798 -0.3819 -0.9200  0.4055
 9076SOL    HW138690   4.133   2.442   9.846  0.5812 -0.0398  2.3688
 9076SOL    HW238691   4.184   2.477   9.717 -0.9323 -1.7286  0.6697
 9077SOL     OW38692   1.147   1.136   3.396 -0.0631 -0.0161 -0.2896
 9077SOL    HW138693   1.192   1.219   3.381  1.1123 -0.3245  1.4821
 9077SOL    HW238694   1.072   1.150   3.339  0.4478  3.1245 -0.1822
 9078SOL     OW38695   1.165   2.387   6.960  0.8390  0.1957  0.2381
 9078SOL    HW138696   1.177   2.435   6.879  0.3098 -1.7058 -0.9633
 9078SOL    HW238697   1.103   2.447   7.001 -0.6239 -0.4186 -1.0913
 9079SOL     OW38698   3.315   3.011  17.232 -0.0271  0.0213 -0.3548
 9079SOL    HW138699   3.373   2.936  17.247 -2.6124 -1.9309 -0.0662
 9079SOL    HW238700   3.337   3.017  17.139 -0.7042 -0.8320 -0.5674
 9080SOL     OW38701   3.263   2.195   0.309 -0.1018 -0.2059 -0.5221
 9080SOL    HW138702   3.201   2.266   0.321 -0.8688 -0.7938 -0.9980
 9080SOL    HW238703   3.206   2.121   0.288  3.0004 -2.5651 -0.6679
 9081SOL     OW38704   4.657   2.008  16.770  0.4367  0.0063  0.3794
 9081SOL    HW138705   4.599   2.082  16.790  0.5415 -0.0559  0.9264
 9081SOL    HW238706   4.708   2.051  16.701  1.2704 -0.7796  0.5063
 9082SOL     OW38707   0.467   4.565   6.915  0.0612 -0.1910  0.2016
 9082SOL    HW138708   0.544   4.508   6.908 -0.1058 -0.4928  0.8381
 9082SOL    HW238709   0.434   4.564   6.825 -1.5593 -2.9210  0.7965
 9083SOL     OW38710   2.263   2.054   7.827 -0.4517  0.1351  0.6401
 9083SOL    HW138711   2.243   2.138   7.870  2.4063  1.6209 -0.9631
 9083SOL    HW238712   2.229   2.076   7.740 -2.0745 -0.6043  1.0813
 9084SOL     OW38713   0.119   2.679   3.110  0.2486 -0.2740 -0.1994
 9084SOL    HW138714   0.214   2.674   3.117  0.1314 -0.4304  1.2346
 9084SOL    HW238715   0.107   2.587   3.086 -0.5618 -0.4540  0.8988
 9085SOL     OW38716   0.612   1.881   7.004 -0.3125  0.2897  0.0510
 9085SOL    HW138717   0.609   1.974   6.984 -0.0237  0.2563 -0.1447
 9085SOL    HW238718   0.567   1.888   7.089 -1.7134  1.0296 -0.7491
 9086SOL     OW38719   3.374   1.391   7.717  0.4520 -0.5744  0.3303
 9086SOL    HW138720   3.370   1.378   7.622  0.6124  1.7783 -0.0114
 9086SOL    HW238721   3.425   1.471   7.731  1.2852 -0.8155 -1.4183
 9087SOL     OW38722   2.819   1.822   8.569 -0.2932  0.4659 -0.4285
 9087SOL    HW138723   2.743   1.878   8.589  0.0523  0.7173  0.1994
 9087SOL    HW238724   2.876   1.833   8.645 -0.6966  0.9050 -0.1820
 9088SOL     OW38725   2.277   2.139  16.658  0.1080  0.3104  0.1858
 9088SOL    HW138726   2.304   2.227  16.685 -1.6174  0.6442  0.8142
 9088SOL    HW238727   2.207   2.115  16.719 -0.0003  1.1136  0.3699
 9089SOL     OW38728   0.608   1.519   7.019 -0.0049  0.1768 -0.4566
 9089SOL    HW138729   0.593   1.580   7.092  0.5125  2.0823 -1.9266
 9089SOL    HW238730   0.519   1.495   6.995 -0.4724  0.1427  1.2549
 9090SOL     OW38731   0.398   0.310   4.193 -0.1756 -0.5767 -0.3980
 9090SOL    HW138732   0.359   0.233   4.151 -0.0001  0.2786 -2.1543
 9090SOL    HW238733   0.316   0.358   4.197  0.0290 -0.4391  2.0258
 9091SOL     OW38734   2.126   0.413   2.638 -0.5666  0.4472  0.0107
 9091SOL    HW138735   2.064   0.420   2.565 -1.3821  0.4953  0.6958
 9091SOL    HW238736   2.210   0.414   2.592 -1.1489  1.4352 -1.0299
 9092SOL     OW38737   0.750   2.563   8.403  0.0952  0.5254  0.2438
 9092SOL    HW138738   0.773   2.520   8.321  1.1555  0.6758  0.4696
 9092SOL    HW238739   0.798   2.646   8.406  1.4345 -0.2934  1.2990
 9093SOL     OW38740   0.893   2.344   1.097 -0.0181 -0.0017  0.4514
 9093SOL    HW138741   0.977   2.390   1.096  0.5555 -1.0561 -0.5552
 9093SOL    HW238742   0.854   2.398   1.166  1.1698  0.1101  1.0282
 9094SOL     OW38743   2.056   1.692   7.669  0.4913 -0.1855 -0.7159
 9094SOL    HW138744   2.029   1.718   7.757 -0.2403 -1.0572 -0.6861
 9094SOL    HW238745   1.984   1.715   7.612  0.4467  0.6880 -0.3080
 9095SOL     OW38746   0.210   3.852   5.880 -0.0363 -0.3525 -0.2474
 9095SOL    HW138747   0.258   3.904   5.816 -0.1840  0.8686  0.6180
 9095SOL    HW238748   0.239   3.763   5.863  1.7887  0.0745  0.6889
 9096SOL     OW38749   4.174   3.005   5.365 -0.6356 -0.3135  0.4765
 9096SOL    HW138750   4.178   3.050   5.449 -2.3982  0.3177  0.2239
 9096SOL    HW238751   4.145   3.074   5.305  1.4211 -0.1092 -0.2626
 9097SOL     OW38752   0.980   4.156   7.292 -0.3925  0.9723  0.2043
 9097SOL    HW138753   0.893   4.116   7.285 -0.1166  0.2791  0.8097
 9097SOL    HW238754   1.029   4.096   7.348 -0.4118  0.4084 -0.3895
 9098SOL     OW38755   0.276   3.400   3.416  0.0001 -0.6005  0.3454
 9098SOL    HW138756   0.324   3.321   3.438  1.0200  0.7658  2.9473
 9098SOL    HW238757   0.298   3.422   3.325 -1.1697  1.7617  0.6092
 9099SOL     OW38758   2.915   1.541   8.681 -0.1381 -0.0071  0.7314
 9099SOL    HW138759   2.872   1.588   8.609 -0.2995 -1.7013 -0.2730
 9099SOL    HW238760   2.834   1.534   8.733 -1.0908 -1.4445 -0.9519
 9100SOL     OW38761   3.281   0.044  14.655 -0.5310 -0.0734 -0.2958
 9100SOL    HW138762   3.355   4.708  14.675  0.2508  0.6528 -1.0592
 9100SOL    HW238763   3.314   0.124  14.695 -0.5805 -0.4909  0.5895
 9101SOL     OW38764   1.815   0.701   1.710  0.3653 -0.1134  0.1088
 9101SOL    HW138765   1.909   0.684   1.702  0.4530 -0.1339  1.2382
 9101SOL    HW238766   1.782   0.685   1.621  1.1374 -0.6056 -0.0842
 9102SOL     OW38767   2.324   3.987  16.591  0.0806 -0.5099 -0.5887
 9102SOL    HW138768   2.407   4.017  16.629 -0.2929  1.1140 -1.0680
 9102SOL    HW238769   2.299   3.913  16.646  0.2128  0.7531  1.1463
 9103SOL     OW38770   3.980   0.891   2.804  0.1702 -0.1610  0.1130
 9103SOL    HW138771   4.023   0.964   2.849 -0.7059  0.9127 -0.7751
 9103SOL    HW238772   4.036   0.886   2.726  0.3510 -0.4312  0.2597
 9104SOL     OW38773   1.386   2.938   5.097 -0.0886 -0.4410 -0.2672
 9104SOL    HW138774   1.299   2.932   5.058 -0.0060  1.8921 -0.8280
 9104SOL    HW238775   1.382   2.960   5.190  0.3236 -2.6969  0.2943
 9105SOL     OW38776   3.788   1.287   0.865  0.3886 -0.0553 -0.1497
 9105SOL    HW138777   3.865   1.233   0.882 -0.7515 -1.1999  1.3844
 9105SOL    HW238778   3.717   1.224   0.852  0.6665 -0.0979 -1.4496
 9106SOL     OW38779   2.425   0.135   1.307  0.3861 -0.1457 -0.0441
 9106SOL    HW138780   2.374   0.200   1.258  1.9423  2.1010  1.2873
 9106SOL    HW238781   2.355   0.074   1.328  0.5988  0.2108  1.7040
 9107SOL     OW38782   1.705   1.765   4.292 -0.0174  0.2382  0.1507
 9107SOL    HW138783   1.745   1.841   4.334 -3.4199  1.6087  0.9009
 9107SOL    HW238784   1.629   1.743   4.345  1.9088  0.5155  3.0613
 9108SOL     OW38785   2.078   2.953   7.451  0.7708  0.6459 -0.0836
 9108SOL    HW138786   2.011   2.978   7.515  0.6759  2.0302 -0.7229
 9108SOL    HW238787   2.092   2.863   7.480  0.6011 -0.0090 -2.0397
 9109SOL     OW38788   3.017   1.220  12.033  0.3863  0.1192 -0.3179
 9109SOL    HW138789   3.047   1.244  12.121 -1.7475 -1.0622  0.7717
 9109SOL    HW238790   3.096   1.183  11.994  0.5444  1.3757 -1.1527
 9110SOL     OW38791   3.101   2.516   4.472 -0.0889 -0.1722  0.6096
 9110SOL    HW138792   3.078   2.582   4.537 -1.7635 -0.3722  0.2162
 9110SOL    HW238793   3.186   2.486   4.504 -0.3030 -2.0049 -0.5487
 9111SOL     OW38794   0.567   0.439  14.049 -0.0384  0.7971  0.3739
 9111SOL    HW138795   0.567   0.531  14.023 -1.3510  0.9687  1.0037
 9111SOL    HW238796   0.559   0.386  13.970  0.3260 -1.8241  2.0970
 9112SOL     OW38797   3.519   2.392  10.229  0.3100  0.2229  0.0527
 9112SOL    HW138798   3.601   2.442  10.240 -1.5996  3.1026  1.2007
 9112SOL    HW238799   3.541   2.303  10.256 -1.9045  0.6980  3.3332
 9113SOL     OW38800   4.020   2.203   2.970 -0.1829 -0.0707  0.3398
 9113SOL    HW138801   4.011   2.250   3.053 -0.3665 -0.9114  0.7924
 9113SOL    HW238802   3.979   2.273   2.918  2.2729  0.4995 -0.8188
 9114SOL     OW38803   4.209   4.378   4.518  0.2021 -0.0997  0.5432
 9114SOL    HW138804   4.236   4.442   4.584 -0.8057  1.3620 -0.4804
 9114SOL    HW238805   4.147   4.433   4.471  0.5189 -1.2249 -1.1765
 9115SOL     OW38806   2.075   4.037   4.478  0.5861  0.3593  0.4676
 9115SOL    HW138807   2.067   3.944   4.500  2.1618  0.4118  1.2387
 9115SOL    HW238808   2.062   4.067   4.568  1.1206  0.2873  0.5683
 9116SOL     OW38809   3.279   2.213   7.117  0.6336  0.4489 -0.1910
 9116SOL    HW138810   3.327   2.145   7.165 -1.1810  0.6174  1.8781
 9116SOL    HW238811   3.353   2.272   7.100  0.1015  0.5887 -2.0476
 9117SOL     OW38812   3.186   0.512   2.762  0.2609  0.2303 -0.0247
 9117SOL    HW138813   3.247   0.577   2.726  1.0096 -0.3123  0.2772
 9117SOL    HW238814   3.239   0.477   2.834 -1.3820 -0.2924  0.9346
 9118SOL     OW38815   0.835   2.683   1.720  0.3268 -0.3706 -0.8644
 9118SOL    HW138816   0.803   2.653   1.805 -1.5340  1.3299 -0.9760
 9118SOL    HW238817   0.798   2.770   1.731  0.7259 -0.6549  2.5353
 9119SOL     OW38818   2.080   3.312   4.201  0.0731  0.2596 -0.3799
 9119SOL    HW138819   2.077   3.288   4.108 -2.1309  0.5736 -0.4011
 9119SOL    HW238820   2.110   3.232   4.243  1.9647  1.4165  0.4903
 9120SOL     OW38821   0.101   1.496  14.359  0.0432 -0.0653 -0.2817
 9120SOL    HW138822   0.140   1.408  14.361 -0.1667 -0.1532  0.0016
 9120SOL    HW238823   0.179   1.548  14.342  0.3517 -0.6169 -0.5765
 9121SOL     OW38824   0.637   1.910   1.477 -0.4213 -0.1643 -0.1579
 9121SOL    HW138825   0.667   1.821   1.496  0.5146 -0.0169 -0.9240
 9121SOL    HW238826   0.624   1.940   1.567 -2.8593 -1.5944 -0.0375
 9122SOL     OW38827   0.772   4.161  10.378  0.1835 -0.1134 -0.4871
 9122SOL    HW138828   0.789   4.186  10.469 -4.3523 -1.0089  0.5888
 9122SOL    HW238829   0.814   4.076  10.368  0.0126 -0.2650  0.0737
 9123SOL     OW38830   4.446   0.246   7.611  0.5001  0.1803  0.2026
 9123SOL    HW138831   4.529   0.199   7.609 -0.3273 -1.1468 -3.3376
 9123SOL    HW238832   4.397   0.215   7.686 -0.3565 -0.1237 -0.4777
 9124SOL     OW38833   0.504   3.401   7.313 -0.6110 -0.6112  0.1470
 9124SOL    HW138834   0.412   3.383   7.296 -0.9121  1.2070 -0.1078
 9124SOL    HW238835   0.537   3.321   7.272  0.8602  0.8384 -1.5100
 9125SOL     OW38836   4.277   1.309   7.054 -0.4904 -0.2498  0.7027
 9125SOL    HW138837   4.361   1.329   7.012 -0.4352 -1.3630  0.2669
 9125SOL    HW238838   4.242   1.259   6.981  1.5804  0.5547 -0.8523
 9126SOL     OW38839   2.132   3.580  14.276 -0.3449 -0.6891 -0.2840
 9126SOL    HW138840   2.201   3.623  14.327  0.2423  1.5536 -2.9191
 9126SOL    HW238841   2.173   3.509  14.226  0.5422 -0.9535  0.8268
 9127SOL     OW38842   2.015   0.161   4.100 -0.0742 -0.2825  0.2617
 9127SOL    HW138843   2.044   0.177   4.010 -2.8509 -0.6362 -0.7075
 9127SOL    HW238844   2.046   0.070   4.104 -0.0481 -0.2360  1.1119
 9128SOL     OW38845   1.576   0.065   4.321  0.2422 -0.2956 -0.3782
 9128SOL    HW138846   1.523   0.111   4.388  0.6729  0.1222 -0.3224
 9128SOL    HW238847   1.550   0.116   4.244  2.9308  2.5472  0.6052
 9129SOL     OW38848   1.897   3.249   3.592  0.5778  0.1466 -0.3301
 9129SOL    HW138849   1.813   3.281   3.559  0.3845 -0.7940 -0.7360
 9129SOL    HW238850   1.884   3.155   3.581  2.3011 -0.2832  1.3157
 9130SOL     OW38851   0.971   1.514   7.459 -0.2361 -0.2806  0.3604
 9130SOL    HW138852   1.014   1.470   7.532  0.7603 -2.3502 -1.4776
 9130SOL    HW238853   1.022   1.595   7.461 -0.8224  0.0713  0.9444
 9131SOL     OW38854   3.123   0.011   9.173 -0.3068 -0.4040 -0.0831
 9131SOL    HW138855   3.032   0.040   9.163 -0.2374 -0.5669 -1.2659
 9131SOL    HW238856   3.159   0.095   9.204  0.4512 -0.7998  0.1086
 9132SOL     OW38857   4.098   3.263   5.251  0.0700 -0.3958  0.1505
 9132SOL    HW138858   4.107   3.347   5.296 -1.4781 -0.0421 -0.2327
 9132SOL    HW238859   4.008   3.246   5.278  0.6428 -1.2979  1.5380
 9133SOL     OW38860   3.962   4.328  14.450  0.1348 -0.3608 -0.1302
 9133SOL    HW138861   4.012   4.337  14.531 -0.2434 -0.5759  0.1282
 9133SOL    HW238862   3.991   4.239  14.430 -0.8100 -0.8138  0.5173
 9134SOL     OW38863   3.362   0.114   3.681  0.1462 -0.0111  0.5342
 9134SOL    HW138864   3.445   0.140   3.723  0.3308  0.6967 -0.2544
 9134SOL    HW238865   3.360   0.161   3.597  3.4779  1.3151  1.1929
 9135SOL     OW38866   2.846   1.866   5.883 -0.0464  0.1895 -0.1138
 9135SOL    HW138867   2.822   1.827   5.799 -0.2130  1.4998 -0.6758
 9135SOL    HW238868   2.795   1.812   5.944  1.4807 -0.0722  0.9282
 9136SOL     OW38869   1.764   1.999   2.812 -0.0579  0.2753  0.0827
 9136SOL    HW138870   1.856   1.978   2.795  0.2051  0.5524  1.1816
 9136SOL    HW238871   1.746   1.918   2.858 -3.5557  0.5557 -0.8173
 9137SOL     OW38872   3.998   1.105   0.973 -0.0827  0.0984 -0.1708
 9137SOL    HW138873   4.075   1.113   0.917  0.2092 -0.4378  0.1523
 9137SOL    HW238874   3.981   1.010   0.977 -2.3125  0.5219  0.7273
 9138SOL     OW38875   2.904   4.132   7.229  0.1180 -0.3000 -0.8291
 9138SOL    HW138876   2.984   4.090   7.198  1.1803 -0.9274  2.7659
 9138SOL    HW238877   2.937   4.168   7.311  1.8548 -0.0692 -1.6442
 9139SOL     OW38878   2.126   4.678   1.744 -0.2321  0.2776  0.3578
 9139SOL    HW138879   2.182   4.687   1.668 -0.0516 -1.2780  0.3080
 9139SOL    HW238880   2.148   0.041   1.780 -1.7570  0.8846 -0.1341
 9140SOL     OW38881   3.598   0.173   4.238  0.3344  0.5337 -0.6814
 9140SOL    HW138882   3.590   0.118   4.316 -0.0379  0.1470 -0.9903
 9140SOL    HW238883   3.507   0.205   4.230 -0.1423 -1.1540 -2.0535
 9141SOL     OW38884   4.094   2.540   7.506  0.2288 -0.2023 -0.0229
 9141SOL    HW138885   4.093   2.579   7.593  1.8098  0.0898 -0.1444
 9141SOL    HW238886   4.004   2.508   7.494  0.5523 -0.8751 -0.6236
 9142SOL     OW38887   1.534   3.216   2.234  0.6471  0.4533 -0.1441
 9142SOL    HW138888   1.499   3.289   2.285  1.1641  0.1052  0.7059
 9142SOL    HW238889   1.628   3.225   2.247  0.8165 -0.9956 -0.3321
 9143SOL     OW38890   1.843   1.659   6.526 -0.6627 -0.0339 -0.2166
 9143SOL    HW138891   1.801   1.586   6.480 -0.5301 -0.5018  0.4112
 9143SOL    HW238892   1.853   1.608   6.606 -0.4248 -0.9499 -0.8207
 9144SOL     OW38893   4.530   0.884   1.119 -0.5903  0.2690 -0.3183
 9144SOL    HW138894   4.580   0.822   1.172 -0.4222  2.1977  1.7824
 9144SOL    HW238895   4.609   0.936   1.105 -0.5542  0.2241 -0.2864
 9145SOL     OW38896   1.037   2.047   5.968  0.6349  0.6112 -0.0423
 9145SOL    HW138897   1.035   2.140   5.946  1.8999  1.0474  1.7035
 9145SOL    HW238898   0.988   2.007   5.896 -0.1212  0.0266  0.7956
 9146SOL     OW38899   0.317   3.112   7.684 -0.1692 -0.7662 -1.0725
 9146SOL    HW138900   0.401   3.148   7.712  1.2521 -3.2062 -2.1902
 9146SOL    HW238901   0.308   3.172   7.610  0.9453  1.0092  0.2639
 9147SOL     OW38902   3.635   0.952   6.005 -0.2203 -0.1171 -0.2434
 9147SOL    HW138903   3.584   0.956   6.086 -0.2040  2.2773 -0.3737
 9147SOL    HW238904   3.572   0.969   5.935  1.5055  0.2627 -1.7031
 9148SOL     OW38905   0.864   2.473   8.616  0.4078  0.6891  0.6092
 9148SOL    HW138906   0.886   2.401   8.557 -0.1427  2.0790 -1.2782
 9148SOL    HW238907   0.798   2.514   8.560 -0.7938  0.8127  2.1292
 9149SOL     OW38908   2.127   1.132   0.710  0.4713 -0.8967 -0.1025
 9149SOL    HW138909   2.173   1.111   0.629  1.7395 -2.4433  1.0305
 9149SOL    HW238910   2.122   1.228   0.705 -2.7670 -1.0761 -0.4085
 9150SOL     OW38911   1.172   2.920   4.354  0.0478 -0.0897  0.0654
 9150SOL    HW138912   1.106   2.987   4.333 -1.2148 -0.5802  2.5011
 9150SOL    HW238913   1.239   2.928   4.286  0.4488 -1.8015  0.2605
 9151SOL     OW38914   2.308   0.811   5.939  0.1473  0.8590  0.2174
 9151SOL    HW138915   2.388   0.859   5.921 -0.1393  0.9204 -0.9336
 9151SOL    HW238916   2.321   0.813   6.034 -2.1700 -0.1095  0.5647
 9152SOL     OW38917   4.571   0.709   5.403  0.3755 -0.3781  0.0718
 9152SOL    HW138918   4.571   0.617   5.377 -1.8990 -0.6960  1.1811
 9152SOL    HW238919   4.478   0.730   5.400  0.5946  0.4179 -0.9723
 9153SOL     OW38920   3.919   3.254   5.687  0.1228  0.1906 -0.0674
 9153SOL    HW138921   3.893   3.228   5.775  0.9238 -0.0607  0.0933
 9153SOL    HW238922   3.891   3.180   5.633  1.2946 -1.3193  1.3799
 9154SOL     OW38923   3.004   2.315   8.777  0.0418  0.4865 -0.4745
 9154SOL    HW138924   2.917   2.278   8.764 -0.2286  1.6966 -2.1330
 9154SOL    HW238925   3.045   2.305   8.690  2.7300  0.0482  0.8314
 9155SOL     OW38926   4.326   2.746  17.138 -0.3632  0.1705 -0.3435
 9155SOL    HW138927   4.375   2.666  17.120  0.1607 -0.0639  2.0234
 9155SOL    HW238928   4.278   2.755  17.056 -1.2103  0.6866  0.2086
 9156SOL     OW38929   1.270   2.498   3.658  0.0827 -0.4136  0.0892
 9156SOL    HW138930   1.194   2.486   3.600  1.6241 -2.0757 -1.5950
 9156SOL    HW238931   1.309   2.570   3.608 -0.5659  0.8046  1.3274
 9157SOL     OW38932   3.514   1.586  14.414 -0.4174  0.1554  0.4541
 9157SOL    HW138933   3.487   1.508  14.366  1.4137  1.5239 -2.8115
 9157SOL    HW238934   3.602   1.601  14.380  0.0609 -1.3509  1.0202
 9158SOL     OW38935   0.348   2.855  13.602 -0.3097 -0.2558 -0.6324
 9158SOL    HW138936   0.400   2.860  13.682  2.0107  0.6086 -2.1863
 9158SOL    HW238937   0.418   2.871  13.538 -1.3228 -0.7883 -1.8844
 9159SOL     OW38938   3.274   2.462  10.350  0.3309 -0.3049  0.6216
 9159SOL    HW138939   3.281   2.400  10.423 -0.7697 -0.1274  0.8880
 9159SOL    HW238940   3.363   2.463  10.315  0.5856 -1.1644  1.2303
 9160SOL     OW38941   3.727   0.342   2.914  1.3455 -0.2647 -0.0495
 9160SOL    HW138942   3.694   0.270   2.967  0.4845  1.0169  1.1543
 9160SOL    HW238943   3.656   0.350   2.852 -0.0117 -1.6945  1.3096
 9161SOL     OW38944   0.045   2.685   6.902 -0.1096 -0.2405 -0.3013
 9161SOL    HW138945   0.135   2.651   6.908  0.2550  0.1112 -3.8869
 9161SOL    HW238946   0.065   2.776   6.921  0.7997 -0.2313 -1.2990
 9162SOL     OW38947   2.355   1.795  17.568 -0.0961 -0.0237 -0.0664
 9162SOL    HW138948   2.408   1.770  17.492 -0.1599 -1.3702  0.3330
 9162SOL    HW238949   2.417   1.861  17.597 -0.9528  0.1840  1.2736
 9163SOL     OW38950   1.410   1.544   0.529 -0.7607  0.0531 -0.1854
 9163SOL    HW138951   1.333   1.577   0.576 -1.2268 -1.9438  0.4427
 9163SOL    HW238952   1.455   1.499   0.600  1.3781  1.9878 -0.2872
 9164SOL     OW38953   0.509   3.859   1.089  0.0131 -0.5506 -0.0807
 9164SOL    HW138954   0.443   3.802   1.051 -0.9474  1.4320 -1.3709
 9164SOL    HW238955   0.553   3.885   1.008 -1.2111 -1.9513 -1.1858
 9165SOL     OW38956   2.146   4.315   4.532  0.6251  0.1085  0.1567
 9165SOL    HW138957   2.159   4.221   4.520 -0.1762  0.0882 -0.5393
 9165SOL    HW238958   2.164   4.353   4.446 -1.7240  1.1483  0.1305
 9166SOL     OW38959   3.626   0.520   2.590  0.3709 -0.1327 -0.2913
 9166SOL    HW138960   3.543   0.565   2.599  1.9164  2.7643 -0.5016
 9166SOL    HW238961   3.645   0.532   2.497  1.0283  2.7859  0.2119
 9167SOL     OW38962   2.776   3.873  13.819 -0.2147  0.1577 -0.2102
 9167SOL    HW138963   2.745   3.946  13.872 -0.3987 -0.6080  0.7504
 9167SOL    HW238964   2.857   3.910  13.784  0.7286  1.4502  3.3838
 9168SOL     OW38965   3.453   4.216   0.077 -0.6904 -0.5129 -0.5079
 9168SOL    HW138966   3.520   4.263   0.028 -1.1071  0.5752 -0.0278
 9168SOL    HW238967   3.412   4.282   0.132  2.5371  0.5326  0.6345
 9169SOL     OW38968   1.526   1.945   6.180 -0.2484 -0.7240  0.1031
 9169SOL    HW138969   1.516   1.852   6.203 -0.2342 -1.0561 -1.2153
 9169SOL    HW238970   1.445   1.973   6.137 -0.5421 -1.8606 -0.0959
 9170SOL     OW38971   1.438   0.152   6.767 -0.1063 -0.1440 -0.3388
 9170SOL    HW138972   1.409   0.239   6.742 -1.1732 -0.8730 -1.6044
 9170SOL    HW238973   1.356   0.106   6.782 -0.3746  0.2899 -0.4878
 9171SOL     OW38974   1.557   0.495   4.616  0.8268  0.8941 -0.0245
 9171SOL    HW138975   1.610   0.527   4.542  2.0813  1.5214  1.1584
 9171SOL    HW238976   1.527   0.410   4.582 -0.7599  1.3386  0.2669
 9172SOL     OW38977   3.574   1.993  17.258  0.5166 -0.3387 -0.2244
 9172SOL    HW138978   3.500   1.947  17.296 -0.5483  1.5251 -0.0552
 9172SOL    HW238979   3.626   2.022  17.333  0.9257  1.1375 -1.0701
 9173SOL     OW38980   1.540   0.609   4.867 -0.5005 -0.3066  0.3467
 9173SOL    HW138981   1.556   0.703   4.858 -0.5126 -0.1610  1.7786
 9173SOL    HW238982   1.538   0.581   4.776  3.0092  0.2526  0.1232
 9174SOL     OW38983   0.346   0.020   8.446 -0.1151  0.0284 -0.3046
 9174SOL    HW138984   0.400   0.098   8.433  1.8184 -0.6695  3.5349
 9174SOL    HW238985   0.260   0.059   8.433 -1.9331 -3.3973  1.2764
 9175SOL     OW38986   1.948   2.371  10.001 -0.5198  0.3290 -0.3651
 9175SOL    HW138987   2.012   2.436   9.973  2.1352 -1.3884  1.6591
 9175SOL    HW238988   1.867   2.390   9.953 -1.2413  1.3896  1.2543
 9176SOL     OW38989   1.308   0.379   3.804 -0.1335  0.2240  0.4128
 9176SOL    HW138990   1.214   0.363   3.802  0.0012 -0.5239  0.0244
 9176SOL    HW238991   1.324   0.402   3.896 -2.2953  0.4508  0.7291
 9177SOL     OW38992   1.131   1.201  11.490 -0.0656 -0.5616  0.1933
 9177SOL    HW138993   1.203   1.239  11.439  0.8800 -1.1747  1.0760
 9177SOL    HW238994   1.092   1.152  11.417  0.0181  1.6863 -1.3716
 9178SOL     OW38995   1.232   3.664   7.985  0.4849 -0.0035  0.2457
 9178SOL    HW138996   1.215   3.754   7.957  0.5488  0.4439  1.6219
 9178SOL    HW238997   1.303   3.680   8.047  0.5138 -4.7717  1.4173
 9179SOL     OW38998   0.605   4.312   2.087  0.1692  0.2851  0.5473
 9179SOL    HW138999   0.592   4.391   2.139 -2.2886  0.7157 -0.7259
 9179SOL    HW239000   0.515   4.282   2.081  0.4511 -0.9594  2.6733
 9180SOL     OW39001   4.493   1.717   0.627 -1.1283  0.2483 -0.2226
 9180SOL    HW139002   4.462   1.769   0.553 -2.2069  1.7597  1.3164
 9180SOL    HW239003   4.585   1.699   0.606 -0.5861  3.8498 -0.8667
 9181SOL     OW39004   4.092   3.509   4.892 -0.6473 -0.5997  0.5815
 9181SOL    HW139005   4.074   3.565   4.967  2.1092 -0.6691  1.2994
 9181SOL    HW239006   4.108   3.582   4.833  1.3240 -2.5333 -1.3166
 9182SOL     OW39007   3.521   2.409   0.227 -0.1810 -0.2662  0.0034
 9182SOL    HW139008   3.568   2.352   0.165  0.5488  0.0728  0.2404
 9182SOL    HW239009   3.454   2.445   0.169 -0.6702 -0.9041  0.1744
 9183SOL     OW39010   0.400   2.409  13.606  0.4668 -0.1515 -0.1459
 9183SOL    HW139011   0.349   2.328  13.605  0.2709 -0.0090 -1.4609
 9183SOL    HW239012   0.332   2.474  13.591 -0.6262 -1.0284  0.9639
 9184SOL     OW39013   1.649   3.166   6.647 -0.2591 -0.0691  0.4957
 9184SOL    HW139014   1.587   3.099   6.674 -0.1112 -0.2302  0.4328
 9184SOL    HW239015   1.619   3.186   6.558 -0.1787  1.0626  0.7215
 9185SOL     OW39016   2.900   3.691   9.068 -0.0431  0.5523 -0.3532
 9185SOL    HW139017   2.963   3.624   9.044 -1.2757 -0.7487  0.0753
 9185SOL    HW239018   2.857   3.710   8.985 -0.7404 -1.4593 -0.4357
 9186SOL     OW39019   4.421   4.040  11.913  0.0937  0.3474  0.0408
 9186SOL    HW139020   4.516   4.052  11.912  0.4779 -2.5898  0.3388
 9186SOL    HW239021   4.402   4.046  12.007  0.0134  0.1196  0.0388
 9187SOL     OW39022   2.542   1.703   7.105  0.0115 -0.3629  0.2698
 9187SOL    HW139023   2.575   1.658   7.183  0.6092 -1.6665 -0.7284
 9187SOL    HW239024   2.520   1.636   7.040  0.9278 -0.3429 -0.0627
 9188SOL     OW39025   2.521   2.170   6.272 -0.6837  0.4930  1.3668
 9188SOL    HW139026   2.534   2.093   6.327 -0.6642 -0.2087  0.3787
 9188SOL    HW239027   2.513   2.238   6.339  1.9930  1.1718  0.9842
 9189SOL     OW39028   4.588   4.505   5.637 -0.2510 -0.1819 -0.5952
 9189SOL    HW139029   4.658   4.450   5.603  0.2698 -1.0458  1.8802
 9189SOL    HW239030   4.551   4.459   5.712  0.2149  1.7469  0.8142
 9190SOL     OW39031   2.607   3.838   4.060 -0.1557  0.3017 -0.5453
 9190SOL    HW139032   2.688   3.888   4.072 -0.5357  1.2675 -2.0348
 9190SOL    HW239033   2.548   3.913   4.054 -0.9747 -0.2562  0.4584
 9191SOL     OW39034   4.418   1.945  11.871 -0.0379  0.2893  0.0060
 9191SOL    HW139035   4.432   2.002  11.795 -1.7232  1.8956  0.9134
 9191SOL    HW239036   4.453   1.982  11.951 -0.8103 -1.9565  1.3706
 9192SOL     OW39037   1.286   0.364   1.474  0.3389 -0.2942  0.4315
 9192SOL    HW139038   1.292   0.333   1.383 -1.1191 -1.1502  0.6247
 9192SOL    HW239039   1.291   0.288   1.532 -0.3138 -0.7405 -0.0966
 9193SOL     OW39040   3.107   0.306   1.677  0.4641  0.0620  0.6547
 9193SOL    HW139041   3.114   0.379   1.614  3.4592 -1.3359 -0.6266
 9193SOL    HW239042   3.195   0.303   1.714  1.4282  0.6468 -1.5679
 9194SOL     OW39043   1.777   1.718   7.217  0.3348 -0.0066  0.3307
 9194SOL    HW139044   1.713   1.660   7.258  0.5531 -0.0230  0.6469
 9194SOL    HW239045   1.859   1.671   7.225 -0.5117 -1.5620 -0.1426
 9195SOL     OW39046   4.518   2.031  10.125 -0.2683  0.0904  0.0201
 9195SOL    HW139047   4.593   1.992  10.170 -0.2222  1.2537  0.9493
 9195SOL    HW239048   4.453   1.989  10.181 -0.4739 -1.1066 -1.1087
 9196SOL     OW39049   1.569   1.366  12.650 -0.5975 -0.2164 -0.1915
 9196SOL    HW139050   1.552   1.459  12.636  1.9959 -0.0098 -1.8862
 9196SOL    HW239051   1.502   1.332  12.591 -2.5512  0.1381  1.8096
 9197SOL     OW39052   2.730   1.610  17.220  0.4645  0.2110  0.0224
 9197SOL    HW139053   2.687   1.548  17.279 -2.2983  0.7473 -1.4319
 9197SOL    HW239054   2.693   1.588  17.135 -0.5488  2.4214 -0.1142
 9198SOL     OW39055   0.689   1.567   4.471  0.2696 -0.4766 -0.8473
 9198SOL    HW139056   0.662   1.652   4.505 -0.5671 -1.1579  0.1736
 9198SOL    HW239057   0.611   1.513   4.459 -0.8482  1.2913 -1.5887
 9199SOL     OW39058   1.239   0.208   8.121  0.8531  0.4656  0.1090
 9199SOL    HW139059   1.223   0.302   8.123 -0.3883  0.2378  0.9952
 9199SOL    HW239060   1.325   0.198   8.161  2.2251 -0.3963 -3.0478
 9200SOL     OW39061   0.983   1.045   5.712  0.2184 -0.2221  0.5415
 9200SOL    HW139062   1.079   1.054   5.714  0.1182  1.2378 -0.9690
 9200SOL    HW239063   0.948   1.081   5.793  1.9732 -1.7126  1.9546
 9201SOL     OW39064   2.713   4.189   0.771  0.1541 -0.5157  0.4505
 9201SOL    HW139065   2.778   4.144   0.824 -1.0813 -2.4919  0.2480
 9201SOL    HW239066   2.660   4.234   0.836  1.9482 -0.4040  1.8239
 9202SOL     OW39067   0.869   4.500   7.453 -0.0000 -0.5470  0.4166
 9202SOL    HW139068   0.829   4.421   7.417 -0.7571 -0.9509  2.1144
 9202SOL    HW239069   0.880   4.475   7.545 -1.2114 -1.0775  0.4151
 9203SOL     OW39070   0.851   4.521  12.016 -0.3397 -0.7126  0.7000
 9203SOL    HW139071   0.947   4.522  12.026 -0.3122  0.3124  0.3198
 9203SOL    HW239072   0.838   4.454  11.949 -0.5090 -1.2562  1.2710
 9204SOL     OW39073   2.024   2.699   1.870  0.1864  0.4231  0.0652
 9204SOL    HW139074   1.996   2.720   1.959  0.0162  0.3774  0.0224
 9204SOL    HW239075   2.055   2.609   1.871  1.4328  0.8710  1.6833
 9205SOL     OW39076   4.201   0.187   8.499 -0.4027  0.0084 -0.5323
 9205SOL    HW139077   4.125   0.129   8.500 -0.6753  0.3190 -2.2530
 9205SOL    HW239078   4.192   0.225   8.586 -0.2187  2.8775 -1.7550
 9206SOL     OW39079   2.615   1.174   8.697  0.2166  0.4085  0.3435
 9206SOL    HW139080   2.575   1.192   8.612 -0.8569 -2.3891  0.2604
 9206SOL    HW239081   2.600   1.080   8.711  1.7276  0.3053  1.2467
 9207SOL     OW39082   0.773   0.144   5.487  0.3000 -0.0354  0.0095
 9207SOL    HW139083   0.721   0.151   5.407  1.2951 -2.7681 -0.8680
 9207SOL    HW239084   0.797   0.236   5.499  0.2889 -0.0857  0.4242
 9208SOL     OW39085   4.357   3.881   8.033  0.7383  0.1056  1.0147
 9208SOL    HW139086   4.307   3.804   8.057 -1.8404  0.6472 -2.5836
 9208SOL    HW239087   4.447   3.854   8.053  1.7380  1.0897 -2.0461
 9209SOL     OW39088   1.444   3.238   0.088 -0.3594  0.2506  0.2365
 9209SOL    HW139089   1.411   3.230   0.178 -2.3583  0.8066 -0.4690
 9209SOL    HW239090   1.366   3.268   0.043 -1.5678 -1.0880  1.4666
 9210SOL     OW39091   4.689   3.399   2.608  0.5547  0.1718  0.4521
 9210SOL    HW139092   4.614   3.447   2.572  0.8420 -1.2745 -2.1337
 9210SOL    HW239093   4.666   3.400   2.701 -1.2984 -0.3754 -0.0033
 9211SOL     OW39094   2.393   1.663   7.543  0.2209  0.5883  0.0052
 9211SOL    HW139095   2.474   1.687   7.588  0.7574 -0.4671 -0.4041
 9211SOL    HW239096   2.359   1.741   7.498  1.8124 -0.0974 -2.3995
 9212SOL     OW39097   3.502   1.293   5.319  0.3863  0.7406 -0.3756
 9212SOL    HW139098   3.511   1.222   5.255 -2.0226  0.3080 -0.2073
 9212SOL    HW239099   3.461   1.363   5.269  1.2173  1.4705 -0.0434
 9213SOL     OW39100   1.912   0.625   1.318  0.2236 -0.4919 -0.4888
 9213SOL    HW139101   1.884   0.714   1.296  0.6499 -0.8605 -2.4488
 9213SOL    HW239102   1.861   0.619   1.399  1.0716 -1.9865 -0.0744
 9214SOL     OW39103   1.610   2.591   2.869 -0.6518 -0.1525 -0.1093
 9214SOL    HW139104   1.570   2.613   2.953 -1.8676 -0.4664 -0.6029
 9214SOL    HW239105   1.561   2.513   2.843  0.8152 -0.3327 -2.3782
 9215SOL     OW39106   0.008   4.111   7.016 -0.1167  1.0215 -0.5505
 9215SOL    HW139107   0.040   4.039   6.961  1.0775  1.3802 -0.3076
 9215SOL    HW239108   4.655   4.066   7.054  0.6565  0.5905  0.4771
 9216SOL     OW39109   1.305   1.674   1.751  0.5697  0.3921  0.6538
 9216SOL    HW139110   1.256   1.616   1.809  0.0400 -1.0631 -1.2745
 9216SOL    HW239111   1.236   1.725   1.707  1.3933  1.1555  0.2583
 9217SOL     OW39112   1.381   0.111   7.234 -0.0524  0.2429  0.1805
 9217SOL    HW139113   1.311   0.164   7.273  1.2731  1.6005  0.7169
 9217SOL    HW239114   1.353   0.036   7.287 -0.5621 -1.0986 -2.0223
 9218SOL     OW39115   0.583   1.039   8.448 -0.8223  0.8307 -0.0221
 9218SOL    HW139116   0.639   0.983   8.393 -2.4347 -2.1022  1.3356
 9218SOL    HW239117   0.595   1.005   8.537 -1.9017  0.0997 -0.1651
 9219SOL     OW39118   4.440   0.711   4.095  0.0935  0.1466 -0.1624
 9219SOL    HW139119   4.431   0.708   4.000 -1.7948  0.6698  0.0069
 9219SOL    HW239120   4.521   0.758   4.111 -0.4062  0.5840  1.1222
 9220SOL     OW39121   2.017   1.384   8.633 -0.1956 -0.3508  0.4270
 9220SOL    HW139122   1.954   1.410   8.566  0.6843 -0.7230 -0.5550
 9220SOL    HW239123   2.038   1.471   8.667 -1.2298  0.4061 -0.8708
 9221SOL     OW39124   2.761   2.052  10.679  0.1453 -0.6620  0.0844
 9221SOL    HW139125   2.705   2.013  10.612  0.6776 -2.6903  0.8157
 9221SOL    HW239126   2.851   2.040  10.647  0.0711 -0.3258 -0.2464
 9222SOL     OW39127   0.833   3.735   7.185 -0.0693 -0.1123 -0.2260
 9222SOL    HW139128   0.859   3.677   7.114  0.0786 -0.7083  0.3196
 9222SOL    HW239129   0.752   3.696   7.217 -0.6339  0.6283 -0.7544
 9223SOL     OW39130   3.165   2.987   5.021 -0.1340 -0.4950 -0.8582
 9223SOL    HW139131   3.176   3.072   4.978 -0.7027  0.9065  1.7498
 9223SOL    HW239132   3.099   3.018   5.083  1.0681  2.4893 -1.0457
 9224SOL     OW39133   3.820   2.316   5.578  0.4406  0.4010  0.0889
 9224SOL    HW139134   3.888   2.370   5.538 -1.2054  1.1761 -1.6884
 9224SOL    HW239135   3.827   2.237   5.523  1.1890  2.2551 -2.4828
 9225SOL     OW39136   0.311   1.754  17.467  0.1819  0.0041  0.2228
 9225SOL    HW139137   0.356   1.688  17.520 -0.1957 -1.1040 -0.8401
 9225SOL    HW239138   0.233   1.709  17.436 -0.0973  0.4692  0.2390
 9226SOL     OW39139   2.643   0.632   6.215 -0.1360 -0.2947  0.0054
 9226SOL    HW139140   2.732   0.602   6.230  0.1130 -0.2549 -1.3604
 9226SOL    HW239141   2.606   0.555   6.171  0.6673  0.2889 -1.6738
 9227SOL     OW39142   4.608   0.737   1.480  0.1289 -0.1975  0.5216
 9227SOL    HW139143   4.637   0.728   1.390 -1.8053  0.2842 -0.1555
 9227SOL    HW239144   4.516   0.713   1.466 -0.3556  1.2520  1.2318
 9228SOL     OW39145   1.437   1.151  16.795  0.1394 -0.5239 -0.1938
 9228SOL    HW139146   1.364   1.129  16.853  0.9129  0.3191  1.0929
 9228SOL    HW239147   1.511   1.115  16.843  0.3528 -1.0208 -0.8933
 9229SOL     OW39148   1.418   1.659  15.873  0.3469 -0.0651 -0.9746
 9229SOL    HW139149   1.504   1.694  15.850 -0.0713  0.9025 -1.0504
 9229SOL    HW239150   1.361   1.669  15.797 -0.8349  2.1460  0.2185
 9230SOL     OW39151   4.703   3.752   1.435 -0.0145 -0.0931 -0.0739
 9230SOL    HW139152   4.686   3.798   1.517  2.2330  0.0532  0.3061
 9230SOL    HW239153   0.067   3.786   1.411 -0.5499  2.0454  1.0320
 9231SOL     OW39154   3.235   1.897   2.930  0.1046 -0.2497 -0.0858
 9231SOL    HW139155   3.321   1.870   2.963 -0.8084 -1.0695  1.6068
 9231SOL    HW239156   3.184   1.909   3.009 -0.4387  0.2812 -0.5163
 9232SOL     OW39157   1.618   2.846   5.734 -0.4325  0.1784  0.2920
 9232SOL    HW139158   1.592   2.754   5.733 -1.9345  0.6195 -0.5509
 9232SOL    HW239159   1.617   2.871   5.642  0.2912 -1.6748 -0.2191
 9233SOL     OW39160   3.429   4.279   4.904 -0.0521 -0.1675 -0.3551
 9233SOL    HW139161   3.482   4.226   4.845 -0.9597  0.3946 -1.6958
 9233SOL    HW239162   3.465   4.241   4.984 -0.6688 -2.5104 -1.1956
 9234SOL     OW39163   3.141   3.493   4.860  0.0171  0.5771 -0.3512
 9234SOL    HW139164   3.085   3.550   4.912 -0.4044 -1.4218  1.3892
 9234SOL    HW239165   3.122   3.525   4.772  0.3759 -0.5335 -0.8312
 9235SOL     OW39166   2.750   0.435   7.860 -0.6953 -0.2669 -0.1442
 9235SOL    HW139167   2.742   0.445   7.765  0.7152 -1.1935 -0.3710
 9235SOL    HW239168   2.801   0.515   7.877 -2.6174 -0.0340  4.5190
 9236SOL     OW39169   1.666   1.570   7.401 -0.8968  0.3657 -0.2977
 9236SOL    HW139170   1.594   1.526   7.355  0.2455  0.3481 -2.0775
 9236SOL    HW239171   1.629   1.620   7.474 -0.3253 -2.2446  1.7635
 9237SOL     OW39172   1.424   4.502  12.869 -0.3637  0.3492  0.1336
 9237SOL    HW139173   1.519   4.513  12.864 -0.0712 -1.2887  2.4438
 9237SOL    HW239174   1.411   4.527  12.960 -0.5833  0.5532  0.0470
 9238SOL     OW39175   2.721   2.920   7.164 -0.3381 -0.4522  0.1681
 9238SOL    HW139176   2.746   3.008   7.135 -1.1249 -0.0367  0.7357
 9238SOL    HW239177   2.767   2.921   7.248  0.9012 -2.2749 -0.4945
 9239SOL     OW39178   3.976   3.388  13.211  0.2784 -0.5472 -0.7437
 9239SOL    HW139179   3.906   3.364  13.272  0.6074 -3.0301 -1.3630
 9239SOL    HW239180   3.946   3.463  13.159  2.4954  0.8834  0.0245
 9240SOL     OW39181   0.866   3.129  10.332 -0.6088  0.4712 -0.6225
 9240SOL    HW139182   0.935   3.063  10.342  0.8863  2.1677  0.3686
 9240SOL    HW239183   0.789   3.076  10.353 -0.7614  0.7146 -0.5738
 9241SOL     OW39184   1.327   0.658   9.473 -0.0360  0.3759  0.2093
 9241SOL    HW139185   1.241   0.617   9.471  0.4494 -0.7165  2.3472
 9241SOL    HW239186   1.332   0.702   9.388  1.5129 -0.3409 -0.0818
 9242SOL     OW39187   4.173   3.656   0.318  0.1724  0.4873 -0.0274
 9242SOL    HW139188   4.133   3.569   0.314 -3.4868  2.0804  1.0871
 9242SOL    HW239189   4.247   3.635   0.374  0.6332 -1.4892 -1.3891
 9243SOL     OW39190   2.721   0.643   7.372  0.7105 -0.1233 -0.2903
 9243SOL    HW139191   2.813   0.648   7.397  1.0294 -1.6643 -1.1949
 9243SOL    HW239192   2.693   0.725   7.413  1.3892  0.4843 -1.0438
 9244SOL     OW39193   1.582   3.012   3.253 -0.5345  0.0665 -0.0432
 9244SOL    HW139194   1.627   2.990   3.171 -2.1001 -1.3105 -0.5472
 9244SOL    HW239195   1.600   2.929   3.297 -0.9230  1.5226  2.8522
 9245SOL     OW39196   2.812   1.903  13.804  0.4746  0.0989 -0.6255
 9245SOL    HW139197   2.777   1.814  13.799  0.5750  0.1755 -2.6869
 9245SOL    HW239198   2.824   1.913  13.899  3.0627 -0.0950 -0.9249
 9246SOL     OW39199   3.596   2.602   3.887  0.1799  0.6911 -0.0928
 9246SOL    HW139200   3.527   2.648   3.839 -0.3511  0.7415  0.7195
 9246SOL    HW239201   3.568   2.511   3.878 -2.4138  1.4623  0.2461
 9247SOL     OW39202   1.972   3.878   5.746 -0.1799 -0.3161  0.5636
 9247SOL    HW139203   1.996   3.911   5.660  1.0076 -1.5913  0.3927
 9247SOL    HW239204   2.007   3.789   5.758  0.2807 -0.0325  1.3307
 9248SOL     OW39205   0.655   1.682  11.363 -0.0711  0.6854 -0.8279
 9248SOL    HW139206   0.618   1.703  11.278  0.9090 -0.6723 -1.5839
 9248SOL    HW239207   0.660   1.770  11.401  1.8763 -0.8108  2.3748
 9249SOL     OW39208   1.962   3.476   7.844 -0.0245  0.8587  0.2037
 9249SOL    HW139209   2.005   3.406   7.794 -0.3219 -0.8400  2.3422
 9249SOL    HW239210   1.933   3.428   7.922 -0.1641  0.9332  0.1969
 9250SOL     OW39211   3.724   2.827  10.097  0.1386 -0.7768  0.2752
 9250SOL    HW139212   3.758   2.869  10.018 -0.4792  0.5627  0.7048
 9250SOL    HW239213   3.783   2.752  10.098  2.6711  1.1732 -2.3270
 9251SOL     OW39214   1.493   2.112   7.263  0.1884  0.0785  0.0612
 9251SOL    HW139215   1.449   2.160   7.192  1.4351 -0.1050 -0.8327
 9251SOL    HW239216   1.571   2.078   7.219  1.0198  1.8562  0.1673
 9252SOL     OW39217   2.247   4.401  13.746 -1.0608  0.1553  0.0701
 9252SOL    HW139218   2.211   4.428  13.830  0.9748  1.7263  0.4451
 9252SOL    HW239219   2.330   4.364  13.776  0.4450  2.2704 -1.5134
 9253SOL     OW39220   1.492   0.092   3.237  0.2204 -0.4825  0.1574
 9253SOL    HW139221   1.416   0.074   3.292 -0.6646  1.8250 -0.3041
 9253SOL    HW239222   1.554   0.128   3.301  1.7118  0.9125 -2.0444
 9254SOL     OW39223   4.161   0.883   6.903  0.2874  0.7986  0.6329
 9254SOL    HW139224   4.198   0.801   6.936 -0.9924 -0.5000 -1.2128
 9254SOL    HW239225   4.182   0.943   6.975 -1.7719  0.1576  1.7787
 9255SOL     OW39226   1.499   3.546   4.101 -0.1258 -0.0611 -0.5645
 9255SOL    HW139227   1.575   3.503   4.062  1.3525  0.8506  1.3194
 9255SOL    HW239228   1.527   3.569   4.190  1.2355 -1.4723 -0.6259
 9256SOL     OW39229   4.318   3.812   4.175  0.3337  0.0926  0.1343
 9256SOL    HW139230   4.307   3.857   4.258  2.4526 -1.4108  1.2212
 9256SOL    HW239231   4.255   3.852   4.114 -0.7022  1.2478  1.9592
 9257SOL     OW39232   0.642   1.988   8.151 -0.7026 -0.2849  0.6591
 9257SOL    HW139233   0.638   2.083   8.159 -2.2167 -0.1823 -1.5163
 9257SOL    HW239234   0.689   1.979   8.068 -0.1482 -1.5123  1.0961
 9258SOL     OW39235   2.390   3.036  10.763  0.0716  0.1963  0.0002
 9258SOL    HW139236   2.448   3.057  10.836 -0.4704  0.4105  0.3715
 9258SOL    HW239237   2.406   3.114  10.711 -0.5011  0.3644  0.0794
 9259SOL     OW39238   0.607   2.286   8.155  0.1934 -0.5744  0.2811
 9259SOL    HW139239   0.590   2.329   8.238 -1.0060  1.2323 -0.8984
 9259SOL    HW239240   0.684   2.338   8.132  1.5207 -2.0396  1.3346
 9260SOL     OW39241   3.496   0.807   5.645  0.3023 -0.6247  0.1376
 9260SOL    HW139242   3.406   0.838   5.657 -0.1398 -2.1042  0.5431
 9260SOL    HW239243   3.537   0.893   5.661 -1.7262  0.3903 -0.1215
 9261SOL     OW39244   1.577   4.530  10.534  0.4232 -0.4100 -0.5785
 9261SOL    HW139245   1.602   4.444  10.500  3.4088 -0.0159  0.5399
 9261SOL    HW239246   1.629   4.513  10.613 -0.0338  1.5951  0.1580
 9262SOL     OW39247   2.046   2.554  13.649 -0.1144  0.3378  0.3562
 9262SOL    HW139248   1.990   2.476  13.658  0.0862  0.1369 -0.1167
 9262SOL    HW239249   1.976   2.612  13.621 -2.0931 -2.2113 -0.0324
 9263SOL     OW39250   3.993   3.934   7.764  0.3366  0.3632  0.3014
 9263SOL    HW139251   4.078   3.962   7.730  0.1785  0.4333 -0.0331
 9263SOL    HW239252   4.018   3.907   7.853 -0.2977 -1.3456 -0.0522
 9264SOL     OW39253   2.368   4.523   7.043  0.7316 -0.2429 -0.4185
 9264SOL    HW139254   2.359   4.435   7.007  0.4012 -0.0995 -0.6848
 9264SOL    HW239255   2.450   4.552   7.003  0.9666  1.7676  1.5756
 9265SOL     OW39256   2.998   3.510   6.686  0.1677  0.0378 -0.8723
 9265SOL    HW139257   2.988   3.604   6.675 -1.5725 -0.0659 -0.1880
 9265SOL    HW239258   2.919   3.480   6.641 -0.3131  1.7495 -1.1683
 9266SOL     OW39259   0.695   2.672  11.195  0.0899  0.0767 -0.0157
 9266SOL    HW139260   0.664   2.620  11.121  0.7564  0.5745 -0.6418
 9266SOL    HW239261   0.767   2.620  11.230  1.9376  1.3596 -1.9597
 9267SOL     OW39262   0.679   4.281  11.073 -0.4049  0.1180 -0.0760
 9267SOL    HW139263   0.616   4.343  11.036  0.6727  1.1281 -0.2184
 9267SOL    HW239264   0.673   4.208  11.011  0.8271  1.3828 -1.7024
 9268SOL     OW39265   4.700   3.519   6.423 -0.0938 -0.1144  0.6097
 9268SOL    HW139266   4.651   3.496   6.502 -1.2505  0.3570  0.0355
 9268SOL    HW239267   4.648   3.592   6.391 -1.4759 -1.9812 -1.4180
 9269SOL     OW39268   4.108   4.348   7.553 -0.1098 -0.1582  0.1582
 9269SOL    HW139269   4.124   4.436   7.587 -1.6295  0.8618 -1.7671
 9269SOL    HW239270   4.182   4.307   7.597 -0.7549 -0.7131  0.7193
 9270SOL     OW39271   2.315   4.518   7.684  0.0478 -0.1723 -0.1947
 9270SOL    HW139272   2.316   4.428   7.650  1.0130 -0.8792  1.6989
 9270SOL    HW239273   2.228   4.541   7.652 -0.6506 -1.5197  0.7351
 9271SOL     OW39274   1.340   4.055   4.759  0.3953  0.4785 -0.2054
 9271SOL    HW139275   1.259   4.096   4.791  1.2152  2.2587 -0.4306
 9271SOL    HW239276   1.298   3.970   4.745  1.3421 -0.4551  2.6633
 9272SOL     OW39277   4.205   3.066   9.160  0.0131  0.5795  0.1178
 9272SOL    HW139278   4.192   3.160   9.178 -0.6512  0.8220 -1.6198
 9272SOL    HW239279   4.209   3.030   9.249  2.6728  1.0295  0.1658
 9273SOL     OW39280   2.702   2.846   6.831  0.6915 -0.2168 -0.2665
 9273SOL    HW139281   2.748   2.930   6.829  1.3972 -0.5984  0.0085
 9273SOL    HW239282   2.722   2.814   6.919  1.8613 -0.2907 -0.5542
 9274SOL     OW39283   4.350   1.557   7.441 -0.4224  0.2315  0.0632
 9274SOL    HW139284   4.299   1.637   7.456 -1.4060 -0.5820  1.0119
 9274SOL    HW239285   4.282   1.495   7.466  1.6508 -2.4689 -1.0483
 9275SOL     OW39286   3.270   1.305  16.769  1.1950 -0.0019  0.5031
 9275SOL    HW139287   3.257   1.373  16.703  0.2397  0.7754  1.4953
 9275SOL    HW239288   3.215   1.231  16.745 -0.5723  1.8053 -1.0781
 9276SOL     OW39289   3.082   4.446  13.632 -0.4510  0.2269  0.3605
 9276SOL    HW139290   3.045   4.438  13.544  3.1720  3.0219 -1.4187
 9276SOL    HW239291   3.157   4.498  13.602  0.6920 -0.3165  2.2908
 9277SOL     OW39292   4.573   0.625   8.990  0.0989 -0.2568 -0.0806
 9277SOL    HW139293   4.641   0.693   8.991 -0.4277  0.2879 -1.3274
 9277SOL    HW239294   4.497   0.673   9.023  0.7060  0.4110  0.3437
 9278SOL     OW39295   0.024   4.311  11.867 -0.4932 -0.4352  0.5089
 9278SOL    HW139296   0.045   4.403  11.882  2.8287 -1.3451  1.3815
 9278SOL    HW239297   4.719   4.284  11.955  1.8358 -1.1684  1.0108
 9279SOL     OW39298   1.411   2.397   5.426 -0.1150  0.0284  0.9528
 9279SOL    HW139299   1.341   2.426   5.484 -1.5321  0.4757 -0.9868
 9279SOL    HW239300   1.416   2.305   5.450  0.1574 -0.6167 -1.6038
 9280SOL     OW39301   3.762   1.972  12.612  0.2226  0.4000 -0.2347
 9280SOL    HW139302   3.755   2.014  12.526  1.7874  1.2153  0.0509
 9280SOL    HW239303   3.794   2.047  12.662  1.4003 -0.1629 -0.1583
 9281SOL     OW39304   2.680   4.657   3.670 -0.1718 -0.1631 -0.1870
 9281SOL    HW139305   2.701   0.028   3.672  2.1035 -0.6717  0.4893
 9281SOL    HW239306   2.766   4.615   3.678 -0.3792 -0.8699 -1.7336
 9282SOL     OW39307   3.872   4.265   7.956 -0.2767 -0.2174  0.7542
 9282SOL    HW139308   3.852   4.193   8.015 -0.9302 -1.9964 -1.6488
 9282SOL    HW239309   3.814   4.335   7.987 -1.3217 -0.6153 -0.2947
 9283SOL     OW39310   4.056   2.487   5.240  0.3007 -0.1215 -0.0133
 9283SOL    HW139311   4.082   2.567   5.196 -0.8087  0.0307 -0.3914
 9283SOL    HW239312   4.139   2.441   5.248  1.3341  1.8312  0.4973
 9284SOL     OW39313   2.294   2.569   2.195  0.1147  0.0650 -0.3119
 9284SOL    HW139314   2.375   2.573   2.144 -1.1987 -2.7104 -2.5534
 9284SOL    HW239315   2.333   2.590   2.281 -2.7087 -0.1515  1.0144
 9285SOL     OW39316   0.382   1.360   5.705  0.6261 -0.1109  0.6141
 9285SOL    HW139317   0.324   1.284   5.720 -1.1424  1.5297  2.1325
 9285SOL    HW239318   0.337   1.426   5.757 -0.8436 -0.2470 -0.4545
 9286SOL     OW39319   0.036   3.957   9.825 -0.1574  0.0434  0.2124
 9286SOL    HW139320   4.695   3.946   9.754 -1.0019  1.5724  0.7191
 9286SOL    HW239321   0.042   3.870   9.863  0.8289 -0.3384 -0.7875
 9287SOL     OW39322   2.823   0.858   4.357 -0.2618  0.2955  0.6321
 9287SOL    HW139323   2.759   0.850   4.427  0.5278 -2.7835  1.0265
 9287SOL    HW239324   2.824   0.952   4.343 -0.0003 -0.0603 -1.8047
 9288SOL     OW39325   4.389   2.941   1.486 -0.0451  0.3482 -0.2981
 9288SOL    HW139326   4.368   2.939   1.393  0.4802  3.3267 -0.4886
 9288SOL    HW239327   4.340   2.865   1.516  0.7095  0.4081  1.1105
 9289SOL     OW39328   4.028   0.598   8.254  0.2401  0.1450  0.4609
 9289SOL    HW139329   4.119   0.586   8.227 -0.5372  1.0641 -2.5186
 9289SOL    HW239330   3.995   0.509   8.267 -1.0706  0.8650  2.0439
 9290SOL     OW39331   4.101   3.760   0.087 -0.4067 -0.2236 -0.1851
 9290SOL    HW139332   4.132   3.712   0.011 -1.1981  0.9790 -1.2687
 9290SOL    HW239333   4.132   3.715   0.166 -0.6984 -0.9669 -0.4918
 9291SOL     OW39334   2.612   1.582  15.785  0.8491 -0.0240 -0.1500
 9291SOL    HW139335   2.634   1.498  15.744  1.5686  0.2138 -0.2312
 9291SOL    HW239336   2.675   1.576  15.856 -0.5498 -1.8701  0.9578
 9292SOL     OW39337   0.968   0.439   2.732  0.5579  0.8146 -0.0009
 9292SOL    HW139338   0.953   0.344   2.729 -0.0806  0.8797  0.8457
 9292SOL    HW239339   0.876   0.465   2.726 -0.4985 -2.5900  1.2834
 9293SOL     OW39340   1.416   4.015  11.387 -0.3375  0.2531 -0.0558
 9293SOL    HW139341   1.476   3.945  11.413  0.8293  0.4964 -2.0682
 9293SOL    HW239342   1.391   3.979  11.302 -2.6684  0.2889  0.6273
 9294SOL     OW39343   1.029   1.775   9.197 -0.0507 -0.0059 -0.6068
 9294SOL    HW139344   0.994   1.808   9.115 -1.0320 -0.1288 -0.2411
 9294SOL    HW239345   1.003   1.844   9.258  0.3473  1.6198 -2.2968
 9295SOL     OW39346   1.261   3.164   7.889 -0.3086  0.0405 -1.3494
 9295SOL    HW139347   1.351   3.191   7.904 -0.1204 -0.5402 -1.4202
 9295SOL    HW239348   1.237   3.216   7.812 -0.9731 -0.2063 -1.3066
 9296SOL     OW39349   3.397   2.845   0.038 -0.1761 -0.3590  0.3589
 9296SOL    HW139350   3.396   2.799   0.121 -0.5540 -1.6861 -0.3764
 9296SOL    HW239351   3.403   2.936   0.065  0.4897  0.1401 -1.4255
 9297SOL     OW39352   1.553   0.651   0.305  0.0750 -0.1489  0.2482
 9297SOL    HW139353   1.629   0.608   0.346 -1.2244 -1.0304  1.7287
 9297SOL    HW239354   1.479   0.614   0.353 -0.7026 -0.4024 -1.1480
 9298SOL     OW39355   1.444   3.779   8.652 -0.3522  0.3951 -0.1646
 9298SOL    HW139356   1.421   3.701   8.702 -0.1368 -0.0800 -0.7965
 9298SOL    HW239357   1.382   3.782   8.578 -1.3453  0.0822  0.6490
 9299SOL     OW39358   1.992   3.360   9.642  0.1455 -0.5057 -0.0580
 9299SOL    HW139359   1.957   3.278   9.607 -1.4911 -0.1687  0.7715
 9299SOL    HW239360   2.085   3.340   9.640  0.5904  1.3698  1.2350
 9300SOL     OW39361   2.101   2.214  12.806 -0.4317 -0.3971 -0.1241
 9300SOL    HW139362   2.130   2.128  12.774  0.3851 -0.1114 -0.1491
 9300SOL    HW239363   2.191   2.245  12.795 -0.5975 -0.1717 -0.8370
 9301SOL     OW39364   3.895   3.921  17.587  0.3144 -0.4139  0.2382
 9301SOL    HW139365   3.960   3.889  17.524  0.5769 -3.5819  2.1540
 9301SOL    HW239366   3.816   3.945  17.539  1.2124  0.6556 -0.7157
 9302SOL     OW39367   0.924   2.658  11.708  0.2651 -0.0853 -0.0962
 9302SOL    HW139368   0.858   2.666  11.639  1.0275 -1.4188 -0.9888
 9302SOL    HW239369   1.001   2.629  11.659  0.0506 -1.1528  0.2112
 9303SOL     OW39370   2.064   4.368  13.547 -0.5315 -0.1812  0.7657
 9303SOL    HW139371   2.134   4.378  13.611 -1.7880  2.0738  1.7389
 9303SOL    HW239372   1.993   4.336  13.602 -0.1357 -1.4452  0.5668
 9304SOL     OW39373   0.268   0.640   6.992 -0.3492  1.0555  0.0297
 9304SOL    HW139374   0.294   0.548   6.997 -1.9914  0.5416 -1.3146
 9304SOL    HW239375   0.205   0.626   6.922 -0.0806 -2.3349  0.4699
 9305SOL     OW39376   2.383   2.293   0.065  0.1557 -0.7469 -0.6980
 9305SOL    HW139377   2.338   2.377   0.057  1.9979 -0.0198 -3.1112
 9305SOL    HW239378   2.328   2.245   0.128 -0.9868 -0.4756 -1.4933
 9306SOL     OW39379   1.659   4.625  13.831 -0.2737 -0.7955  0.4218
 9306SOL    HW139380   1.703   4.540  13.826 -1.0599 -1.0421 -2.0883
 9306SOL    HW239381   1.573   4.598  13.862 -1.1993  1.0022 -0.6085
 9307SOL     OW39382   1.912   0.375   1.230 -0.5868  0.2585  0.4673
 9307SOL    HW139383   1.916   0.465   1.264  1.1008  0.1289  0.6202
 9307SOL    HW239384   1.886   0.330   1.310 -1.4521 -0.4868 -0.2410
 9308SOL     OW39385   3.181   3.810   3.425 -0.3826 -0.0178 -0.2942
 9308SOL    HW139386   3.151   3.851   3.344 -1.5873 -0.1852  0.0505
 9308SOL    HW239387   3.103   3.755   3.435  1.3051 -2.0865  1.5278
 9309SOL     OW39388   3.656   3.193   7.339 -0.6223 -0.3061 -0.0705
 9309SOL    HW139389   3.580   3.141   7.364 -1.5681  0.7141 -0.8086
 9309SOL    HW239390   3.720   3.131   7.376 -0.3892 -1.0797 -1.7936
 9310SOL     OW39391   0.901   3.646   2.927  0.0760  0.3658 -0.5342
 9310SOL    HW139392   0.819   3.693   2.943  0.0268  0.0942  0.0365
 9310SOL    HW239393   0.934   3.726   2.887  1.9541 -0.0997  0.0501
 9311SOL     OW39394   0.160   4.379  17.654  0.0422 -0.1026 -0.1325
 9311SOL    HW139395   0.158   4.334   0.045 -0.1122  1.4861  0.7143
 9311SOL    HW239396   0.121   4.322  17.589 -0.2098 -1.5761  1.3167
 9312SOL     OW39397   3.538   0.378   6.786 -0.3922 -0.3760 -0.2599
 9312SOL    HW139398   3.473   0.424   6.733  2.3077  3.0277 -0.6415
 9312SOL    HW239399   3.605   0.446   6.782 -1.6826  1.0311  1.3844
 9313SOL     OW39400   3.275   1.406   6.090 -0.5485  0.4389 -0.2427
 9313SOL    HW139401   3.320   1.485   6.121 -0.3267  0.3753 -0.3977
 9313SOL    HW239402   3.312   1.420   6.003 -0.1905 -1.0467 -0.3251
 9314SOL     OW39403   0.749   0.715   6.961 -0.4701  0.0338 -0.4407
 9314SOL    HW139404   0.709   0.695   7.046  2.1522 -0.3252  0.6978
 9314SOL    HW239405   0.688   0.777   6.921  0.1928  1.5133  0.8709
 9315SOL     OW39406   4.197   4.294   6.532 -0.0369 -0.4081  0.9387
 9315SOL    HW139407   4.152   4.225   6.583  3.5056 -2.8517  0.7657
 9315SOL    HW239408   4.244   4.325   6.609 -1.1810  1.4280  0.8837
 9316SOL     OW39409   2.594   0.176   7.786 -0.0401 -0.6255  1.0704
 9316SOL    HW139410   2.607   0.184   7.692  1.0595  0.2713  1.2982
 9316SOL    HW239411   2.660   0.115   7.818 -2.2747 -2.9475  1.2269
 9317SOL     OW39412   2.242   2.717  13.751 -0.1047 -0.3451 -0.1120
 9317SOL    HW139413   2.182   2.647  13.724  1.8836 -1.9354 -0.4153
 9317SOL    HW239414   2.183   2.768  13.806  0.3907  0.8395 -0.6757
 9318SOL     OW39415   0.282   2.064   5.915  0.0719 -0.1608  0.6522
 9318SOL    HW139416   0.321   2.130   5.858 -1.8292 -0.5127 -1.0420
 9318SOL    HW239417   0.310   1.985   5.868 -1.9985  0.7935 -2.1312
 9319SOL     OW39418   3.676   0.553  10.181  0.0861  0.0591 -0.0043
 9319SOL    HW139419   3.642   0.631  10.137 -0.2273  0.4415  0.9203
 9319SOL    HW239420   3.704   0.502  10.104  0.3548  0.5441 -0.2332
 9320SOL     OW39421   2.549   0.215  15.116 -0.2768 -0.1855  0.4011
 9320SOL    HW139422   2.534   0.300  15.075  0.4347 -0.1306  0.2414
 9320SOL    HW239423   2.478   0.208  15.180  0.3808 -0.8907  1.0590
 9321SOL     OW39424   2.805   3.010   4.969 -0.3260  0.3326  0.8204
 9321SOL    HW139425   2.788   3.093   4.925 -1.2398  0.0155  0.5679
 9321SOL    HW239426   2.819   3.029   5.062 -2.1435 -0.3053  1.2371
 9322SOL     OW39427   1.972   2.632  10.894  0.2331  0.0239  0.2297
 9322SOL    HW139428   1.908   2.663  10.959  0.0905  0.2542 -0.0232
 9322SOL    HW239429   2.039   2.700  10.900 -0.2372  0.5179 -0.1171
 9323SOL     OW39430   3.237   0.366   4.492  0.4140  0.1148 -0.3147
 9323SOL    HW139431   3.153   0.323   4.509  0.5347 -0.2901 -0.7514
 9323SOL    HW239432   3.210   0.455   4.471 -0.5308  0.0333  0.5736
 9324SOL     OW39433   2.074   4.129   5.726  0.1549 -0.2556  0.0814
 9324SOL    HW139434   2.153   4.150   5.775 -0.0356  1.2899 -0.2768
 9324SOL    HW239435   2.042   4.060   5.784  1.5032  0.2784  1.4389
 9325SOL     OW39436   4.299   2.913   8.723  0.0731  0.6273  0.0099
 9325SOL    HW139437   4.276   2.905   8.815 -3.4552  0.0050 -0.9670
 9325SOL    HW239438   4.389   2.942   8.740 -0.4442  2.2837 -0.0341
 9326SOL     OW39439   2.099   1.817   2.298  0.2339 -0.4293 -0.4805
 9326SOL    HW139440   2.039   1.773   2.238 -1.8507  0.9533  0.6338
 9326SOL    HW239441   2.159   1.862   2.238  0.6243 -0.8163 -0.3857
 9327SOL     OW39442   2.351   1.738  15.608 -0.2330 -0.3954 -0.3819
 9327SOL    HW139443   2.347   1.653  15.651 -0.3978 -0.7782 -1.1537
 9327SOL    HW239444   2.281   1.741  15.542  0.0197 -0.2434 -0.6433
 9328SOL     OW39445   2.892   0.072   2.122  0.4602  0.1631  0.0457
 9328SOL    HW139446   2.982   0.079   2.089  0.1721 -0.5737 -0.8741
 9328SOL    HW239447   2.836   0.103   2.051  0.3884 -1.2227 -0.5017
 9329SOL     OW39448   1.411   4.459   5.453 -0.5227 -0.1529 -0.0928
 9329SOL    HW139449   1.385   4.536   5.401 -0.7918  1.4526  2.4037
 9329SOL    HW239450   1.439   4.404   5.380 -0.4725 -0.4719  0.1696
 9330SOL     OW39451   3.696   3.611   4.747 -0.2580  0.5094  0.2178
 9330SOL    HW139452   3.734   3.612   4.659  1.0718  1.1414  0.7956
 9330SOL    HW239453   3.609   3.576   4.728 -0.1146 -0.9335  2.1528
 9331SOL     OW39454   1.092   0.715  10.075  0.0153  0.1036 -0.0817
 9331SOL    HW139455   1.008   0.675  10.054  1.6146 -3.0454 -0.4849
 9331SOL    HW239456   1.100   0.790  10.015  0.5969  1.6584  1.9192
 9332SOL     OW39457   2.869   4.501   4.089  0.2585 -0.3142 -0.5991
 9332SOL    HW139458   2.862   4.496   4.185  1.6313  1.9145 -0.3810
 9332SOL    HW239459   2.895   4.592   4.074 -1.5924  0.1022 -1.2774
 9333SOL     OW39460   2.341   0.680   8.453 -0.0175 -0.2725  0.1642
 9333SOL    HW139461   2.260   0.645   8.418  0.0139 -1.6281  1.4406
 9333SOL    HW239462   2.398   0.613   8.417 -3.1684 -1.9071 -1.7222
 9334SOL     OW39463   0.444   2.904   1.870  0.3803 -0.3164  0.5760
 9334SOL    HW139464   0.358   2.946   1.866  0.5812  0.0771  0.3572
 9334SOL    HW239465   0.434   2.880   1.962  2.0074  0.2196  0.8999
 9335SOL     OW39466   0.698   1.368  13.063 -0.3816  0.1969  0.4176
 9335SOL    HW139467   0.661   1.456  13.061  0.4927  0.5403 -0.5415
 9335SOL    HW239468   0.646   1.325  12.995 -2.4363 -0.6452  2.4873
 9336SOL     OW39469   4.295   0.670   7.633  0.1903  0.0654 -0.0142
 9336SOL    HW139470   4.291   0.763   7.656 -2.9102  0.2675 -1.2570
 9336SOL    HW239471   4.374   0.640   7.678  1.6079  1.0592 -1.8319
 9337SOL     OW39472   3.495   3.051   7.839  0.0318 -0.3481  0.1563
 9337SOL    HW139473   3.528   3.085   7.756  1.2954  0.0855  0.8197
 9337SOL    HW239474   3.479   2.958   7.825 -2.5121  0.5461 -2.7016
 9338SOL     OW39475   3.143   1.451   5.342  0.1183  0.6760  0.3811
 9338SOL    HW139476   3.181   1.537   5.361  3.4723 -1.1874  2.1625
 9338SOL    HW239477   3.135   1.448   5.247  1.3251 -2.5473  0.3533
 9339SOL     OW39478   3.468   0.813   8.711 -0.5846 -0.0746 -0.2071
 9339SOL    HW139479   3.490   0.733   8.664  1.0010  0.2258  0.0237
 9339SOL    HW239480   3.372   0.814   8.703 -0.7422  1.0718  1.7919
 9340SOL     OW39481   1.988   4.446   6.024 -0.2527  0.6230  0.3234
 9340SOL    HW139482   1.911   4.424   5.972  1.2612  1.2334 -2.1821
 9340SOL    HW239483   1.940   4.489   6.096 -1.8042  0.6547 -0.7343
 9341SOL     OW39484   0.351   1.653   1.523  0.1254  0.0592  0.4269
 9341SOL    HW139485   0.395   1.703   1.454 -2.1934  1.2634 -0.2002
 9341SOL    HW239486   0.288   1.719   1.552  0.7473  1.2434 -0.9346
 9342SOL     OW39487   3.815   3.642  11.663 -0.3938 -0.5417 -0.1362
 9342SOL    HW139488   3.846   3.593  11.739 -0.6515 -1.4186 -0.5959
 9342SOL    HW239489   3.872   3.605  11.596  0.8665 -0.3829  0.8639
 9343SOL     OW39490   1.369   0.260   5.213  0.5371 -0.4334  0.6289
 9343SOL    HW139491   1.398   0.346   5.182  1.5879 -0.4704  1.5218
 9343SOL    HW239492   1.274   0.265   5.219  0.4098 -1.9893  0.0477
 9344SOL     OW39493   1.334   2.797   6.894  0.0696  0.2691 -0.6232
 9344SOL    HW139494   1.240   2.784   6.879 -0.0836  0.6551  0.0025
 9344SOL    HW239495   1.365   2.714   6.858 -0.7116 -0.1778 -0.2531
 9345SOL     OW39496   3.678   1.680   7.125 -0.2970 -0.0656  0.0049
 9345SOL    HW139497   3.727   1.627   7.188  0.9641  0.4509 -0.5400
 9345SOL    HW239498   3.717   1.651   7.043  0.1550  1.5697 -0.3508
 9346SOL     OW39499   4.475   3.540   2.495 -0.4675 -0.0121  0.0808
 9346SOL    HW139500   4.459   3.618   2.442  2.3099  1.2207  1.0760
 9346SOL    HW239501   4.384   3.530   2.524 -1.3856  0.1489 -2.6760
 9347SOL     OW39502   3.626   2.782   5.790  0.2043  0.0463 -0.3450
 9347SOL    HW139503   3.583   2.752   5.870 -2.2588  1.2629 -1.1978
 9347SOL    HW239504   3.695   2.716   5.790  0.5914  0.4484 -0.1526
 9348SOL     OW39505   2.626   4.103  15.078 -0.0599 -0.2049 -0.2365
 9348SOL    HW139506   2.690   4.166  15.110  0.5150 -0.8139 -0.1833
 9348SOL    HW239507   2.647   4.012  15.098  1.4309  0.0032 -0.9105
 9349SOL     OW39508   4.309   0.594   9.876  0.7516  0.0509 -0.0260
 9349SOL    HW139509   4.217   0.570   9.868 -0.1941  3.7832 -0.5291
 9349SOL    HW239510   4.309   0.641   9.959 -3.7582 -3.7448  2.1010
 9350SOL     OW39511   0.227   0.818  10.484  0.2916 -0.0880 -0.0800
 9350SOL    HW139512   0.178   0.833  10.403  0.3623  3.1924  0.4969
 9350SOL    HW239513   0.275   0.738  10.462  2.3722  0.6062  1.8718
 9351SOL     OW39514   2.368   3.841  16.358 -0.2054 -0.0162  0.4363
 9351SOL    HW139515   2.437   3.776  16.370  0.0359  0.5076  2.0022
 9351SOL    HW239516   2.373   3.893  16.439  1.3190  1.0547 -0.3477
 9352SOL     OW39517   0.468   0.248   7.616 -0.3175 -0.1710 -0.3078
 9352SOL    HW139518   0.484   0.246   7.711  1.5051  2.8106 -0.5710
 9352SOL    HW239519   0.527   0.321   7.598  1.7804 -2.2523 -1.8937
 9353SOL     OW39520   0.983   4.167   6.024 -0.8216  0.3656  0.4254
 9353SOL    HW139521   0.928   4.116   5.965 -0.2506 -0.1975  0.3799
 9353SOL    HW239522   1.047   4.105   6.059 -0.5500  0.0329 -0.6813
 9354SOL     OW39523   3.815   0.453   4.568  0.0845 -0.2626  0.2173
 9354SOL    HW139524   3.737   0.431   4.619 -0.5256 -0.2802 -0.7023
 9354SOL    HW239525   3.814   0.390   4.496  1.9312  1.5166 -1.3834
 9355SOL     OW39526   3.667   4.526  12.274  0.5591  0.4672 -0.0445
 9355SOL    HW139527   3.743   4.512  12.332  0.3517 -1.0101 -0.1277
 9355SOL    HW239528   3.675   4.621  12.271  2.6744  0.3331  0.7550
 9356SOL     OW39529   3.401   0.628   6.375  0.2628  0.2403  0.2270
 9356SOL    HW139530   3.485   0.656   6.412 -1.3139  2.7147  1.9960
 9356SOL    HW239531   3.428   0.579   6.297 -2.3077  1.3907 -1.3668
 9357SOL     OW39532   0.393   3.488  16.226 -0.0760 -0.4520 -0.6575
 9357SOL    HW139533   0.487   3.475  16.218  0.2296  1.3198 -0.0013
 9357SOL    HW239534   0.389   3.579  16.196 -1.0521 -0.4301 -0.4667
 9358SOL     OW39535   2.938   1.848   8.826 -0.2767  0.2480  0.5074
 9358SOL    HW139536   2.913   1.890   8.908 -2.4371 -1.5843  0.7954
 9358SOL    HW239537   3.001   1.785   8.861 -0.0645 -0.2839 -0.8341
 9359SOL     OW39538   1.470   4.569   3.061  0.1053 -0.4705  0.1368
 9359SOL    HW139539   1.543   4.508   3.072  2.5307  2.4256  0.0672
 9359SOL    HW239540   1.497   4.633   3.126  1.2575  0.4385 -1.2297
 9360SOL     OW39541   3.618   2.325   4.726  0.5053  0.7747  0.3956
 9360SOL    HW139542   3.559   2.383   4.774 -1.3363 -0.9038  0.1590
 9360SOL    HW239543   3.683   2.300   4.791 -1.0046 -1.5881  0.9975
 9361SOL     OW39544   3.322   0.827  14.629  0.1000 -0.9750 -0.4643
 9361SOL    HW139545   3.392   0.885  14.658  0.0376 -0.6620 -0.9275
 9361SOL    HW239546   3.308   0.852  14.537 -2.2198 -3.7700 -0.8706
 9362SOL     OW39547   4.358   0.320   4.318  0.1846 -0.9493 -0.2684
 9362SOL    HW139548   4.353   0.412   4.292  0.8937 -1.2391 -1.4526
 9362SOL    HW239549   4.315   0.321   4.403  1.3480 -0.7983  0.3106
 9363SOL     OW39550   4.556   4.008   7.201  0.4042  0.0229  0.1498
 9363SOL    HW139551   4.602   3.950   7.261 -0.3032 -2.0449 -1.3014
 9363SOL    HW239552   4.486   3.951   7.168 -0.4445  1.4551 -0.4889
 9364SOL     OW39553   1.373   3.245   2.025  0.3477  0.1026 -0.5938
 9364SOL    HW139554   1.433   3.228   2.098 -2.8401  1.0854  2.2260
 9364SOL    HW239555   1.299   3.292   2.065 -0.2464 -0.6408 -0.8232
 9365SOL     OW39556   2.819   0.379  14.854 -0.0722  0.9056  0.5462
 9365SOL    HW139557   2.749   0.339  14.802 -0.9328  1.6940  1.0999
 9365SOL    HW239558   2.777   0.463  14.873 -2.7893 -0.1816 -0.5812
 9366SOL     OW39559   3.368   0.360   8.542 -0.3462 -0.1499  0.1196
 9366SOL    HW139560   3.328   0.426   8.485 -0.7786  0.3159  0.9654
 9366SOL    HW239561   3.293   0.322   8.589  0.1863 -0.6446  0.5669
 9367SOL     OW39562   1.690   3.061   2.527  0.5143 -0.1842  0.2258
 9367SOL    HW139563   1.614   3.074   2.469  1.1549  3.6845  0.2789
 9367SOL    HW239564   1.653   3.075   2.614  0.5881 -0.8096  0.3572
 9368SOL     OW39565   2.867   4.312   6.053 -0.2213  0.4559  0.2067
 9368SOL    HW139566   2.952   4.331   6.091  1.1311  0.7579 -2.9796
 9368SOL    HW239567   2.885   4.224   6.021 -1.0913  0.5105 -0.4251
 9369SOL     OW39568   3.810   0.903   6.873 -0.1282  0.2231 -0.2705
 9369SOL    HW139569   3.737   0.882   6.932  1.0974  0.5473  1.3512
 9369SOL    HW239570   3.872   0.834   6.897  1.3787  1.2574 -1.1984
 9370SOL     OW39571   3.140   4.147   0.098  0.1810 -0.0368  0.2303
 9370SOL    HW139572   3.151   4.064   0.050 -1.5964 -0.2243  0.1511
 9370SOL    HW239573   3.209   4.202   0.060  0.1137  1.1001  1.7739
 9371SOL     OW39574   4.706   1.795   4.847  0.0278 -0.3308 -0.0622
 9371SOL    HW139575   4.675   1.885   4.861 -0.3938 -0.7495  1.6704
 9371SOL    HW239576   4.635   1.767   4.790  1.2630  0.2451 -1.8890
 9372SOL     OW39577   3.305   1.663   4.384  0.1840  0.1646  0.2741
 9372SOL    HW139578   3.242   1.735   4.378 -0.3992 -0.3509  0.3058
 9372SOL    HW239579   3.375   1.696   4.328 -0.3788  2.0334  0.6736
 9373SOL     OW39580   1.676   1.146  12.764 -0.4710 -0.2470 -0.2606
 9373SOL    HW139581   1.592   1.102  12.748 -0.4094 -0.6817  0.6171
 9373SOL    HW239582   1.656   1.230  12.724  0.0276  0.1668  0.3574
 9374SOL     OW39583   1.101   0.118   9.428  0.1270 -0.0752 -0.0361
 9374SOL    HW139584   1.064   0.198   9.465 -0.0644  0.4208 -1.3143
 9374SOL    HW239585   1.145   0.152   9.350  0.1895 -2.7622 -1.1892
 9375SOL     OW39586   2.546   2.138  15.460 -1.0175 -0.4577  0.8279
 9375SOL    HW139587   2.571   2.230  15.448 -1.7424 -0.3888 -0.1235
 9375SOL    HW239588   2.635   2.104  15.474 -0.4266  1.5803  2.0572
 9376SOL     OW39589   1.118   1.518   6.537  0.2927 -0.3408 -0.7226
 9376SOL    HW139590   1.133   1.608   6.509 -1.4559  0.2220  0.1223
 9376SOL    HW239591   1.129   1.535   6.630  0.4736 -0.7876 -0.6609
 9377SOL     OW39592   4.220   3.545   2.385  0.0532  0.4703  0.4537
 9377SOL    HW139593   4.131   3.577   2.393  0.0754  0.3921  1.0412
 9377SOL    HW239594   4.241   3.578   2.298  1.7245 -1.4145  0.1326
 9378SOL     OW39595   4.191   1.127   8.464  0.3294  0.1563  0.1358
 9378SOL    HW139596   4.195   1.143   8.559 -0.5216  1.9521 -0.1515
 9378SOL    HW239597   4.241   1.203   8.434 -1.3710  1.4137  0.5004
 9379SOL     OW39598   2.023   2.698  13.334 -0.4339  0.3875 -0.7048
 9379SOL    HW139599   1.993   2.637  13.266 -0.5974 -2.5446  2.0026
 9379SOL    HW239600   2.112   2.668  13.348 -0.0933  1.1726 -1.1949
 9380SOL     OW39601   1.229   0.107  11.972  0.0662 -0.2861  0.2035
 9380SOL    HW139602   1.159   0.109  11.907  0.6296  1.7757 -0.3166
 9380SOL    HW239603   1.217   0.015  11.998  0.5501 -0.3459  0.2034
 9381SOL     OW39604   2.042   1.191   4.201  0.2849 -1.0720  0.1432
 9381SOL    HW139605   1.962   1.223   4.242  1.2989  0.9678  0.5444
 9381SOL    HW239606   2.049   1.255   4.129  0.4720 -2.1505 -0.8026
 9382SOL     OW39607   3.378   0.826   4.253 -0.1573  0.5423 -0.0256
 9382SOL    HW139608   3.297   0.857   4.214 -0.0470  2.2400  1.1059
 9382SOL    HW239609   3.368   0.867   4.339 -1.3203  1.3346 -0.5467
 9383SOL     OW39610   2.158   1.465  15.979 -0.1134 -0.4655 -0.3970
 9383SOL    HW139611   2.084   1.507  15.933 -0.1212 -0.1507 -0.1003
 9383SOL    HW239612   2.124   1.385  16.019  2.9205 -0.4374  2.1947
 9384SOL     OW39613   2.798   1.373   7.513  0.4011 -0.1138 -0.0097
 9384SOL    HW139614   2.848   1.390   7.433  1.4402  0.0874  0.6781
 9384SOL    HW239615   2.746   1.299   7.482  0.8431  0.0516 -1.1413
 9385SOL     OW39616   0.374   0.129   7.960 -0.2981  0.0311  0.3854
 9385SOL    HW139617   0.381   0.054   7.902 -2.1133  0.6689 -0.6716
 9385SOL    HW239618   0.431   0.112   8.036 -1.6785 -0.2942  1.3462
 9386SOL     OW39619   0.820   1.534   6.492  0.1029 -0.4293  0.4712
 9386SOL    HW139620   0.787   1.624   6.484 -0.3017 -0.7166 -1.2154
 9386SOL    HW239621   0.904   1.550   6.534 -0.2789 -1.0105  1.4547
 9387SOL     OW39622   2.176   4.354   6.537 -0.0307 -0.0012 -0.1654
 9387SOL    HW139623   2.143   4.288   6.476 -0.2399  1.3557 -1.5008
 9387SOL    HW239624   2.244   4.389   6.479  1.8738 -0.4633  1.7768
 9388SOL     OW39625   0.213   4.224   8.620  0.0079 -0.1667 -0.4203
 9388SOL    HW139626   0.229   4.129   8.615 -0.6986 -0.2738 -0.7888
 9388SOL    HW239627   0.200   4.234   8.714 -2.8357  1.0930 -0.9459
 9389SOL     OW39628   0.495   2.945   8.376  0.0285  0.0396 -0.2769
 9389SOL    HW139629   0.469   2.892   8.301  0.2862  2.8833 -2.4065
 9389SOL    HW239630   0.414   2.939   8.427  0.1881 -0.4064 -0.0829
 9390SOL     OW39631   0.142   0.008  12.312  0.3037  0.4420  0.1221
 9390SOL    HW139632   0.184   0.064  12.378 -0.2660 -0.2228  1.0530
 9390SOL    HW239633   0.214   4.699  12.259 -1.2121 -0.6317 -1.2730
 9391SOL     OW39634   0.841   3.594   5.777 -0.3133 -0.4413  0.7773
 9391SOL    HW139635   0.803   3.570   5.692 -0.0547  0.7449  0.3196
 9391SOL    HW239636   0.920   3.635   5.742 -0.4261 -0.7956  0.0949
 9392SOL     OW39637   2.996   2.914   9.984 -0.0703 -0.1912  0.1978
 9392SOL    HW139638   2.959   2.827   9.974 -0.2467  0.1007 -1.5905
 9392SOL    HW239639   3.081   2.889  10.020 -0.2830 -0.3113  0.6143
 9393SOL     OW39640   4.423   0.875   3.406 -0.6300 -0.1360  0.0449
 9393SOL    HW139641   4.461   0.962   3.414 -1.6262  0.2279  0.7813
 9393SOL    HW239642   4.392   0.866   3.497  2.3027 -1.3669  0.9445
 9394SOL     OW39643   3.764   0.798   3.718 -0.1905 -0.5893  0.1215
 9394SOL    HW139644   3.716   0.762   3.793  0.4853  0.4300  1.0568
 9394SOL    HW239645   3.796   0.722   3.671 -1.9833 -1.0736 -0.3170
 9395SOL     OW39646   3.307   3.739   5.132 -0.1338 -0.6704  0.2694
 9395SOL    HW139647   3.224   3.716   5.174 -1.1450  3.8707  0.7790
 9395SOL    HW239648   3.368   3.675   5.166  1.4575  1.7452  1.9894
 9396SOL     OW39649   3.424   1.394   5.841  0.1459 -0.3318 -1.3642
 9396SOL    HW139650   3.463   1.480   5.827  0.0079 -0.2670 -1.3388
 9396SOL    HW239651   3.388   1.378   5.754 -1.1770  0.8580 -1.0215
 9397SOL     OW39652   0.310   3.237   8.127 -0.8929  0.1156 -0.9222
 9397SOL    HW139653   0.371   3.300   8.087 -0.3753  0.0954 -0.1611
 9397SOL    HW239654   0.330   3.252   8.219 -1.4267  1.2155 -0.9785
 9398SOL     OW39655   3.302   3.063   1.940 -0.0422 -0.4955 -0.2636
 9398SOL    HW139656   3.353   3.141   1.916  0.1051 -0.5562 -0.1470
 9398SOL    HW239657   3.246   3.067   1.862 -0.4064 -0.4355 -0.0003
 9399SOL     OW39658   3.335   4.723   0.593 -0.0955 -0.5196 -0.0113
 9399SOL    HW139659   3.336   0.048   0.676 -0.9321  0.1979 -0.4245
 9399SOL    HW239660   3.417   0.035   0.557  0.0279  0.1741  0.9506
 9400SOL     OW39661   2.982   4.407  15.734 -0.0950  0.4113  0.1895
 9400SOL    HW139662   3.008   4.490  15.774 -1.5518 -0.0604  2.1074
 9400SOL    HW239663   2.976   4.348  15.810  0.7290  0.6954  0.4852
 9401SOL     OW39664   1.003   3.857   4.208 -0.2002 -0.1929 -0.2524
 9401SOL    HW139665   1.053   3.853   4.289 -2.8257 -1.7072  1.2509
 9401SOL    HW239666   1.077   3.836   4.150 -0.5297 -1.9763 -0.0070
 9402SOL     OW39667   2.069   1.727  16.111  0.2256 -0.2145 -0.6509
 9402SOL    HW139668   2.003   1.689  16.052 -1.9128  0.9694  0.9808
 9402SOL    HW239669   2.150   1.724  16.061  1.5710 -3.7747  1.7489
 9403SOL     OW39670   4.137   4.638   2.512 -0.0560  0.1118 -0.1760
 9403SOL    HW139671   4.190   4.614   2.589 -0.7990  0.4953  0.4431
 9403SOL    HW239672   4.214   4.655   2.457  0.2080 -0.1111  0.1254
 9404SOL     OW39673   2.940   2.557   1.537  0.0914  0.1063 -0.4994
 9404SOL    HW139674   2.900   2.639   1.568  1.3285  0.7732 -0.6543
 9404SOL    HW239675   3.019   2.583   1.490  0.5923 -1.2507 -0.3723
 9405SOL     OW39676   1.730   0.136   8.158 -0.2777 -0.1093  0.6747
 9405SOL    HW139677   1.761   0.048   8.136 -1.1947 -0.8113  2.1614
 9405SOL    HW239678   1.805   0.170   8.207  0.9544 -2.7662  0.6050
 9406SOL     OW39679   2.066   0.520  11.968 -0.2831  0.3152 -0.0932
 9406SOL    HW139680   2.052   0.506  11.875  3.9401 -2.1928 -0.3584
 9406SOL    HW239681   2.004   0.453  11.997  0.7067 -0.5499  0.0315
 9407SOL     OW39682   0.429   2.180   6.230 -0.5826 -0.3046 -0.1682
 9407SOL    HW139683   0.475   2.196   6.312 -0.6652  0.9919 -0.3818
 9407SOL    HW239684   0.495   2.135   6.176 -1.1964 -0.3142 -0.9156
 9408SOL     OW39685   2.188   4.632  10.663  0.0618  0.4688 -0.5951
 9408SOL    HW139686   2.095   4.619  10.647 -0.1683  2.0312 -0.5245
 9408SOL    HW239687   2.210   4.657  10.753  0.0813  0.3608 -0.5696
 9409SOL     OW39688   3.739   2.495  10.322 -0.4372 -0.3346  0.3763
 9409SOL    HW139689   3.804   2.558  10.289 -2.3512  0.8644 -1.1331
 9409SOL    HW239690   3.798   2.435  10.367 -1.0416 -0.4780  0.9718
 9410SOL     OW39691   1.886   3.850   2.938 -0.0696 -0.0297 -0.1207
 9410SOL    HW139692   1.849   3.762   2.946 -0.9109  0.2364 -1.0336
 9410SOL    HW239693   1.935   3.848   3.020 -0.1084  1.8678 -0.0486
 9411SOL     OW39694   1.942   1.125   7.246 -0.3665  0.6942  0.1214
 9411SOL    HW139695   1.960   1.138   7.339  0.0370  0.8865  0.0171
 9411SOL    HW239696   2.000   1.190   7.207 -0.8111 -0.1383 -1.9179
 9412SOL     OW39697   1.881   0.103   3.270  0.3014 -0.4763 -0.4859
 9412SOL    HW139698   1.911   0.143   3.351  0.2994  0.8146 -1.1288
 9412SOL    HW239699   1.838   0.026   3.308 -1.6909  0.7573 -0.2722
 9413SOL     OW39700   4.012   2.002   5.129  0.3482 -0.2317 -0.0736
 9413SOL    HW139701   3.956   2.017   5.053  1.6990 -1.2482 -1.2846
 9413SOL    HW239702   3.967   1.934   5.179 -0.5052  0.8680  0.6451
 9414SOL     OW39703   4.422   0.816   2.873 -0.3158 -0.0419  0.2561
 9414SOL    HW139704   4.485   0.871   2.919  1.3621 -1.8609  0.1195
 9414SOL    HW239705   4.472   0.793   2.795  0.0927 -0.7067  0.7147
 9415SOL     OW39706   2.779   2.971   8.018 -0.2148 -0.1253  0.5710
 9415SOL    HW139707   2.827   3.034   7.965  2.3003 -1.8916  0.7423
 9415SOL    HW239708   2.807   3.000   8.105 -2.7964  2.6307  0.4768
 9416SOL     OW39709   1.894   0.675   5.638  0.0051 -0.0197 -0.3577
 9416SOL    HW139710   1.815   0.663   5.690 -0.2025  1.2816 -0.3819
 9416SOL    HW239711   1.956   0.719   5.696  1.5442 -2.8470  0.1738
 9417SOL     OW39712   3.301   4.586   7.471 -0.0996  0.5114 -0.2598
 9417SOL    HW139713   3.311   4.679   7.451 -0.4597  0.3732 -1.0684
 9417SOL    HW239714   3.257   4.558   7.391  0.0089 -0.9177  0.1819
 9418SOL     OW39715   0.462   0.781   2.424 -0.5345  0.2578 -0.1068
 9418SOL    HW139716   0.417   0.860   2.395 -2.1878  0.0213  1.8512
 9418SOL    HW239717   0.513   0.818   2.496 -1.0190  0.4774  0.1169
 9419SOL     OW39718   0.173   2.328   4.993 -0.1153 -0.6476  0.2583
 9419SOL    HW139719   0.169   2.233   4.993  1.4349 -0.7261  0.3434
 9419SOL    HW239720   0.113   2.351   5.063 -1.5034  1.1887 -1.5433
 9420SOL     OW39721   2.089   2.926  17.568 -0.4833 -0.1812 -0.2655
 9420SOL    HW139722   2.097   3.018  17.595 -1.3144 -0.8619  2.3278
 9420SOL    HW239723   2.146   2.925  17.491 -2.3073 -1.1003 -1.5947
 9421SOL     OW39724   4.180   4.145   3.378  0.0757 -0.2723 -0.0918
 9421SOL    HW139725   4.140   4.148   3.465  0.3536 -1.3140  0.0733
 9421SOL    HW239726   4.259   4.197   3.393  0.6357 -1.3349  0.7198
 9422SOL     OW39727   3.188   1.110   4.151 -0.0820 -0.2180  0.6784
 9422SOL    HW139728   3.166   1.070   4.067 -1.1382 -0.9052  1.2816
 9422SOL    HW239729   3.117   1.075   4.206  1.0773 -1.0313  1.6393
 9423SOL     OW39730   0.110   3.670  16.328 -0.4638  0.2063 -0.3754
 9423SOL    HW139731   0.133   3.747  16.380  2.3939 -0.3359 -0.8441
 9423SOL    HW239732   0.146   3.697  16.243  2.5915  1.0387  1.1852
 9424SOL     OW39733   4.697   0.287   6.122 -0.1690 -0.6738  0.6708
 9424SOL    HW139734   0.043   0.331   6.172 -0.0875  1.3927 -1.2626
 9424SOL    HW239735   4.664   0.353   6.061  2.6364 -0.2229 -0.3381
 9425SOL     OW39736   1.973   1.986  10.565 -0.4619 -0.0175  0.2939
 9425SOL    HW139737   1.908   1.989  10.494 -1.0798 -2.6464  0.7442
 9425SOL    HW239738   2.045   2.034  10.526 -0.4197  0.2137  0.6602
 9426SOL     OW39739   3.282   1.702   7.904 -0.4227  1.0936 -0.3852
 9426SOL    HW139740   3.318   1.699   7.993  1.7241 -2.4958 -1.4266
 9426SOL    HW239741   3.232   1.784   7.909 -0.7749  0.8466  0.2313
 9427SOL     OW39742   4.149   2.515   1.908 -0.5822  0.0222  0.7616
 9427SOL    HW139743   4.233   2.532   1.950 -0.3063 -0.8948  0.5873
 9427SOL    HW239744   4.109   2.440   1.952  0.1132 -0.9046 -0.1846
 9428SOL     OW39745   1.292   1.621  15.093  0.0857 -0.2415 -1.3015
 9428SOL    HW139746   1.384   1.630  15.119 -0.0429 -1.3921 -0.4280
 9428SOL    HW239747   1.258   1.701  15.132 -1.9686 -0.7543 -2.0806
 9429SOL     OW39748   0.770   1.896  15.889  0.3577  0.8545  0.1757
 9429SOL    HW139749   0.816   1.918  15.970  0.0962  3.4723 -0.3956
 9429SOL    HW239750   0.685   1.872  15.925  2.2640 -3.3064  1.9125
 9430SOL     OW39751   1.935   3.720   6.059 -0.3785  0.5111  0.0429
 9430SOL    HW139752   2.026   3.699   6.037 -0.3916 -0.4444  0.9033
 9430SOL    HW239753   1.961   3.810   6.078  1.4694  0.2191 -1.1363
 9431SOL     OW39754   3.838   2.017   2.839  0.2040  0.2652 -0.0740
 9431SOL    HW139755   3.893   2.031   2.917  0.9756  0.9626 -0.7436
 9431SOL    HW239756   3.899   1.988   2.771 -0.4336  0.7042 -0.8284
 9432SOL     OW39757   3.755   4.254  17.269  0.8629 -0.1577 -0.0207
 9432SOL    HW139758   3.725   4.336  17.309 -0.3316 -0.4911 -0.2311
 9432SOL    HW239759   3.847   4.278  17.262  0.7961  0.3286  0.7137
 9433SOL     OW39760   3.782   0.754  11.738  0.0823 -0.1736 -0.4526
 9433SOL    HW139761   3.801   0.772  11.830  0.5437 -4.8049  0.3870
 9433SOL    HW239762   3.853   0.695  11.712 -0.1815 -1.1919  1.1083
 9434SOL     OW39763   2.776   2.540   8.395 -0.2979 -0.3767 -0.0034
 9434SOL    HW139764   2.821   2.623   8.409  2.1285 -2.0301  1.9970
 9434SOL    HW239765   2.848   2.478   8.384 -0.1565 -0.1533 -0.3524
 9435SOL     OW39766   3.050   4.294   4.175  0.7359  0.0483 -0.1332
 9435SOL    HW139767   3.041   4.293   4.271  0.5883  1.4394 -0.1356
 9435SOL    HW239768   2.961   4.315   4.145 -0.0569 -1.0727  1.4368
 9436SOL     OW39769   0.010   1.883  15.460 -0.0969 -0.2159  0.0291
 9436SOL    HW139770   4.652   1.932  15.449 -0.1014  0.0238  1.1081
 9436SOL    HW239771   4.682   1.802  15.456 -0.5820  0.0668  0.4969
 9437SOL     OW39772   3.767   1.265  17.318  0.2663  0.1829 -0.4521
 9437SOL    HW139773   3.826   1.266  17.393  1.1036  1.8344 -1.1439
 9437SOL    HW239774   3.758   1.170  17.313  2.3497  0.0080 -0.6355
 9438SOL     OW39775   0.437   2.224   7.882 -0.5317 -0.0289  0.4906
 9438SOL    HW139776   0.470   2.262   7.964  0.4241 -2.9097  1.4226
 9438SOL    HW239777   0.510   2.176   7.843 -0.1684  0.8250  0.1093
 9439SOL     OW39778   0.097   0.450   9.073 -0.0281  0.4566 -0.0598
 9439SOL    HW139779   0.101   0.385   9.004 -3.0470  1.1997 -0.9293
 9439SOL    HW239780   0.182   0.493   9.068  0.3331 -0.2391  0.1252
 9440SOL     OW39781   0.184   1.722   7.627  0.5467  0.1000 -0.1819
 9440SOL    HW139782   0.135   1.674   7.693  1.7055 -0.7953  0.0159
 9440SOL    HW239783   0.245   1.768   7.684 -1.1404 -2.9324  4.0410
 9441SOL     OW39784   1.855   1.385   4.630  0.1002 -0.5201 -0.2035
 9441SOL    HW139785   1.832   1.475   4.650  1.3976 -0.2507  0.0245
 9441SOL    HW239786   1.771   1.339   4.635 -0.4498  0.3878 -1.2029
 9442SOL     OW39787   3.142   3.966   3.196  0.2734  0.1449  0.5083
 9442SOL    HW139788   3.163   4.038   3.256  2.8021 -0.7710  0.7355
 9442SOL    HW239789   3.081   4.003   3.132 -0.4019 -1.2710  0.3508
 9443SOL     OW39790   1.363   4.358   6.562  0.1855  0.7179 -0.4244
 9443SOL    HW139791   1.395   4.343   6.651 -0.8722  1.0110  0.0150
 9443SOL    HW239792   1.316   4.277   6.543  1.7248 -0.2594 -0.0530
 9444SOL     OW39793   1.017   4.719   3.215 -0.3346 -0.6086 -0.0650
 9444SOL    HW139794   0.940   0.041   3.250  0.5399 -0.1279  1.2088
 9444SOL    HW239795   1.087   0.044   3.259  0.1253  0.8969 -2.4148
 9445SOL     OW39796   0.673   3.036  12.650 -0.1904 -0.1061  0.0044
 9445SOL    HW139797   0.728   3.101  12.693 -0.5808  0.6671 -0.6774
 9445SOL    HW239798   0.697   3.041  12.557  0.3872  1.1377  0.2271
 9446SOL     OW39799   3.274   0.064   4.571  0.0327  0.3365 -0.0039
 9446SOL    HW139800   3.333   0.139   4.579 -0.6591  1.0099 -1.2058
 9446SOL    HW239801   3.341   4.720   4.556 -0.1167  0.3754 -0.8309
 9447SOL     OW39802   4.260   4.557   9.013  0.5723  0.2631  0.0956
 9447SOL    HW139803   4.290   4.476   8.973  1.0773 -0.3464  1.7002
 9447SOL    HW239804   4.335   4.613   8.991  1.4942 -0.6906  0.8439
 9448SOL     OW39805   2.636   1.477   6.290 -0.2814  0.1477  0.6677
 9448SOL    HW139806   2.568   1.453   6.227  0.6256 -1.0206  0.1430
 9448SOL    HW239807   2.588   1.512   6.366 -0.2115  0.3933  0.6001
 9449SOL     OW39808   3.961   4.389  17.455 -0.1133 -0.4616  0.2301
 9449SOL    HW139809   4.056   4.377  17.462 -0.0706  0.0368  0.4537
 9449SOL    HW239810   3.925   4.333  17.524 -1.4570  0.2117  0.0636
 9450SOL     OW39811   1.111   0.137   9.012  0.3374  0.3699 -0.0791
 9450SOL    HW139812   1.137   0.209   9.069  0.5009 -0.0782  0.4109
 9450SOL    HW239813   1.020   0.115   9.035 -0.0066  1.4136 -0.4487
 9451SOL     OW39814   1.505   1.263   2.356  0.3223  0.3236 -0.6244
 9451SOL    HW139815   1.491   1.267   2.451  2.9376 -2.6037 -0.1218
 9451SOL    HW239816   1.511   1.358   2.342  3.8370  0.4212  1.3869
 9452SOL     OW39817   1.363   0.464  17.330  0.1473 -0.4695  0.1631
 9452SOL    HW139818   1.294   0.495  17.387  0.3213 -1.0631  0.6930
 9452SOL    HW239819   1.423   0.420  17.389  1.1353  0.6486  0.0136
 9453SOL     OW39820   1.869   4.424   1.938  0.3657 -0.7104  0.5698
 9453SOL    HW139821   1.838   4.395   1.852  1.9100 -2.0587  0.4730
 9453SOL    HW239822   1.795   4.396   1.992 -0.1717 -1.2481 -0.4576
 9454SOL     OW39823   1.253   0.853   8.847 -0.0707 -0.6336 -0.2886
 9454SOL    HW139824   1.204   0.919   8.897  3.9259  1.2497  1.1476
 9454SOL    HW239825   1.325   0.837   8.908  0.8326 -2.3444 -1.8151
 9455SOL     OW39826   1.288   3.727   8.445 -0.1407 -0.6773 -0.2598
 9455SOL    HW139827   1.272   3.747   8.353 -2.7569  1.8536  0.7517
 9455SOL    HW239828   1.232   3.651   8.461  0.7278 -1.6346 -1.8240
 9456SOL     OW39829   4.643   4.255   7.401  0.4841 -0.4739  0.1052
 9456SOL    HW139830   0.000   4.235   7.449  0.4034 -1.9109 -0.3659
 9456SOL    HW239831   4.688   4.300   7.329 -0.1246  1.7669  1.1031
 9457SOL     OW39832   1.211   1.405   5.665  0.3362 -0.7277 -0.0216
 9457SOL    HW139833   1.219   1.343   5.592 -1.8038 -2.2843  1.0355
 9457SOL    HW239834   1.177   1.481   5.619  1.0301  1.2589  2.7661
 9458SOL     OW39835   2.402   0.227   7.979  0.6960 -0.0224 -0.0934
 9458SOL    HW139836   2.479   0.216   7.923  2.1807 -1.2598  2.1996
 9458SOL    HW239837   2.368   0.138   7.975  0.2718  0.0903  0.8988
 9459SOL     OW39838   4.719   2.020   9.584 -0.7542  0.0891 -0.2410
 9459SOL    HW139839   0.083   2.026   9.544 -0.5842 -1.5249 -0.1001
 9459SOL    HW239840   4.700   1.936   9.544  0.6825 -1.2849  1.9414
 9460SOL     OW39841   2.308   0.629  14.730 -0.5586 -0.0767  0.2391
 9460SOL    HW139842   2.304   0.723  14.747 -1.4072 -0.2333  0.9171
 9460SOL    HW239843   2.228   0.601  14.775  0.1407 -1.0250  0.8970
 9461SOL     OW39844   4.071   3.749   2.806 -0.3866 -0.3554 -0.1037
 9461SOL    HW139845   4.148   3.754   2.749  0.6032  0.5126  1.3202
 9461SOL    HW239846   4.104   3.785   2.888  1.4354 -1.1812 -0.4731
 9462SOL     OW39847   1.949   4.501   1.594  0.4584 -0.4247  0.2118
 9462SOL    HW139848   2.008   4.530   1.663  1.5603  0.9730 -1.3185
 9462SOL    HW239849   1.896   4.580   1.582 -0.2809 -0.9682 -0.0956
 9463SOL     OW39850   1.193   1.102   6.152  0.0384  0.2800  0.3010
 9463SOL    HW139851   1.177   1.041   6.224  1.1800 -1.1997 -0.7209
 9463SOL    HW239852   1.113   1.155   6.146 -0.7155 -0.8128  0.6863
 9464SOL     OW39853   0.232   3.850   5.003  0.1528  0.1911 -0.2426
 9464SOL    HW139854   0.171   3.921   5.021 -0.6346  0.1510 -2.7593
 9464SOL    HW239855   0.312   3.903   4.996  0.1881  0.5542  2.7855
 9465SOL     OW39856   0.511   3.304  13.654 -0.0714 -0.0568 -0.5290
 9465SOL    HW139857   0.453   3.238  13.617  0.8847 -1.2647  0.1479
 9465SOL    HW239858   0.535   3.342  13.569  0.3456  0.5413 -0.1453
 9466SOL     OW39859   1.547   4.373   0.035 -0.2144  0.7642  0.3422
 9466SOL    HW139860   1.544   4.342   0.126  3.2683 -0.4694  0.0382
 9466SOL    HW239861   1.567   4.291  17.684 -0.5315  0.6615  0.3896
 9467SOL     OW39862   3.047   0.669   7.679  0.2653 -0.2962 -0.5662
 9467SOL    HW139863   3.021   0.637   7.593  0.7207 -3.1049  0.3446
 9467SOL    HW239864   3.108   0.736   7.648 -1.4840  0.9193 -1.3409
 9468SOL     OW39865   2.009   1.271   9.738 -0.1905  0.3544  0.6290
 9468SOL    HW139866   2.027   1.208   9.668 -0.0971 -1.1860  2.0449
 9468SOL    HW239867   2.009   1.212   9.813  1.2952 -0.3342  0.0847
 9469SOL     OW39868   3.877   1.476   5.757 -0.1214  0.1625 -0.3157
 9469SOL    HW139869   3.795   1.462   5.709 -0.3351  0.0154  0.0956
 9469SOL    HW239870   3.849   1.557   5.798  2.6985  0.8753  0.1685
 9470SOL     OW39871   2.277   2.484   9.607 -0.6993 -0.0367 -0.3755
 9470SOL    HW139872   2.207   2.420   9.614 -1.2051  0.4752 -0.6979
 9470SOL    HW239873   2.313   2.452   9.524  1.5567 -0.5619  0.7955
 9471SOL     OW39874   3.845   1.976   5.742  0.0271  0.2505  0.6920
 9471SOL    HW139875   3.760   2.008   5.774 -1.2198 -0.3807 -1.9267
 9471SOL    HW239876   3.894   2.058   5.739 -0.6130  0.5860 -0.5946
 9472SOL     OW39877   3.499   0.350  13.502 -0.3507 -0.1593 -0.0654
 9472SOL    HW139878   3.578   0.361  13.554  0.1903 -3.2650 -0.2037
 9472SOL    HW239879   3.438   0.297  13.554 -0.5806  0.1868  0.0139
 9473SOL     OW39880   3.878   4.029   7.030  0.1119  0.2855  0.3661
 9473SOL    HW139881   3.915   3.954   7.076 -0.9980  1.3942  3.0207
 9473SOL    HW239882   3.947   4.094   7.014  0.3542  0.2379  1.2340
 9474SOL     OW39883   2.037   3.506   6.646  0.1805 -0.4878  0.5127
 9474SOL    HW139884   1.949   3.497   6.682  0.0899 -0.0237  0.4074
 9474SOL    HW239885   2.105   3.477   6.706  0.3614 -2.4599 -0.6381
 9475SOL     OW39886   4.718   4.615   6.542  0.1976 -0.2300 -0.4480
 9475SOL    HW139887   0.045   4.575   6.614 -0.8467  2.1445  1.6106
 9475SOL    HW239888   0.018   4.566   6.463  0.9445 -0.0793 -0.3254
 9476SOL     OW39889   2.377   3.456   5.532 -0.2359  0.0805  0.7991
 9476SOL    HW139890   2.373   3.409   5.615  0.0661 -0.5493  0.4599
 9476SOL    HW239891   2.287   3.486   5.520  0.3470  1.5043 -0.0187
 9477SOL     OW39892   4.456   3.585   8.548 -0.2291  0.4795  0.0614
 9477SOL    HW139893   4.386   3.612   8.607 -1.4407  0.5470 -1.3899
 9477SOL    HW239894   4.402   3.580   8.468 -0.5308 -1.1165  0.3738
 9478SOL     OW39895   3.538   4.359  15.393  0.2291  0.8371  0.0146
 9478SOL    HW139896   3.574   4.432  15.443 -0.1242  0.4964  0.7531
 9478SOL    HW239897   3.606   4.343  15.327  0.3191  2.0851 -0.2072
 9479SOL     OW39898   4.351   4.554   7.822  0.0162  0.3281 -0.2659
 9479SOL    HW139899   4.343   4.596   7.907 -0.0648 -2.5492  1.1611
 9479SOL    HW239900   4.424   4.600   7.779  2.4883 -2.2975  1.0867
 9480SOL     OW39901   1.321   1.312  11.319  0.2672  0.3428  0.3760
 9480SOL    HW139902   1.409   1.300  11.285 -0.0165  0.1768 -0.3097
 9480SOL    HW239903   1.288   1.389  11.272 -3.8414 -0.7606  1.3806
 9481SOL     OW39904   0.248   0.086   4.265 -0.6405  1.1312  0.6525
 9481SOL    HW139905   0.273   0.021   4.331 -0.2716  0.5239 -0.0820
 9481SOL    HW239906   0.207   0.041   4.192 -2.4815  1.9176  1.2168
 9482SOL     OW39907   0.806   3.618   1.965 -0.1686 -0.3388 -0.1092
 9482SOL    HW139908   0.791   3.539   1.914 -1.2806 -0.9102  1.1031
 9482SOL    HW239909   0.746   3.619   2.040  0.4508 -0.4015  0.3790
 9483SOL     OW39910   0.537   2.823  15.446  0.6666  0.4232 -0.4754
 9483SOL    HW139911   0.451   2.791  15.473  1.4609 -1.4164 -0.1755
 9483SOL    HW239912   0.555   2.750  15.387  0.3400  0.2645 -0.3789
 9484SOL     OW39913   3.426   1.961   8.524 -0.0876 -0.1975 -0.4051
 9484SOL    HW139914   3.429   1.880   8.473 -0.7101 -1.4836  1.6138
 9484SOL    HW239915   3.424   1.925   8.613  1.8538  1.4128  0.2827
 9485SOL     OW39916   1.264   4.583   5.646 -0.3754 -0.5752 -0.3563
 9485SOL    HW139917   1.285   4.523   5.574 -0.9349 -1.3370  0.1124
 9485SOL    HW239918   1.169   4.569   5.645 -0.4671  0.1304 -1.1797
 9486SOL     OW39919   0.747   2.105  10.241  0.2262  0.3546  0.3316
 9486SOL    HW139920   0.681   2.086  10.308 -0.2053  1.5707  0.2499
 9486SOL    HW239921   0.714   2.038  10.181  1.4274 -1.6385  1.8822
 9487SOL     OW39922   3.926   2.672  11.455  0.1967 -0.0103 -0.6120
 9487SOL    HW139923   4.005   2.691  11.506 -0.8575  1.1926  0.5822
 9487SOL    HW239924   3.913   2.591  11.505  1.7530 -0.9032 -1.6873
 9488SOL     OW39925   2.117   1.868  11.312  0.2416  0.0397 -0.1401
 9488SOL    HW139926   2.112   1.839  11.221  0.2185  0.0467 -0.1412
 9488SOL    HW239927   2.100   1.784  11.354  1.4123 -0.4104 -0.5908
 9489SOL     OW39928   0.538   2.977  17.290  0.2443 -0.1396 -0.2007
 9489SOL    HW139929   0.600   2.945  17.355  0.1652 -2.8937 -1.5174
 9489SOL    HW239930   0.451   2.966  17.328  1.2280  1.3325  2.5001
 9490SOL     OW39931   0.666   3.833   4.336  0.3137  0.0239 -0.4153
 9490SOL    HW139932   0.581   3.794   4.358 -0.2642  1.9305  0.8037
 9490SOL    HW239933   0.692   3.775   4.265  0.9212 -2.0433  1.4968
 9491SOL     OW39934   0.632   2.320   8.825 -0.0041  0.5048  0.3430
 9491SOL    HW139935   0.666   2.331   8.737  0.5140 -2.1055  0.2214
 9491SOL    HW239936   0.610   2.411   8.847 -2.2643 -0.0615  0.4343
 9492SOL     OW39937   1.907   3.593   5.702 -0.1873 -0.4348  0.5671
 9492SOL    HW139938   1.825   3.597   5.653  1.4188 -0.0403 -2.0461
 9492SOL    HW239939   1.890   3.510   5.747 -1.0958  0.0064  1.0391
 9493SOL     OW39940   1.797   0.361  10.566  0.0245 -0.3398 -0.7147
 9493SOL    HW139941   1.827   0.432  10.509 -0.0946 -0.2040 -0.6082
 9493SOL    HW239942   1.878   0.344  10.614 -0.2528  0.0367 -0.1262
 9494SOL     OW39943   4.404   0.083   9.409 -0.3695 -0.5220 -0.3279
 9494SOL    HW139944   4.340   0.139   9.452  1.6201  0.9248  0.7880
 9494SOL    HW239945   4.361   4.720   9.412 -1.0502 -0.1881 -0.7558
 9495SOL     OW39946   0.864   2.843   2.500  0.6205  0.1220 -0.1180
 9495SOL    HW139947   0.946   2.819   2.456  1.5238  0.1044  1.5978
 9495SOL    HW239948   0.875   2.936   2.521  0.6892 -0.0105  0.4280
 9496SOL     OW39949   3.580   3.409   8.238  0.2694  0.7222 -0.0531
 9496SOL    HW139950   3.527   3.486   8.261  0.5941  0.9083  0.0708
 9496SOL    HW239951   3.630   3.432   8.160 -1.7280  0.9783 -1.2682
 9497SOL     OW39952   3.615   3.904   7.998 -0.1282 -0.7320 -0.3369
 9497SOL    HW139953   3.588   3.989   8.031 -2.6236 -1.4006 -0.6987
 9497SOL    HW239954   3.642   3.936   7.912  2.2728 -2.9958 -0.4335
 9498SOL     OW39955   0.254   1.933  10.330 -0.0276  1.0094  0.4294
 9498SOL    HW139956   0.268   2.022  10.297 -0.3337  1.4442  1.4587
 9498SOL    HW239957   0.173   1.911  10.283 -0.2812  2.5272  0.1477
 9499SOL     OW39958   2.546   2.011  11.239  0.4264 -0.0504  0.4159
 9499SOL    HW139959   2.473   1.991  11.181 -1.6145  1.8183  2.3514
 9499SOL    HW239960   2.599   2.066  11.180  0.9550 -1.2744 -0.2414
 9500SOL     OW39961   3.867   1.701   4.097 -0.1857 -0.1054  0.1744
 9500SOL    HW139962   3.961   1.683   4.090 -0.6272 -2.5395  0.7731
 9500SOL    HW239963   3.844   1.631   4.036  0.9588  0.7928 -1.3102
 9501SOL     OW39964   0.550   2.271  14.456  0.7960  0.2443 -0.0755
 9501SOL    HW139965   0.501   2.210  14.401 -0.7633 -0.0825  1.6599
 9501SOL    HW239966   0.480   2.294  14.517  0.7425  1.4742 -0.5899
 9502SOL     OW39967   1.484   1.081   4.121  0.1719 -0.2316 -1.1014
 9502SOL    HW139968   1.513   1.134   4.047 -1.7272 -0.5974 -2.1012
 9502SOL    HW239969   1.408   1.130   4.154  1.1261 -0.6813  1.7261
 9503SOL     OW39970   3.721   4.181   1.217  0.1380  0.4605  0.1030
 9503SOL    HW139971   3.735   4.157   1.125  1.3483  2.4785 -0.2443
 9503SOL    HW239972   3.632   4.217   1.219  0.4499  1.1429  1.6233
 9504SOL     OW39973   3.500   0.313   1.608 -0.0121 -0.6111  0.4628
 9504SOL    HW139974   3.463   0.225   1.604  1.7585 -1.3204 -0.6132
 9504SOL    HW239975   3.555   0.305   1.530 -1.3156  2.7410 -0.7938
 9505SOL     OW39976   2.092   3.113  10.982 -0.1348 -0.2768 -0.2975
 9505SOL    HW139977   2.163   3.145  11.039 -0.5486 -2.5173  1.4756
 9505SOL    HW239978   2.011   3.153  11.014  0.2116  0.2511 -0.0681
 9506SOL     OW39979   0.143   3.343  17.463  0.0896  0.2179 -0.0458
 9506SOL    HW139980   0.126   3.423  17.414 -2.1104 -0.7553 -0.8731
 9506SOL    HW239981   0.192   3.296  17.396  4.3972  1.5054  2.2114
 9507SOL     OW39982   1.880   0.612   7.312 -0.9933 -0.6361  0.1068
 9507SOL    HW139983   1.965   0.590   7.274 -1.4456  1.0814 -1.9853
 9507SOL    HW239984   1.899   0.616   7.405 -1.1462 -0.5753  0.1353
 9508SOL     OW39985   0.646   4.133   3.376 -0.0699 -0.3203 -0.0640
 9508SOL    HW139986   0.691   4.057   3.414 -0.3561 -0.0608  0.7899
 9508SOL    HW239987   0.560   4.111   3.411 -0.9694  1.0490 -1.4268
 9509SOL     OW39988   1.331   3.116   6.525 -0.0352  0.6628 -0.1729
 9509SOL    HW139989   1.304   3.107   6.616 -0.9446  0.4822 -0.4548
 9509SOL    HW239990   1.246   3.123   6.481  0.0448 -0.3403 -0.4885
 9510SOL     OW39991   1.608   1.303   1.173 -0.8106  0.2449 -0.0252
 9510SOL    HW139992   1.567   1.218   1.155  3.2505 -1.5381 -0.8089
 9510SOL    HW239993   1.687   1.275   1.218 -0.7131 -0.8086 -0.8582
 9511SOL     OW39994   2.484   4.233   5.004  1.0373 -0.7295 -0.0294
 9511SOL    HW139995   2.453   4.281   4.927  1.4806 -0.2981  0.0615
 9511SOL    HW239996   2.407   4.177   5.016  0.8360 -0.8144 -1.7336
 9512SOL     OW39997   3.058   4.176   7.852  0.6486 -0.3043 -0.4030
 9512SOL    HW139998   3.133   4.135   7.896  1.1229  3.4395  2.2457
 9512SOL    HW239999   3.087   4.181   7.761 -2.1690 -1.3545 -1.3584
 9513SOL     OW40000   0.269   4.241  15.998  0.3155  0.2596  0.3328
 9513SOL    HW140001   0.217   4.162  15.984  0.2801  0.0448  1.5990
 9513SOL    HW240002   0.351   4.192  16.002 -0.0638 -0.3243  0.9819
 9514SOL     OW40003   0.238   3.292   2.305 -0.5275  0.3121  0.4945
 9514SOL    HW140004   0.186   3.252   2.375  1.5209 -3.1697  0.0673
 9514SOL    HW240005   0.176   3.288   2.232 -2.0253 -1.7720  1.8844
 9515SOL     OW40006   3.560   0.751   5.333  0.2550  0.2579 -0.6193
 9515SOL    HW140007   3.583   0.829   5.383  0.7718  0.3100 -0.9308
 9515SOL    HW240008   3.482   0.789   5.293 -0.9430  0.5834  2.0149
 9516SOL     OW40009   2.626   0.755   7.103 -0.2166  0.0029  0.6874
 9516SOL    HW140010   2.558   0.814   7.071 -0.9164 -0.7997  0.6897
 9516SOL    HW240011   2.567   0.705   7.159 -2.0411  0.6290 -0.7028
 9517SOL     OW40012   2.947   1.456   4.173 -0.2314 -0.1989 -0.1530
 9517SOL    HW140013   2.994   1.387   4.127  0.5190 -0.0445  0.3817
 9517SOL    HW240014   2.904   1.399   4.237 -1.0442  1.1455  0.5079
 9518SOL     OW40015   4.014   0.135   6.287 -0.3402  0.1106 -0.1357
 9518SOL    HW140016   4.014   0.229   6.306 -0.6222 -0.0417  0.6024
 9518SOL    HW240017   4.107   0.126   6.270  0.0055  0.9217  1.2924
 9519SOL     OW40018   0.727   1.388   6.690  0.0938  0.1154  0.3610
 9519SOL    HW140019   0.746   1.453   6.622 -1.9445  0.4193  0.0672
 9519SOL    HW240020   0.632   1.396   6.694  0.1699  0.8130  0.7983
 9520SOL     OW40021   0.340   2.611  13.950  0.0367  1.1091  0.1241
 9520SOL    HW140022   0.293   2.619  14.033  0.3859  0.0703  0.4113
 9520SOL    HW240023   0.271   2.621  13.884  1.2528  2.0241 -1.0000
 9521SOL     OW40024   2.355   0.070   4.627 -0.2566 -0.1721  0.3307
 9521SOL    HW140025   2.335   0.079   4.721  0.0507 -0.3242  0.4100
 9521SOL    HW240026   2.363   0.164   4.609  2.2862  0.0394  2.4876
 9522SOL     OW40027   4.548   2.935  13.848  0.4313  0.2714 -0.3064
 9522SOL    HW140028   4.570   3.004  13.910 -0.5967 -0.1060  0.4794
 9522SOL    HW240029   4.517   2.998  13.782  2.2554  0.3721 -1.0674
 9523SOL     OW40030   0.821   3.175   5.097  0.4560  0.3330 -0.2426
 9523SOL    HW140031   0.793   3.266   5.109 -0.2910  0.3344 -2.0798
 9523SOL    HW240032   0.895   3.176   5.036  1.7895  2.6073  1.3662
 9524SOL     OW40033   1.259   3.291  12.075 -0.1413 -0.1632  0.4982
 9524SOL    HW140034   1.305   3.220  12.029 -0.8169 -0.1893 -0.1388
 9524SOL    HW240035   1.326   3.355  12.100  1.2592 -1.4545  0.0977
 9525SOL     OW40036   2.941   3.692   4.914  0.4969  0.1012 -0.3341
 9525SOL    HW140037   2.917   3.665   4.825 -1.1827 -2.2409  0.8132
 9525SOL    HW240038   2.903   3.779   4.900  0.6142  0.2330  0.1657
 9526SOL     OW40039   1.208   1.698   4.809  0.5897  0.1098 -0.0670
 9526SOL    HW140040   1.118   1.726   4.793  0.7355  0.2362 -0.6608
 9526SOL    HW240041   1.253   1.721   4.728 -2.4600 -0.6116 -1.9518
 9527SOL     OW40042   2.666   0.923   1.913 -0.6236 -0.3426 -0.2958
 9527SOL    HW140043   2.735   0.859   1.895 -0.2796 -0.6595  2.1211
 9527SOL    HW240044   2.713   1.006   1.912  1.4139 -1.5131 -3.8970
 9528SOL     OW40045   4.653   2.383  14.710 -0.6239  0.5015  0.5066
 9528SOL    HW140046   0.019   2.378  14.745  0.5538 -1.0177 -2.6967
 9528SOL    HW240047   4.613   2.296  14.715  1.3360 -0.3746  0.9751
 9529SOL     OW40048   2.392   4.398   4.805  0.0932 -0.3009  0.2382
 9529SOL    HW140049   2.452   4.472   4.797  0.0593 -0.3396 -0.4075
 9529SOL    HW240050   2.307   4.440   4.817  1.1570  1.6952  0.7051
 9530SOL     OW40051   1.613   1.990   4.069  0.5867 -0.2484 -0.3700
 9530SOL    HW140052   1.558   1.932   4.122 -2.9261 -0.0217 -3.7441
 9530SOL    HW240053   1.547   2.053   4.040  0.8745  0.2898  0.1491
 9531SOL     OW40054   1.584   2.362  12.361 -0.5397  0.8500  0.3772
 9531SOL    HW140055   1.676   2.347  12.342 -0.6207  1.5250 -0.5235
 9531SOL    HW240056   1.545   2.385  12.277 -0.5157  1.4882  0.5371
 9532SOL     OW40057   3.117   1.158   0.240 -0.1045  0.3207  0.5590
 9532SOL    HW140058   3.132   1.170   0.146 -0.9592 -0.2169  0.3549
 9532SOL    HW240059   3.207   1.146   0.271 -0.0349  1.1071  0.6586
 9533SOL     OW40060   1.292   2.490   7.420 -0.7396 -0.1455 -0.1409
 9533SOL    HW140061   1.355   2.515   7.352  0.7145  0.1695  1.3284
 9533SOL    HW240062   1.335   2.405   7.431  1.1024  0.9190  0.8090
 9534SOL     OW40063   4.467   0.601   1.837 -0.5570  0.2335 -0.4980
 9534SOL    HW140064   4.441   0.677   1.783  0.8211  2.2404  1.6823
 9534SOL    HW240065   4.525   0.632   1.906 -2.4873  1.4848  0.5519
 9535SOL     OW40066   2.024   2.745  11.197  0.0486  0.0781 -1.0099
 9535SOL    HW140067   2.055   2.790  11.119 -0.1369 -0.9868 -1.7120
 9535SOL    HW240068   1.949   2.803  11.212  1.9044  2.3854 -0.6950
 9536SOL     OW40069   3.173   2.010   3.172 -0.0571 -0.4231  0.2738
 9536SOL    HW140070   3.092   2.055   3.196 -0.1587 -0.2762 -0.3497
 9536SOL    HW240071   3.233   2.035   3.242  0.6158 -1.8111  0.2027
 9537SOL     OW40072   3.644   0.203  13.256  0.1864 -0.3329 -0.7339
 9537SOL    HW140073   3.577   0.253  13.210  0.3596  0.9563  0.3961
 9537SOL    HW240074   3.701   0.270  13.296 -2.6442  1.1426  0.8428
 9538SOL     OW40075   0.768   0.818   4.120 -0.3941  0.2579  0.0632
 9538SOL    HW140076   0.829   0.844   4.050  0.1171 -2.6132 -0.5353
 9538SOL    HW240077   0.768   0.891   4.182  1.6359  0.5974 -0.3138
 9539SOL     OW40078   0.674   0.086  13.235  0.3718  0.3897  0.4526
 9539SOL    HW140079   0.685   0.082  13.140  0.6475  0.0016  0.5032
 9539SOL    HW240080   0.621   0.166  13.245  1.2764  1.0615 -0.1079
 9540SOL     OW40081   2.583   1.277   5.684  0.0862  1.2332  0.0417
 9540SOL    HW140082   2.552   1.334   5.754  2.0495  2.6594 -0.2536
 9540SOL    HW240083   2.505   1.268   5.630  1.8860  0.7585 -2.4951
 9541SOL     OW40084   3.163   3.138   8.643  0.3917  0.8054 -0.0819
 9541SOL    HW140085   3.238   3.196   8.628 -0.0311  0.8437 -1.9844
 9541SOL    HW240086   3.142   3.159   8.734  0.5110 -0.1120  0.1543
 9542SOL     OW40087   1.421   1.610   5.388 -0.2240  0.4054  0.5303
 9542SOL    HW140088   1.376   1.543   5.439  0.6199 -0.8591 -0.3886
 9542SOL    HW240089   1.512   1.609   5.420  0.1133  2.8302 -0.3632
 9543SOL     OW40090   0.086   4.274  11.319 -0.1490  0.3980  0.4902
 9543SOL    HW140091   0.065   4.258  11.411  2.2589 -0.8890  0.8351
 9543SOL    HW240092   0.138   4.195  11.302 -0.6279 -0.2053  1.8142
 9544SOL     OW40093   3.869   2.964   5.062  0.3575 -0.1791 -0.0918
 9544SOL    HW140094   3.812   3.034   5.031  3.5705  3.0567  1.2709
 9544SOL    HW240095   3.934   2.966   4.991 -0.4817 -0.3101 -0.8637
 9545SOL     OW40096   2.883   1.009   3.852 -0.4163  0.3442 -0.0192
 9545SOL    HW140097   2.854   0.922   3.824  0.5523  0.0959 -0.2512
 9545SOL    HW240098   2.808   1.035   3.906 -0.5746 -0.7442  0.2953
 9546SOL     OW40099   3.688   3.471   1.921 -0.4454  0.2404 -0.1712
 9546SOL    HW140100   3.743   3.547   1.907  1.0885 -1.1774 -1.7915
 9546SOL    HW240101   3.753   3.406   1.948 -0.3399  1.2722  2.0482
 9547SOL     OW40102   1.046   3.933  15.424  0.0130 -0.1875  0.0459
 9547SOL    HW140103   1.051   3.950  15.518 -0.6923  0.4614 -0.0278
 9547SOL    HW240104   1.130   3.898  15.395  0.1862  0.4238 -0.1872
 9548SOL     OW40105   1.493   1.633   3.125 -0.3172 -0.3122 -0.1570
 9548SOL    HW140106   1.417   1.690   3.120 -0.6993 -0.7030  1.0727
 9548SOL    HW240107   1.459   1.545   3.140 -0.3077 -0.3761 -0.5129
 9549SOL     OW40108   2.706   1.301  15.831  0.3477 -0.2151  0.4539
 9549SOL    HW140109   2.675   1.277  15.918 -0.4871 -0.0112  0.2098
 9549SOL    HW240110   2.802   1.302  15.840  0.2325  0.4652  1.7561
 9550SOL     OW40111   4.094   3.446   1.854  0.4484 -0.6934 -0.5522
 9550SOL    HW140112   4.114   3.530   1.895 -2.0568 -0.3986  0.0805
 9550SOL    HW240113   4.134   3.459   1.768  1.3971 -0.5728 -0.0976
 9551SOL     OW40114   3.643   1.041   8.916  0.3546  0.0361 -0.3755
 9551SOL    HW140115   3.668   1.032   9.008  0.4852  0.3501 -0.3816
 9551SOL    HW240116   3.716   0.997   8.872  0.4795  1.1440 -1.2937
 9552SOL     OW40117   0.521   3.782  14.301  0.4765  0.4308  0.5793
 9552SOL    HW140118   0.489   3.763  14.213 -3.0036  1.5658  1.5671
 9552SOL    HW240119   0.455   3.842  14.337 -0.0839  0.0721  0.1485
 9553SOL     OW40120   1.971   1.231   6.551 -0.2240 -0.3455  0.5222
 9553SOL    HW140121   1.898   1.234   6.612 -0.5847 -0.7132  0.1130
 9553SOL    HW240122   2.010   1.318   6.555 -0.5913 -0.1399 -0.4064
 9554SOL     OW40123   2.640   1.168   2.241  0.1730 -0.2583  0.1735
 9554SOL    HW140124   2.733   1.188   2.257  0.2480  0.3597 -1.0085
 9554SOL    HW240125   2.627   1.212   2.157  0.1193 -1.3325 -0.3841
 9555SOL     OW40126   0.745   2.614   4.843 -0.1609 -0.3763 -0.1997
 9555SOL    HW140127   0.667   2.609   4.787 -0.8588 -2.6923  0.9947
 9555SOL    HW240128   0.759   2.520   4.852 -1.1305 -0.6495 -1.4776
 9556SOL     OW40129   4.335   3.159   3.472  0.3290 -0.0552  0.2540
 9556SOL    HW140130   4.376   3.082   3.433  0.4633 -1.1077  2.4834
 9556SOL    HW240131   4.387   3.174   3.551 -0.0655 -0.2453  0.5479
 9557SOL     OW40132   2.183   1.594  17.408 -0.2270  0.4808 -0.2326
 9557SOL    HW140133   2.218   1.678  17.378 -0.7692  0.4962 -0.8118
 9557SOL    HW240134   2.179   1.543  17.327  0.8490 -0.5116  0.3420
 9558SOL     OW40135   4.265   1.639  13.221  0.0274  0.7661  0.0664
 9558SOL    HW140136   4.330   1.599  13.165 -1.5435  0.0601 -1.2601
 9558SOL    HW240137   4.203   1.566  13.226 -0.4543  1.0954 -1.1816
 9559SOL     OW40138   0.129   1.818   6.690 -0.1961 -0.0330  0.6882
 9559SOL    HW140139   0.048   1.855   6.656 -0.8900 -0.5142  1.8103
 9559SOL    HW240140   0.106   1.755   6.758 -0.0924 -1.1113 -0.2779
 9560SOL     OW40141   2.501   1.659   3.869  0.1197 -0.3352  0.0900
 9560SOL    HW140142   2.469   1.577   3.830 -0.5015  0.1616 -0.4563
 9560SOL    HW240143   2.577   1.628   3.917  0.5726 -1.3494 -1.2720
 9561SOL     OW40144   2.758   0.035   5.448 -0.2807  0.2006  0.2608
 9561SOL    HW140145   2.676   4.714   5.473 -0.1523 -0.4509 -0.4935
 9561SOL    HW240146   2.813   4.680   5.451  0.5370  0.8738  2.5658
 9562SOL     OW40147   0.262   2.247   2.140  0.4278 -0.0387  0.5126
 9562SOL    HW140148   0.348   2.289   2.135 -0.2967  1.0986 -2.4837
 9562SOL    HW240149   0.235   2.242   2.049  1.6753 -3.1486  0.3228
 9563SOL     OW40150   2.040   1.644  15.679 -0.1883 -0.0348  0.1299
 9563SOL    HW140151   1.946   1.632  15.669 -0.1264  0.0727 -0.5814
 9563SOL    HW240152   2.036   1.717  15.740 -0.9441 -0.9291  1.1526
 9564SOL     OW40153   4.023   0.560  15.512  0.1643 -0.0946  0.1808
 9564SOL    HW140154   4.066   0.475  15.521  2.2518  1.1468  1.7221
 9564SOL    HW240155   3.977   0.556  15.596 -0.5877  0.0216 -0.2256
 9565SOL     OW40156   3.849   4.238  17.673 -0.0878  0.3930  0.7196
 9565SOL    HW140157   3.905   4.236   0.057  0.3622 -1.3054  0.3414
 9565SOL    HW240158   3.878   4.159  17.627 -0.2865  0.4951  0.4197
 9566SOL     OW40159   3.522   1.177  15.765  0.8265 -0.3945  0.1543
 9566SOL    HW140160   3.489   1.205  15.680 -0.8295 -1.5309  0.4081
 9566SOL    HW240161   3.446   1.131  15.801 -0.1562 -0.1726 -1.6488
 9567SOL     OW40162   3.153   1.700  16.681 -0.1683 -0.2347 -0.4034
 9567SOL    HW140163   3.137   1.697  16.586 -2.0285 -0.3589 -0.0857
 9567SOL    HW240164   3.238   1.744  16.682 -0.1967 -0.2134  0.8750
 9568SOL     OW40165   1.849   2.133  12.927  0.2828  0.2762 -0.4251
 9568SOL    HW140166   1.880   2.053  12.970  1.6894  0.7919 -0.4822
 9568SOL    HW240167   1.928   2.171  12.889  1.0842  2.0274  2.9385
   4.72281   4.72281  17.69320
