Membrane in water
40167
    1TCq1    O1    1   0.406   1.648  11.685  0.3982  0.1654 -0.4500
    1TCq1    C1    2   0.480   1.675  11.573  0.0029  0.4931 -0.1363
    1TCq1    O2    3   0.484   1.601  11.475  0.7019  0.2388  0.6732
    1TCq1    C2    4   0.530   1.814  11.580 -0.3085 -0.0468 -0.0275
    1TCq1    C3    5   0.524   1.875  11.454  0.4323 -0.2841  0.2756
    1TCq1    C4    6   0.597   1.993  11.440  0.7738  0.1138 -0.0869
    1TCq1    C5    7   0.674   2.035  11.545  0.1513 -0.0528  0.0964
    1TCq1    C6    8   0.692   1.960  11.657  0.7961  0.4322  0.5188
    1TCq1    C7    9   0.621   1.850  11.674  0.1404  0.0859 -0.2509
    1TCq1    C8   10   0.731   2.040  11.771 -0.4558  0.7069 -0.0227
    1TCq1    O4   11   0.751   2.160  11.751  0.9550  0.9438 -0.9665
    1TCq1    C9   12   0.579   2.085  11.323 -0.4528 -0.7445 -0.8292
    1TCq1    O5   13   0.606   2.206  11.345 -0.4089  0.4253  0.3119
    1TCq1    O6   14   0.497   2.050  11.236 -0.5664 -0.2826  0.0900
    1TCq1    H1   15   0.397   1.716  11.756 -1.5407 -0.8829  0.2891
    1TCq1    H2   16   0.456   1.838  11.377  0.3667 -0.9557  0.6587
    1TCq1    H3   17   0.719   2.133  11.532  1.3584 -0.8521 -1.6479
    1TCq1    H4   18   0.622   1.791  11.764 -0.1242 -0.8122 -0.8408
    2MPD2     C   19   0.791   2.148  12.259  0.4426  0.1250 -0.3216
    2MPD2    C1   20   0.716   2.207  12.162 -0.3772 -0.2646 -0.6176
    2MPD2    C2   21   0.716   2.158  12.036  0.7525  0.6669 -0.3441
    2MPD2    C3   22   0.758   2.025  12.009 -0.4773  0.4035 -0.1474
    2MPD2    C4   23   0.814   1.956  12.118 -0.0871  0.0408  0.1184
    2MPD2    C5   24   0.825   2.018  12.242 -0.3723  0.1366 -0.3314
    2MPD2     H   25   0.665   2.219  11.963  1.3043  2.7524  0.9893
    2MPD2    H1   26   0.844   1.853  12.108  0.4520  0.4857 -3.0262
    2MPD2    H2   27   0.825   2.191  12.352 -1.4230 -0.9672  0.8620
    2MPD2    H3   28   0.871   1.972  12.330  2.9354  1.9939 -1.0880
    2MPD2     N   29   0.742   1.967  11.884  0.0176 -0.0509 -0.0664
    2MPD2    H5   30   0.767   1.869  11.881  0.4675  0.0075  1.6915
    2MPD2    N1   31   0.638   2.324  12.183 -0.2467  0.8937 -0.2474
    2MPD2    H7   32   0.594   2.360  12.099  0.5883  2.3152 -0.0620
    3TCq1    O1   33   0.182   0.091  10.391  0.0634  0.1914 -0.0957
    3TCq1    C1   34   0.063   0.075  10.449  0.0537 -0.7290  0.5474
    3TCq1    O2   35   4.688   0.146  10.434 -0.1512 -0.4714 -0.1770
    3TCq1    C2   36   0.076   4.691  10.543 -0.1886  0.1291 -0.2083
    3TCq1    C3   37   0.017   4.702  10.661 -0.2268  0.8641  0.5517
    3TCq1    C4   38   4.706   4.594  10.738 -0.0514 -0.1219  0.0490
    3TCq1    C5   39   0.004   4.472  10.693  0.6691  0.2982  0.1216
    3TCq1    C6   40   0.062   4.452  10.569  0.6425  0.2113 -0.3563
    3TCq1    C7   41   0.093   4.567  10.487 -0.2571 -0.8478  0.6490
    3TCq1    C8   42   0.088   4.316  10.508  0.2458 -0.0748  0.1792
    3TCq1    O4   43   0.144   4.312  10.402 -0.5537  0.0369 -0.1557
    3TCq1    C9   44   4.624   4.615  10.853  0.6621 -0.6310  0.0984
    3TCq1    O5   45   4.551   4.525  10.907 -0.4233 -0.3084 -0.3204
    3TCq1    O6   46   4.624   0.010  10.905 -0.0817  0.1893 -0.0755
    3TCq1    H1   47   0.244   0.023  10.426  0.6254 -0.8742 -3.1328
    3TCq1    H2   48   4.695   0.075  10.679 -0.4679  0.9243 -0.3806
    3TCq1    H3   49   4.702   4.385  10.751 -0.2444  0.0895 -0.5992
    3TCq1    H4   50   0.121   4.552  10.383 -1.8458 -2.6106  0.4753
    4MPD2     C   51   0.009   3.812  10.477 -0.6705 -0.1780  0.3156
    4MPD2    C1   52   4.629   3.865  10.551 -0.0172 -0.1639  0.5138
    4MPD2    C2   53   4.629   4.003  10.569 -0.0040  0.7046  0.3816
    4MPD2    C3   54   0.012   4.085  10.534 -0.3278 -0.1534  0.2563
    4MPD2    C4   55   0.114   4.027  10.460  0.0900  0.0328  0.1506
    4MPD2    C5   56   0.117   3.891  10.438 -0.2125 -0.5131 -0.4190
    4MPD2     H   57   4.551   4.048  10.630 -0.6765 -1.4167  1.0613
    4MPD2    H1   58   0.202   4.088  10.442 -0.3939  0.7271  0.1351
    4MPD2    H2   59   0.020   3.707  10.454  0.5027  0.3630 -1.6262
    4MPD2    H3   60   0.198   3.842  10.385 -0.2239 -0.6595 -0.3029
    4MPD2     N   61   0.009   4.226  10.567  0.0686  0.5648  0.4103
    4MPD2    H5   62   4.661   4.263  10.629 -1.0963 -1.6604  0.3789
    4MPD2    N1   63   4.511   3.797  10.594  0.2557 -0.5134  0.1099
    4MPD2    H7   64   4.437   3.855  10.634 -0.0706 -0.1059 -1.0843
    5TCq1    O1   65   1.473   0.655  10.906 -0.2242 -0.6135 -0.2120
    5TCq1    C1   66   1.487   0.687  11.038  0.3382  0.2586 -0.0863
    5TCq1    O2   67   1.568   0.649  11.118 -0.4001 -0.4189  0.2562
    5TCq1    C2   68   1.358   0.748  11.081 -0.0277  0.3652  0.4290
    5TCq1    C3   69   1.367   0.794  11.204  0.3198 -0.0769 -0.3233
    5TCq1    C4   70   1.248   0.815  11.271  1.1090 -0.1587  0.3787
    5TCq1    C5   71   1.129   0.810  11.200  0.3340 -0.2319  0.1087
    5TCq1    C6   72   1.131   0.757  11.075 -0.5298 -1.0173 -0.6759
    5TCq1    C7   73   1.245   0.718  11.019 -0.2871  0.7762 -0.5366
    5TCq1    C8   74   1.016   0.725  11.000  0.3945  0.1498  0.4205
    5TCq1    O4   75   1.033   0.623  10.933  1.1803  0.0873  0.2205
    5TCq1    C9   76   1.249   0.869  11.404  0.3200 -0.9255 -0.3033
    5TCq1    O5   77   1.139   0.877  11.463 -0.2545 -0.1493  0.0527
    5TCq1    O6   78   1.359   0.874  11.465 -0.4009  0.4696 -0.0951
    5TCq1    H1   79   1.397   0.705  10.869 -1.0153 -2.2318 -0.7824
    5TCq1    H2   80   1.462   0.801  11.256 -0.2303 -2.4962  0.9849
    5TCq1    H3   81   1.038   0.852  11.242  0.6836 -0.3431  0.9964
    5TCq1    H4   82   1.242   0.649  10.935 -1.9873  1.3431 -0.9447
    6MPD2     C   83   0.674   0.864  11.059 -0.2267 -0.8449  0.4944
    6MPD2    C1   84   0.771   0.772  11.018  0.2450  0.7379 -0.3613
    6MPD2    C2   85   0.733   0.649  10.971  0.1721  0.1356 -0.2252
    6MPD2    C3   86   0.601   0.613  10.968 -0.1963 -0.0810 -0.1614
    6MPD2    C4   87   0.505   0.698  11.017 -0.3481 -0.2031  0.0526
    6MPD2    C5   88   0.544   0.825  11.049  0.4437  0.6749  1.0045
    6MPD2     H   89   0.810   0.582  10.934  0.5547  0.6013 -0.2626
    6MPD2    H1   90   0.400   0.675  11.033 -0.7446  2.0787  0.6567
    6MPD2    H2   91   0.693   0.960  11.106 -0.8913 -0.1887 -0.5775
    6MPD2    H3   92   0.471   0.898  11.082 -0.5750 -0.4906  1.3295
    6MPD2     N   93   0.575   0.475  10.934 -0.0444 -0.2488  0.4994
    6MPD2    H5   94   0.652   0.425  10.890 -1.5240 -2.0036 -0.0864
    6MPD2    N1   95   0.904   0.800  11.043  0.0739  0.2699  0.7708
    6MPD2    H7   96   0.931   0.883  11.094  0.8082  2.2753 -2.8120
    7TCq1    O1   97   3.451   0.797  14.052 -0.5412 -0.1286  0.2075
    7TCq1    C1   98   3.349   0.768  13.963  0.7049 -0.4761 -0.3257
    7TCq1    O2   99   3.237   0.723  13.990 -0.3479 -0.7161 -0.0401
    7TCq1    C2  100   3.428   0.710  13.848  0.4835  0.5818  0.0153
    7TCq1    C3  101   3.552   0.767  13.820 -0.5367  0.7302 -0.8894
    7TCq1    C4  102   3.628   0.709  13.728  0.0655 -0.9664  0.4248
    7TCq1    C5  103   3.576   0.604  13.652 -0.3324 -0.2659  0.0854
    7TCq1    C6  104   3.456   0.546  13.683 -0.8760 -0.1762 -0.3589
    7TCq1    C7  105   3.386   0.594  13.788  0.4285 -0.4426 -0.4055
    7TCq1    C8  106   3.408   0.423  13.619  0.8015  0.0223 -0.5376
    7TCq1    O4  107   3.306   0.369  13.663 -0.0488 -0.0412  0.0875
    7TCq1    C9  108   3.766   0.757  13.705  0.7650  0.8002 -0.5654
    7TCq1    O5  109   3.808   0.843  13.785 -0.2309 -0.3793 -0.7097
    7TCq1    O6  110   3.839   0.695  13.626 -0.3543 -0.1828 -0.5404
    7TCq1    H1  111   3.539   0.811  14.013 -0.3221 -0.4943  0.5687
    7TCq1    H2  112   3.591   0.861  13.859 -3.0178  0.8263  1.3691
    7TCq1    H3  113   3.639   0.557  13.578  0.8388  2.8153 -0.9014
    7TCq1    H4  114   3.305   0.542  13.838  0.5178  0.1275  0.3334
    8MPD2     C  115   3.415   0.082  13.229 -0.6056  0.7530  0.2045
    8MPD2    C1  116   3.327   0.102  13.332 -0.0603 -0.6717 -0.3539
    8MPD2    C2  117   3.355   0.199  13.421  0.0747 -0.0307 -0.3196
    8MPD2    C3  118   3.469   0.274  13.428 -0.8688 -0.7238 -0.1160
    8MPD2    C4  119   3.552   0.250  13.323  0.8702  0.8374 -0.2969
    8MPD2    C5  120   3.523   0.160  13.226 -0.7239  0.1000 -0.2750
    8MPD2     H  121   3.285   0.213  13.502  1.8211 -2.2100  1.5921
    8MPD2    H1  122   3.633   0.320  13.306 -1.4367  3.4075 -0.6114
    8MPD2    H2  123   3.395   0.014  13.147  0.4895 -0.3075  0.8262
    8MPD2    H3  124   3.594   0.173  13.146 -0.2526 -0.5318  0.0360
    8MPD2     N  125   3.490   0.383  13.514 -0.0565 -0.4431  0.2966
    8MPD2    H5  126   3.571   0.439  13.489  0.6701 -0.9800  1.4377
    8MPD2    N1  127   3.201   0.032  13.336 -0.0113 -0.2143  0.5383
    8MPD2    H7  128   3.198   4.688  13.261  1.7247  2.6201 -2.0938
    9TCq1    O1  129   0.182   2.659  10.522  0.1876  0.2172  0.4923
    9TCq1    C1  130   0.129   2.782  10.562 -0.2579 -0.0233  0.3426
    9TCq1    O2  131   0.050   2.802  10.655 -0.2519 -0.4329 -0.2281
    9TCq1    C2  132   0.203   2.889  10.499  1.3356 -0.0521 -0.3939
    9TCq1    C3  133   0.203   2.890  10.367 -0.8023  0.0970  0.2637
    9TCq1    C4  134   0.270   2.992  10.302 -0.1742 -0.0510 -0.0600
    9TCq1    C5  135   0.344   3.086  10.372  0.5675  0.1454  0.0923
    9TCq1    C6  136   0.333   3.085  10.506 -0.0260 -0.2008 -0.8073
    9TCq1    C7  137   0.268   2.983  10.573 -0.2823  0.3256 -0.4364
    9TCq1    C8  138   0.391   3.194  10.584  0.4453 -0.3449 -0.3044
    9TCq1    O4  139   0.461   3.266  10.515  0.3753 -0.0848  0.1351
    9TCq1    C9  140   0.300   2.985  10.161 -0.1391  0.2247  0.2794
    9TCq1    O5  141   0.264   2.881  10.101  0.3192 -0.2305 -0.1790
    9TCq1    O6  142   0.393   3.059  10.121 -0.2195 -0.3223  0.5860
    9TCq1    H1  143   0.256   2.672  10.459 -1.0779  0.4708 -0.9364
    9TCq1    H2  144   0.157   2.815  10.304 -0.1170  0.1514 -0.2931
    9TCq1    H3  145   0.392   3.165  10.315 -0.0377  0.1188 -0.4574
    9TCq1    H4  146   0.259   2.970  10.680 -0.1225 -2.4296 -0.7519
   10MPD2     C  147   0.471   3.412  10.758  0.1157  0.2793  0.6530
   10MPD2    C1  148   0.399   3.306  10.803 -0.8757  0.3927 -0.4616
   10MPD2    C2  149   0.367   3.298  10.932 -0.7227  0.6106 -0.2478
   10MPD2    C3  150   0.406   3.402  11.017  0.8421  0.1936  0.2033
   10MPD2    C4  151   0.474   3.515  10.966  0.3261  0.0525 -0.2267
   10MPD2    C5  152   0.508   3.516  10.836 -0.5765 -0.3400  0.2665
   10MPD2     H  153   0.336   3.200  10.968  3.0416 -0.0864  1.1399
   10MPD2    H1  154   0.505   3.605  11.019  0.2320 -0.9206  1.4892
   10MPD2    H2  155   0.502   3.432  10.656  1.0399  0.3769  0.9532
   10MPD2    H3  156   0.558   3.600  10.790 -0.8597  0.2853  1.1153
   10MPD2     N  157   0.361   3.403  11.151 -0.9037 -0.0068 -0.4086
   10MPD2    H5  158   0.402   3.465  11.220 -0.7674 -0.7624  0.1904
   10MPD2    N1  159   0.351   3.204  10.719 -0.1019 -0.0762  0.1572
   10MPD2    H7  160   0.291   3.132  10.757 -1.1376 -0.2889 -1.9001
   11TCq1    O1  161   1.376   4.297  14.097 -0.0635  0.1949  0.4788
   11TCq1    C1  162   1.451   4.238  13.998 -0.2417 -0.0094 -0.2531
   11TCq1    O2  163   1.572   4.255  13.987  0.5678  0.0647  0.8974
   11TCq1    C2  164   1.386   4.115  13.970  0.6318  0.0393  0.2006
   11TCq1    C3  165   1.428   4.045  13.861  0.5308  0.5444  0.2653
   11TCq1    C4  166   1.398   3.915  13.845 -0.9341 -0.4975  0.2332
   11TCq1    C5  167   1.325   3.855  13.946  0.1174 -0.1608 -1.0576
   11TCq1    C6  168   1.280   3.924  14.051 -0.4493 -0.6167 -0.2563
   11TCq1    C7  169   1.310   4.054  14.064 -0.5699  0.2818 -0.6513
   11TCq1    C8  170   1.197   3.858  14.151  0.3394  0.4166  0.3799
   11TCq1    O4  171   1.189   3.916  14.255  0.2605 -0.4426  0.0829
   11TCq1    C9  172   1.436   3.841  13.729  0.2839  0.2091  0.8649
   11TCq1    O5  173   1.519   3.901  13.653 -0.2788 -0.6103  0.0755
   11TCq1    O6  174   1.375   3.734  13.706 -0.1828  0.3207 -0.0234
   11TCq1    H1  175   1.281   4.276  14.100 -0.3183  1.3439  0.5490
   11TCq1    H2  176   1.495   4.093  13.791  0.0776 -1.5558 -1.5939
   11TCq1    H3  177   1.301   3.749  13.936  0.4763 -0.4202  0.8216
   11TCq1    H4  178   1.269   4.105  14.151  0.9438 -0.8293  0.7285
   12MPD2     C  179   1.030   3.687  14.313  0.6942 -0.2661  0.3849
   12MPD2    C1  180   1.056   3.663  14.185  0.4211  0.3919 -0.4396
   12MPD2    C2  181   0.972   3.571  14.124  0.3249 -0.4824 -0.2035
   12MPD2    C3  182   0.878   3.499  14.196 -0.4204 -0.2728  0.2399
   12MPD2    C4  183   0.861   3.523  14.335  0.2418  0.2824  0.1485
   12MPD2    C5  184   0.937   3.628  14.388 -0.2907  0.0805 -0.0481
   12MPD2     H  185   0.984   3.545  14.019 -0.8077  1.6658 -0.8653
   12MPD2    H1  186   0.779   3.474  14.386  0.5674 -1.5759 -1.1248
   12MPD2    H2  187   1.097   3.748  14.373  3.4561 -0.9822 -1.9875
   12MPD2    H3  188   0.923   3.665  14.489  0.4451  1.5039 -0.4694
   12MPD2     N  189   0.800   3.400  14.123 -0.1386 -0.2154 -0.4769
   12MPD2    H5  190   0.791   3.403  14.022 -0.9348 -0.9747 -0.4257
   12MPD2    N1  191   1.150   3.735  14.113 -0.5258 -0.0179  0.1019
   12MPD2    H7  192   1.162   3.716  14.014  0.9148 -0.0726  0.2824
   13TCq1    O1  193   0.917   3.333  10.762  0.3653  0.0964  0.3902
   13TCq1    C1  194   0.868   3.316  10.640 -0.0255  0.5598 -0.0583
   13TCq1    O2  195   0.912   3.370  10.538 -0.4244  0.2398  0.0732
   13TCq1    C2  196   0.773   3.203  10.635  0.2601  0.0874  0.6756
   13TCq1    C3  197   0.774   3.135  10.517 -0.3066 -0.1420 -0.3843
   13TCq1    C4  198   0.710   3.012  10.515  0.2864 -1.0000 -0.2094
   13TCq1    C5  199   0.648   2.967  10.625 -0.2069 -0.0124  0.6726
   13TCq1    C6  200   0.642   3.049  10.735 -0.2002 -0.5520  0.0953
   13TCq1    C7  201   0.714   3.165  10.749 -0.2094  0.0966  0.4421
   13TCq1    C8  202   0.563   2.992  10.839  0.7846 -0.7741 -0.1122
   13TCq1    O4  203   0.482   2.902  10.820  0.1109  0.0105 -0.3118
   13TCq1    C9  204   0.728   2.937  10.396  0.0984  0.8162  0.1607
   13TCq1    O5  205   0.700   2.813  10.407 -0.0836  0.0328  0.2144
   13TCq1    O6  206   0.747   2.998  10.286 -0.4138 -0.2125 -0.3195
   13TCq1    H1  207   0.883   3.266  10.825 -2.8260  0.2422 -1.1769
   13TCq1    H2  208   0.833   3.170  10.432  1.1639  1.4874  1.3130
   13TCq1    H3  209   0.588   2.877  10.616 -0.0430 -0.0149 -0.4016
   13TCq1    H4  210   0.688   3.242  10.821  0.8605  1.1323 -0.2721
   14MPD2     C  211   0.571   3.055  11.201  0.3386 -0.0666 -0.1742
   14MPD2    C1  212   0.515   3.013  11.080  0.1689 -0.7170  0.2737
   14MPD2    C2  213   0.382   2.962  11.079 -0.6103  0.1266 -0.6289
   14MPD2    C3  214   0.320   2.943  11.199  0.3887  0.4799 -0.2547
   14MPD2    C4  215   0.380   2.985  11.318 -0.3949  0.7292  0.3093
   14MPD2    C5  216   0.500   3.040  11.322  0.1376  0.9819  0.5651
   14MPD2     H  217   0.319   2.934  10.994  0.4095  1.0853 -1.6983
   14MPD2    H1  218   0.326   2.982  11.412  2.1589 -5.1849  1.5904
   14MPD2    H2  219   0.657   3.120  11.207  0.5713 -0.4229  0.3921
   14MPD2    H3  220   0.548   3.078  11.412 -0.2090  4.4693 -0.7473
   14MPD2     N  221   0.191   2.895  11.185  0.8722  0.4576 -0.4411
   14MPD2    H5  222   0.150   2.908  11.093 -1.1523  1.2726  0.5674
   14MPD2    N1  223   0.594   3.044  10.963  0.3323 -0.0536  0.0012
   14MPD2    H7  224   0.681   3.095  10.980  0.6091 -0.5497  0.0616
   15TCq1    O1  225   1.521   2.420   2.146 -0.2851  0.3344 -0.0477
   15TCq1    C1  226   1.622   2.504   2.145  0.1958 -0.9305 -0.1490
   15TCq1    O2  227   1.661   2.569   2.245 -0.8254 -0.0587  0.1161
   15TCq1    C2  228   1.700   2.494   2.023  0.0267  0.1944 -0.9093
   15TCq1    C3  229   1.826   2.543   2.020  0.2207 -0.0704 -0.1337
   15TCq1    C4  230   1.895   2.558   1.901 -0.0406  0.7986  0.0452
   15TCq1    C5  231   1.838   2.521   1.782 -0.3834 -0.1655 -0.6185
   15TCq1    C6  232   1.703   2.485   1.789  0.8569 -0.0303 -0.2175
   15TCq1    C7  233   1.634   2.472   1.907  0.5461  0.0984 -0.1399
   15TCq1    C8  234   1.660   2.406   1.670 -0.3447  0.0233  0.0743
   15TCq1    O4  235   1.744   2.355   1.600  0.1119 -0.5683 -0.3984
   15TCq1    C9  236   2.029   2.611   1.899 -0.0604  0.1279  0.0615
   15TCq1    O5  237   2.096   2.624   1.793  0.4952 -0.7537  0.3767
   15TCq1    O6  238   2.090   2.609   2.011 -0.7379  0.4224 -0.6450
   15TCq1    H1  239   1.515   2.351   2.077  1.4442  0.9182 -0.7946
   15TCq1    H2  240   1.868   2.573   2.115 -0.0885  2.0340 -0.6665
   15TCq1    H3  241   1.899   2.521   1.693  0.4751 -0.8814 -0.0267
   15TCq1    H4  242   1.531   2.441   1.897  1.4131 -3.5890  2.6596
   16MPD2     C  243   1.309   2.309   1.583 -0.0702 -0.4998  0.5840
   16MPD2    C1  244   1.449   2.303   1.584  0.4911  0.7281  0.4150
   16MPD2    C2  245   1.510   2.203   1.504  0.5738  0.0002 -1.0462
   16MPD2    C3  246   1.432   2.117   1.424 -0.1106 -1.1069 -0.0552
   16MPD2    C4  247   1.297   2.141   1.413  0.6766  0.8540 -0.0705
   16MPD2    C5  248   1.240   2.230   1.493  0.3831 -0.4255 -0.0397
   16MPD2     H  249   1.617   2.189   1.498  0.7613 -0.1517  2.2078
   16MPD2    H1  250   1.228   2.090   1.347  1.0226  0.8372 -0.4191
   16MPD2    H2  251   1.258   2.381   1.646  0.4077  1.0976 -0.8434
   16MPD2    H3  252   1.131   2.232   1.492  0.3775 -1.1529 -0.9909
   16MPD2     N  253   1.493   2.009   1.352  0.3048  0.2006  0.3926
   16MPD2    H5  254   1.595   2.003   1.355  0.1787 -2.1880  0.3283
   16MPD2    N1  255   1.523   2.395   1.664  0.4977  0.5664 -0.7062
   16MPD2    H7  256   1.468   2.454   1.726 -1.2609  0.1439 -1.8417
   17TCq1    O1  257   0.435   2.662  10.729 -0.4653  0.2037 -0.4402
   17TCq1    C1  258   0.406   2.551  10.797  0.4965  0.0389 -0.4577
   17TCq1    O2  259   0.443   2.448  10.748 -0.3797 -0.2462  0.8627
   17TCq1    C2  260   0.480   2.590  10.913  0.2995 -0.2730 -0.1059
   17TCq1    C3  261   0.433   2.552  11.036 -0.1942 -0.1339 -0.2915
   17TCq1    C4  262   0.511   2.587  11.148 -0.4918 -0.4836 -0.5923
   17TCq1    C5  263   0.630   2.655  11.134 -0.0477  0.8863 -0.1534
   17TCq1    C6  264   0.679   2.665  11.008  0.3068 -0.2365 -0.2797
   17TCq1    C7  265   0.604   2.645  10.893 -0.3473 -0.4988 -0.0761
   17TCq1    C8  266   0.808   2.739  11.001  0.3314 -0.3540 -0.1069
   17TCq1    O4  267   0.873   2.760  11.108  0.2434 -0.7635 -0.4029
   17TCq1    C9  268   0.461   2.543  11.273  0.3819 -0.3646  0.7058
   17TCq1    O5  269   0.364   2.460  11.282 -0.0219  0.0658 -0.3953
   17TCq1    O6  270   0.511   2.591  11.377  0.1103 -0.3514  0.2693
   17TCq1    H1  271   0.449   2.740  10.787 -2.1943 -0.1096  0.3946
   17TCq1    H2  272   0.346   2.488  11.044 -1.0180  1.0050 -0.2049
   17TCq1    H3  273   0.696   2.674  11.218  0.9612 -0.3451 -0.6755
   17TCq1    H4  274   0.652   2.624  10.798 -0.9610 -1.3846 -0.1909
   18MPD2     C  275   0.996   2.952  10.943  0.5083 -0.1956  0.1922
   18MPD2    C1  276   0.935   2.870  10.845 -0.2319  0.1057 -0.3198
   18MPD2    C2  277   0.990   2.866  10.713  0.4026 -1.3333  0.1125
   18MPD2    C3  278   1.090   2.959  10.680  0.5861 -0.0414 -0.8482
   18MPD2    C4  279   1.126   3.050  10.774 -0.6680  0.0422  0.3612
   18MPD2    C5  280   1.089   3.045  10.904 -0.2599 -0.1312 -0.3441
   18MPD2     H  281   0.959   2.795  10.637 -1.0549  0.2513 -0.7810
   18MPD2    H1  282   1.198   3.127  10.750  1.3752 -2.2369 -0.9056
   18MPD2    H2  283   0.965   2.956  11.047  2.0513 -0.8284  0.6865
   18MPD2    H3  284   1.148   3.092  10.981 -0.6250 -1.3905  0.7021
   18MPD2     N  285   1.147   2.969  10.553  0.0578 -0.1387 -0.7515
   18MPD2    H5  286   1.210   3.048  10.542  1.5191 -1.2403 -0.3230
   18MPD2    N1  287   0.838   2.777  10.874 -0.2370 -0.0297  0.1231
   18MPD2    H7  288   0.801   2.728  10.794  0.4221 -2.2237  1.1539
   19TMC2    C1  289   1.640   3.112  13.938 -0.4616 -0.0715 -0.4968
   19TMC2    C2  290   1.575   3.236  13.967  0.0080  0.3032 -0.1864
   19TMC2    C3  291   1.442   3.231  14.005 -0.1026  0.7695  0.2465
   19TMC2    C4  292   1.566   2.996  13.931 -0.7917  0.2770  0.2661
   19TMC2    C5  293   1.432   3.006  13.963 -0.6975 -0.2494 -0.9860
   19TMC2    C6  294   1.367   3.119  13.999  0.3885 -0.3964 -0.1270
   19TMC2     C  295   1.778   3.122  13.899 -0.5044 -0.0722 -0.6698
   19TMC2     O  296   1.810   3.225  13.847 -0.2333  0.1158 -0.4121
   19TMC2     H  297   1.635   3.327  13.967 -2.8737  2.1835  1.8342
   19TMC2    H1  298   1.616   2.901  13.914 -1.2480  0.1916 -0.6375
   19TMC2    H2  299   1.266   3.129  14.038  0.8848  1.4032  0.6837
   19TMC2    C7  300   1.357   2.882  13.969 -0.1191  0.2576  0.2173
   19TMC2    C8  301   1.365   3.347  13.969 -0.1390  0.3074 -0.2019
   19TMC2    O1  302   1.416   2.783  14.002 -0.7149  0.4391  0.4606
   19TMC2    O2  303   1.252   3.350  13.923  0.1534 -0.1623  0.3802
   19TMC2    O5  304   1.430   3.452  14.005  0.7111 -0.1359 -0.0930
   19TMC2    H5  305   1.510   3.444  14.061  0.6469  0.5685  0.1020
   20MPD2     C  306   2.075   3.123  13.892 -0.5093 -0.4098 -0.6804
   20MPD2    C1  307   2.000   3.019  13.949 -0.0345 -0.1358  0.1220
   20MPD2    C2  308   2.058   2.926  14.032  0.0749 -0.3960  0.7500
   20MPD2    C3  309   2.204   2.920  14.043 -0.8926 -0.1024 -0.1732
   20MPD2    C4  310   2.270   3.011  13.962  0.0656  0.0556 -0.0189
   20MPD2    C5  311   2.208   3.117  13.901 -0.6505 -0.1092  0.3303
   20MPD2     H  312   1.998   2.847  14.076 -2.0276  1.5128  1.2993
   20MPD2    H1  313   2.378   3.020  13.953  0.1774 -1.0576  0.2428
   20MPD2    H2  314   2.033   3.204  13.835 -3.2682  0.7686  3.0141
   20MPD2    H3  315   2.269   3.200  13.864 -0.1064 -1.6232 -2.2028
   20MPD2     N  316   2.273   2.824  14.116 -0.4478 -0.0198  0.6050
   20MPD2    H5  317   2.375   2.825  14.112 -0.4413  0.9396  1.1247
   20MPD2    N1  318   1.858   3.019  13.946 -0.1822 -0.0269  0.1820
   20MPD2    H7  319   1.813   2.941  13.992 -0.4084  1.3286  2.2842
   21MPD2     C  320   4.110   3.463  13.780 -0.1549  0.1226 -0.2904
   21MPD2    C1  321   4.211   3.447  13.868  0.1067  0.2950 -0.4947
   21MPD2    C2  322   4.197   3.475  14.002 -0.0368  0.0396  0.0992
   21MPD2    C3  323   4.076   3.512  14.053  0.0157  0.4791  0.4423
   21MPD2    C4  324   3.971   3.525  13.973  0.3137 -0.1156  0.1176
   21MPD2    C5  325   3.987   3.499  13.839  0.3387  0.3345  0.3216
   21MPD2     H  326   4.293   3.469  14.053  0.3014  0.5500 -0.4703
   21MPD2    H1  327   3.879   3.569  14.010 -0.5278 -0.7232 -1.2286
   21MPD2    H2  328   4.119   3.439  13.675  0.9098  0.9529 -0.3911
   21MPD2    H3  329   3.904   3.523  13.774 -0.4386 -0.0038  1.1942
   21MPD2     N  330   4.056   3.535  14.196  0.4759 -0.0838  0.0088
   21MPD2    H5  331   3.966   3.575  14.217  0.2010 -0.6033 -0.1942
   21MPD2    N1  332   4.339   3.401  13.824 -0.2590  0.8032  0.1051
   21MPD2    H7  333   4.400   3.361  13.895  0.4222 -2.3104 -2.2470
   22TCq2    C1  334   4.148   3.501  14.291 -0.4929 -0.1599  0.4531
   22TCq2    O2  335   4.240   3.415  14.274  0.3076 -0.3707  0.2993
   22TCq2    C2  336   4.108   3.523  14.427  0.0380  0.0142 -0.0626
   22TCq2    C3  337   4.144   3.426  14.517 -0.5487  0.7477  0.1294
   22TCq2    C4  338   4.095   3.433  14.643  0.4274 -0.0515 -0.1481
   22TCq2    C5  339   4.008   3.534  14.675 -0.3006 -0.0268 -0.4319
   22TCq2    C6  340   3.967   3.629  14.585 -0.2886  0.4838 -0.9869
   22TCq2    C7  341   4.026   3.632  14.462 -0.3156 -0.5169  0.4582
   22TCq2    C8  342   3.859   3.715  14.631 -0.5292 -0.8543  0.5006
   22TCq2    O4  343   3.814   3.683  14.740 -0.7819 -0.0265  0.2519
   22TCq2    C9  344   4.133   3.337  14.740  0.4966 -0.1051 -0.0912
   22TCq2    O5  345   4.184   3.226  14.702  0.0895 -0.0360 -0.6304
   22TCq2    O6  346   4.090   3.356  14.861  0.1957 -0.3881  0.3438
   22TCq2    H2  347   4.214   3.352  14.481  1.4611  1.6830  2.1041
   22TCq2    H3  348   3.969   3.543  14.776  0.4052  0.3179 -0.1803
   22TCq2    H4  349   4.016   3.721  14.400 -0.2878 -0.8318  0.0029
   23MPD2     C  350   1.293   4.516  14.357  0.3057 -0.4515 -0.3014
   23MPD2    C1  351   1.190   4.576  14.428 -0.8337  0.0386  0.3805
   23MPD2    C2  352   1.143   4.700  14.386 -0.5152  0.3149 -0.2852
   23MPD2    C3  353   1.209   0.044  14.287 -0.3242 -0.6699  0.0584
   23MPD2    C4  354   1.321   4.713  14.231 -0.3519 -0.2218  0.6813
   23MPD2    C5  355   1.358   4.585  14.260 -0.6598 -0.0658 -0.2622
   23MPD2     H  356   1.045   0.005  14.423 -0.9204  0.3554 -1.4151
   23MPD2    H1  357   1.364   0.032  14.141  1.8917 -2.9530  0.4572
   23MPD2    H2  358   1.328   4.414  14.373 -2.4952 -1.3322  0.2454
   23MPD2    H3  359   1.428   4.535  14.194 -0.9097 -2.5912  1.3659
   23MPD2     N  360   1.151   0.158  14.228  0.4303 -0.1916 -0.0686
   23MPD2    H5  361   1.183   0.182  14.135 -2.2166 -1.1538 -1.2354
   23MPD2    N1  362   1.113   4.505  14.525  0.0560 -0.5224 -0.3764
   23MPD2    H7  363   1.033   4.556  14.561 -0.1465 -0.8469 -0.3756
   24TCq2    C1  364   1.074   0.245  14.296 -0.1243  0.1558 -0.2316
   24TCq2    O2  365   1.054   0.257  14.418 -0.1432 -0.2228 -0.2063
   24TCq2    C2  366   1.033   0.356  14.211  0.1727  0.3189  0.8815
   24TCq2    C3  367   1.010   0.476  14.267  1.1547  0.5690  0.2878
   24TCq2    C4  368   0.929   0.564  14.214 -0.3756  0.5218 -0.5967
   24TCq2    C5  369   0.850   0.542  14.106 -0.3951 -0.3041 -0.4402
   24TCq2    C6  370   0.880   0.419  14.048 -0.2533  0.2560  0.9322
   24TCq2    C7  371   0.972   0.327  14.093 -0.1150 -0.6024  0.3953
   24TCq2    C8  372   0.790   0.368  13.950 -0.5180  0.7882 -0.2017
   24TCq2    O4  373   0.802   0.252  13.919  0.2214  0.1317  0.2888
   24TCq2    C9  374   0.913   0.689  14.285  0.6190 -0.1606 -0.1460
   24TCq2    O5  375   0.973   0.713  14.391 -0.6723 -0.3308 -0.2786
   24TCq2    O6  376   0.834   0.768  14.226 -0.2627 -0.5878  0.4783
   24TCq2    H2  377   1.065   0.513  14.352 -0.1897  0.5531  1.1715
   24TCq2    H3  378   0.789   0.623  14.067  2.0625  1.8825  0.2516
   24TCq2    H4  379   0.976   0.224  14.059  0.0005 -0.1700 -0.9219
   25TMC2    C1  380   0.172   2.211  11.632 -0.5489  0.1202 -0.0049
   25TMC2    C2  381   0.292   2.262  11.679  0.2447  0.0299  0.3672
   25TMC2    C3  382   0.287   2.321  11.803  0.0268 -0.5014  0.3202
   25TMC2    C4  383   0.051   2.218  11.699 -0.8557 -0.1975 -0.2788
   25TMC2    C5  384   0.051   2.287  11.819 -0.0166 -0.1022  0.1566
   25TMC2    C6  385   0.167   2.333  11.872 -0.1845 -0.1737  0.0246
   25TMC2     C  386   0.180   2.143  11.506 -0.2987 -0.4181 -0.6155
   25TMC2     O  387   0.277   2.166  11.438  0.2466  0.0876 -0.1276
   25TMC2     H  388   0.384   2.237  11.627  0.0146 -1.9982  0.9338
   25TMC2    H1  389   4.687   2.161  11.670  0.3553 -2.1924 -0.0111
   25TMC2    H2  390   0.173   2.379  11.970 -1.3407 -1.3748  0.6641
   25TMC2    C7  391   4.659   2.301  11.899  0.0288 -0.4730  0.2910
   25TMC2    C8  392   0.406   2.307  11.886  0.9753 -0.2304  0.2046
   25TMC2    O1  393   4.681   2.284  12.017 -0.0342 -0.2123 -0.0257
   25TMC2    O2  394   0.402   2.290  12.007 -0.0281  0.3503 -0.5118
   25TMC2    O5  395   0.502   2.370  11.813 -0.0313  0.5015 -0.4697
   25TMC2    H5  396   0.499   2.364  11.715  0.1410 -1.7542 -0.3471
   26MPD2     C  397   0.042   1.758  11.179  0.5673  0.0098  0.0091
   26MPD2    C1  398   4.663   1.791  11.265  0.7148  0.7670 -0.2805
   26MPD2    C2  399   4.682   1.882  11.370  0.0526  0.5007  0.6260
   26MPD2    C3  400   0.074   1.955  11.375  0.6979  0.0269  0.3111
   26MPD2    C4  401   0.175   1.927  11.289 -0.3305  0.5435 -0.8008
   26MPD2    C5  402   0.160   1.822  11.201  0.1621  0.4383  0.8835
   26MPD2     H  403   4.598   1.911  11.433 -1.0450 -0.4558 -0.3862
   26MPD2    H1  404   0.270   1.979  11.290  0.1019 -0.3099  2.7279
   26MPD2    H2  405   0.028   1.682  11.103 -1.3156  1.4977 -1.1510
   26MPD2    H3  406   0.243   1.801  11.134 -0.5457  0.5624 -0.0306
   26MPD2     N  407   0.082   2.045  11.489 -0.1168 -0.1172  0.5533
   26MPD2    H5  408   0.012   2.023  11.559 -0.4046 -2.6506 -0.5325
   26MPD2    N1  409   4.544   1.713  11.250 -0.2637 -0.1333  0.1735
   26MPD2    H7  410   4.545   1.647  11.173 -2.1046 -1.2516  1.0961
   27TMC2    C1  411   3.496   3.795  11.901 -0.1685  0.1872 -0.1895
   27TMC2    C2  412   3.405   3.870  11.833 -0.3199  0.2907 -0.5255
   27TMC2    C3  413   3.466   3.973  11.761 -0.0966 -0.3018 -0.1100
   27TMC2    C4  414   3.626   3.817  11.909 -0.0565  0.6700 -0.2639
   27TMC2    C5  415   3.665   3.938  11.860  0.6534 -0.2301 -0.3037
   27TMC2    C6  416   3.592   4.012  11.779  1.0502  0.0202  0.3367
   27TMC2     C  417   3.442   3.704  12.002 -0.1301 -0.2255 -0.1537
   27TMC2     O  418   3.503   3.602  12.026  0.4082  0.1915 -0.7816
   27TMC2     H  419   3.304   3.835  11.813 -0.0311  0.0543 -1.5562
   27TMC2    H1  420   3.680   3.761  11.985 -1.7931  0.3620  0.7295
   27TMC2    H2  421   3.625   4.111  11.747  2.7425 -0.3007  1.0983
   27TMC2    C7  422   3.732   4.006  11.966 -0.4780 -1.1191  0.1906
   27TMC2    C8  423   3.379   4.047  11.678  0.0920 -0.1429 -0.1735
   27TMC2    O1  424   3.763   3.942  12.067 -0.8378  0.7033  0.0766
   27TMC2    O2  425   3.423   4.108  11.579 -0.1857  0.1620  0.1527
   27TMC2    O5  426   3.269   4.060  11.751 -0.4104  0.1914 -0.0570
   27TMC2    H5  427   3.284   4.018  11.838  0.9442  1.7347  0.4687
   28MPD2     C  428   3.128   3.626  12.401  0.1255  0.9814  0.2812
   28MPD2    C1  429   3.115   3.761  12.361  0.8780  0.1244  0.6339
   28MPD2    C2  430   3.187   3.811  12.248 -0.3025  0.1958  0.1485
   28MPD2    C3  431   3.262   3.720  12.173  0.4708  0.1924 -0.1317
   28MPD2    C4  432   3.262   3.589  12.205  0.1414  0.2810 -0.0424
   28MPD2    C5  433   3.198   3.544  12.317  0.0221 -0.3923  0.0644
   28MPD2     H  434   3.193   3.914  12.216  0.2327 -0.2159 -1.0949
   28MPD2    H1  435   3.306   3.509  12.146  1.9841  0.6813  0.8081
   28MPD2    H2  436   3.089   3.588  12.495  0.7308  3.0699  1.3897
   28MPD2    H3  437   3.211   3.439  12.344 -1.9946 -0.5195  0.5466
   28MPD2     N  438   3.343   3.770  12.071  0.6319 -0.2644 -0.4016
   28MPD2    H5  439   3.322   3.866  12.046 -0.3359 -0.3743  0.0007
   28MPD2    N1  440   3.044   3.839  12.456 -0.2164  0.1979 -0.1141
   28MPD2    H7  441   2.994   3.791  12.530 -0.4857  3.4329  1.8054
   29MPD2     C  442   2.337   1.610  14.028 -0.4360 -0.2104  0.1120
   29MPD2    C1  443   2.417   1.595  14.140  0.3904 -0.7162  0.1359
   29MPD2    C2  444   2.448   1.699  14.221 -0.1701  0.9718  0.6156
   29MPD2    C3  445   2.399   1.827  14.184 -0.0774 -0.3382  0.0835
   29MPD2    C4  446   2.330   1.844  14.070  0.1453  0.4121  0.7177
   29MPD2    C5  447   2.304   1.736  13.991 -0.1209 -0.1626  0.2647
   29MPD2     H  448   2.504   1.683  14.312 -1.4397 -1.0450  1.0212
   29MPD2    H1  449   2.308   1.942  14.029  1.1205 -0.1360 -1.1520
   29MPD2    H2  450   2.320   1.528  13.960 -1.1967  0.2119 -0.2083
   29MPD2    H3  451   2.258   1.742  13.893  0.8998 -1.6972 -0.3072
   29MPD2     N  452   2.417   1.943  14.262  0.4406 -0.4472  0.0340
   29MPD2    H5  453   2.365   2.026  14.234  0.4220  0.0927  1.7103
   29MPD2    N1  454   2.479   1.474  14.168 -0.0807  0.0826  0.1884
   29MPD2    H7  455   2.558   1.469  14.232 -0.2378  0.9056  0.4444
   30TCq2    C1  456   2.489   1.960  14.380 -0.3132 -0.1190  0.2795
   30TCq2    O2  457   2.550   1.873  14.440  0.0262  0.5138  0.6047
   30TCq2    C2  458   2.509   2.099  14.412 -0.0622 -0.1980 -0.8226
   30TCq2    C3  459   2.543   2.127  14.542  1.4625 -0.4387 -0.0751
   30TCq2    C4  460   2.586   2.251  14.570  0.3909 -0.8987 -0.4323
   30TCq2    C5  461   2.594   2.350  14.483 -0.1472 -0.1772 -0.9275
   30TCq2    C6  462   2.575   2.314  14.351  0.2783 -0.4102  0.1912
   30TCq2    C7  463   2.520   2.194  14.318 -0.2752 -0.4295 -0.3702
   30TCq2    C8  464   2.647   2.395  14.253 -0.2680 -0.4833  0.1651
   30TCq2    O4  465   2.614   2.383  14.134 -0.3457 -0.0739  0.7027
   30TCq2    C9  466   2.624   2.275  14.711  0.2555 -0.1680  0.0477
   30TCq2    O5  467   2.662   2.391  14.737 -0.1304 -0.2571  0.0684
   30TCq2    O6  468   2.586   2.184  14.791 -0.1204 -0.7105  0.3853
   30TCq2    H2  469   2.544   2.053  14.621 -0.4067  0.2100  0.5587
   30TCq2    H3  470   2.628   2.443  14.526 -0.4859 -1.0311  1.1856
   30TCq2    H4  471   2.506   2.167  14.213 -0.1612  0.3795 -0.5899
   31MPD2     C  472   0.697   0.626  14.612  0.6347 -0.4214  0.1605
   31MPD2    C1  473   0.584   0.615  14.534 -0.4903 -0.3218  0.1539
   31MPD2    C2  474   0.483   0.525  14.567 -0.3723  0.1203  0.0804
   31MPD2    C3  475   0.495   0.455  14.685 -0.2443  0.3451  0.2357
   31MPD2    C4  476   0.606   0.471  14.763 -0.5540 -0.3548 -0.8332
   31MPD2    C5  477   0.716   0.547  14.726  0.8043  0.1028 -0.5058
   31MPD2     H  478   0.404   0.497  14.498 -0.9717 -1.8645  1.5663
   31MPD2    H1  479   0.615   0.423  14.859  1.1483 -2.7122 -2.1732
   31MPD2    H2  480   0.772   0.698  14.582  1.1092 -1.3719 -0.9488
   31MPD2    H3  481   0.801   0.556  14.792  0.2457  0.1931  0.2049
   31MPD2     N  482   0.395   0.367  14.728 -0.3784 -0.1133 -0.6524
   31MPD2    H5  483   0.406   0.320  14.817  2.6933  0.9805 -0.4574
   31MPD2    N1  484   0.582   0.705  14.424  0.3480  0.9764  0.6932
   31MPD2    H7  485   0.662   0.767  14.415  1.1909 -0.3589 -0.8636
   32TCq2    C1  486   0.272   0.344  14.663 -0.0132  0.6603  0.7386
   32TCq2    O2  487   0.216   0.401  14.570  0.2054 -0.5641 -0.1470
   32TCq2    C2  488   0.200   0.242  14.735 -0.2777 -0.1905 -0.3725
   32TCq2    C3  489   0.067   0.252  14.720 -0.4419 -0.6030 -0.5253
   32TCq2    C4  490   4.715   0.202  14.823  0.6779 -0.2921 -0.1488
   32TCq2    C5  491   0.044   0.112  14.919 -0.4926 -0.5051  0.5376
   32TCq2    C6  492   0.185   0.108  14.927 -0.0732 -0.4625  0.2639
   32TCq2    C7  493   0.260   0.176  14.841  0.0641  0.0128 -0.2527
   32TCq2    C8  494   0.244   0.081  15.055  0.5893  0.4192  0.4868
   32TCq2    O4  495   0.216   4.699  15.108  0.5584 -0.3911 -1.2780
   32TCq2    C9  496   4.573   0.230  14.821 -0.1059  0.1971 -0.1223
   32TCq2    O5  497   4.530   0.316  14.739 -0.0346 -0.1864  0.1909
   32TCq2    O6  498   4.497   0.161  14.894  0.6143 -0.2446 -0.5405
   32TCq2    H2  499   0.013   0.327  14.663 -0.1102  1.8125  2.3331
   32TCq2    H3  500   4.703   0.062  14.990 -0.6244 -0.7712  0.2274
   32TCq2    H4  501   0.366   0.156  14.855  0.3973  2.9690  1.3062
   33MPD2     C  502   1.420   2.854   9.684  0.0977 -0.5754  0.0299
   33MPD2    C1  503   1.319   2.914   9.757  0.8869  0.0313  0.1745
   33MPD2    C2  504   1.233   2.996   9.688  0.3154  0.2288  0.1900
   33MPD2    C3  505   1.237   3.009   9.544  0.3773  0.5800 -0.2605
   33MPD2    C4  506   1.336   2.941   9.480  0.3499  0.7006 -0.1510
   33MPD2    C5  507   1.437   2.879   9.548 -0.5538 -0.6534  0.0688
   33MPD2     H  508   1.157   3.049   9.745  1.6649 -0.7473  2.9110
   33MPD2    H1  509   1.332   2.951   9.372  2.5632  0.1645 -0.2772
   33MPD2    H2  510   1.496   2.791   9.730  0.7393 -0.0240 -0.2728
   33MPD2    H3  511   1.519   2.834   9.494  1.2213  1.9163  0.6120
   33MPD2     N  512   1.144   3.086   9.469  0.3126 -0.2997  0.9237
   33MPD2    H5  513   1.170   3.095   9.372  0.5757  1.7597  1.1802
   33MPD2    N1  514   1.327   2.894   9.895  0.1889 -0.3182 -0.2441
   33MPD2    H7  515   1.408   2.841   9.924 -0.0610 -1.4487 -1.6391
   34TCq2    C1  516   1.020   3.118   9.521  0.0721  0.1974  0.2176
   34TCq2    O2  517   0.959   3.091   9.622  0.3752 -0.4738  0.2764
   34TCq2    C2  518   0.947   3.204   9.430 -0.8855 -0.6758  0.2575
   34TCq2    C3  519   0.809   3.204   9.430 -0.6280  0.8625 -0.2227
   34TCq2    C4  520   0.746   3.304   9.375  0.0153  0.5483 -0.0750
   34TCq2    C5  521   0.797   3.415   9.321  0.2764  0.0245  0.7059
   34TCq2    C6  522   0.933   3.405   9.315  0.5076 -0.3838 -0.5408
   34TCq2    C7  523   1.010   3.305   9.361 -0.4894 -0.0454  0.1155
   34TCq2    C8  524   1.003   3.493   9.232 -0.5776  0.2406  0.2985
   34TCq2    O4  525   1.124   3.489   9.230  0.4572  0.2046 -0.2590
   34TCq2    C9  526   0.603   3.304   9.399  0.0015  0.8376 -0.3964
   34TCq2    O5  527   0.554   3.207   9.470  0.1279  0.7258 -0.5657
   34TCq2    O6  528   0.551   3.419   9.392  0.0636 -0.3094  0.3140
   34TCq2    H2  529   0.765   3.130   9.496  0.2954  0.5973  0.0932
   34TCq2    H3  530   0.737   3.493   9.276  0.9529 -0.3405 -0.8158
   34TCq2    H4  531   1.118   3.313   9.363 -0.5601  1.8129 -2.5388
   35MPD2     C  532   2.853   4.688  12.007  0.1587  0.0690 -0.2821
   35MPD2    C1  533   2.825   4.567  11.942  0.4622 -0.1026  0.6900
   35MPD2    C2  534   2.816   4.555  11.806  0.0177  0.3107  0.0616
   35MPD2    C3  535   2.847   4.662  11.723 -0.0524 -0.4032  0.2284
   35MPD2    C4  536   2.877   0.056  11.784 -0.0373  0.1859 -0.8141
   35MPD2    C5  537   2.868   0.074  11.920 -0.0863  1.0169 -0.6655
   35MPD2     H  538   2.784   4.462  11.761 -1.5657  1.5779 -1.4500
   35MPD2    H1  539   2.898   0.143  11.723 -2.4001  3.1519  2.6323
   35MPD2    H2  540   2.867   4.701  12.114  0.1166 -0.4578 -0.2146
   35MPD2    H3  541   2.892   0.166  11.971 -0.4801  0.1253  1.1014
   35MPD2     N  542   2.834   4.640  11.583  0.1873  0.2223 -0.6632
   35MPD2    H5  543   2.784   4.557  11.553 -1.5999  0.0814  2.7102
   35MPD2    N1  544   2.777   4.460  12.023  0.2706  0.2074  0.3522
   35MPD2    H7  545   2.766   4.483  12.121  1.9001  1.8990  0.1262
   36TCq2    C1  546   2.885   4.721  11.481  0.5496  0.0057  0.3845
   36TCq2    O2  547   2.962   0.094  11.483 -0.1626  0.3081 -0.1075
   36TCq2    C2  548   2.828   4.698  11.348  0.4211 -0.0724  1.0738
   36TCq2    C3  549   2.875   0.058  11.251 -0.8552 -0.6771 -0.2580
   36TCq2    C4  550   2.823   0.049  11.126  0.1781  0.5561  0.2863
   36TCq2    C5  551   2.708   4.697  11.110 -0.2391 -0.1489 -0.0816
   36TCq2    C6  552   2.661   4.622  11.212 -0.1267 -0.2434  0.0412
   36TCq2    C7  553   2.719   4.620  11.329  0.6710  0.1047  0.2629
   36TCq2    C8  554   2.540   4.544  11.198  0.1621  0.3568 -0.0188
   36TCq2    O4  555   2.542   4.437  11.262  0.5245  0.0562 -0.0830
   36TCq2    C9  556   2.876   0.124  11.013 -0.1062 -0.6046 -0.4966
   36TCq2    O5  557   2.995   0.157  11.031 -0.7190 -0.0070  0.0014
   36TCq2    O6  558   2.807   0.126  10.910 -0.9127 -0.2144 -0.1634
   36TCq2    H2  559   2.962   0.123  11.260 -1.0649 -0.4152 -0.1157
   36TCq2    H3  560   2.680   4.690  11.006  0.8746 -0.1783 -0.3827
   36TCq2    H4  561   2.681   4.559  11.410  0.4401 -0.9565 -0.6445
   37TMC2    C1  562   4.269   3.848  11.626 -0.1215  0.6177  0.0842
   37TMC2    C2  563   4.190   3.755  11.561 -0.2794 -0.2966  0.2591
   37TMC2    C3  564   4.233   3.722  11.437  0.2798 -0.6614  0.0797
   37TMC2    C4  565   4.391   3.894  11.574  0.1389 -0.0793 -0.8196
   37TMC2    C5  566   4.424   3.846  11.449 -0.0824 -0.8661  0.6327
   37TMC2    C6  567   4.347   3.758  11.381  0.3205 -0.2057  0.4159
   37TMC2     C  568   4.217   3.907  11.754  0.7962 -0.0238 -0.1602
   37TMC2     O  569   4.103   3.869  11.783  0.5897 -0.6179  0.2897
   37TMC2     H  570   4.085   3.741  11.582 -0.5136  3.1429  1.3611
   37TMC2    H1  571   4.447   3.975  11.619 -0.2300  0.6318 -1.6377
   37TMC2    H2  572   4.368   3.716  11.283  0.8211  0.1060  0.3896
   37TMC2    C7  573   4.561   3.879  11.407  0.6313  0.4542  0.8757
   37TMC2    C8  574   4.139   3.645  11.358  0.5296  0.5660  0.2282
   37TMC2    O1  575   4.625   3.976  11.447 -0.0250  0.8048 -0.1720
   37TMC2    O2  576   4.063   3.570  11.412  0.1922  0.1566  0.0332
   37TMC2    O5  577   4.128   3.719  11.248 -0.5993  0.4623 -0.0319
   37TMC2    H5  578   4.192   3.790  11.225  2.0929 -1.3920  1.6062
   38MPD2     C  579   4.195   4.214  12.142  0.1983 -0.2139  0.0601
   38MPD2    C1  580   4.322   4.161  12.139 -0.0389 -0.5746  0.7089
   38MPD2    C2  581   4.368   4.080  12.038 -0.4545  0.0061  0.3177
   38MPD2    C3  582   4.274   4.038  11.946 -0.4101  0.2658  0.3900
   38MPD2    C4  583   4.140   4.081  11.955 -0.0330  0.0548 -0.3055
   38MPD2    C5  584   4.100   4.173  12.049 -0.7420  0.4684 -0.1786
   38MPD2     H  585   4.472   4.054  12.020 -0.1964  0.0723  1.6688
   38MPD2    H1  586   4.061   4.042  11.892 -1.7651  1.3911  1.0552
   38MPD2    H2  587   4.170   4.292  12.213 -0.2963 -0.2079 -0.1220
   38MPD2    H3  588   4.000   4.213  12.052 -1.0067 -0.1013 -1.3619
   38MPD2     N  589   4.312   3.958  11.838  0.6684  0.3334 -0.2615
   38MPD2    H5  590   4.409   3.940  11.814  0.5939  0.7033 -0.8354
   38MPD2    N1  591   4.416   4.192  12.234 -0.3920  0.3787  0.2650
   38MPD2    H7  592   4.495   4.130  12.222 -0.1410  0.8662 -0.6123
   39MPD2     C  593   1.703   1.481   1.481 -0.2146  0.1437 -0.0192
   39MPD2    C1  594   1.592   1.552   1.501 -0.1500 -0.1681 -0.4385
   39MPD2    C2  595   1.469   1.514   1.449 -0.2773 -0.3739  0.2736
   39MPD2    C3  596   1.463   1.396   1.384  0.0076 -0.7199 -0.0242
   39MPD2    C4  597   1.577   1.323   1.361  0.2399  0.3228  0.4212
   39MPD2    C5  598   1.696   1.368   1.410  0.6464  0.2530 -0.1957
   39MPD2     H  599   1.386   1.580   1.470  0.0557 -0.2405  1.1662
   39MPD2    H1  600   1.584   1.225   1.315 -0.8826 -0.8100  2.6769
   39MPD2    H2  601   1.805   1.505   1.512 -0.4619  1.2720 -0.0645
   39MPD2    H3  602   1.789   1.313   1.399  0.6477  0.2756 -0.2978
   39MPD2     N  603   1.342   1.345   1.327 -0.2253  0.2765  0.1085
   39MPD2    H5  604   1.355   1.262   1.270  0.1592  0.9852 -0.8319
   39MPD2    N1  605   1.610   1.672   1.581 -0.0929 -0.8685  0.6092
   39MPD2    H7  606   1.702   1.692   1.619 -0.4602 -1.0946  1.6196
   40TCq2    C1  607   1.516   1.765   1.619 -0.2339 -0.6847  0.4650
   40TCq2    O2  608   1.393   1.752   1.617 -0.6430  0.7396 -0.1012
   40TCq2    C2  609   1.580   1.873   1.693  0.2942 -0.4427  0.2079
   40TCq2    C3  610   1.501   1.941   1.782  0.1827  0.0139  0.7761
   40TCq2    C4  611   1.557   2.044   1.856  0.1709 -0.0864 -0.5831
   40TCq2    C5  612   1.691   2.087   1.838  0.2261 -0.2936  0.1402
   40TCq2    C6  613   1.768   2.010   1.748  0.6606 -0.0175  0.5111
   40TCq2    C7  614   1.717   1.906   1.675 -0.2297  0.4453 -0.5540
   40TCq2    C8  615   1.910   2.017   1.750 -0.1808  0.1553  0.1987
   40TCq2    O4  616   1.964   2.070   1.845  0.1873  0.3495 -0.5699
   40TCq2    C9  617   1.474   2.112   1.951 -0.1695 -0.5632 -0.0825
   40TCq2    O5  618   1.358   2.069   1.964  0.1648  0.5201 -0.1928
   40TCq2    O6  619   1.514   2.217   2.008  0.1753  0.9006 -0.5121
   40TCq2    H2  620   1.396   1.916   1.783  0.2765 -0.3449  2.4032
   40TCq2    H3  621   1.738   2.178   1.873 -1.5832  0.2445  1.1377
   40TCq2    H4  622   1.783   1.845   1.615 -0.6531  2.2483 -2.8244
   41TMC2    C1  623   2.368   0.104  13.275  0.4680 -0.0166 -0.6179
   41TMC2    C2  624   2.338   0.228  13.330  0.5469  0.0220  0.7764
   41TMC2    C3  625   2.366   0.335  13.247  0.6401 -0.0669  0.4296
   41TMC2    C4  626   2.432   0.084  13.152  0.1670  0.2712  0.4407
   41TMC2    C5  627   2.450   0.196  13.073 -0.2837  0.1852  0.1513
   41TMC2    C6  628   2.427   0.322  13.126  0.0728  0.1292  0.3433
   41TMC2     C  629   2.348   4.713  13.363 -0.6320  0.0363 -0.7745
   41TMC2     O  630   2.398   4.604  13.334  0.4188 -0.0521 -0.6292
   41TMC2     H  631   2.277   0.243  13.418  0.6245 -0.0095  0.8347
   41TMC2    H1  632   2.461   4.708  13.122 -3.0061 -0.7868  0.8540
   41TMC2    H2  633   2.451   0.409  13.065 -0.1106  0.0024  0.0897
   41TMC2    C7  634   2.545   0.197  12.960  0.0702 -0.3809 -0.0753
   41TMC2    C8  635   2.308   0.459  13.278  0.2270  0.8073  0.5887
   41TMC2    O1  636   2.630   0.283  12.961  0.3353  0.2881 -0.0912
   41TMC2    O2  637   2.277   0.482  13.393  0.5957 -0.3070 -0.0686
   41TMC2    O5  638   2.252   0.511  13.168  0.7890 -0.2764  0.3727
   41TMC2    H5  639   2.266   0.467  13.082  1.2581 -2.5573  1.6249
   42MPD2     C  640   2.314   4.535  13.593  0.9417  0.5863  0.2360
   42MPD2    C1  641   2.231   4.639  13.567 -0.1712 -0.2031 -0.1555
   42MPD2    C2  642   2.125   4.668  13.649 -0.1751 -0.5013 -0.0769
   42MPD2    C3  643   2.107   4.590  13.763  0.1124  0.1149 -0.0667
   42MPD2    C4  644   2.184   4.475  13.774 -0.0709 -1.1144  0.0801
   42MPD2    C5  645   2.283   4.447  13.688  0.0477 -0.0338  0.2061
   42MPD2     H  646   2.068   0.034  13.626  0.2398 -0.4117 -0.7357
   42MPD2    H1  647   2.163   4.408  13.857 -0.4513  1.0402  1.7362
   42MPD2    H2  648   2.394   4.507  13.525 -1.7678 -0.5583 -2.4820
   42MPD2    H3  649   2.343   4.357  13.697  1.7446  1.2060  1.4974
   42MPD2     N  650   2.006   4.617  13.855 -0.2196  0.0625  0.6272
   42MPD2    H5  651   1.997   4.564  13.942  1.1336  1.5018  1.6545
   42MPD2    N1  652   2.252   0.012  13.464 -0.0409  0.0508 -0.6097
   42MPD2    H7  653   2.190   0.091  13.457  0.8899  0.6589 -2.0399
   43MPD2     C  654   1.824   2.651   0.304  0.2382 -0.1637  0.4576
   43MPD2    C1  655   1.963   2.682   0.327 -0.2873  0.2019 -0.4270
   43MPD2    C2  656   2.004   2.813   0.338 -0.4229  0.4315  0.8186
   43MPD2    C3  657   1.906   2.916   0.336  0.2848  0.3928 -0.2025
   43MPD2    C4  658   1.773   2.884   0.318 -0.3969  0.5088 -0.4059
   43MPD2    C5  659   1.731   2.752   0.305 -0.0510 -0.2490  0.5254
   43MPD2     H  660   2.110   2.834   0.346  0.0353 -0.8359 -1.7300
   43MPD2    H1  661   1.693   2.955   0.300 -0.3876  0.5856 -0.1444
   43MPD2    H2  662   1.791   2.550   0.282 -0.0824 -0.0102  0.2416
   43MPD2    H3  663   1.630   2.727   0.277 -0.0443 -0.3485  0.5934
   43MPD2     N  664   1.929   3.056   0.343  0.0364 -0.3438 -0.2482
   43MPD2    H5  665   1.845   3.114   0.340 -0.2532 -0.6802  1.8425
   43MPD2    N1  666   2.065   2.584   0.336  0.2896  0.1496  0.3709
   43MPD2    H7  667   2.155   2.625   0.358  0.0384  2.1802 -2.4966
   44TCq2    C1  668   2.297   3.547   0.317 -0.2176  0.1056  0.3048
   44TCq2    O2  669   2.297   3.650   0.253 -0.4054 -0.2950 -0.0996
   44TCq2    C2  670   2.176   3.465   0.313 -0.3832  1.1976 -0.4890
   44TCq2    C3  671   2.060   3.541   0.297 -0.6623 -0.1947  0.1010
   44TCq2    C4  672   1.944   3.472   0.321 -0.1236 -0.1983  0.4367
   44TCq2    C5  673   1.937   3.333   0.346 -0.2889  0.9734 -0.0650
   44TCq2    C6  674   2.055   3.262   0.351  0.1549  0.1536  0.1410
   44TCq2    C7  675   2.176   3.329   0.335 -0.0581 -0.2266 -0.3783
   44TCq2    C8  676   2.057   3.111   0.353  1.0564 -0.1395 -0.2886
   44TCq2    O4  677   2.162   3.055   0.356 -0.6102 -1.0459 -0.4896
   44TCq2    C9  678   1.824   3.540   0.304 -0.3319 -0.1373  0.0440
   44TCq2    O5  679   1.723   3.470   0.281  0.2502  0.5053 -1.1420
   44TCq2    O6  680   1.827   3.668   0.303  0.1328 -0.6432 -0.6905
   44TCq2    H2  681   2.061   3.643   0.260 -3.2180 -0.8994 -1.8872
   44TCq2    H3  682   1.851   3.272   0.371  1.0690 -1.5863 -1.5735
   44TCq2    H4  683   2.269   3.274   0.339 -0.9266 -1.6997 -0.3907
   45TMC2    C1  684   3.781   0.325   9.547 -0.5208 -0.1404  0.8700
   45TMC2    C2  685   3.778   0.332   9.414  0.1179 -0.5968  0.5342
   45TMC2    C3  686   3.861   0.426   9.355 -0.5238  0.5442  0.2561
   45TMC2    C4  687   3.842   0.421   9.623 -0.8529  0.1350  0.4106
   45TMC2    C5  688   3.913   0.515   9.558 -0.1904 -0.9931  0.8918
   45TMC2    C6  689   3.928   0.518   9.430 -0.2919  0.4074  0.3873
   45TMC2     C  690   3.771   0.195   9.603 -0.1763 -0.1878  0.3111
   45TMC2     O  691   3.833   0.174   9.703 -0.0509  0.0663 -0.2537
   45TMC2     H  692   3.736   0.253   9.352 -0.5776  0.1716  0.0274
   45TMC2    H1  693   3.842   0.419   9.731  0.8340  1.1677  0.4299
   45TMC2    H2  694   3.977   0.595   9.372 -1.5794  2.1045  1.5938
   45TMC2    C7  695   4.016   0.573   9.645 -0.1133  0.5675 -0.4133
   45TMC2    C8  696   3.860   0.439   9.212 -0.4281  0.5687 -0.0203
   45TMC2    O1  697   3.996   0.588   9.764 -0.0027 -0.2957  0.5125
   45TMC2    O2  698   3.762   0.400   9.145  0.3289  0.5018  0.6739
   45TMC2    O5  699   3.972   0.506   9.170 -0.7498  0.0304 -0.4570
   45TMC2    H5  700   4.045   0.501   9.235  0.8474  1.4306 -2.1587
   46MPD2     C  701   3.763   4.630   9.611  0.3889  0.5463  0.0338
   46MPD2    C1  702   3.663   4.696   9.546 -0.5040  0.2344 -0.6188
   46MPD2    C2  703   3.560   4.629   9.485  0.2818 -0.2170 -0.1727
   46MPD2    C3  704   3.555   4.491   9.482  0.4819 -0.0349 -0.5970
   46MPD2    C4  705   3.656   4.423   9.545  0.2618 -0.2783 -0.3113
   46MPD2    C5  706   3.758   4.492   9.598 -0.5204 -0.5325 -0.3033
   46MPD2     H  707   3.472   4.680   9.449  1.4078  2.0789  0.3252
   46MPD2    H1  708   3.661   4.315   9.541 -0.7692 -0.3194 -0.6125
   46MPD2    H2  709   3.852   4.671   9.657  1.0887 -1.0819  0.1400
   46MPD2    H3  710   3.842   4.436   9.638 -0.9106 -1.2696 -0.5055
   46MPD2     N  711   3.446   4.425   9.429  0.4080 -0.1981  0.4321
   46MPD2    H5  712   3.371   4.481   9.391  1.8716  1.6424  0.2479
   46MPD2    N1  713   3.677   0.112   9.541  0.3700 -0.3310  0.6819
   46MPD2    H7  714   3.616   0.168   9.482 -1.7161 -0.6724  2.4988
   47TMC2    C1  715   0.400   0.809   9.621  0.5977  0.3515 -0.4629
   47TMC2    C2  716   0.430   0.784   9.490 -0.1741 -0.5722  0.7266
   47TMC2    C3  717   0.346   0.841   9.399 -0.2536 -0.6229 -0.4976
   47TMC2    C4  718   0.294   0.890   9.663  0.0745  0.3515  0.6262
   47TMC2    C5  719   0.205   0.920   9.570  0.5071  0.4097  0.1477
   47TMC2    C6  720   0.223   0.887   9.441 -0.3175  0.1705  0.9490
   47TMC2     C  721   0.511   0.802   9.712  0.3384 -0.1521 -0.1320
   47TMC2     O  722   0.495   0.865   9.815  0.5504 -0.0788 -0.5915
   47TMC2     H  723   0.511   0.719   9.459  0.7278  0.3704  1.1083
   47TMC2    H1  724   0.288   0.919   9.767  0.8645 -1.2363  1.1289
   47TMC2    H2  725   0.151   0.926   9.370  0.1084  1.3142  1.1569
   47TMC2    C7  726   0.082   0.981   9.605  0.1375  0.6946 -0.4280
   47TMC2    C8  727   0.396   0.884   9.271  0.8245  0.6785 -0.4949
   47TMC2    O1  728   4.710   0.976   9.525 -0.0483 -0.1435 -0.3751
   47TMC2    O2  729   0.336   0.850   9.170  0.2345  0.1286 -1.2428
   47TMC2    O5  730   0.526   0.872   9.280  0.2050  0.4199  0.3009
   47TMC2    H5  731   0.559   0.917   9.361  2.5350  1.4974 -1.2511
   48MPD2     C  732   0.759   0.737   9.870  0.2718  0.0479 -0.1538
   48MPD2    C1  733   0.744   0.729   9.732  0.7407  0.7958  0.2857
   48MPD2    C2  734   0.854   0.677   9.660 -0.3009  0.1584  0.2153
   48MPD2    C3  735   0.973   0.648   9.724  0.2991  0.1870 -0.2411
   48MPD2    C4  736   0.987   0.656   9.863  0.1647  0.2971 -0.1122
   48MPD2    C5  737   0.880   0.701   9.932  0.1478 -0.2686 -0.7144
   48MPD2     H  738   0.841   0.679   9.552 -1.9448 -0.1563  0.4081
   48MPD2    H1  739   1.080   0.639   9.917 -1.4253 -0.3896  2.4538
   48MPD2    H2  740   0.672   0.767   9.927 -0.2329 -1.1118 -0.3283
   48MPD2    H3  741   0.886   0.705  10.040  2.7783  0.5858 -0.8933
   48MPD2     N  742   1.072   0.608   9.632 -0.3001 -0.6305  0.0201
   48MPD2    H5  743   1.057   0.616   9.532 -0.6963 -2.8651 -0.0861
   48MPD2    N1  744   0.626   0.759   9.662 -0.4982  0.0948  0.6492
   48MPD2    H7  745   0.630   0.746   9.562 -3.0135 -0.9229  0.6938
   49MPD2     C  746   4.587   2.553  10.261  0.5717 -0.2584  0.1861
   49MPD2    C1  747   4.542   2.444  10.184 -0.4191 -0.4064 -0.7887
   49MPD2    C2  748   4.499   2.334  10.253  0.6471 -0.0145 -0.2687
   49MPD2    C3  749   4.470   2.329  10.392 -0.6058  0.2159  0.6378
   49MPD2    C4  750   4.522   2.437  10.463 -0.0928  0.4853  0.4426
   49MPD2    C5  751   4.581   2.548  10.394  1.2698  0.2166 -0.6109
   49MPD2     H  752   4.478   2.246  10.192  0.8010 -0.3590  0.1803
   49MPD2    H1  753   4.516   2.436  10.571 -1.6187 -0.1349  0.3467
   49MPD2    H2  754   4.629   2.646  10.225  0.1346  0.1650  0.7691
   49MPD2    H3  755   4.623   2.632  10.448 -1.1641 -1.0968  3.3748
   49MPD2     N  756   4.408   2.216  10.451  0.0461  0.3184  0.2367
   49MPD2    H5  757   4.376   2.231  10.546  0.1557  1.0879  0.1520
   49MPD2    N1  758   4.545   2.440  10.043  0.2354 -0.3624 -0.5357
   49MPD2    H7  759   4.522   2.354   9.994 -1.0128 -0.0408 -0.5061
   50TCq2    C1  760   4.585   2.541   9.962  0.1229 -0.1468  0.1119
   50TCq2    O2  761   4.649   2.640   9.992  0.2311 -0.7187 -0.9279
   50TCq2    C2  762   4.578   2.515   9.822  0.3675 -0.1438  0.7727
   50TCq2    C3  763   4.667   2.578   9.743  0.3574 -0.0608 -0.3034
   50TCq2    C4  764   4.682   2.524   9.618  0.6166 -0.5235  0.2872
   50TCq2    C5  765   4.614   2.413   9.568  0.0883 -0.1631  0.7024
   50TCq2    C6  766   4.524   2.357   9.650 -0.1164 -0.4357  0.0882
   50TCq2    C7  767   4.502   2.411   9.772 -0.2611  0.2029  0.9453
   50TCq2    C8  768   4.437   2.257   9.589  0.4419 -0.4014  0.4620
   50TCq2    O4  769   4.460   2.230   9.474 -0.1535  0.6925 -0.2360
   50TCq2    C9  770   0.064   2.577   9.531 -0.7285 -0.4857  0.0068
   50TCq2    O5  771   0.089   2.523   9.420  1.0101  0.3917 -0.8695
   50TCq2    O6  772   0.140   2.654   9.588 -0.3305  0.2808 -0.0761
   50TCq2    H2  773   0.008   2.653   9.788  0.5683 -1.4885  1.7812
   50TCq2    H3  774   4.631   2.388   9.464 -0.9707  0.6010  0.3503
   50TCq2    H4  775   4.412   2.382   9.825 -1.1890  0.9046 -0.2537
   51MPD2     C  776   4.257   1.400   0.363 -0.0930 -0.1821  0.4156
   51MPD2    C1  777   4.182   1.302   0.427 -0.2746 -0.0785 -0.4055
   51MPD2    C2  778   4.066   1.348   0.493 -0.1990  0.3070  0.4795
   51MPD2    C3  779   4.025   1.479   0.480 -0.0157 -0.4591 -0.2786
   51MPD2    C4  780   4.096   1.567   0.401 -0.0895 -0.6428  0.4038
   51MPD2    C5  781   4.219   1.533   0.357  0.0950  0.0111  0.0155
   51MPD2     H  782   4.002   1.273   0.540  0.5764 -1.2380 -0.9344
   51MPD2    H1  783   4.063   1.670   0.396  0.1106 -0.5173  1.6513
   51MPD2    H2  784   4.348   1.383   0.306 -1.1617 -1.2136 -0.9981
   51MPD2    H3  785   4.286   1.607   0.315  1.0147  0.1215  1.7074
   51MPD2     N  786   3.895   1.519   0.526 -0.4663  0.3333 -0.2958
   51MPD2    H5  787   3.851   1.601   0.484 -1.2858  0.2555  0.4028
   51MPD2    N1  788   4.230   1.174   0.444  0.0146  0.8915 -0.0860
   51MPD2    H7  789   4.172   1.108   0.494 -0.5813  0.9250 -0.7366
   52TCq2    C1  790   3.825   1.458   0.628 -0.1596 -0.0519  1.3341
   52TCq2    O2  791   3.843   1.349   0.684 -0.1793  0.1323  0.5549
   52TCq2    C2  792   3.714   1.532   0.675  0.4057  0.0549  0.0689
   52TCq2    C3  793   3.608   1.470   0.732  0.7266 -0.2640  0.2655
   52TCq2    C4  794   3.514   1.543   0.796  0.2423 -0.2661  0.0188
   52TCq2    C5  795   3.534   1.675   0.807  0.1921 -0.4798 -0.3470
   52TCq2    C6  796   3.646   1.736   0.757  0.1034 -0.6955 -0.0773
   52TCq2    C7  797   3.737   1.669   0.678  0.1044 -0.2245 -0.4216
   52TCq2    C8  798   3.703   1.851   0.839  0.5796  0.2117  0.1297
   52TCq2    O4  799   3.822   1.861   0.825 -0.4913 -0.0265 -0.2749
   52TCq2    C9  800   3.407   1.480   0.860  0.3745 -0.1845 -0.3222
   52TCq2    O5  801   3.372   1.525   0.972 -0.0295  0.1750 -0.7009
   52TCq2    O6  802   3.395   1.355   0.840  0.5764 -0.0026 -0.3330
   52TCq2    H2  803   3.606   1.362   0.741 -1.6996 -0.1902  0.6026
   52TCq2    H3  804   3.462   1.724   0.873 -0.1835  1.0624 -1.9031
   52TCq2    H4  805   3.830   1.714   0.646 -0.1425  1.3333  1.0092
   53TMC2    C1  806   0.516   4.091  11.201  0.1631 -0.3121  0.6459
   53TMC2    C2  807   0.650   4.056  11.207  0.8629 -0.0318 -0.4864
   53TMC2    C3  808   0.715   4.094  11.320 -0.1252 -0.5337 -0.0431
   53TMC2    C4  809   0.456   4.168  11.301  0.3478 -0.0282 -0.5423
   53TMC2    C5  810   0.538   4.208  11.408  0.2191  0.1009  1.1732
   53TMC2    C6  811   0.664   4.174  11.421 -0.0834 -0.0764  0.0023
   53TMC2     C  812   0.432   3.993  11.137  0.2275 -0.2573 -0.6430
   53TMC2     O  813   0.484   3.902  11.080  0.0028 -0.0065  0.0857
   53TMC2     H  814   0.693   3.997  11.127  2.6628  1.1631 -0.3838
   53TMC2    H1  815   0.357   4.209  11.286  0.1493  0.4132  2.1117
   53TMC2    H2  816   0.727   4.206  11.504 -0.4610  0.7435 -0.0309
   53TMC2    C7  817   0.457   4.247  11.518 -0.1618  0.1711 -0.5625
   53TMC2    C8  818   0.841   4.035  11.327  0.2147  0.1533 -0.1407
   53TMC2    O1  819   0.341   4.285  11.485 -0.4245  0.0463  0.7282
   53TMC2    O2  820   0.931   4.104  11.361 -0.0321  0.1193  0.1539
   53TMC2    O5  821   0.819   3.910  11.380  0.3123  0.2902  0.9107
   53TMC2    H5  822   0.726   3.880  11.381  0.0789  0.9863 -0.0003
   54MPD2     C  823   0.247   3.768  11.117  0.1347 -0.2479 -0.5476
   54MPD2    C1  824   0.210   3.885  11.176  0.5425  0.1582 -0.4525
   54MPD2    C2  825   0.091   3.894  11.247  0.1624 -0.0400  0.3258
   54MPD2    C3  826   0.004   3.781  11.256  0.4785 -0.4142 -0.2344
   54MPD2    C4  827   0.037   3.668  11.189  0.0958 -0.5797  0.2814
   54MPD2    C5  828   0.157   3.665  11.115 -0.6187  0.8101 -0.8739
   54MPD2     H  829   0.086   3.982  11.310 -2.3180  1.0529 -1.4203
   54MPD2    H1  830   4.689   3.587  11.176 -0.2496 -0.0654 -1.0163
   54MPD2    H2  831   0.329   3.750  11.049 -0.5692  0.8079 -1.6757
   54MPD2    H3  832   0.180   3.567  11.074  0.2499 -0.3324  2.3257
   54MPD2     N  833   4.604   3.785  11.321 -0.1635  0.0983  0.6929
   54MPD2    H5  834   4.543   3.704  11.314  0.6902 -0.3193 -1.9829
   54MPD2    N1  835   0.302   3.996  11.190 -0.3823 -0.4613  0.6623
   54MPD2    H7  836   0.273   4.073  11.251  0.4417 -0.3941  0.9746
   55MPD2     C  837   0.456   2.217  17.442 -0.6432 -0.0535 -0.4357
   55MPD2    C1  838   0.452   2.217  17.575 -0.3354  0.4998 -0.5436
   55MPD2    C2  839   0.397   2.323  17.645  0.2420  0.0590  0.3688
   55MPD2    C3  840   0.347   2.428  17.573  0.1072  0.1617 -0.8266
   55MPD2    C4  841   0.347   2.422  17.437 -0.3780  0.9829  1.4487
   55MPD2    C5  842   0.410   2.323  17.374  0.3347  0.2901 -0.0238
   55MPD2     H  843   0.378   2.310   0.054  1.1061  0.4953  0.5731
   55MPD2    H1  844   0.298   2.501  17.381 -0.7843  0.6645  1.3492
   55MPD2    H2  845   0.498   2.134  17.386 -2.5692 -1.3777  0.0931
   55MPD2    H3  846   0.400   2.318  17.266  1.1633 -2.4761  0.0301
   55MPD2     N  847   0.282   2.532  17.641  0.2444 -0.0828  0.0281
   55MPD2    H5  848   0.287   2.531   0.046  0.7931 -0.5341 -0.0024
   55MPD2    N1  849   0.507   2.099  17.633  0.0032  0.0548 -0.6214
   55MPD2    H7  850   0.556   2.037  17.569  1.7883  1.4028 -0.5669
   56TCq2    C1  851   0.501   2.075   0.071  0.2475  0.0681 -0.0543
   56TCq2    O2  852   0.437   2.127   0.161 -0.4353  0.2264 -0.2585
   56TCq2    C2  853   0.595   1.979   0.121  0.4569 -0.4559 -0.3136
   56TCq2    C3  854   0.643   1.877   0.044  0.0367 -0.3267 -0.5767
   56TCq2    C4  855   0.745   1.803   0.095 -0.1806  0.5432  0.7197
   56TCq2    C5  856   0.794   1.827   0.220 -0.5287  0.0666 -0.0924
   56TCq2    C6  857   0.740   1.928   0.298  0.5428 -0.4491  0.3742
   56TCq2    C7  858   0.637   2.001   0.248  0.0403  0.0079  0.5483
   56TCq2    C8  859   0.807   1.963   0.421 -0.1389  0.2301 -0.5670
   56TCq2    O4  860   0.921   1.921   0.446  0.3874 -0.1473  0.0792
   56TCq2    C9  861   0.802   1.709   0.000  0.2316  0.3380  0.9862
   56TCq2    O5  862   0.901   1.646   0.046  0.7490  0.4579  0.2439
   56TCq2    O6  863   0.780   1.728  17.574  0.2480 -0.3078  0.3841
   56TCq2    H2  864   0.607   1.855  17.641 -2.6676 -1.1785  0.5901
   56TCq2    H3  865   0.880   1.779   0.265  0.2796  1.6538  0.0694
   56TCq2    H4  866   0.590   2.079   0.307 -1.7890 -1.8448  1.5285
   57TMC2    C1  867   0.430   3.682  13.631  0.4921 -0.2425  0.3630
   57TMC2    C2  868   0.503   3.638  13.735  0.5044 -0.1897 -0.7523
   57TMC2    C3  869   0.618   3.584  13.689 -0.3046  0.6113  0.7442
   57TMC2    C4  870   0.456   3.661  13.497  0.0904 -0.3849  0.3610
   57TMC2    C5  871   0.581   3.608  13.465 -0.3289  0.7465  0.3143
   57TMC2    C6  872   0.664   3.568  13.559  0.3431 -0.0702 -0.4716
   57TMC2     C  873   0.300   3.727  13.664 -0.5774  0.1521 -0.5684
   57TMC2     O  874   0.260   3.712  13.780 -0.2521 -0.3058 -0.1088
   57TMC2     H  875   0.473   3.663  13.836  1.8994  0.7547 -0.5818
   57TMC2    H1  876   0.394   3.687  13.411 -0.0432  1.0609  0.8981
   57TMC2    H2  877   0.757   3.520  13.530 -0.1444 -0.8574 -0.7247
   57TMC2    C7  878   0.608   3.591  13.325 -0.2096 -0.5512 -0.2570
   57TMC2    C8  879   0.700   3.514  13.781  0.6190 -0.1119 -0.5544
   57TMC2    O1  880   0.570   3.672  13.241 -0.4343  0.0313 -0.0787
   57TMC2    O2  881   0.768   3.417  13.749 -0.0133 -0.3712 -0.1868
   57TMC2    O5  882   0.686   3.567  13.903 -0.3179  0.3761  0.3205
   57TMC2    H5  883   0.644   3.655  13.917 -0.9018  0.3157 -1.0346
   58MPD2     C  884   4.581   3.977  13.582  0.3481  0.1073  0.1448
   58MPD2    C1  885   4.615   3.877  13.683  0.6528 -0.6757  0.1581
   58MPD2    C2  886   0.021   3.832  13.683 -0.0485 -0.2529 -0.4791
   58MPD2    C3  887   0.113   3.859  13.581 -0.5394  0.4468  0.1068
   58MPD2    C4  888   0.078   3.946  13.489  0.4289  0.2511  0.4856
   58MPD2    C5  889   4.684   4.012  13.497 -0.6252 -0.5504  0.0444
   58MPD2     H  890   0.048   3.761  13.760 -0.2582 -1.0726 -1.1618
   58MPD2    H1  891   0.143   3.957  13.403  1.5354  0.0521  1.3008
   58MPD2    H2  892   4.485   4.026  13.588  0.1334 -0.2233 -0.5678
   58MPD2    H3  893   4.670   4.085  13.418  3.2878  0.3395  0.1899
   58MPD2     N  894   0.237   3.800  13.565  0.0314  0.5322 -0.0968
   58MPD2    H5  895   0.294   3.832  13.487  0.7552  0.0854  0.2468
   58MPD2    N1  896   4.530   3.828  13.781  0.6351  0.3933  0.0725
   58MPD2    H7  897   4.576   3.780  13.857 -1.3599  0.5991  1.4170
   59MPD2     C  898   2.630   3.401  13.145  0.2398  0.1840  0.2584
   59MPD2    C1  899   2.713   3.418  13.033  0.2526  0.8016  0.4340
   59MPD2    C2  900   2.830   3.485  13.045  0.7882  0.5955  0.0943
   59MPD2    C3  901   2.877   3.532  13.167 -0.5126  0.6584 -0.2251
   59MPD2    C4  902   2.804   3.504  13.280 -0.3850  0.2277 -0.2533
   59MPD2    C5  903   2.680   3.446  13.264 -0.4846 -0.8336  0.7586
   59MPD2     H  904   2.902   3.481  12.964 -0.3896 -1.3983 -0.8589
   59MPD2    H1  905   2.838   3.532  13.379 -1.8796  3.0928 -0.5623
   59MPD2    H2  906   2.530   3.360  13.142 -0.5462  2.2964 -1.8721
   59MPD2    H3  907   2.628   3.440  13.359 -0.9516 -1.4107  0.4730
   59MPD2     N  908   2.991   3.599  13.188 -0.4732 -0.0330 -0.0628
   59MPD2    H5  909   3.003   3.641  13.279  1.2503 -1.5508  0.3996
   59MPD2    N1  910   2.676   3.363  12.907  0.4640 -0.2575  0.6309
   59MPD2    H7  911   2.732   3.395  12.828 -3.0015 -0.0668 -1.7297
   60TCq2    C1  912   2.571   3.272  12.888 -0.0574 -0.8574  0.0318
   60TCq2    O2  913   2.500   3.214  12.971  0.1253  0.1308 -0.4664
   60TCq2    C2  914   2.547   3.240  12.752 -0.4638 -0.2156  0.1950
   60TCq2    C3  915   2.465   3.129  12.728 -0.1121  0.2118 -0.1491
   60TCq2    C4  916   2.443   3.098  12.597  0.0448 -0.0067 -0.0138
   60TCq2    C5  917   2.508   3.169  12.502 -0.7456 -0.4868  0.3643
   60TCq2    C6  918   2.580   3.278  12.524 -0.1056 -0.0902 -0.1188
   60TCq2    C7  919   2.608   3.316  12.652  0.4682  0.1605 -0.0204
   60TCq2    C8  920   2.642   3.336  12.407  0.1117 -1.0146  0.6489
   60TCq2    O4  921   2.659   3.276  12.299 -0.2672  0.1717  0.1163
   60TCq2    C9  922   2.350   2.992  12.567 -0.5979  0.3155  0.7508
   60TCq2    O5  923   2.359   2.933  12.457  0.7951 -0.1469 -0.2754
   60TCq2    O6  924   2.256   2.978  12.644  0.2372 -0.2596  0.1156
   60TCq2    H2  925   2.415   3.071  12.805 -1.4472  0.8135 -0.5562
   60TCq2    H3  926   2.479   3.141  12.401  1.9428  1.9392 -1.0761
   60TCq2    H4  927   2.665   3.405  12.674  1.2702 -0.2294 -0.5399
   61MPD2     C  928   2.042   0.211  15.796  0.5425 -0.5800  0.0910
   61MPD2    C1  929   1.995   0.325  15.726  0.0405 -0.9780  0.2199
   61MPD2    C2  930   2.044   0.349  15.602  0.5719 -0.4243  0.5336
   61MPD2    C3  931   2.122   0.258  15.531  0.0231 -0.5951  0.4031
   61MPD2    C4  932   2.174   0.156  15.599  0.3372  0.4139 -0.8967
   61MPD2    C5  933   2.130   0.132  15.728  0.1253 -0.2555  0.9189
   61MPD2     H  934   2.015   0.447  15.565  1.2731  0.1370  1.4780
   61MPD2    H1  935   2.239   0.083  15.554 -0.1018 -1.2745  1.2075
   61MPD2    H2  936   2.029   0.186  15.900 -1.1539  0.6540  0.1656
   61MPD2    H3  937   2.170   0.052  15.790  0.0532 -0.8760  0.1725
   61MPD2     N  938   2.147   0.296  15.394  0.2188  0.2415 -0.3443
   61MPD2    H5  939   2.098   0.381  15.367 -1.2468 -0.7035 -0.6676
   61MPD2    N1  940   1.909   0.423  15.780  0.3503 -0.4510  0.1860
   61MPD2    H7  941   1.873   0.490  15.713 -1.4112 -0.9161  0.6662
   62TCq2    C1  942   1.883   0.432  15.914  0.3119 -0.0706 -0.0599
   62TCq2    O2  943   1.907   0.355  16.007 -0.1266  0.3542  0.6132
   62TCq2    C2  944   1.805   0.548  15.943 -0.1650 -0.1876  0.0420
   62TCq2    C3  945   1.730   0.542  16.058  0.5082 -0.5747  0.7455
   62TCq2    C4  946   1.624   0.627  16.074 -0.6190  0.2300  0.3792
   62TCq2    C5  947   1.604   0.732  15.987  0.5428  0.6592  0.4958
   62TCq2    C6  948   1.690   0.744  15.878  0.0450 -0.1409 -0.4180
   62TCq2    C7  949   1.793   0.656  15.859  0.1138 -0.1079  0.0628
   62TCq2    C8  950   1.672   0.843  15.775 -0.3956  0.0222  0.0759
   62TCq2    O4  951   1.771   0.861  15.707 -0.1044  0.1977  0.2179
   62TCq2    C9  952   1.541   0.606  16.192  0.0173 -0.1424  0.8040
   62TCq2    O5  953   1.441   0.682  16.208 -0.1481  0.6671  0.1313
   62TCq2    O6  954   1.598   0.528  16.272  0.5870 -0.0848  0.0670
   62TCq2    H2  955   1.743   0.455  16.122  1.0025 -0.3934  0.8851
   62TCq2    H3  956   1.526   0.806  16.004  1.7977  2.4498 -1.5971
   62TCq2    H4  957   1.861   0.665  15.776 -0.0703 -0.3045 -0.1090
   63TMC2    C1  958   1.393   0.399  10.116 -0.1645  0.3769 -0.0354
   63TMC2    C2  959   1.512   0.330  10.090 -0.3348 -0.4871 -0.3263
   63TMC2    C3  960   1.602   0.407  10.013  0.4159 -0.2970 -0.2653
   63TMC2    C4  961   1.365   0.525  10.073  0.2776  0.3486  0.0284
   63TMC2    C5  962   1.461   0.596  10.001  0.4479  0.0997  0.1134
   63TMC2    C6  963   1.581   0.539   9.974 -0.5898  0.2510 -0.6465
   63TMC2     C  964   1.293   0.354  10.211 -0.2774  0.0826  0.3329
   63TMC2     O  965   1.205   0.428  10.244  0.2687 -0.0800 -0.4109
   63TMC2     H  966   1.540   0.227  10.112 -0.8071 -0.0030  2.5349
   63TMC2    H1  967   1.268   0.566  10.098  0.3307  1.4288 -1.5187
   63TMC2    H2  968   1.651   0.581   9.903  0.3957  2.1635  1.4953
   63TMC2    C7  969   1.442   0.740   9.990  0.0753 -0.0274  0.1474
   63TMC2    C8  970   1.713   0.340   9.945 -0.4422 -0.1334  0.3542
   63TMC2    O1  971   1.330   0.778  10.019 -0.1287  0.2427  0.5728
   63TMC2    O2  972   1.821   0.392   9.940 -0.0891 -0.2600  0.1643
   63TMC2    O5  973   1.683   0.206   9.932 -0.3633  0.2851 -0.3142
   63TMC2    H5  974   1.595   0.183   9.895 -0.0217 -0.8856 -0.4075
   64MPD2     C  975   1.144   0.004  10.554 -0.2474  0.5544 -0.3604
   64MPD2    C1  976   1.224   4.669  10.463  0.3249  0.0452 -0.1206
   64MPD2    C2  977   1.284   0.022  10.373 -0.3552 -0.7289 -1.0538
   64MPD2    C3  978   1.262   0.156  10.361  0.5443  0.2052 -0.0641
   64MPD2    C4  979   1.170   0.217  10.443 -0.7150  0.4727 -0.7731
   64MPD2    C5  980   1.114   0.140  10.546  0.3552  0.3014  0.0971
   64MPD2     H  981   1.361   4.703  10.309 -1.2253 -1.6349 -1.5034
   64MPD2    H1  982   1.158   0.325  10.444  0.9643  0.6541 -0.0776
   64MPD2    H2  983   1.102   4.678  10.640 -0.1160  2.1425  0.6248
   64MPD2    H3  984   1.042   0.189  10.612 -1.8772 -0.9664 -1.3885
   64MPD2     N  985   1.321   0.222  10.248  0.0287 -0.4430  0.4575
   64MPD2    H5  986   1.387   0.171  10.190  1.6471  1.7813  0.3442
   64MPD2    N1  987   1.256   4.533  10.468 -1.2738  0.1576  0.5061
   64MPD2    H7  988   1.322   4.502  10.397  0.6772  1.8497  1.5852
   65MPD2     C  989   2.388   4.472  15.947 -0.5292 -0.0298  0.3015
   65MPD2    C1  990   2.437   4.463  15.816 -0.0170  0.8293  0.1508
   65MPD2    C2  991   2.430   4.348  15.746  0.4299 -0.3971 -0.9849
   65MPD2    C3  992   2.380   4.235  15.806  0.6148  0.0302 -1.3235
   65MPD2    C4  993   2.355   4.234  15.938  0.1422  0.2112 -0.5111
   65MPD2    C5  994   2.355   4.351  16.007  0.5917 -0.3113  0.7497
   65MPD2     H  995   2.456   4.360  15.641  1.0734 -0.1933 -0.8053
   65MPD2    H1  996   2.322   4.141  15.982  2.2425  0.9801  2.7326
   65MPD2    H2  997   2.378   4.563  16.004 -0.4190 -0.1536  0.5236
   65MPD2    H3  998   2.324   4.357  16.111 -1.3311 -1.8512  0.2725
   65MPD2     N  999   2.338   4.117  15.730  0.0283 -0.7785  0.2899
   65MPD2    H5 1000   2.298   4.037  15.778 -0.6631 -1.9715 -2.2528
   65MPD2    N1 1001   2.493   4.577  15.750  0.1216  0.9269  0.1245
   65MPD2    H7 1002   2.527   4.561  15.655  0.7862 -1.7099  0.7845
   66TCq2    C1 1003   2.484   4.711  15.791  0.1645 -0.5126  0.0264
   66TCq2    O2 1004   2.421   0.028  15.890  0.1757 -0.0861 -0.4186
   66TCq2    C2 1005   2.547   0.090  15.711  0.0165 -0.7460 -0.1558
   66TCq2    C3 1006   2.627   0.052  15.608  0.6149  0.1388 -0.1212
   66TCq2    C4 1007   2.654   0.136  15.507 -0.5844 -0.2081  0.6152
   66TCq2    C5 1008   2.599   0.261  15.502  0.6915  0.0226  0.2924
   66TCq2    C6 1009   2.519   0.302  15.605 -0.4250 -0.3594  0.4212
   66TCq2    C7 1010   2.487   0.211  15.704  0.2110  0.2043 -0.4550
   66TCq2    C8 1011   2.440   0.426  15.580  0.3355  0.5539  0.6644
   66TCq2    O4 1012   2.440   0.464  15.466  0.0464 -0.1228  0.0535
   66TCq2    C9 1013   2.737   0.095  15.405 -0.5417 -0.5327 -0.4037
   66TCq2    O5 1014   2.755   0.176  15.306 -0.2175 -0.3632  0.0096
   66TCq2    O6 1015   2.762   4.701  15.385  0.1236 -0.6375  0.3805
   66TCq2    H2 1016   2.685   4.684  15.608  1.3428  0.6031 -1.4677
   66TCq2    H3 1017   2.609   0.317  15.410 -0.7511  0.0140  0.1302
   66TCq2    H4 1018   2.428   0.238  15.791  0.9046  0.8993 -0.1989
   67MPD2     C 1019   2.858   3.818  14.047  0.3653  0.1777  0.5958
   67MPD2    C1 1020   2.780   3.904  14.119  0.0875 -0.5339 -0.4258
   67MPD2    C2 1021   2.663   3.950  14.065 -0.0199 -0.1535  0.2357
   67MPD2    C3 1022   2.622   3.923  13.935 -0.5710 -0.3150  0.0004
   67MPD2    C4 1023   2.699   3.832  13.862 -0.4149  0.0453  0.0940
   67MPD2    C5 1024   2.811   3.776  13.923  0.1373  0.3616 -0.3016
   67MPD2     H 1025   2.590   4.004  14.125  1.2232  2.2348 -0.4014
   67MPD2    H1 1026   2.665   3.799  13.765  0.8023  0.0592 -0.3458
   67MPD2    H2 1027   2.945   3.765  14.083  0.6265  0.0979 -0.1687
   67MPD2    H3 1028   2.851   3.691  13.869 -0.4172 -1.1069  1.6059
   67MPD2     N 1029   2.517   4.000  13.883 -0.5041  0.3117 -0.1727
   67MPD2    H5 1030   2.469   4.066  13.943 -0.8704 -0.5262  0.4572
   67MPD2    N1 1031   2.811   3.955  14.249 -0.5103  0.4080  0.0472
   67MPD2    H7 1032   2.750   4.022  14.294 -0.6259 -0.7888  1.6782
   68TCq2    C1 1033   2.923   3.930  14.318 -0.3811 -0.3228 -0.3815
   68TCq2    O2 1034   3.015   3.854  14.296  0.0036 -0.2356 -0.0366
   68TCq2    C2 1035   2.943   4.021  14.430  0.3085  1.0456 -0.1415
   68TCq2    C3 1036   2.882   4.143  14.433 -0.3110 -0.1537  0.5496
   68TCq2    C4 1037   2.907   4.221  14.543  0.0974 -0.3701 -0.5624
   68TCq2    C5 1038   2.980   4.180  14.651 -0.1407 -0.0323  0.8320
   68TCq2    C6 1039   3.026   4.054  14.650 -0.2953 -0.8514 -0.5597
   68TCq2    C7 1040   3.016   3.976  14.539 -0.5675  0.8527 -0.0304
   68TCq2    C8 1041   3.102   4.006  14.759  0.8158  0.7243  0.4783
   68TCq2    O4 1042   3.197   3.933  14.740 -0.3470  0.5955  0.3645
   68TCq2    C9 1043   2.864   4.354  14.542  0.0680  0.1404 -0.0079
   68TCq2    O5 1044   2.907   4.431  14.629 -0.5971  0.1461  0.7383
   68TCq2    O6 1045   2.791   4.384  14.447 -0.6423 -0.2424  0.2810
   68TCq2    H2 1046   2.825   4.186  14.351  1.1704 -0.5387 -0.6751
   68TCq2    H3 1047   2.987   4.246  14.737 -0.3258  1.2541 -0.1527
   68TCq2    H4 1048   3.057   3.876  14.535  0.3882  1.1856  1.5213
   69TMC2    C1 1049   0.107   0.086  11.598  1.3037 -0.1649 -0.0156
   69TMC2    C2 1050   0.016   4.715  11.552 -0.1001  0.1603 -0.0983
   69TMC2    C3 1051   0.053   4.612  11.472 -0.0231  0.2897 -0.1208
   69TMC2    C4 1052   0.234   0.071  11.545  0.3952  0.8489  0.4263
   69TMC2    C5 1053   0.272   4.690  11.465  0.3076 -0.2007  0.4652
   69TMC2    C6 1054   0.182   4.592  11.427  0.0556  0.4724  0.4904
   69TMC2     C 1055   0.108   0.072  11.741 -0.1164 -0.2766  0.3746
   69TMC2     O 1056   0.049   4.699  11.779 -0.3860 -0.2717 -0.0283
   69TMC2     H 1057   4.634   4.722  11.576 -0.1559  1.2141 -0.6426
   69TMC2    H1 1058   0.302   0.155  11.558 -0.2665  1.3103  0.8800
   69TMC2    H2 1059   0.199   4.511  11.357  0.2442  0.6643  0.3134
   69TMC2    C7 1060   0.414   4.663  11.453  0.3246 -0.8370  0.1587
   69TMC2    C8 1061   4.710   4.494  11.512 -0.1657 -0.7170 -0.8562
   69TMC2    O1 1062   0.486   4.713  11.538 -0.2879 -0.1352 -0.8271
   69TMC2    O2 1063   4.701   4.392  11.442 -0.4369  0.1464 -0.4846
   69TMC2    O5 1064   0.018   4.488  11.636  0.1766 -0.5589  0.1515
   69TMC2    H5 1065   0.023   4.576  11.680  0.0127 -1.5865  2.2319
   70MPD2     C 1066   0.403   0.174  11.934 -0.1115 -0.5241 -0.5798
   70MPD2    C1 1067   0.276   0.118  11.916 -0.0433  0.1543 -0.1209
   70MPD2    C2 1068   0.228   0.042  12.024  0.1245  0.2632  0.2648
   70MPD2    C3 1069   0.303   0.031  12.141  0.6289  0.0965  0.3403
   70MPD2    C4 1070   0.423   0.097  12.154  0.4344  0.3334  0.1949
   70MPD2    C5 1071   0.475   0.158  12.049  0.3473  0.6408 -0.6994
   70MPD2     H 1072   0.128   4.723  12.027 -0.0839  0.6819 -0.6471
   70MPD2    H1 1073   0.484   0.084  12.243  0.9012  1.9067  0.0975
   70MPD2    H2 1074   0.442   0.229  11.850  1.4135  0.6735  0.9045
   70MPD2    H3 1075   0.579   0.187  12.058  0.2926  0.6832 -0.2356
   70MPD2     N 1076   0.268   4.677  12.251  0.4009 -0.1214  0.1718
   70MPD2    H5 1077   0.337   4.649  12.320 -1.1384  0.3937  1.9217
   70MPD2    N1 1078   0.211   0.137  11.796 -0.5230 -0.4686 -0.4872
   70MPD2    H7 1079   0.256   0.208  11.739 -0.6831  0.4560  0.5395
   71TMC2    C1 1080   0.664   0.230   1.661 -0.3579 -0.0914  0.3565
   71TMC2    C2 1081   0.676   0.124   1.753 -0.7046 -0.5496 -0.3911
   71TMC2    C3 1082   0.570   0.059   1.805 -0.4018 -0.2409  0.3782
   71TMC2    C4 1083   0.533   0.261   1.619 -0.5403 -0.2645 -0.2337
   71TMC2    C5 1084   0.426   0.201   1.686 -0.4650  0.0349 -0.8649
   71TMC2    C6 1085   0.440   0.098   1.777  0.1039  0.2147 -0.5052
   71TMC2     C 1086   0.776   0.292   1.595 -0.2011  0.0664 -0.5927
   71TMC2     O 1087   0.754   0.349   1.487 -0.1127  0.0250  0.0106
   71TMC2     H 1088   0.774   0.080   1.770 -0.5607 -0.5901 -1.3244
   71TMC2    H1 1089   0.511   0.334   1.541 -2.4552 -0.9319 -0.3112
   71TMC2    H2 1090   0.352   0.074   1.836 -0.1445  1.6048 -0.3256
   71TMC2    C7 1091   0.295   0.216   1.629  0.5911  0.4199  0.5261
   71TMC2    C8 1092   0.599   4.680   1.912  0.3175  0.2460 -0.4069
   71TMC2    O1 1093   0.199   0.179   1.694 -0.1664 -0.1182 -0.3420
   71TMC2    O2 1094   0.706   4.662   1.966 -0.2557  0.3478 -0.3480
   71TMC2    O5 1095   0.484   4.660   1.978 -0.1443 -0.2050  0.2175
   71TMC2    H5 1096   0.412   4.664   1.911 -1.5329 -0.3995  1.7000
   72MPD2     C 1097   1.265   0.455   1.576  0.8379 -0.1950  0.6253
   72MPD2    C1 1098   1.165   0.477   1.489  0.3934  0.3748 -0.3915
   72MPD2    C2 1099   1.045   0.416   1.517 -0.3939  0.5170  0.6549
   72MPD2    C3 1100   1.020   0.339   1.624  0.4940  0.2465 -0.2592
   72MPD2    C4 1101   1.127   0.314   1.705 -0.2983 -0.4011  0.1625
   72MPD2    C5 1102   1.252   0.376   1.686 -0.1095 -0.0263 -0.3196
   72MPD2     H 1103   0.975   0.427   1.435  0.9691  1.2825 -0.4043
   72MPD2    H1 1104   1.118   0.251   1.793  0.0219  1.7193  1.7056
   72MPD2    H2 1105   1.364   0.499   1.566  1.6529 -1.8921  1.2577
   72MPD2    H3 1106   1.334   0.359   1.755  1.7076  3.8459 -1.5278
   72MPD2     N 1107   0.894   0.289   1.664 -0.2933 -0.1018  0.1173
   72MPD2    H5 1108   0.890   0.252   1.758  0.2056 -1.5097 -0.4299
   72MPD2    N1 1109   1.183   0.567   1.382  0.1095  0.7284 -0.1669
   72MPD2    H7 1110   1.112   0.569   1.309 -0.2916 -0.3855  0.1861
   73TMC2    C1 1111   1.617   2.304  13.818 -0.6173  0.2269 -0.0561
   73TMC2    C2 1112   1.514   2.304  13.902  0.0293 -0.6727 -0.5324
   73TMC2    C3 1113   1.547   2.281  14.035  0.4498  1.0137  0.0625
   73TMC2    C4 1114   1.740   2.252  13.850  0.2046 -0.3846 -0.7488
   73TMC2    C5 1115   1.773   2.230  13.983  0.1925  0.8926  0.4621
   73TMC2    C6 1116   1.673   2.246  14.074 -0.0987  0.3226 -0.2934
   73TMC2     C 1117   1.640   2.432  13.749  0.2666 -0.0981  0.8525
   73TMC2     O 1118   1.757   2.443  13.713  0.4186 -0.0559  0.2166
   73TMC2     H 1119   1.420   2.350  13.876 -1.1400 -2.2618  0.8769
   73TMC2    H1 1120   1.820   2.232  13.779 -0.6310 -2.4335 -1.1209
   73TMC2    H2 1121   1.704   2.242  14.178 -1.0426  0.6418 -0.0014
   73TMC2    C7 1122   1.897   2.294  14.028  1.1956 -0.0005  0.0700
   73TMC2    C8 1123   1.452   2.201  14.110  0.8893  0.1879 -0.5745
   73TMC2    O1 1124   1.964   2.241  14.116  0.0089  0.0360  0.0397
   73TMC2    O2 1125   1.463   2.160  14.227  0.2758 -0.4157  0.2046
   73TMC2    O5 1126   1.410   2.120  14.013  0.0652 -0.4141 -0.2138
   73TMC2    H5 1127   1.432   2.150  13.922  1.0310 -0.2320  0.0800
   74MPD2     C 1128   1.537   2.915  13.587  0.6167 -0.3954 -0.2120
   74MPD2    C1 1129   1.657   2.847  13.603 -0.0186 -0.0485  0.4925
   74MPD2    C2 1130   1.661   2.712  13.651 -0.5066 -0.0939  0.9272
   74MPD2    C3 1131   1.542   2.653  13.687  0.5419  0.6320  0.4782
   74MPD2    C4 1132   1.426   2.725  13.677 -0.0652  0.3538  0.0378
   74MPD2    C5 1133   1.421   2.848  13.624 -0.2524 -0.6682 -0.7600
   74MPD2     H 1134   1.758   2.665  13.661 -1.5975 -1.4461  4.9572
   74MPD2    H1 1135   1.334   2.676  13.706  0.3149  0.2469  1.0795
   74MPD2    H2 1136   1.520   3.010  13.538  1.3001  0.5678  1.4213
   74MPD2    H3 1137   1.324   2.897  13.620 -0.4261 -1.0896 -1.7686
   74MPD2     N 1138   1.539   2.519  13.741 -0.0854 -0.1699  0.3589
   74MPD2    H5 1139   1.449   2.486  13.774 -0.1491 -0.9729 -0.6187
   74MPD2    N1 1140   1.773   2.911  13.559  0.3839 -0.6874 -0.0052
   74MPD2    H7 1141   1.764   3.003  13.516  1.5707 -1.3544 -1.6497
   75TCq2    C1 1142   2.458   3.986  13.759 -0.0414  0.1706 -0.0156
   75TCq2    O2 1143   2.499   3.942  13.653 -0.7011 -0.0099  0.2194
   75TCq2    C2 1144   2.335   4.074  13.762  0.9099  0.9479  0.6107
   75TCq2    C3 1145   2.262   4.084  13.883  0.3332 -0.0531 -0.2465
   75TCq2    C4 1146   2.133   4.132  13.873  0.0191  0.3856  0.3690
   75TCq2    C5 1147   2.069   4.156  13.752  0.3125  0.1426 -1.0233
   75TCq2    C6 1148   2.146   4.135  13.637 -0.0017  0.8858  0.1568
   75TCq2    C7 1149   2.272   4.090  13.641 -0.4149  0.7575  0.4765
   75TCq2    C8 1150   2.089   4.168  13.508 -0.3333  0.0392  0.1817
   75TCq2    O4 1151   2.145   4.143  13.403 -0.1510 -0.4659 -0.0397
   75TCq2    C9 1152   2.045   4.154  13.986 -0.3781 -0.4471 -1.1358
   75TCq2    O5 1153   1.925   4.190  13.966  0.2217 -0.2662  0.2209
   75TCq2    O6 1154   2.087   4.113  14.098 -0.0065 -0.1033  0.3676
   75TCq2    H2 1155   2.304   4.058  13.979 -1.0767  0.5564  0.5293
   75TCq2    H3 1156   1.963   4.177  13.752  0.2768 -0.0455 -0.7038
   75TCq2    H4 1157   2.322   4.070  13.547  0.2302 -0.3184  1.0525
   76MPD2     C 1158   1.604   4.236  11.512  0.3943  0.6261  0.0082
   76MPD2    C1 1159   1.482   4.216  11.578 -0.6147  0.1635 -0.5270
   76MPD2    C2 1160   1.469   4.098  11.654 -0.1787  1.0192 -0.1009
   76MPD2    C3 1161   1.576   4.014  11.673  0.4216 -0.5738 -0.5655
   76MPD2    C4 1162   1.700   4.051  11.617 -0.0107 -0.2809 -0.1302
   76MPD2    C5 1163   1.707   4.149  11.529  0.2074  0.0839  0.2531
   76MPD2     H 1164   1.376   4.068  11.701  0.2961 -2.7198 -1.5009
   76MPD2    H1 1165   1.796   4.002  11.622  1.4125  2.6317  0.6834
   76MPD2    H2 1166   1.631   4.319  11.449 -1.1408  1.5951  0.6209
   76MPD2    H3 1167   1.805   4.172  11.490  0.0954  1.7348  0.9269
   76MPD2     N 1168   1.575   3.901  11.761 -0.3120 -0.0162 -0.3088
   76MPD2    H5 1169   1.667   3.860  11.777 -0.7525 -0.8892 -0.0131
   76MPD2    N1 1170   1.374   4.309  11.578  0.0820  0.2218  0.2514
   76MPD2    H7 1171   1.299   4.287  11.642  1.6753  0.5173  2.2114
   77TCq2    C1 1172   1.468   3.858  11.840  0.0123 -0.6148 -0.0490
   77TCq2    O2 1173   1.353   3.870  11.806 -0.3535  0.0835  0.0536
   77TCq2    C2 1174   1.498   3.756  11.934  0.8261 -0.6272  0.7602
   77TCq2    C3 1175   1.399   3.671  11.973 -0.1565  0.1863 -0.2356
   77TCq2    C4 1176   1.435   3.569  12.059  0.2041  0.4557  0.4576
   77TCq2    C5 1177   1.561   3.557  12.105 -0.4903  0.8552 -0.0142
   77TCq2    C6 1178   1.655   3.654  12.068  0.0364 -0.1651  0.6314
   77TCq2    C7 1179   1.626   3.758  11.984  0.5319 -0.8944 -0.3412
   77TCq2    C8 1180   1.784   3.645  12.143 -0.5701  0.0162 -0.0783
   77TCq2    O4 1181   1.812   3.544  12.207  0.3589  0.2655  0.3435
   77TCq2    C9 1182   1.329   3.476  12.098 -0.1000  0.4177 -0.9663
   77TCq2    O5 1183   1.212   3.493  12.054  1.0227  0.5664  0.2868
   77TCq2    O6 1184   1.359   3.387  12.182  0.2073 -0.3354 -0.7365
   77TCq2    H2 1185   1.304   3.664  11.922 -1.9754  0.6765  3.0992
   77TCq2    H3 1186   1.580   3.476  12.175 -1.4059  0.2315 -0.4893
   77TCq2    H4 1187   1.701   3.830  11.955  2.8101 -2.1648  2.4697
   78MPD1     C 1188   2.671   3.757   1.571 -0.2224  0.6213 -0.2071
   78MPD1    C1 1189   2.671   3.666   1.678  0.7467  0.3130  0.9456
   78MPD1    C2 1190   2.788   3.618   1.728  0.4961  0.0999 -0.4739
   78MPD1    C3 1191   2.908   3.672   1.692  0.6639  0.1149  1.1466
   78MPD1    C4 1192   2.908   3.776   1.595  0.1506 -0.1729  0.1694
   78MPD1    C5 1193   2.788   3.816   1.534 -0.5768 -0.2992 -0.3740
   78MPD1     H 1194   2.778   3.542   1.804  1.7694  0.5900  0.1734
   78MPD1    H1 1195   3.000   3.828   1.572  0.9525 -1.5306  0.3580
   78MPD1    H2 1196   2.583   3.794   1.520 -0.1816  1.4901  0.3379
   78MPD1    H3 1197   2.782   3.889   1.454  0.3394 -1.4934 -1.5208
   78MPD1     N 1198   3.030   3.631   1.745  0.8809  0.1100 -0.2142
   78MPD1    H5 1199   3.108   3.692   1.721  0.8031 -0.1215 -1.0221
   78MPD1    N1 1200   2.546   3.607   1.704  0.1195 -0.0492 -0.6670
   78MPD1    H6 1201   2.471   3.659   1.660 -0.8082 -0.0965  0.8554
   78MPD1    H7 1202   2.527   3.585   1.802 -1.3749  0.5852 -0.8189
   79TCq2    C1 1203   3.054   3.544   1.845 -0.6490 -0.5581  0.1665
   79TCq2    O2 1204   2.970   3.473   1.895 -0.3967 -0.1487 -0.2295
   79TCq2    C2 1205   3.192   3.540   1.892 -0.2191  0.9101 -0.5407
   79TCq2    C3 1206   3.237   3.432   1.956  0.0907 -0.0394  0.1100
   79TCq2    C4 1207   3.371   3.428   2.000  0.5822  0.8492  0.3711
   79TCq2    C5 1208   3.455   3.527   1.972  0.4718 -0.3431 -0.0049
   79TCq2    C6 1209   3.400   3.643   1.912 -0.6177 -0.1824 -0.5272
   79TCq2    C7 1210   3.270   3.644   1.865 -0.1745  0.2958  0.0501
   79TCq2    C8 1211   3.468   3.774   1.904  0.1223 -0.3205  0.5066
   79TCq2    O4 1212   3.398   3.871   1.878  0.4086 -0.1996 -0.1710
   79TCq2    C9 1213   3.424   3.311   2.072  0.5064 -0.6792 -0.7842
   79TCq2    O5 1214   3.336   3.221   2.088  0.2097 -0.5858  0.2030
   79TCq2    O6 1215   3.537   3.312   2.119  0.4077 -0.2503  0.1342
   79TCq2    H2 1216   3.175   3.347   1.982 -1.3977  1.2825  0.8948
   79TCq2    H3 1217   3.557   3.518   2.005  0.2719 -0.7064  0.5150
   79TCq2    H4 1218   3.223   3.740   1.844 -0.1278  0.5698  1.1533
   80MPD2     C 1219   0.526   3.912  12.102 -0.1397  0.8420 -0.0872
   80MPD2    C1 1220   0.404   3.940  12.047 -0.1460  0.6804  0.0762
   80MPD2    C2 1221   0.308   3.979  12.133  0.2894 -0.1337 -0.1727
   80MPD2    C3 1222   0.316   3.986  12.272  0.1360  0.1702  0.1465
   80MPD2    C4 1223   0.439   3.957  12.321  0.0452 -0.1232 -0.1448
   80MPD2    C5 1224   0.547   3.919  12.242  0.1446 -0.1797 -0.1033
   80MPD2     H 1225   0.215   4.016  12.090 -1.0922 -0.1802  2.7595
   80MPD2    H1 1226   0.452   3.967  12.428  0.3444 -1.3996 -0.0576
   80MPD2    H2 1227   0.610   3.887  12.038  0.9648  1.0678  1.2473
   80MPD2    H3 1228   0.638   3.890  12.292  0.0830 -2.1697 -1.1310
   80MPD2     N 1229   0.215   4.044  12.348 -0.2985  0.6713  0.3061
   80MPD2    H5 1230   0.236   4.049  12.447  1.1818  0.8898 -0.0148
   80MPD2    N1 1231   0.370   3.923  11.908 -0.2489 -0.4758 -0.4892
   80MPD2    H7 1232   0.271   3.932  11.889 -0.3475 -0.5734 -0.0119
   81TCq2    C1 1233   0.452   3.884  11.799 -0.1368 -0.1882 -0.8186
   81TCq2    O2 1234   0.575   3.884  11.800 -0.2307  0.0802 -0.1309
   81TCq2    C2 1235   0.370   3.843  11.683  0.7359 -0.0236 -0.0029
   81TCq2    C3 1236   0.450   3.823  11.572 -0.0003  0.6162 -0.0214
   81TCq2    C4 1237   0.403   3.734  11.480  0.0944 -0.2404  0.0241
   81TCq2    C5 1238   0.282   3.675  11.485  0.0661  0.1223  0.2148
   81TCq2    C6 1239   0.211   3.700  11.600  0.2938  0.2326 -0.0453
   81TCq2    C7 1240   0.253   3.776  11.703  0.1045  0.8455 -0.0322
   81TCq2    C8 1241   0.087   3.629  11.613  0.4232  0.0941  0.0218
   81TCq2    O4 1242   0.038   3.579  11.513 -0.2270  0.5817 -0.5966
   81TCq2    C9 1243   0.493   3.712  11.362  0.5225 -0.2484 -0.2022
   81TCq2    O5 1244   0.466   3.619  11.278 -0.1823 -0.1390 -0.3870
   81TCq2    O6 1245   0.607   3.767  11.369 -0.2670  0.3175 -0.2933
   81TCq2    H2 1246   0.544   3.875  11.556  0.0584  0.0140 -1.6073
   81TCq2    H3 1247   0.249   3.609  11.405 -1.4321  2.2892 -0.9384
   81TCq2    H4 1248   0.192   3.794  11.791  0.5436  1.7970  0.0742
   82MPD2     C 1249   3.275   3.677  10.304  0.0448  0.0777 -0.6180
   82MPD2    C1 1250   3.199   3.565  10.276  0.1846 -0.4084  0.3773
   82MPD2    C2 1251   3.217   3.451  10.350 -0.9570  0.0792  0.0474
   82MPD2    C3 1252   3.311   3.442  10.448  0.3857  0.3536 -0.0194
   82MPD2    C4 1253   3.382   3.557  10.478 -0.4226 -0.3825 -0.1101
   82MPD2    C5 1254   3.358   3.673  10.410  0.0285 -0.1891  0.3206
   82MPD2     H 1255   3.164   3.360  10.323  1.0591 -1.1987  0.4047
   82MPD2    H1 1256   3.438   3.562  10.570 -0.1418  0.2108 -0.3062
   82MPD2    H2 1257   3.256   3.772  10.256  0.8722  0.4973 -0.1195
   82MPD2    H3 1258   3.397   3.769  10.445 -1.3754  0.2851  0.5954
   82MPD2     N 1259   3.332   3.323  10.524  0.4555  0.3301 -0.1155
   82MPD2    H5 1260   3.386   3.344  10.607  0.2425 -0.5531  0.2480
   82MPD2    N1 1261   3.094   3.594  10.188 -0.2431  1.1552  0.1004
   82MPD2    H7 1262   3.103   3.682  10.137 -0.4482  0.5960 -0.9031
   83TCq2    C1 1263   3.280   3.196  10.494  0.1975 -0.1288  0.1491
   83TCq2    O2 1264   3.206   3.154  10.407  0.2899  0.3796  0.3602
   83TCq2    C2 1265   3.307   3.100  10.601 -0.0225  0.0834 -0.1002
   83TCq2    C3 1266   3.423   3.108  10.666 -0.4716 -0.1014 -0.8819
   83TCq2    C4 1267   3.438   3.037  10.778  0.4537  0.1392 -0.1433
   83TCq2    C5 1268   3.338   2.977  10.840  0.4491 -0.0122  0.0898
   83TCq2    C6 1269   3.227   2.953  10.767  0.5855  0.0695  0.4938
   83TCq2    C7 1270   3.202   3.017  10.648  0.4520  0.0911 -0.0088
   83TCq2    C8 1271   3.133   2.862  10.830  0.0930  0.2611 -0.2715
   83TCq2    O4 1272   3.142   2.865  10.953  0.3316 -0.3077 -0.5278
   83TCq2    C9 1273   3.562   3.048  10.843 -0.7908 -0.8545 -0.7811
   83TCq2    O5 1274   3.564   3.039  10.968 -0.7842 -0.6812  0.4705
   83TCq2    O6 1275   3.662   3.070  10.772 -0.0266  0.0776 -0.2725
   83TCq2    H2 1276   3.503   3.172  10.630  0.0878 -0.8676 -1.0214
   83TCq2    H3 1277   3.367   2.927  10.932  0.3103  1.2887  0.8551
   83TCq2    H4 1278   3.118   3.001  10.581  2.2065  0.7726 -2.3344
   84TCq2    C1 1279   4.387   2.092  10.395  0.3626  0.5996 -0.6867
   84TCq2    O2 1280   4.440   2.030  10.301  0.2145  0.1673 -0.1393
   84TCq2    C2 1281   4.272   2.023  10.461  0.5855  0.4051  0.2972
   84TCq2    C3 1282   4.243   1.899  10.420  0.0557 -1.4868 -0.1582
   84TCq2    C4 1283   4.145   1.831  10.484 -0.2396  0.0443 -0.2353
   84TCq2    C5 1284   4.074   1.878  10.592 -0.0653 -0.1984  0.0220
   84TCq2    C6 1285   4.107   2.005  10.636  0.3608 -0.3431 -0.1719
   84TCq2    C7 1286   4.199   2.077  10.568 -0.1410  0.7953 -0.0260
   84TCq2    C8 1287   4.044   2.067  10.755  0.2749  0.5406 -0.4027
   84TCq2    O4 1288   4.103   2.170  10.787  0.2868 -0.2257  0.0192
   84TCq2    C9 1289   4.090   1.716  10.414 -0.4937  0.0570 -0.9513
   84TCq2    O5 1290   3.976   1.672  10.454  0.6340 -0.1502  0.0447
   84TCq2    O6 1291   4.150   1.672  10.313 -0.3353  0.0285 -0.5680
   84TCq2    H2 1292   4.283   1.849  10.333 -1.0011 -0.7017 -1.1057
   84TCq2    H3 1293   3.999   1.816  10.638  1.9029 -1.9525  0.8512
   84TCq2    H4 1294   4.226   2.174  10.606 -0.8852  0.1821  2.0534
   85MPD2     C 1295   4.366   1.027  16.091 -0.7030 -0.9906 -0.5039
   85MPD2    C1 1296   4.389   0.958  15.974  0.4963  1.0096  0.0421
   85MPD2    C2 1297   4.439   1.025  15.867 -0.4291  0.2560  0.0267
   85MPD2    C3 1298   4.459   1.164  15.862  0.2018  0.6359  0.5513
   85MPD2    C4 1299   4.429   1.232  15.980 -0.4339  0.1722  0.1284
   85MPD2    C5 1300   4.387   1.163  16.095  0.4099  0.1982  0.5715
   85MPD2     H 1301   4.462   0.976  15.773 -1.1291 -1.7002  0.8499
   85MPD2    H1 1302   4.442   1.338  15.998  2.2937  0.0679 -1.1926
   85MPD2    H2 1303   4.333   0.979  16.183 -1.3825  1.7474  0.7128
   85MPD2    H3 1304   4.373   1.211  16.190  0.8015 -0.7556  1.1127
   85MPD2     N 1305   4.494   1.231  15.736 -0.0831  0.2442  1.0610
   85MPD2    H5 1306   4.527   1.175  15.659 -0.8237  0.2891  0.7118
   85MPD2    N1 1307   4.361   0.819  15.966 -0.2123 -0.2257  0.5146
   85MPD2    H7 1308   4.395   0.776  15.880 -0.7524  2.0064 -0.8054
   86TCq2    C1 1309   4.523   1.367  15.721 -0.1380 -0.2506 -0.4180
   86TCq2    O2 1310   4.515   1.458  15.803  0.2247  0.0117 -0.3983
   86TCq2    C2 1311   4.552   1.409  15.583  0.2663 -0.5790  1.0666
   86TCq2    C3 1312   4.621   1.522  15.584  0.4365 -0.7306 -0.1340
   86TCq2    C4 1313   4.709   1.531  15.477 -0.1001 -0.9475 -1.2037
   86TCq2    C5 1314   0.012   1.431  15.390 -0.1563  0.3649 -1.0194
   86TCq2    C6 1315   4.665   1.322  15.402  0.1117  0.1093  0.3059
   86TCq2    C7 1316   4.561   1.313  15.491 -0.2124  0.2141 -0.3741
   86TCq2    C8 1317   4.697   1.217  15.317  0.2201  0.0321 -0.0358
   86TCq2    O4 1318   0.084   1.193  15.276  0.1793  0.5328  0.2814
   86TCq2    C9 1319   0.053   1.655  15.471  0.3643  0.1159  0.3445
   86TCq2    O5 1320   0.172   1.651  15.433 -0.0523 -0.0557 -0.2027
   86TCq2    O6 1321   4.721   1.748  15.528 -0.0576 -0.4167 -0.3000
   86TCq2    H2 1322   4.619   1.603  15.656  2.6735 -0.9155  0.1163
   86TCq2    H3 1323   0.087   1.431  15.313  1.5790 -2.0354  0.6744
   86TCq2    H4 1324   4.518   1.214  15.496  0.2258  0.0505  0.1226
   87MPD2     C 1325   2.201   3.822   0.685  0.6334  1.0781  0.6646
   87MPD2    C1 1326   2.178   3.936   0.763  0.3490 -0.4156  0.0403
   87MPD2    C2 1327   2.063   4.002   0.751  0.1035  0.3935 -0.0717
   87MPD2    C3 1328   1.962   3.958   0.663  0.0033 -0.2341 -0.2528
   87MPD2    C4 1329   1.983   3.843   0.591 -0.2865  0.4365 -0.1106
   87MPD2    C5 1330   2.103   3.781   0.600  0.1681 -0.3356  0.4580
   87MPD2     H 1331   2.045   4.092   0.810  0.1215 -0.9701  1.9967
   87MPD2    H1 1332   1.899   3.795   0.542  1.6916 -2.1987 -0.9074
   87MPD2    H2 1333   2.295   3.767   0.688  0.3401  0.5333 -0.1443
   87MPD2    H3 1334   2.124   3.690   0.545  1.7914  0.2406  0.1296
   87MPD2     N 1335   1.834   4.018   0.649  0.2254  0.2800  0.4518
   87MPD2    H5 1336   1.771   3.971   0.584  0.9734  1.0906 -0.8515
   87MPD2    N1 1337   2.284   3.975   0.851 -0.2144  0.4702  0.4942
   87MPD2    H7 1338   2.367   3.919   0.833 -0.0050  0.3059  2.0012
   88TCq2    C1 1339   2.285   4.070   0.956 -0.4761 -0.6699 -0.4826
   88TCq2    O2 1340   2.197   4.151   0.977 -0.2245  0.0023  0.3365
   88TCq2    C2 1341   2.408   4.083   1.023  0.0958  0.4262  0.5737
   88TCq2    C3 1342   2.399   4.168   1.127  0.3738  0.2706  0.7274
   88TCq2    C4 1343   2.517   4.221   1.177 -0.0968  0.0251  0.5641
   88TCq2    C5 1344   2.630   4.205   1.110 -0.5120 -0.2849 -0.5443
   88TCq2    C6 1345   2.633   4.125   1.003  0.5705 -0.7967  0.4034
   88TCq2    C7 1346   2.520   4.071   0.951 -0.2928  0.6959  0.1043
   88TCq2    C8 1347   2.749   4.136   0.917 -0.2009 -0.0819  0.7767
   88TCq2    O4 1348   2.727   4.124   0.799  0.2573 -0.5211  0.0392
   88TCq2    C9 1349   2.499   4.311   1.284 -0.2295  0.2531 -0.2301
   88TCq2    O5 1350   2.382   4.355   1.307  0.5895  0.0135 -0.4332
   88TCq2    O6 1351   2.603   4.340   1.345 -0.2151 -0.5162 -0.0458
   88TCq2    H2 1352   2.308   4.175   1.186  0.9792  2.3789  1.4063
   88TCq2    H3 1353   2.713   4.255   1.159  0.8736 -2.0040 -1.1279
   88TCq2    H4 1354   2.524   4.019   0.856 -0.1718  2.8575 -1.0718
   89MPD2     C 1355   2.197   1.929   1.764  0.1375  0.9261  0.2246
   89MPD2    C1 1356   2.117   1.924   1.646 -0.3085 -0.7797 -0.6704
   89MPD2    C2 1357   2.172   1.866   1.535 -0.4151 -0.0380 -0.3648
   89MPD2    C3 1358   2.310   1.826   1.535  0.8670 -0.0234 -0.2007
   89MPD2    C4 1359   2.380   1.837   1.652  0.2552 -0.7026  0.9995
   89MPD2    C5 1360   2.330   1.891   1.760 -0.5585 -0.4635  0.1548
   89MPD2     H 1361   2.114   1.844   1.446 -1.9313  4.1082 -0.3573
   89MPD2    H1 1362   2.486   1.814   1.657  0.2845 -1.3189 -2.7642
   89MPD2    H2 1363   2.159   1.969   1.858 -0.5103  0.6215  0.0920
   89MPD2    H3 1364   2.394   1.906   1.845 -0.1243 -1.1604 -0.0476
   89MPD2     N 1365   2.364   1.787   1.415  0.3292  0.1051 -0.5885
   89MPD2    H5 1366   2.305   1.797   1.333 -0.3849 -2.3540 -0.3535
   89MPD2    N1 1367   1.979   1.952   1.642  0.0980  0.1389 -0.2516
   89MPD2    H7 1368   1.930   1.949   1.553 -0.9714  0.0743  0.3451
   90TCq2    C1 1369   2.490   1.729   1.398 -0.2267  1.0114 -0.0749
   90TCq2    O2 1370   2.562   1.671   1.477  0.2521  0.5378  0.4450
   90TCq2    C2 1371   2.536   1.729   1.262 -0.6017 -0.2754 -0.5452
   90TCq2    C3 1372   2.636   1.644   1.225  0.1258  1.1603  0.3272
   90TCq2    C4 1373   2.693   1.658   1.098 -0.1204  0.1978  0.3517
   90TCq2    C5 1374   2.654   1.758   1.012  0.6419 -0.3097  0.4054
   90TCq2    C6 1375   2.550   1.835   1.054 -0.2050 -0.1941 -0.3542
   90TCq2    C7 1376   2.490   1.819   1.175 -0.4023  0.4145 -0.8786
   90TCq2    C8 1377   2.519   1.961   0.983 -1.0755 -0.0450 -1.0767
   90TCq2    O4 1378   2.441   2.041   1.038  0.3102 -0.1426 -0.1360
   90TCq2    C9 1379   2.800   1.572   1.063  0.1739 -0.1172  0.2864
   90TCq2    O5 1380   2.847   1.502   1.160 -0.6249 -0.1878  0.1513
   90TCq2    O6 1381   2.864   1.615   0.966  0.3811  0.2499  0.6045
   90TCq2    H2 1382   2.658   1.562   1.293  0.3220 -1.1985 -2.5666
   90TCq2    H3 1383   2.699   1.765   0.913 -3.5241  0.8098 -1.3941
   90TCq2    H4 1384   2.399   1.875   1.195  0.2547  1.3952 -0.6423
   91TMC2    C1 1385   0.110   2.234  16.562  0.4893 -0.4687 -0.2341
   91TMC2    C2 1386   0.151   2.362  16.590 -0.3676  0.0026  0.5071
   91TMC2    C3 1387   0.094   2.448  16.680  0.3747  0.6392 -0.4717
   91TMC2    C4 1388   0.006   2.188  16.633 -0.1453 -0.1643 -1.0660
   91TMC2    C5 1389   4.673   2.272  16.728 -0.0100 -0.2248  0.1107
   91TMC2    C6 1390   4.712   2.402  16.753 -0.4121  0.4076  0.3832
   91TMC2     C 1391   0.194   2.131  16.503  0.3599 -0.0212  0.2370
   91TMC2     O 1392   0.155   2.015  16.529 -0.4372  0.5227  0.0095
   91TMC2     H 1393   0.239   2.397  16.537 -0.8253 -1.9791 -1.5641
   91TMC2    H1 1394   4.685   2.090  16.623 -0.6762 -0.2490  2.2865
   91TMC2    H2 1395   4.665   2.458  16.833 -1.4066  1.5022 -0.9745
   91TMC2    C7 1396   4.544   2.232  16.790 -0.7500 -0.3432 -0.4772
   91TMC2    C8 1397   0.160   2.578  16.707 -0.3500  0.2380 -0.0693
   91TMC2    O1 1398   4.537   2.253  16.911  0.0733  0.2813 -0.4080
   91TMC2    O2 1399   0.277   2.595  16.677 -0.2224 -0.1017  0.5965
   91TMC2    O5 1400   0.050   2.637  16.649  0.2856 -0.3259  0.2993
   91TMC2    H5 1401   4.685   2.602  16.673 -0.6194  1.3174 -0.6447
   92MPD2     C 1402   0.376   1.954  16.371  0.0479 -0.1991 -0.3691
   92MPD2    C1 1403   0.394   2.092  16.371 -0.0472 -0.1797 -0.5850
   92MPD2    C2 1404   0.494   2.159  16.298  0.0985  0.3610  1.0147
   92MPD2    C3 1405   0.581   2.081  16.221 -0.1382  0.1785  0.3341
   92MPD2    C4 1406   0.570   1.939  16.231  0.5139  0.0442  0.4873
   92MPD2    C5 1407   0.469   1.879  16.302 -0.1767  0.2990 -0.3191
   92MPD2     H 1408   0.505   2.267  16.301 -1.2003  0.5941 -2.2042
   92MPD2    H1 1409   0.646   1.887  16.174  1.1534  1.9746 -0.4276
   92MPD2    H2 1410   0.299   1.897  16.422 -0.1395 -0.1055 -0.5496
   92MPD2    H3 1411   0.465   1.771  16.306 -0.2723  0.2505 -1.5259
   92MPD2     N 1412   0.674   2.140  16.129  0.1166 -1.0571  0.4646
   92MPD2    H5 1413   0.671   2.241  16.142  1.9718 -0.7088 -1.8876
   92MPD2    N1 1414   0.309   2.180  16.434 -0.3103 -0.1865 -0.1966
   92MPD2    H7 1415   0.319   2.279  16.417 -0.1384 -0.4140 -1.4955
   93MPD2     C 1416   1.447   1.821  13.429 -0.1777  0.3114  0.0318
   93MPD2    C1 1417   1.448   1.714  13.515 -0.5918 -0.1259  0.4120
   93MPD2    C2 1418   1.338   1.635  13.522 -0.1339 -0.3761 -0.2088
   93MPD2    C3 1419   1.224   1.663  13.449 -0.5584  0.1274  0.1768
   93MPD2    C4 1420   1.221   1.773  13.364  0.0260  0.2717 -0.7393
   93MPD2    C5 1421   1.334   1.857  13.365  0.4685  0.7898 -0.3935
   93MPD2     H 1422   1.348   1.548  13.586 -0.4244  0.2751  0.7285
   93MPD2    H1 1423   1.134   1.797  13.304 -1.0478 -0.8312  0.3813
   93MPD2    H2 1424   1.529   1.891  13.426  0.2540 -0.0714  2.3282
   93MPD2    H3 1425   1.335   1.945  13.301  1.0473  0.8063 -0.3583
   93MPD2     N 1426   1.108   1.590  13.455  0.5496  0.2666  0.0577
   93MPD2    H5 1427   1.032   1.615  13.393 -0.3215  0.8198  1.3399
   93MPD2    N1 1428   1.563   1.675  13.588  0.2601  0.4520  0.0874
   93MPD2    H7 1429   1.548   1.606  13.661 -0.5875 -0.7461 -1.2067
   94TCq2    C1 1430   1.681   1.734  13.570 -0.2029  0.2641 -1.1355
   94TCq2    O2 1431   1.720   1.817  13.488  0.1038 -0.0309  0.0127
   94TCq2    C2 1432   1.787   1.674  13.651  0.5259 -0.6065  1.1987
   94TCq2    C3 1433   1.768   1.581  13.751 -0.5829 -0.4874  1.0805
   94TCq2    C4 1434   1.870   1.513  13.806  1.0439  0.1709  0.9866
   94TCq2    C5 1435   1.998   1.545  13.773  0.1077 -0.3900 -0.4061
   94TCq2    C6 1436   2.020   1.636  13.673  0.4682  0.2045  0.4043
   94TCq2    C7 1437   1.917   1.702  13.610 -0.2312  0.1565  0.0061
   94TCq2    C8 1438   2.158   1.668  13.638  0.1097 -0.0550  0.8571
   94TCq2    O4 1439   2.243   1.612  13.706 -0.7172 -0.3593  0.5369
   94TCq2    C9 1440   1.836   1.421  13.912 -0.1620  0.0174 -1.0716
   94TCq2    O5 1441   1.710   1.398  13.925 -0.5121 -0.1956  0.6049
   94TCq2    O6 1442   1.917   1.390  14.003 -0.7467  0.5050 -0.2751
   94TCq2    H2 1443   1.681   1.586  13.815 -1.4491 -0.2776 -0.1113
   94TCq2    H3 1444   2.076   1.495  13.829  1.6997  2.3055 -0.2396
   94TCq2    H4 1445   1.931   1.785  13.542 -0.5744 -0.0217 -0.2832
   95TMC2    C1 1446   1.491   3.877  16.089 -0.0092 -0.3489  0.4567
   95TMC2    C2 1447   1.416   3.776  16.149 -0.2745  0.1688  0.4311
   95TMC2    C3 1448   1.340   3.820  16.261 -0.0380 -0.7524 -0.7414
   95TMC2    C4 1449   1.511   3.997  16.145 -0.2780  0.1144  0.0146
   95TMC2    C5 1450   1.430   4.038  16.252 -0.8333 -0.2816 -0.8550
   95TMC2    C6 1451   1.346   3.950  16.309 -0.1835 -0.0907  0.5084
   95TMC2     C 1452   1.570   3.856  15.969 -1.4733  0.2801  0.2386
   95TMC2     O 1453   1.651   3.942  15.935 -0.3307  0.1412  0.1096
   95TMC2     H 1454   1.406   3.676  16.109 -0.5257  0.3715 -0.0146
   95TMC2    H1 1455   1.585   4.062  16.100 -1.4455  0.5736 -1.2668
   95TMC2    H2 1456   1.286   3.980  16.395  0.4682  0.1104  0.9004
   95TMC2    C7 1457   1.429   4.178  16.290  0.5195 -0.1366  0.5355
   95TMC2    C8 1458   1.274   3.703  16.327 -0.1310 -0.6906 -0.4915
   95TMC2    O1 1459   1.477   4.253  16.201  0.5737  0.0060 -0.0821
   95TMC2    O2 1460   1.288   3.589  16.287 -0.3623 -0.1519 -0.2420
   95TMC2    O5 1461   1.174   3.756  16.404 -0.3370 -0.3362  0.7603
   95TMC2    H5 1462   1.178   3.853  16.417  2.4834 -0.3029 -0.1938
   96MPD2     C 1463   1.811   3.523  15.660 -0.4628  0.2452 -0.4189
   96MPD2    C1 1464   1.832   3.656  15.663 -0.1180  0.0491  0.0112
   96MPD2    C2 1465   1.746   3.723  15.747 -0.6069 -0.9569  0.3021
   96MPD2    C3 1466   1.647   3.662  15.824 -0.1643 -0.6756  0.0844
   96MPD2    C4 1467   1.630   3.523  15.807  0.6893 -0.2841  0.3097
   96MPD2    C5 1468   1.703   3.456  15.723 -0.5167  0.2356 -0.2552
   96MPD2     H 1469   1.745   3.831  15.747 -2.8080 -0.9684  2.0211
   96MPD2    H1 1470   1.555   3.473  15.867  0.0814  0.2567  0.0046
   96MPD2    H2 1471   1.878   3.463  15.600  1.0833  1.7375 -0.1765
   96MPD2    H3 1472   1.697   3.348  15.713 -1.7042  0.3359 -0.5899
   96MPD2     N 1473   1.566   3.723  15.924 -0.5098 -0.2599  0.1149
   96MPD2    H5 1474   1.490   3.665  15.956 -0.7000  0.5798  1.1657
   96MPD2    N1 1475   1.936   3.718  15.588 -0.0537  0.4584 -0.0992
   96MPD2    H7 1476   1.980   3.654  15.523  0.0886 -1.7192  2.1668
   97MPD2     C 1477   3.985   0.869   0.258  0.5280  0.0347 -0.3595
   97MPD2    C1 1478   3.872   0.942   0.287  0.0280  0.3170 -0.3924
   97MPD2    C2 1479   3.868   1.072   0.239 -0.0633 -0.2627 -0.2174
   97MPD2    C3 1480   3.976   1.121   0.169  0.3068 -0.0568  0.1553
   97MPD2    C4 1481   4.077   1.034   0.125  0.4249 -0.3437  0.1706
   97MPD2    C5 1482   4.083   0.909   0.176  0.0111  0.3172 -0.1950
   97MPD2     H 1483   3.786   1.136   0.269 -0.6437 -1.0587 -0.1159
   97MPD2    H1 1484   4.166   1.070   0.074  0.2731 -0.3057 -0.0706
   97MPD2    H2 1485   3.996   0.765   0.287 -0.3270 -0.4558 -1.7738
   97MPD2    H3 1486   4.168   0.846   0.150 -0.6100 -0.6423  0.1344
   97MPD2     N 1487   3.973   1.251   0.113  0.0095 -0.0108  0.4407
   97MPD2    H5 1488   4.050   1.280   0.054 -0.5011  1.3849  0.4642
   97MPD2    N1 1489   3.777   0.889   0.384 -0.2667 -0.2655  0.1174
   97MPD2    H7 1490   3.794   0.801   0.432  2.2065  0.8888  1.3536
   98TCq2    C1 1491   3.881   1.348   0.145 -0.2399  0.4724  0.0670
   98TCq2    O2 1492   3.782   1.350   0.218 -0.4661  0.3828 -0.0288
   98TCq2    C2 1493   3.912   1.475   0.081  0.1008  0.4011  0.0818
   98TCq2    C3 1494   3.806   1.556   0.055 -0.5291  0.3819 -1.3552
   98TCq2    C4 1495   3.824   1.680   0.024  0.1557  0.9446 -0.0166
   98TCq2    C5 1496   3.948   1.740   0.029 -0.0223 -0.1586 -0.6078
   98TCq2    C6 1497   4.059   1.662   0.054 -0.6983  0.4915  0.5241
   98TCq2    C7 1498   4.037   1.531   0.092  0.5730  0.7803 -1.2441
   98TCq2    C8 1499   4.189   1.714   0.048  0.8602 -0.2966 -0.1890
   98TCq2    O4 1500   4.284   1.637   0.064 -0.1208 -0.3127  0.0417
   98TCq2    C9 1501   3.710   1.762  17.691 -0.6175  0.4545  0.5700
   98TCq2    O5 1502   3.728   1.884  17.677  0.5149  0.1533  0.1752
   98TCq2    O6 1503   3.599   1.704   0.004 -0.0925  0.4318 -0.1730
   98TCq2    H2 1504   3.706   1.515   0.046 -0.3044 -0.8982  1.8917
   98TCq2    H3 1505   3.953   1.846   0.004 -0.8480  0.2247  0.8123
   98TCq2    H4 1506   4.121   1.471   0.126 -0.8703 -0.4197  0.1882
   99MPD2     C 1507   2.780   3.636   0.495 -0.1909  0.3557  0.4402
   99MPD2    C1 1508   2.720   3.538   0.571  0.0299  0.0618  0.4180
   99MPD2    C2 1509   2.593   3.500   0.535 -0.7583 -0.1033 -0.8816
   99MPD2    C3 1510   2.515   3.560   0.435  0.8455  0.6377 -0.3689
   99MPD2    C4 1511   2.578   3.658   0.357 -0.0500  0.2035 -0.0175
   99MPD2    C5 1512   2.712   3.688   0.387  0.6301 -0.1902  0.5221
   99MPD2     H 1513   2.552   3.428   0.606  0.0105 -0.3201 -0.6543
   99MPD2    H1 1514   2.534   3.708   0.272 -1.4143  1.2173  1.2718
   99MPD2    H2 1515   2.882   3.673   0.500  0.1281 -0.7076  1.6157
   99MPD2    H3 1516   2.762   3.764   0.328  3.3507 -2.7687 -0.4345
   99MPD2     N 1517   2.385   3.507   0.415 -0.4132  0.3885  0.5136
   99MPD2    H5 1518   2.360   3.425   0.470  1.2322 -0.8620 -0.5706
   99MPD2    N1 1519   2.785   3.477   0.685  0.6155 -0.0271 -0.0469
   99MPD2    H7 1520   2.730   3.411   0.738  2.0877 -0.5787  0.7905
  100TCq2    C1 1521   2.917   3.491   0.710 -0.4193 -0.5466 -0.1160
  100TCq2    O2 1522   3.010   3.524   0.635  0.0547  0.7630  0.3360
  100TCq2    C2 1523   2.946   3.449   0.848 -0.3644  0.4344 -0.4963
  100TCq2    C3 1524   3.078   3.427   0.876 -0.5659  0.2434 -0.4851
  100TCq2    C4 1525   3.110   3.404   1.012  0.1871  0.1162 -0.4124
  100TCq2    C5 1526   3.014   3.395   1.106 -0.1691 -0.0898 -0.3993
  100TCq2    C6 1527   2.879   3.408   1.069  0.3256  1.0128 -0.2687
  100TCq2    C7 1528   2.848   3.447   0.941 -1.0839 -0.1973  0.3909
  100TCq2    C8 1529   2.782   3.425   1.169  0.2844 -0.5730 -0.4198
  100TCq2    O4 1530   2.818   3.485   1.271  0.0176 -0.4956 -0.1727
  100TCq2    C9 1531   3.241   3.384   1.039  0.7663 -0.0652  1.0687
  100TCq2    O5 1532   3.322   3.423   0.958  0.0637 -0.2152 -0.2955
  100TCq2    O6 1533   3.264   3.315   1.147 -0.4184 -0.8574 -0.2768
  100TCq2    H2 1534   3.158   3.454   0.809  0.4958  1.7612  1.3914
  100TCq2    H3 1535   3.044   3.380   1.209  2.1199  0.9160 -0.9405
  100TCq2    H4 1536   2.755   3.487   0.904 -1.1675 -0.3843  0.3972
  101MPD2     C 1537   3.837   4.067  12.713  0.4560 -0.2388 -0.7559
  101MPD2    C1 1538   3.761   4.157  12.783  0.3699 -0.6417  0.4694
  101MPD2    C2 1539   3.676   4.111  12.888 -0.2422 -0.5171 -0.2335
  101MPD2    C3 1540   3.654   3.973  12.909 -0.4732  0.6871 -0.6246
  101MPD2    C4 1541   3.735   3.882  12.841 -0.5886  0.2896 -0.1122
  101MPD2    C5 1542   3.820   3.934  12.740 -0.3853 -0.4213  0.5219
  101MPD2     H 1543   3.606   4.178  12.936 -1.1481 -0.2547 -1.9101
  101MPD2    H1 1544   3.727   3.774  12.842  2.0304  0.0732 -2.7252
  101MPD2    H2 1545   3.897   4.090  12.627 -0.8038  0.6754 -1.3939
  101MPD2    H3 1546   3.878   3.864  12.681 -0.9012  0.1414 -0.6504
  101MPD2     N 1547   3.550   3.942  12.992  0.2744  0.2761  0.5205
  101MPD2    H5 1548   3.509   4.024  13.034  0.0689  0.8007 -0.7348
  101MPD2    N1 1549   3.780   4.298  12.743  0.0929  0.1628  0.8704
  101MPD2    H7 1550   3.841   4.321  12.665  1.3210 -1.0625  1.4749
  102TCq2    C1 1551   3.897   4.645  12.424 -0.4447 -0.3687 -0.6359
  102TCq2    O2 1552   4.003   4.587  12.432  0.2463 -0.3600 -0.3742
  102TCq2    C2 1553   3.806   4.637  12.537 -0.0672 -0.4182 -0.5250
  102TCq2    C3 1554   3.693   4.722  12.550 -0.4692 -0.9100 -0.8492
  102TCq2    C4 1555   3.599   4.705  12.653 -0.1477 -0.1147  0.6007
  102TCq2    C5 1556   3.624   4.612  12.745 -0.4308  0.5786 -0.5691
  102TCq2    C6 1557   3.729   4.527  12.729 -0.5475 -0.4127  0.4275
  102TCq2    C7 1558   3.812   4.524  12.619  0.2677 -0.6621  0.2391
  102TCq2    C8 1559   3.717   4.403  12.802  0.3698 -0.6425  0.0606
  102TCq2    O4 1560   3.642   4.403  12.901 -0.2031 -0.0436 -0.6446
  102TCq2    C9 1561   3.463   0.045  12.641 -0.7501  0.2854  0.0488
  102TCq2    O5 1562   3.405   0.081  12.748  0.0968 -0.2317 -0.0808
  102TCq2    O6 1563   3.438   0.086  12.527  0.7054 -0.1409 -0.1856
  102TCq2    H2 1564   3.671   0.073  12.475 -0.1497 -0.4989 -0.5335
  102TCq2    H3 1565   3.548   4.590  12.820 -2.5886  0.0980 -2.8899
  102TCq2    H4 1566   3.889   4.451  12.599  0.5316 -0.4929  0.6246
  103TMC2    C1 1567   2.218   4.322  12.301 -0.1785 -0.6276 -0.2124
  103TMC2    C2 1568   2.232   4.415  12.197  0.6259  0.0810  0.2788
  103TMC2    C3 1569   2.346   4.488  12.187 -1.1812 -0.7438 -0.0408
  103TMC2    C4 1570   2.327   4.313  12.386 -0.6556 -0.2375 -0.2351
  103TMC2    C5 1571   2.439   4.395  12.371 -0.2125 -0.2846 -0.9092
  103TMC2    C6 1572   2.454   4.477  12.264  0.6116 -0.0646  0.6891
  103TMC2     C 1573   2.132   4.210  12.272 -0.9076 -0.1738  0.7363
  103TMC2     O 1574   2.063   4.224  12.173  0.1547 -0.2376 -0.1076
  103TMC2     H 1575   2.160   4.430  12.117  0.6694  2.5324  0.7069
  103TMC2    H1 1576   2.311   4.266  12.483 -0.2969 -0.1156 -0.1171
  103TMC2    H2 1577   2.542   4.540  12.270  1.7630 -1.5603 -0.7370
  103TMC2    C7 1578   2.478   4.458  12.488 -0.1325 -0.6271  0.3497
  103TMC2    C8 1579   2.368   4.544  12.050  0.5439 -0.6555 -0.0480
  103TMC2    O1 1580   2.404   4.434  12.582 -0.6151 -0.0296  0.6975
  103TMC2    O2 1581   2.335   4.477  11.957  0.1159  0.1860  0.0060
  103TMC2    O5 1582   2.459   4.646  12.055 -0.4926 -0.1868 -0.0574
  103TMC2    H5 1583   2.458   4.691  12.141  1.2836 -0.0820 -0.0877
  104MPD2     C 1584   2.114   3.883  12.443  0.5413  0.0176  0.3426
  104MPD2    C1 1585   2.083   3.978  12.350 -0.1585  0.0705 -1.4791
  104MPD2    C2 1586   1.986   3.938  12.256  0.0236  0.9533  0.2862
  104MPD2    C3 1587   1.940   3.803  12.257  0.6499 -0.4440  0.4591
  104MPD2    C4 1588   1.976   3.715  12.357  0.5594 -0.4041 -0.1995
  104MPD2    C5 1589   2.070   3.755  12.442  0.7577  0.0098 -0.3084
  104MPD2     H 1590   1.956   3.996  12.170  0.4145  0.9707  0.1619
  104MPD2    H1 1591   1.934   3.616  12.369 -1.6133  0.6060  0.5664
  104MPD2    H2 1592   2.186   3.904  12.521  1.7881 -1.6997 -0.3361
  104MPD2    H3 1593   2.105   3.686  12.519 -1.7953 -0.3317  0.5490
  104MPD2     N 1594   1.844   3.769  12.161  0.7116 -0.2374  0.4326
  104MPD2    H5 1595   1.793   3.850  12.126 -1.4602 -2.2480 -1.0119
  104MPD2    N1 1596   2.150   4.105  12.354  0.0690 -0.0289 -0.6603
  104MPD2    H7 1597   2.211   4.113  12.435 -1.1244 -0.6393  0.2941
  105MPD2     C 1598   3.183   4.022  17.298 -0.1424 -0.6364  0.4881
  105MPD2    C1 1599   3.057   4.054  17.349 -0.3939  0.4553 -0.1751
  105MPD2    C2 1600   3.048   4.125  17.467 -0.4476  0.0349  0.1560
  105MPD2    C3 1601   3.171   4.159  17.535  0.2107  0.5909 -0.0203
  105MPD2    C4 1602   3.291   4.125  17.482 -0.3632  0.4877  0.2440
  105MPD2    C5 1603   3.299   4.065  17.362 -0.5337 -0.5843 -0.0084
  105MPD2     H 1604   2.951   4.151  17.509  0.1706 -1.3902  2.4781
  105MPD2    H1 1605   3.386   4.129  17.536  1.4937  1.2801 -3.1129
  105MPD2    H2 1606   3.187   3.964  17.206 -2.6634  2.3931 -1.5257
  105MPD2    H3 1607   3.398   4.029  17.337 -0.3294 -0.0278 -0.0069
  105MPD2     N 1608   3.169   4.222  17.665  0.1258  0.2693 -0.6945
  105MPD2    H5 1609   3.085   4.267   0.004  1.0177 -0.7714  2.6931
  105MPD2    N1 1610   2.942   4.003  17.286  0.3237 -0.2000 -0.1709
  105MPD2    H7 1611   2.946   3.942  17.205 -0.1269  1.6373 -1.5908
  106TCq2    C1 1612   3.270   4.211   0.062 -0.2165 -0.0881  0.1954
  106TCq2    O2 1613   3.370   4.139   0.061  0.7554  0.9474  0.3785
  106TCq2    C2 1614   3.236   4.288   0.187  0.2454 -0.7338  0.1037
  106TCq2    C3 1615   3.130   4.376   0.187  0.3082  0.5300 -0.3552
  106TCq2    C4 1616   3.100   4.440   0.300  0.3740 -0.2564  0.9932
  106TCq2    C5 1617   3.158   4.406   0.420 -0.3279  0.7287  0.0306
  106TCq2    C6 1618   3.254   4.312   0.418 -0.5714  0.5606 -0.5619
  106TCq2    C7 1619   3.297   4.256   0.305  0.1735 -0.4591 -0.1477
  106TCq2    C8 1620   3.274   4.246   0.543  0.6079 -0.1178  0.1224
  106TCq2    O4 1621   3.385   4.202   0.569 -0.2147 -0.3197 -0.5153
  106TCq2    C9 1622   3.004   4.547   0.295 -1.0629 -0.1554 -0.1490
  106TCq2    O5 1623   2.991   4.609   0.186 -0.3820  0.3757  0.0716
  106TCq2    O6 1624   2.930   4.552   0.396 -0.2341 -0.3220  0.3201
  106TCq2    H2 1625   3.062   4.402   0.106  0.0948 -1.4529 -0.8212
  106TCq2    H3 1626   3.121   4.453   0.510 -0.2982 -0.7625  0.8267
  106TCq2    H4 1627   3.375   4.181   0.317  2.2630  1.5806 -1.0464
  107TMC2    C1 1628   3.940   2.558  11.567  0.5695 -0.1350  0.5918
  107TMC2    C2 1629   4.061   2.595  11.518  0.1118  0.4115 -0.5158
  107TMC2    C3 1630   4.108   2.510  11.422 -0.1502  0.0298  0.2627
  107TMC2    C4 1631   3.855   2.465  11.514  0.7014 -0.0634 -0.2936
  107TMC2    C5 1632   3.915   2.379  11.418 -0.8688  0.9317 -0.5492
  107TMC2    C6 1633   4.036   2.409  11.365  0.2223 -0.2097 -0.0489
  107TMC2     C 1634   3.867   2.657  11.637  0.5283  0.3418 -0.1576
  107TMC2     O 1635   3.778   2.626  11.716  0.4393 -0.1455  0.1355
  107TMC2     H 1636   4.116   2.681  11.552  1.4173  0.0393 -1.6788
  107TMC2    H1 1637   3.752   2.461  11.548  0.2183 -1.8886 -1.9812
  107TMC2    H2 1638   4.080   2.354  11.282  2.6171  0.7844  0.5881
  107TMC2    C7 1639   3.819   2.297  11.338 -0.3068  0.0942 -0.1443
  107TMC2    C8 1640   4.238   2.531  11.369  0.3889  0.2812 -0.3255
  107TMC2    O1 1641   3.719   2.255  11.387 -0.6350  0.0759  0.1782
  107TMC2    O2 1642   4.303   2.440  11.333  0.3020  0.5988 -0.2058
  107TMC2    O5 1643   4.225   2.657  11.309 -0.2668 -0.1725 -0.9818
  107TMC2    H5 1644   4.138   2.702  11.322 -0.4940  0.1600 -3.6139
  108MPD2     C 1645   3.834   3.008  11.508 -0.2467 -0.1567  0.0903
  108MPD2    C1 1646   3.815   2.905  11.601 -0.1435 -0.0917 -0.6292
  108MPD2    C2 1647   3.740   2.939  11.720  0.6068 -0.0202 -0.8754
  108MPD2    C3 1648   3.677   3.064  11.741 -0.1439 -0.1620  0.3259
  108MPD2    C4 1649   3.712   3.159  11.649  0.0662  0.3556 -0.1361
  108MPD2    C5 1650   3.776   3.132  11.528  0.0934  0.0737  0.1838
  108MPD2     H 1651   3.736   2.871  11.805 -1.1584  1.6974  0.4383
  108MPD2    H1 1652   3.668   3.259  11.651  0.8126  0.6644  0.6147
  108MPD2    H2 1653   3.886   2.993  11.414  0.8807  1.7431  0.4235
  108MPD2    H3 1654   3.785   3.202  11.445  1.8921  0.4665  0.7124
  108MPD2     N 1655   3.591   3.095  11.851 -0.5202  0.0945  0.0164
  108MPD2    H5 1656   3.551   3.189  11.850 -1.8871 -0.5062 -1.3011
  108MPD2    N1 1657   3.882   2.777  11.583 -0.2640  0.6836 -0.3725
  108MPD2    H7 1658   3.947   2.772  11.505 -0.5082  1.3161 -0.6204
  109MPD2     C 1659   4.235   4.426   1.503 -0.4598  0.2601  0.1637
  109MPD2    C1 1660   4.136   4.518   1.480 -0.9791  0.0854 -0.3798
  109MPD2    C2 1661   4.162   4.614   1.386 -0.7285  0.5106 -0.2545
  109MPD2    C3 1662   4.284   4.632   1.327  0.0614 -0.0096 -0.5699
  109MPD2    C4 1663   4.384   4.532   1.351  0.3087  0.6932 -0.2414
  109MPD2    C5 1664   4.356   4.431   1.437  0.2221  0.0792  0.0307
  109MPD2     H 1665   4.080   4.676   1.353  1.3258  2.3897 -1.8029
  109MPD2    H1 1666   4.479   4.536   1.300  0.1776  0.7830 -0.4807
  109MPD2    H2 1667   4.215   4.352   1.580  1.0426 -2.0250 -1.6660
  109MPD2    H3 1668   4.429   4.351   1.450  2.4602  2.7146  3.6673
  109MPD2     N 1669   4.294   0.020   1.240 -0.1476 -0.0820 -0.0166
  109MPD2    H5 1670   4.206   0.066   1.219  1.3195  1.8584 -1.8531
  109MPD2    N1 1671   4.008   4.497   1.543  0.1142  0.6050  0.2098
  109MPD2    H7 1672   4.001   4.410   1.594 -1.1220  0.7366  0.2691
  110TCq2    C1 1673   4.409   0.069   1.185  0.7098 -0.7164  0.4636
  110TCq2    O2 1674   4.523   0.018   1.177 -0.0404 -0.3774 -0.4075
  110TCq2    C2 1675   4.382   0.191   1.105 -0.7020 -0.0211  0.2433
  110TCq2    C3 1676   4.457   0.221   1.000  0.3662  0.1420 -0.0833
  110TCq2    C4 1677   4.425   0.329   0.917 -0.1087  1.0129  0.2363
  110TCq2    C5 1678   4.311   0.397   0.926 -0.3430  0.1504 -0.3125
  110TCq2    C6 1679   4.226   0.357   1.025  0.1753 -0.2454 -0.0231
  110TCq2    C7 1680   4.261   0.259   1.118  0.2218 -0.1752 -0.4648
  110TCq2    C8 1681   4.100   0.425   1.026 -0.2142 -0.6563  0.0176
  110TCq2    O4 1682   4.094   0.540   0.978  0.1038  1.3313 -0.1958
  110TCq2    C9 1683   4.512   0.354   0.807 -0.4598  0.0519 -0.2236
  110TCq2    O5 1684   4.581   0.251   0.785  0.0195  0.2135  0.2547
  110TCq2    O6 1685   4.545   0.473   0.783  0.3314  0.2686  0.5341
  110TCq2    H2 1686   4.549   0.165   0.986  0.8829  0.8813  0.3438
  110TCq2    H3 1687   4.287   0.467   0.847  2.0135  0.6790 -0.5660
  110TCq2    H4 1688   4.207   0.258   1.212 -1.7714  0.2722 -1.5852
  111TMC2    C1 1689   3.597   4.582  11.529  0.3819  0.0706  0.4439
  111TMC2    C2 1690   3.528   4.608  11.647  0.2254  0.4318 -0.2425
  111TMC2    C3 1691   3.480   4.500  11.717 -0.8278 -0.1400  0.2856
  111TMC2    C4 1692   3.629   4.456  11.482 -0.1565 -0.0623  0.3273
  111TMC2    C5 1693   3.596   4.354  11.571  1.1002  0.3318 -0.2675
  111TMC2    C6 1694   3.516   4.379  11.676 -0.2068  0.3356 -0.2973
  111TMC2     C 1695   3.637   4.693  11.446 -0.4949 -0.4586 -0.2171
  111TMC2     O 1696   3.637   4.670  11.323  0.8594 -0.1651  0.0936
  111TMC2     H 1697   3.500   4.708  11.676  1.9597  0.4096  1.4708
  111TMC2    H1 1698   3.696   4.453  11.397 -0.0761 -3.0418  0.4789
  111TMC2    H2 1699   3.493   4.303  11.750  1.4105  0.0957 -0.0479
  111TMC2    C7 1700   3.727   4.295  11.602  0.7309  0.7193 -0.3647
  111TMC2    C8 1701   3.444   4.519  11.852  0.9929  0.0024  0.0384
  111TMC2    O1 1702   3.772   4.303  11.715 -0.6710 -0.3139  0.0341
  111TMC2    O2 1703   3.374   4.445  11.922  0.2602 -0.2693 -0.1834
  111TMC2    O5 1704   3.544   4.591  11.904 -0.0097 -0.5567 -0.1119
  111TMC2    H5 1705   3.612   4.629  11.845 -0.0802  0.5638  0.5358
  112MPD2     C 1706   3.834   0.454  11.431  0.9674 -0.4277  0.9415
  112MPD2    C1 1707   3.785   0.367  11.330  0.5329  0.5956  0.3147
  112MPD2    C2 1708   3.744   0.238  11.360 -0.1972  0.3336  0.2074
  112MPD2    C3 1709   3.728   0.196  11.491 -0.3035  0.1367 -0.2772
  112MPD2    C4 1710   3.771   0.282  11.587 -0.2119 -0.3627  0.0264
  112MPD2    C5 1711   3.823   0.402  11.558  0.2743 -1.1599 -0.8986
  112MPD2     H 1712   3.715   0.177  11.276 -1.3949  0.4537  0.5312
  112MPD2    H1 1713   3.757   0.245  11.688  1.3684 -1.1319 -0.0482
  112MPD2    H2 1714   3.863   0.555  11.407  1.1073 -0.7086 -0.0815
  112MPD2    H3 1715   3.868   0.453  11.642  0.8729 -2.9478 -0.1305
  112MPD2     N 1716   3.665   0.075  11.528  0.2624  0.0575  0.0956
  112MPD2    H5 1717   3.665   0.064  11.629 -0.6361 -1.7023 -0.1055
  112MPD2    N1 1718   3.788   0.398  11.192 -0.0243  0.3944 -0.6223
  112MPD2    H7 1719   3.754   0.327  11.128 -0.1356  0.8711 -1.0928
  113MPD2     C 1720   2.021   3.058   0.686  0.2043  0.5832 -0.0915
  113MPD2    C1 1721   1.905   3.110   0.726 -0.6183 -0.0590 -0.4660
  113MPD2    C2 1722   1.802   3.024   0.756  0.0846 -0.5898 -0.0694
  113MPD2    C3 1723   1.803   2.890   0.743  0.3261 -0.2881  0.5036
  113MPD2    C4 1724   1.923   2.839   0.691 -0.2873 -0.1067  0.2627
  113MPD2    C5 1725   2.031   2.920   0.672 -0.2930  1.0607 -0.1662
  113MPD2     H 1726   1.711   3.070   0.794  0.2638 -0.0582 -0.2835
  113MPD2    H1 1727   1.939   2.736   0.661 -0.7867 -0.5506  1.5373
  113MPD2    H2 1728   2.111   3.112   0.660  0.2944  0.2552 -0.4635
  113MPD2    H3 1729   2.120   2.881   0.623 -0.7589  2.0921 -1.8033
  113MPD2     N 1730   1.695   2.807   0.782 -0.4431 -1.0098  0.1150
  113MPD2    H5 1731   1.716   2.708   0.783  1.9799 -0.5156 -1.2112
  113MPD2    N1 1732   1.882   3.243   0.722 -0.2879  0.9429 -0.2727
  113MPD2    H7 1733   1.790   3.278   0.747 -0.1603  1.8677 -1.0724
  114TCq2    C1 1734   1.574   2.858   0.838  0.0964  0.2599  0.0201
  114TCq2    O2 1735   1.522   2.967   0.818 -0.2833 -0.0907 -0.3865
  114TCq2    C2 1736   1.503   2.767   0.930 -0.5314 -0.2636 -0.2513
  114TCq2    C3 1737   1.440   2.818   1.037  0.0244 -0.4329  0.2053
  114TCq2    C4 1738   1.407   2.741   1.145 -0.1186 -0.1646  0.5985
  114TCq2    C5 1739   1.411   2.609   1.135 -0.2405  0.0478  0.0491
  114TCq2    C6 1740   1.481   2.555   1.029  0.5355  0.8811 -0.4996
  114TCq2    C7 1741   1.524   2.630   0.921  0.6123 -0.7395  0.5125
  114TCq2    C8 1742   1.439   2.423   0.994  0.3893  0.5972 -0.2325
  114TCq2    O4 1743   1.503   2.365   0.912  0.0984  0.4572 -0.6040
  114TCq2    C9 1744   1.360   2.802   1.261 -0.5108  0.4767  0.2080
  114TCq2    O5 1745   1.401   2.919   1.284  0.1858  0.1076 -0.6587
  114TCq2    O6 1746   1.274   2.747   1.329 -0.1467  0.2185  0.7224
  114TCq2    H2 1747   1.428   2.926   1.035  0.2014 -0.4368 -1.1066
  114TCq2    H3 1748   1.366   2.552   1.216  1.0114 -1.3710 -0.2431
  114TCq2    H4 1749   1.581   2.581   0.843  2.7520  2.1359  0.2507
  115TMC2    C1 1750   1.921   1.022   0.040  0.2999 -0.1430 -0.2891
  115TMC2    C2 1751   2.057   0.998   0.063  0.3645  0.0442 -0.0070
  115TMC2    C3 1752   2.143   1.097   0.047 -0.4505  0.4858 -0.3446
  115TMC2    C4 1753   1.878   1.135  17.678 -0.1286  0.5408 -0.4479
  115TMC2    C5 1754   1.979   1.224  17.651  0.8330 -0.0794  0.2241
  115TMC2    C6 1755   2.108   1.213  17.687 -0.6962 -0.1601  0.6812
  115TMC2     C 1756   1.820   0.916   0.051  0.3149  0.3729  0.0778
  115TMC2     O 1757   1.733   0.925  17.659  0.2088  0.4618 -0.2044
  115TMC2     H 1758   2.089   0.895   0.072 -0.3382 -0.1067  0.7380
  115TMC2    H1 1759   1.775   1.156  17.651 -0.2321 -0.7559 -1.0741
  115TMC2    H2 1760   2.176   1.293  17.659 -0.4352  0.1919  2.3070
  115TMC2    C7 1761   1.930   1.359  17.616  1.2395  0.8373 -0.0123
  115TMC2    C8 1762   2.286   1.067   0.043  0.1564  0.1717  0.1791
  115TMC2    O1 1763   1.829   1.399  17.673 -0.1950  0.3719  0.0079
  115TMC2    O2 1764   2.360   1.149  17.686 -0.1236 -0.2664  0.2120
  115TMC2    O5 1765   2.302   1.006   0.168  0.1283 -0.1897 -0.0844
  115TMC2    H5 1766   2.286   0.910   0.182 -1.8691 -0.1528 -2.1935
  116MPD2     C 1767   1.778   0.411   0.119  0.2682 -0.5030 -0.0531
  116MPD2    C1 1768   1.728   0.500   0.020  0.4710 -0.0094 -0.0697
  116MPD2    C2 1769   1.738   0.631   0.028  0.5546  0.0961 -0.0152
  116MPD2    C3 1770   1.823   0.679   0.121  0.1841  0.6976 -0.6372
  116MPD2    C4 1771   1.880   0.593   0.210  0.1176 -0.2872 -0.6244
  116MPD2    C5 1772   1.855   0.458   0.219  0.0921 -0.1039 -0.4920
  116MPD2     H 1773   1.703   0.689  17.640  0.3962  1.8714  1.2489
  116MPD2    H1 1774   1.944   0.635   0.286  1.2953  1.2208 -2.4294
  116MPD2    H2 1775   1.746   0.307   0.121  0.8162 -0.7272 -4.5858
  116MPD2    H3 1776   1.898   0.394   0.294  2.2759  1.2226 -0.6144
  116MPD2     N 1777   1.861   0.813   0.123  0.2900 -0.2001  0.0603
  116MPD2    H5 1778   1.937   0.840   0.184  1.2763 -1.9260 -0.4085
  116MPD2    N1 1779   1.638   0.440  17.626 -0.2207  0.0558  0.4936
  116MPD2    H7 1780   1.648   0.340  17.614  2.1919  0.5168 -1.2826
  117TMC2    C1 1781   0.851   2.189  14.126  0.0908 -0.5300  0.9293
  117TMC2    C2 1782   0.854   2.217  14.262 -0.1779  0.8585 -0.1849
  117TMC2    C3 1783   0.973   2.247  14.316 -0.7020 -0.1206 -0.3502
  117TMC2    C4 1784   0.958   2.218  14.052 -0.1014  0.6952  0.2296
  117TMC2    C5 1785   1.074   2.266  14.108  1.1118 -0.0591  0.5690
  117TMC2    C6 1786   1.087   2.271  14.244  0.2595  0.0866  0.4165
  117TMC2     C 1787   0.732   2.223  14.047 -0.4226 -0.6648  0.0887
  117TMC2     O 1788   0.713   2.149  13.952  0.7409 -0.7289  0.7437
  117TMC2     H 1789   0.776   2.178  14.326  0.1911 -2.6015 -1.8350
  117TMC2    H1 1790   0.959   2.202  13.945  0.2321  2.9037 -0.0911
  117TMC2    H2 1791   1.167   2.330  14.287  0.1815  1.3838 -1.2067
  117TMC2    C7 1792   1.130   2.372  14.032 -0.7812 -0.2911  0.4544
  117TMC2    C8 1793   0.990   2.213  14.457 -0.6899  0.6848  0.1167
  117TMC2    O1 1794   1.238   2.408  14.070  0.2403  0.0774  0.5005
  117TMC2    O2 1795   0.908   2.136  14.507 -0.0286 -0.2617 -0.0259
  117TMC2    O5 1796   1.066   2.301  14.519  0.5812 -0.0332  0.4693
  117TMC2    H5 1797   1.119   2.363  14.465  0.3234 -1.8980 -1.8951
  118MPD2     C 1798   0.912   2.628  13.866  0.0355 -0.3955  1.1126
  118MPD2    C1 1799   1.028   2.577  13.923  0.6166  0.5346  0.2629
  118MPD2    C2 1800   1.128   2.665  13.955  0.7135 -0.5093 -0.6764
  118MPD2    C3 1801   1.124   2.801  13.916 -0.5837  0.4029  0.7907
  118MPD2    C4 1802   1.007   2.840  13.851 -0.7557 -0.4614 -0.2923
  118MPD2    C5 1803   0.902   2.762  13.837 -0.3689  0.5213 -0.4346
  118MPD2     H 1804   1.217   2.621  13.998 -0.0354 -1.2296  0.1452
  118MPD2    H1 1805   0.991   2.943  13.820 -1.0611 -0.0924  1.0795
  118MPD2    H2 1806   0.837   2.572  13.813 -0.3282  0.6534  0.5062
  118MPD2    H3 1807   0.823   2.800  13.773 -0.7975  1.0463  0.4084
  118MPD2     N 1808   1.225   2.901  13.930  0.3079  0.3925  0.3130
  118MPD2    H5 1809   1.198   2.988  13.886  0.1010  0.0091 -0.3227
  118MPD2    N1 1810   1.028   2.437  13.968  0.2898  0.2205  0.0221
  118MPD2    H7 1811   0.946   2.382  13.942  1.2959 -0.6686 -1.2667
  119MPD2     C 1812   4.648   4.037  14.194  0.3268  0.1386 -0.4639
  119MPD2    C1 1813   4.519   3.999  14.163 -0.1076  0.3049 -1.0635
  119MPD2    C2 1814   4.452   4.061  14.062 -0.0600 -0.5636  0.2242
  119MPD2    C3 1815   4.519   4.139  13.969 -0.1317  0.3444  0.0270
  119MPD2    C4 1816   4.648   4.172  13.993  0.0922  0.6049 -0.0047
  119MPD2    C5 1817   4.707   4.121  14.108  0.0706  0.3454 -0.6911
  119MPD2     H 1818   4.346   4.042  14.054 -0.1290  0.2358 -0.8409
  119MPD2    H1 1819   4.705   4.235  13.926  0.2942 -0.5150 -0.8852
  119MPD2    H2 1820   4.702   3.999  14.280 -0.7685 -1.5922 -0.5415
  119MPD2    H3 1821   0.083   4.159  14.131  0.0206 -0.5331  0.9611
  119MPD2     N 1822   4.459   4.206  13.863  0.0261  0.3638  0.3709
  119MPD2    H5 1823   4.522   4.250  13.796 -0.0440 -1.1682 -0.7107
  119MPD2    N1 1824   4.464   3.904  14.251 -0.0533 -0.6282 -0.4066
  119MPD2    H7 1825   4.515   3.890  14.339  1.2473 -0.7000 -1.1695
  120TCq2    C1 1826   4.328   4.226  13.836 -0.0021 -0.0757 -0.2586
  120TCq2    O2 1827   4.229   4.178  13.890  0.5539  0.7840  0.1622
  120TCq2    C2 1828   4.315   4.280  13.703  0.2465 -0.5414 -0.2151
  120TCq2    C3 1829   4.425   4.307  13.629 -0.3015 -0.0649 -0.6383
  120TCq2    C4 1830   4.411   4.334  13.492  0.3100  0.4170 -0.3327
  120TCq2    C5 1831   4.294   4.315  13.430  0.3524  0.0897  0.1702
  120TCq2    C6 1832   4.186   4.273  13.503  0.7139  0.0599  0.1914
  120TCq2    C7 1833   4.192   4.263  13.634 -0.1205 -1.2913  0.5009
  120TCq2    C8 1834   4.088   4.204  13.422  0.1700  0.4353  0.5172
  120TCq2    O4 1835   4.091   4.213  13.300 -0.2934 -0.2314 -0.4292
  120TCq2    C9 1836   4.531   4.368  13.415 -0.1497 -0.6961 -0.5137
  120TCq2    O5 1837   4.521   4.370  13.288 -0.0553  0.5053  0.1758
  120TCq2    O6 1838   4.639   4.366  13.477 -0.3623 -0.3909 -0.0555
  120TCq2    H2 1839   4.526   4.318  13.668  0.3262 -0.7779 -2.0798
  120TCq2    H3 1840   4.295   4.322  13.322 -0.1574  1.2904  0.2476
  120TCq2    H4 1841   4.101   4.248  13.691 -0.2509  1.9934  1.1643
  121TMC2    C1 1842   1.307   0.754  13.806 -0.3753 -0.2493  0.2653
  121TMC2    C2 1843   1.368   0.728  13.927  0.4352  0.5231 -0.4435
  121TMC2    C3 1844   1.358   0.600  13.975 -0.0586  0.3524  0.3704
  121TMC2    C4 1845   1.236   0.667  13.734 -0.6192  0.5413  0.4015
  121TMC2    C5 1846   1.228   0.535  13.782 -0.5422 -0.1072 -0.4629
  121TMC2    C6 1847   1.285   0.502  13.902  0.0894  0.3615 -0.5512
  121TMC2     C 1848   1.318   0.899  13.763  0.3002  0.7382  0.0384
  121TMC2     O 1849   1.339   0.983  13.849 -0.0386  0.2661  0.1116
  121TMC2     H 1850   1.429   0.797  13.983  1.6474  0.8763 -2.1914
  121TMC2    H1 1851   1.192   0.691  13.638  0.4684  1.2613  0.0783
  121TMC2    H2 1852   1.268   0.401  13.936 -1.1392 -0.0292 -2.3299
  121TMC2    C7 1853   1.141   0.439  13.729  0.4578  0.4982 -0.0353
  121TMC2    C8 1854   1.334   0.607  14.113  0.4100  0.5713  0.7321
  121TMC2    O1 1855   1.183   0.328  13.734 -0.1789 -0.2138 -0.2656
  121TMC2    O2 1856   1.287   0.703  14.171 -0.5085  0.2190 -0.2380
  121TMC2    O5 1857   1.330   0.484  14.166 -0.2304 -0.5754  0.4749
  121TMC2    H5 1858   1.375   0.415  14.113  0.7459  1.4206 -1.2730
  122MPD2     C 1859   1.341   1.145  13.606 -0.2914  0.0941  0.5243
  122MPD2    C1 1860   1.372   1.021  13.558  0.4701 -0.3515  0.1074
  122MPD2    C2 1861   1.426   1.015  13.432 -0.5130  0.6204 -0.5896
  122MPD2    C3 1862   1.439   1.128  13.346 -0.1450  0.1893 -0.2141
  122MPD2    C4 1863   1.391   1.249  13.398 -0.6880 -0.1921  0.1747
  122MPD2    C5 1864   1.348   1.256  13.527 -0.1962  0.1681 -0.2120
  122MPD2     H 1865   1.432   0.918  13.383 -1.6328 -0.7400  2.0124
  122MPD2    H1 1866   1.396   1.339  13.337 -0.7798 -1.0245 -1.0550
  122MPD2    H2 1867   1.314   1.170  13.708  0.8513  1.6358  0.4518
  122MPD2    H3 1868   1.315   1.353  13.561 -0.3929  0.9001 -2.4691
  122MPD2     N 1869   1.482   1.125  13.212 -0.1143 -0.0002  0.5685
  122MPD2    H5 1870   1.463   1.200  13.146 -0.1144  1.5616  2.3534
  122MPD2    N1 1871   1.343   0.903  13.625 -0.2391  0.4828  0.2084
  122MPD2    H7 1872   1.352   0.816  13.575  1.4434  1.1583 -0.6741
  123MPD2     C 1873   3.092   3.419   8.892 -0.4585  0.2237 -0.2916
  123MPD2    C1 1874   3.232   3.447   8.920  0.0426  0.4092  0.0375
  123MPD2    C2 1875   3.326   3.422   8.814 -0.6830 -0.7471 -0.2860
  123MPD2    C3 1876   3.291   3.372   8.692  0.6701  0.0778  0.1658
  123MPD2    C4 1877   3.158   3.340   8.668 -0.4412  0.4744  0.5905
  123MPD2    C5 1878   3.064   3.362   8.766  0.6371  0.4064 -0.0611
  123MPD2     H 1879   3.430   3.450   8.820 -1.4295  1.4419  2.4210
  123MPD2    H1 1880   3.116   3.293   8.581 -1.4438 -1.2054  1.9783
  123MPD2    H2 1881   3.015   3.438   8.966  0.4272 -0.4515  0.7886
  123MPD2    H3 1882   2.958   3.342   8.753  0.7992  0.5889 -1.6307
  123MPD2     N 1883   3.399   3.369   8.596  0.3492  0.0505  0.4092
  123MPD2    H5 1884   3.490   3.398   8.630 -0.2696  1.5939  0.7582
  123MPD2    N1 1885   3.273   3.486   9.054 -0.0494 -0.9826 -1.1950
  123MPD2    H7 1886   3.196   3.515   9.113  1.0698  0.3018 -0.3657
  124TCq2    C1 1887   3.381   3.332   8.458  0.5143  0.2894  0.2819
  124TCq2    O2 1888   3.277   3.311   8.396  0.0480 -0.8468  0.3517
  124TCq2    C2 1889   3.506   3.309   8.382  0.1338 -0.5704 -0.2522
  124TCq2    C3 1890   3.507   3.346   8.254 -0.4123 -0.0628 -0.0948
  124TCq2    C4 1891   3.628   3.378   8.204 -0.2416 -0.0102 -0.1364
  124TCq2    C5 1892   3.743   3.380   8.279 -0.1167  0.8176 -0.5979
  124TCq2    C6 1893   3.739   3.330   8.405  0.6536  0.4582  0.2117
  124TCq2    C7 1894   3.617   3.291   8.459 -0.7473  0.0920 -0.2455
  124TCq2    C8 1895   3.854   3.318   8.486 -0.0730  0.8066  0.2312
  124TCq2    O4 1896   3.841   3.334   8.608  0.5546  0.3798  0.1403
  124TCq2    C9 1897   3.631   3.429   8.071  0.1364 -0.1927  0.5586
  124TCq2    O5 1898   3.739   3.439   8.012  0.0175 -0.0888  0.1999
  124TCq2    O6 1899   3.517   3.424   8.012 -0.6688  0.6130  0.4365
  124TCq2    H2 1900   3.409   3.355   8.209 -0.8248 -1.6386  0.4745
  124TCq2    H3 1901   3.834   3.407   8.227 -1.0181  1.4548 -1.8375
  124TCq2    H4 1902   3.607   3.243   8.556 -0.6721  0.1737 -0.1974
  125TMC2    C1 1903   3.985   0.973   9.640  0.3111 -0.0050 -0.2494
  125TMC2    C2 1904   3.869   1.004   9.704  0.1248 -0.5123  0.1199
  125TMC2    C3 1905   3.875   1.029   9.836 -0.0758  0.4724 -0.5875
  125TMC2    C4 1906   4.110   0.981   9.699  0.3493 -0.8110 -0.2321
  125TMC2    C5 1907   4.113   1.037   9.823  0.2980 -0.1421 -0.2658
  125TMC2    C6 1908   3.994   1.050   9.891 -0.0696  0.1268  0.8424
  125TMC2     C 1909   3.974   0.925   9.502  0.9859  0.3404 -0.7306
  125TMC2     O 1910   3.871   0.866   9.478  0.6640  0.0631 -0.2147
  125TMC2     H 1911   3.772   0.989   9.657 -0.1337 -1.8910  1.1136
  125TMC2    H1 1912   4.203   0.948   9.655  0.6046 -0.9518  0.4083
  125TMC2    H2 1913   3.996   1.087   9.993  1.9573 -1.8368  1.5038
  125TMC2    C7 1914   4.224   1.104   9.881 -0.6418 -0.0771  0.2660
  125TMC2    C8 1915   3.756   1.055   9.907  0.1713  0.0815  0.3898
  125TMC2    O1 1916   4.216   1.143   9.997 -0.0948 -0.4097  0.0083
  125TMC2    O2 1917   3.755   1.141   9.991 -0.7420  0.2111 -0.0427
  125TMC2    O5 1918   3.654   0.967   9.879 -0.3630  0.3753 -0.1807
  125TMC2    H5 1919   3.682   0.883   9.837 -0.1354  0.9204 -1.1216
  126MPD1     C 1920   4.135   0.853   9.031 -0.4095 -0.5783 -0.0114
  126MPD1    C1 1921   4.242   0.898   9.099  0.9237 -0.0858  0.5393
  126MPD1    C2 1922   4.217   0.925   9.236  0.2069  0.2127 -0.2684
  126MPD1    C3 1923   4.097   0.918   9.294 -0.0034 -0.2563  0.1655
  126MPD1    C4 1924   3.989   0.879   9.214 -0.0417 -0.1653  0.1640
  126MPD1    C5 1925   4.014   0.840   9.084  0.0204 -1.0227 -0.1744
  126MPD1     H 1926   4.302   0.950   9.297  0.6169 -1.8017 -0.0277
  126MPD1    H1 1927   3.887   0.881   9.248 -0.5483  0.4165 -1.3770
  126MPD1    H2 1928   4.150   0.810   8.933  1.3584 -1.6269  0.7295
  126MPD1    H3 1929   3.935   0.811   9.016 -0.4645 -0.1678  0.0228
  126MPD1     N 1930   4.088   0.952   9.430  0.1926 -0.1505 -0.0107
  126MPD1    H5 1931   4.166   0.990   9.482  0.3872  1.8884 -1.7979
  126MPD1    N1 1932   4.371   0.882   9.050  0.2212  0.0213 -0.7640
  126MPD1    H6 1933   4.373   0.900   8.950  2.6496  2.7949 -0.2223
  126MPD1    H7 1934   4.439   0.948   9.088 -0.9571  0.7853 -0.0057
  127MPD2     C 1935   1.203   4.681   8.907 -0.1140  0.2492 -0.1012
  127MPD2    C1 1936   1.304   4.649   8.998  0.1790  0.5613  0.3835
  127MPD2    C2 1937   1.326   0.013   9.103 -0.3244 -0.6073 -0.2457
  127MPD2    C3 1938   1.262   0.134   9.113  0.5283  0.7355 -0.4017
  127MPD2    C4 1939   1.157   0.168   9.022  0.9896 -0.4093 -0.1029
  127MPD2    C5 1940   1.134   0.077   8.923 -0.0008 -0.0250  0.1898
  127MPD2     H 1941   1.410   4.717   9.168 -0.1881  0.0538 -0.2221
  127MPD2    H1 1942   1.101   0.260   9.032  0.1829 -1.1877  2.3464
  127MPD2    H2 1943   1.186   4.622   8.818  0.7777 -0.2263  0.0406
  127MPD2    H3 1944   1.052   0.095   8.854  0.7635  2.3843 -0.0919
  127MPD2     N 1945   1.300   0.218   9.218 -0.9146 -0.2582 -0.4188
  127MPD2    H5 1946   1.375   0.182   9.277  0.5718  0.2563 -1.9959
  127MPD2    N1 1947   1.354   4.519   8.982 -0.4780 -0.6561 -0.1425
  127MPD2    H7 1948   1.323   4.470   8.899 -0.6470 -2.0609  0.7526
  128TCq2    C1 1949   1.453   4.462   9.056 -0.0565 -0.2657 -0.2843
  128TCq2    O2 1950   1.533   4.507   9.136  0.1610  0.3825 -0.1734
  128TCq2    C2 1951   1.464   4.314   9.034  0.0396 -0.1045 -0.7158
  128TCq2    C3 1952   1.562   4.244   9.106  0.1374 -0.5409 -0.0454
  128TCq2    C4 1953   1.556   4.105   9.114  0.4339  0.2686 -0.4444
  128TCq2    C5 1954   1.458   4.032   9.052  0.8952 -0.2379  0.0121
  128TCq2    C6 1955   1.361   4.102   8.988  0.3038  0.9403 -0.2811
  128TCq2    C7 1956   1.366   4.240   8.969  0.0025 -0.3924  0.1588
  128TCq2    C8 1957   1.239   4.036   8.932 -0.2358  0.0036 -0.5581
  128TCq2    O4 1958   1.182   4.100   8.845 -0.1525 -0.3197 -0.1087
  128TCq2    C9 1959   1.668   4.041   9.172  0.2651  0.6292 -0.1338
  128TCq2    O5 1960   1.773   4.112   9.194 -0.6169  0.3973  0.0190
  128TCq2    O6 1961   1.653   3.918   9.193  0.3986  0.0656  0.2500
  128TCq2    H2 1962   1.637   4.307   9.152 -1.2347 -0.5601  2.2070
  128TCq2    H3 1963   1.471   3.925   9.037 -2.8509 -0.5648 -0.8685
  128TCq2    H4 1964   1.273   4.290   8.943  0.2523  0.9764  1.8862
  129MPD2     C 1965   4.035   0.257   0.730  0.5567 -0.1233  0.4531
  129MPD2    C1 1966   4.165   0.231   0.681  0.4116 -0.7539  0.9783
  129MPD2    C2 1967   4.230   0.327   0.609 -0.8760 -0.4596 -0.4029
  129MPD2    C3 1968   4.170   0.449   0.584 -0.7170 -1.2771 -0.3617
  129MPD2    C4 1969   4.041   0.476   0.632  0.3484  0.4811  0.1762
  129MPD2    C5 1970   3.975   0.375   0.697  0.0092 -1.0901 -0.2316
  129MPD2     H 1971   4.325   0.300   0.564 -0.3108 -0.6657  0.9131
  129MPD2    H1 1972   3.994   0.573   0.641  0.3027  0.4851 -0.1210
  129MPD2    H2 1973   3.974   0.192   0.792 -0.3872 -0.0060 -0.3484
  129MPD2    H3 1974   3.873   0.398   0.727 -0.4177 -2.7586 -0.3973
  129MPD2     N 1975   4.247   0.554   0.524 -0.4515 -0.5417  0.6629
  129MPD2    H5 1976   4.347   0.545   0.509 -0.4042  0.1180  0.5699
  129MPD2    N1 1977   4.238   0.115   0.718 -0.4693  0.1429 -0.3354
  129MPD2    H7 1978   4.324   0.086   0.674 -0.6418 -0.4492 -0.2894
  130TCq2    C1 1979   4.196   0.034   0.826 -0.0413 -0.2288  0.3137
  130TCq2    O2 1980   4.097   0.031   0.894  0.6336 -0.1176  0.2379
  130TCq2    C2 1981   4.283   4.641   0.846 -0.7305 -1.0087 -0.3000
  130TCq2    C3 1982   4.418   4.643   0.833  0.8053 -0.4320  0.2353
  130TCq2    C4 1983   4.491   4.553   0.890  0.0610 -0.6274 -0.4471
  130TCq2    C5 1984   4.439   4.457   0.965 -0.7147  1.1867  0.3079
  130TCq2    C6 1985   4.300   4.446   0.985  0.3272 -0.5182  0.5991
  130TCq2    C7 1986   4.226   4.538   0.921  0.1018  0.5603 -0.3690
  130TCq2    C8 1987   4.240   4.357   1.085 -0.3225  0.7208  0.3962
  130TCq2    O4 1988   4.121   4.375   1.113 -0.7039 -0.2773  0.0492
  130TCq2    C9 1989   4.635   4.553   0.870 -0.2156  0.6403 -0.1789
  130TCq2    O5 1990   4.700   4.450   0.899 -0.4765 -0.2681  0.1460
  130TCq2    O6 1991   4.685   4.650   0.804 -0.2733  0.1336  0.1793
  130TCq2    H2 1992   4.480   4.717   0.783 -0.7022  0.5110 -0.2421
  130TCq2    H3 1993   4.501   4.379   1.008 -1.9711 -0.4601 -0.8427
  130TCq2    H4 1994   4.122   4.542   0.953 -0.0753 -2.8870 -0.5465
  131MPD2     C 1995   4.103   3.776   9.665 -0.0992  0.0055  0.0186
  131MPD2    C1 1996   4.037   3.883   9.617 -0.0832  0.5895  0.1223
  131MPD2    C2 1997   3.917   3.863   9.562 -0.8946 -0.0157 -0.1904
  131MPD2    C3 1998   3.849   3.740   9.572  0.0421 -0.6784  0.2303
  131MPD2    C4 1999   3.912   3.646   9.649  0.0046  0.9145 -0.2767
  131MPD2    C5 2000   4.042   3.654   9.676  0.6804  0.1951  0.2260
  131MPD2     H 2001   3.868   3.944   9.509 -0.2995  1.3299  1.3069
  131MPD2    H1 2002   3.872   3.546   9.654  2.4812 -0.1941 -2.9618
  131MPD2    H2 2003   4.206   3.784   9.696 -0.8215  2.4472  1.8275
  131MPD2    H3 2004   4.092   3.561   9.700  1.1785  0.7831  1.4465
  131MPD2     N 2005   3.721   3.719   9.512  0.2414  0.4347 -0.0941
  131MPD2    H5 2006   3.690   3.805   9.468  1.3265  0.5390 -0.6615
  131MPD2    N1 2007   4.119   3.994   9.604 -0.5078  0.2758  0.2813
  131MPD2    H7 2008   4.209   3.994   9.649  0.7901  1.2903 -2.2933
  132TCq2    C1 2009   4.200   4.580   9.506  0.0986  0.4351  0.1296
  132TCq2    O2 2010   4.080   4.605   9.492  0.8042 -0.1711  0.1027
  132TCq2    C2 2011   4.241   4.442   9.496  0.1483  0.2862  0.1239
  132TCq2    C3 2012   4.376   4.411   9.486  0.2239  0.0766  0.0232
  132TCq2    C4 2013   4.411   4.280   9.510  0.0497  0.5658 -0.4410
  132TCq2    C5 2014   4.323   4.187   9.536 -0.0460  0.3357 -0.1720
  132TCq2    C6 2015   4.185   4.217   9.557 -0.1913  0.6339  0.2783
  132TCq2    C7 2016   4.152   4.348   9.537 -0.3829 -0.0170  0.6638
  132TCq2    C8 2017   4.080   4.118   9.551 -0.4380  0.3238  0.4515
  132TCq2    O4 2018   3.971   4.161   9.510 -0.3957  0.0814 -0.2787
  132TCq2    C9 2019   4.551   4.233   9.489  0.4789 -0.1356  0.2077
  132TCq2    O5 2020   4.580   4.129   9.557  0.0103 -0.0566  0.4294
  132TCq2    O6 2021   4.636   4.326   9.477 -0.0147 -0.0254 -0.3550
  132TCq2    H2 2022   4.453   4.481   9.455 -0.5114 -0.0767 -2.1511
  132TCq2    H3 2023   4.355   4.084   9.543 -0.8040  0.1274  0.1469
  132TCq2    H4 2024   4.050   4.375   9.563 -1.1548 -0.1367 -2.2940
  133MPD2     C 2025   2.919   3.684   8.814  0.2723  0.3488  0.2508
  133MPD2    C1 2026   3.050   3.732   8.812  0.4815 -0.3634  0.0694
  133MPD2    C2 2027   3.095   3.812   8.912  0.4417  0.1087 -0.2848
  133MPD2    C3 2028   3.002   3.844   9.011  0.3493  0.4287  0.5089
  133MPD2    C4 2029   2.873   3.799   9.017 -0.1348 -0.7246 -1.7245
  133MPD2    C5 2030   2.836   3.715   8.913 -0.7042  0.2551 -0.0806
  133MPD2     H 2031   3.190   3.864   8.903  0.3730  0.5117  1.4043
  133MPD2    H1 2032   2.799   3.830   9.089  2.0376 -0.6763  0.5038
  133MPD2    H2 2033   2.878   3.612   8.744  0.1793 -1.2743  1.9789
  133MPD2    H3 2034   2.735   3.678   8.906 -0.0328 -1.4625 -0.5906
  133MPD2     N 2035   3.035   3.946   9.108  0.0910  0.2430 -0.5306
  133MPD2    H5 2036   2.966   3.981   9.174 -0.5137 -1.5755 -0.2133
  133MPD2    N1 2037   3.122   3.700   8.701  0.2841 -0.1012 -0.5108
  133MPD2    H7 2038   3.085   3.637   8.631  2.8074 -1.5552 -0.5362
  134TCq2    C1 2039   3.254   3.738   8.686  0.1514 -0.4739  1.0331
  134TCq2    O2 2040   3.343   3.783   8.763  0.2170  0.0781 -0.1118
  134TCq2    C2 2041   3.297   3.718   8.548  0.2544  0.4472  0.6587
  134TCq2    C3 2042   3.210   3.722   8.440 -0.9176  1.0922  0.3708
  134TCq2    C4 2043   3.261   3.710   8.316 -0.2604  0.3312 -0.2641
  134TCq2    C5 2044   3.398   3.677   8.293  0.2338 -0.0349 -0.1991
  134TCq2    C6 2045   3.481   3.670   8.408  0.6767  1.1570 -0.4346
  134TCq2    C7 2046   3.430   3.695   8.533  0.4285  0.3716  0.1407
  134TCq2    C8 2047   3.622   3.674   8.372  0.0800 -0.5580  0.5165
  134TCq2    O4 2048   3.654   3.677   8.254 -0.0750 -0.6533  0.4269
  134TCq2    C9 2049   3.173   3.717   8.204  0.2141 -0.3932  0.6530
  134TCq2    O5 2050   3.228   3.710   8.090  0.9482  0.2070  0.4219
  134TCq2    O6 2051   3.053   3.747   8.221 -0.0466  0.2339 -0.0370
  134TCq2    H2 2052   3.113   3.768   8.452 -1.0613  1.0985 -0.7946
  134TCq2    H3 2053   3.427   3.659   8.190  0.0446 -1.4809 -0.0014
  134TCq2    H4 2054   3.489   3.688   8.623 -0.6164 -3.7089  0.5032
  135MPD2     C 2055   1.331   0.930   9.625 -0.7614 -0.3293  0.0535
  135MPD2    C1 2056   1.221   0.932   9.544 -0.2574  0.6022 -0.1783
  135MPD2    C2 2057   1.240   0.881   9.419  0.1780 -0.8974 -0.5534
  135MPD2    C3 2058   1.355   0.826   9.375 -0.1096  0.1277  0.8499
  135MPD2    C4 2059   1.459   0.810   9.464 -0.1408  0.3686  0.1426
  135MPD2    C5 2060   1.444   0.870   9.586 -0.2362 -0.1241  0.3453
  135MPD2     H 2061   1.158   0.891   9.349  0.2629 -0.4334 -0.5881
  135MPD2    H1 2062   1.548   0.751   9.448  0.8328  2.2361 -1.3595
  135MPD2    H2 2063   1.326   0.962   9.728  1.7101 -1.9180  0.6505
  135MPD2    H3 2064   1.523   0.866   9.661  1.6462  2.4003 -1.4980
  135MPD2     N 2065   1.369   0.760   9.247  0.5137 -0.4121 -0.7943
  135MPD2    H5 2066   1.457   0.711   9.235  0.9105 -0.0283  0.5643
  135MPD2    N1 2067   1.091   0.981   9.584  0.2731  0.5908  0.2448
  135MPD2    H7 2068   1.010   0.961   9.528 -2.5630  2.5890  3.5984
  136TCq2    C1 2069   1.068   1.046   9.705  0.7359  0.0129  0.3729
  136TCq2    O2 2070   1.142   1.075   9.799 -0.0647  0.0679  0.1865
  136TCq2    C2 2071   0.934   1.096   9.720 -0.2566  0.0299 -0.3061
  136TCq2    C3 2072   0.832   1.048   9.643 -0.1089  0.0413 -0.4321
  136TCq2    C4 2073   0.707   1.107   9.657  0.6839  0.1592  0.5490
  136TCq2    C5 2074   0.685   1.201   9.750  0.1200  0.2552  0.1962
  136TCq2    C6 2075   0.785   1.247   9.832  0.1767  0.5032  0.1065
  136TCq2    C7 2076   0.909   1.191   9.817  0.2414  0.5526  0.5718
  136TCq2    C8 2077   0.762   1.352   9.939 -0.3481  0.2051 -0.5673
  136TCq2    O4 2078   0.851   1.429   9.960 -0.0762 -0.1290 -0.3577
  136TCq2    C9 2079   0.596   1.074   9.570 -0.0975  0.7512 -1.2733
  136TCq2    O5 2080   0.622   1.009   9.467 -0.1306 -0.1274  0.1924
  136TCq2    O6 2081   0.490   1.133   9.598 -0.4710  0.4972  0.1363
  136TCq2    H2 2082   0.834   0.961   9.579 -1.3305  0.9877 -1.7334
  136TCq2    H3 2083   0.585   1.242   9.762  0.0432  0.2397 -0.3853
  136TCq2    H4 2084   0.992   1.227   9.877  0.6790  0.2747  0.1289
  137MPD2     C 2085   0.946   0.009  10.257 -0.4567  1.0511  0.2866
  137MPD2    C1 2086   0.928   0.134  10.204 -0.1174 -0.5869 -0.4428
  137MPD2    C2 2087   0.835   0.216  10.268 -0.4504 -0.1719 -0.6463
  137MPD2    C3 2088   0.755   0.181  10.375 -0.2799  0.2862 -0.2200
  137MPD2    C4 2089   0.773   0.052  10.421  0.3189 -0.6009 -0.0509
  137MPD2    C5 2090   0.871   4.695  10.363 -0.0174  0.0687 -0.5057
  137MPD2     H 2091   0.816   0.319  10.237  1.4107  0.2713 -0.2694
  137MPD2    H1 2092   0.720   0.018  10.509 -1.1314 -0.7206 -0.9760
  137MPD2    H2 2093   1.006   4.659  10.204 -1.8240  0.3246 -0.2589
  137MPD2    H3 2094   0.895   4.597  10.401  2.5528  0.6457 -0.6180
  137MPD2     N 2095   0.662   0.275  10.431 -0.4613  0.1284 -0.0612
  137MPD2    H5 2096   0.655   0.366  10.387 -3.0920  0.5880  1.3063
  137MPD2    N1 2097   1.004   0.155  10.085  0.2112 -0.3296  0.5748
  137MPD2    H7 2098   1.080   0.091  10.066 -2.8093 -3.3041 -1.3562
  138TCq2    C1 2099   0.990   0.274  10.010 -0.2668 -0.2743  0.3551
  138TCq2    O2 2100   0.901   0.356  10.025 -0.5149  0.2079 -0.2953
  138TCq2    C2 2101   1.068   0.268   9.888  0.9138  0.0545  0.4193
  138TCq2    C3 2102   1.191   0.205   9.882 -0.4046  1.0910 -0.0272
  138TCq2    C4 2103   1.243   0.174   9.762 -0.4217 -0.1778  0.1380
  138TCq2    C5 2104   1.169   0.193   9.647  0.3003 -0.1073 -0.6835
  138TCq2    C6 2105   1.053   0.264   9.652 -0.6089 -0.2703  0.0782
  138TCq2    C7 2106   1.001   0.303   9.775 -0.4241  0.9475 -0.4538
  138TCq2    C8 2107   0.971   0.268   9.533 -0.7685  0.3093  0.6120
  138TCq2    O4 2108   0.994   0.207   9.431  0.0077 -0.8588  0.0962
  138TCq2    C9 2109   1.370   0.102   9.763  0.2530  0.1315 -0.9712
  138TCq2    O5 2110   1.453   0.126   9.855  0.3762  0.4409 -0.2092
  138TCq2    O6 2111   1.400   0.048   9.652 -0.0582 -0.9918 -1.2182
  138TCq2    H2 2112   1.246   0.174   9.970  1.7046  0.9027 -1.4262
  138TCq2    H3 2113   1.210   0.159   9.553 -1.4531 -3.0445 -0.4039
  138TCq2    H4 2114   0.922   0.376   9.790 -0.9555  0.1880  0.4492
  139TMC2    C1 2115   1.136   3.454  13.228 -0.0547  0.3994  0.8111
  139TMC2    C2 2116   1.158   3.495  13.097  0.3066  0.2911  0.6121
  139TMC2    C3 2117   1.111   3.614  13.060 -0.3450 -0.2197  0.8049
  139TMC2    C4 2118   1.076   3.542  13.315 -0.2992 -0.0268 -0.8475
  139TMC2    C5 2119   1.030   3.664  13.267  0.2902  0.3130 -0.3518
  139TMC2    C6 2120   1.044   3.705  13.134  1.0572 -0.8814  0.1799
  139TMC2     C 2121   1.166   3.314  13.269 -0.3091  0.7176  0.5052
  139TMC2     O 2122   1.248   3.248  13.207 -0.0168 -0.7322  0.0737
  139TMC2     H 2123   1.200   3.429  13.021  0.0892  0.6991  0.1423
  139TMC2    H1 2124   1.059   3.511  13.418  2.6908 -0.6920 -0.5591
  139TMC2    H2 2125   1.001   3.799  13.100 -4.1029 -3.6560 -0.9488
  139TMC2    C7 2126   0.941   3.738  13.352  0.4579  0.2299  0.5399
  139TMC2    C8 2127   1.123   3.642  12.922 -0.6328 -0.3670  0.1761
  139TMC2    O1 2128   0.843   3.790  13.300  0.0828 -0.2344 -0.1261
  139TMC2    O2 2129   1.139   3.560  12.832  0.3110 -0.5089 -0.2371
  139TMC2    O5 2130   1.130   3.777  12.913 -0.0160  0.2701 -0.0555
  139TMC2    H5 2131   1.131   3.829  12.996 -0.9708 -1.5949  1.1342
  140MPD2     C 2132   0.944   3.125  13.472  0.5918  0.1846 -0.7113
  140MPD2    C1 2133   1.061   3.144  13.407 -0.4054 -0.1416  0.4747
  140MPD2    C2 2134   1.140   3.028  13.386 -0.0686  0.0105  0.7345
  140MPD2    C3 2135   1.098   2.900  13.426  0.4513  0.7493  0.2598
  140MPD2    C4 2136   0.975   2.888  13.488  0.0910 -0.4326 -1.1926
  140MPD2    C5 2137   0.900   3.003  13.509 -0.3648  0.4559 -0.4473
  140MPD2     H 2138   1.240   3.037  13.345  0.0705 -1.6579  0.6833
  140MPD2    H1 2139   0.925   2.797  13.520 -0.4155  0.0358 -0.6693
  140MPD2    H2 2140   0.886   3.212  13.500 -1.1218 -1.4829  0.9452
  140MPD2    H3 2141   0.803   3.001  13.557 -0.3656  0.7436 -0.4420
  140MPD2     N 2142   1.199   2.788  13.405  1.3495  0.4199  0.5018
  140MPD2    H5 2143   1.295   2.806  13.378  1.1120  2.5186  1.0214
  140MPD2    N1 2144   1.079   3.280  13.368 -0.3659 -0.1998 -0.2874
  140MPD2    H7 2145   1.018   3.356  13.396 -0.7025 -0.0502 -1.3897
  141TCq2    C1 2146   1.896   4.690  13.833 -0.3928  0.1580 -0.5873
  141TCq2    O2 2147   1.854   0.007  13.725  0.2304 -0.1044  0.7429
  141TCq2    C2 2148   1.836   0.023  13.953  0.1191 -0.2527 -0.1731
  141TCq2    C3 2149   1.712   0.081  13.937  0.1930  0.2152  0.0456
  141TCq2    C4 2150   1.659   0.153  14.041 -0.2642 -0.5902 -0.2630
  141TCq2    C5 2151   1.721   0.170  14.156  0.5739  0.4184 -0.4537
  141TCq2    C6 2152   1.841   0.115  14.177  0.5124 -0.1857  0.2413
  141TCq2    C7 2153   1.903   0.042  14.076 -0.5495 -0.5410  0.2534
  141TCq2    C8 2154   1.920   0.166  14.290  0.6420  0.3902 -0.2557
  141TCq2    O4 2155   1.853   0.241  14.361  0.6144  0.7917 -0.2077
  141TCq2    C9 2156   1.535   0.216  14.019  0.4202 -0.2619  0.7245
  141TCq2    O5 2157   1.462   0.157  13.931  0.1018 -0.2219  0.5093
  141TCq2    O6 2158   1.509   0.322  14.080  0.1588  0.0880  0.2936
  141TCq2    H2 2159   1.657   0.085  13.844 -1.1786 -2.5505  0.7342
  141TCq2    H3 2160   1.669   0.226  14.233  0.7041  0.0703 -0.1094
  141TCq2    H4 2161   2.003   0.003  14.096 -0.0278  0.4682 -0.3614
  142MPD2     C 2162   4.514   2.914   9.711 -0.8532  0.2511  1.0224
  142MPD2    C1 2163   4.384   2.948   9.671  1.0408  0.1005  0.2510
  142MPD2    C2 2164   4.356   3.007   9.552 -0.2148 -0.2277 -0.6916
  142MPD2    C3 2165   4.462   3.038   9.471 -0.1435  0.3827  0.5567
  142MPD2    C4 2166   4.586   3.003   9.510  0.6300 -0.8226  0.0793
  142MPD2    C5 2167   4.618   2.944   9.626 -0.0548 -0.0053 -0.5936
  142MPD2     H 2168   4.254   3.026   9.520 -0.3773  1.6535  0.9335
  142MPD2    H1 2169   4.666   3.039   9.445  0.7535  2.7004  2.1724
  142MPD2    H2 2170   4.539   2.859   9.801 -3.0068 -2.1311  0.1886
  142MPD2    H3 2171   4.723   2.920   9.638 -0.9350 -2.5726  1.9431
  142MPD2     N 2172   4.448   3.114   9.352 -0.0051  0.1630  0.1015
  142MPD2    H5 2173   4.534   3.140   9.304  0.8265 -4.5555 -0.9303
  142MPD2    N1 2174   4.281   2.916   9.765 -0.7272  0.2856  0.1748
  142MPD2    H7 2175   4.307   2.862   9.847 -2.0630  0.8707  0.9928
  143TCq2    C1 2176   4.332   3.172   9.305  1.0587  0.5247  0.9291
  143TCq2    O2 2177   4.216   3.158   9.329  0.3714 -0.0190 -0.3156
  143TCq2    C2 2178   4.366   3.255   9.187 -0.3746  0.2253  0.3481
  143TCq2    C3 2179   4.497   3.301   9.190  0.1664  0.5807  0.1257
  143TCq2    C4 2180   4.544   3.345   9.071  0.5942 -0.2326 -0.2732
  143TCq2    C5 2181   4.473   3.333   8.954  0.1963  0.4558  0.2071
  143TCq2    C6 2182   4.339   3.280   8.960 -0.0114  0.9228 -0.4578
  143TCq2    C7 2183   4.287   3.246   9.082  0.0954 -0.2289  0.0165
  143TCq2    C8 2184   4.247   3.292   8.853  0.5366  0.1710 -0.1660
  143TCq2    O4 2185   4.128   3.286   8.874  0.1308 -0.3740  0.3446
  143TCq2    C9 2186   4.670   3.414   9.073 -0.6832 -0.0143 -0.2147
  143TCq2    O5 2187   4.692   3.472   9.174 -0.0174  0.2019  0.4737
  143TCq2    O6 2188   4.706   3.457   8.964  0.2172  0.1993 -0.3507
  143TCq2    H2 2189   4.565   3.305   9.275  0.3850 -1.0663  0.0377
  143TCq2    H3 2190   4.515   3.380   8.866 -0.3707 -0.2943 -0.4725
  143TCq2    H4 2191   4.185   3.210   9.090  0.0753 -0.2037 -0.1421
  144MPD2     C 2192   1.144   2.337   0.476  0.6079 -0.2784 -0.2305
  144MPD2    C1 2193   1.195   2.218   0.427  0.1714  0.1082 -0.3311
  144MPD2    C2 2194   1.305   2.155   0.494 -0.3996 -0.3464 -0.2237
  144MPD2    C3 2195   1.349   2.208   0.620 -0.7614  0.9200 -0.5374
  144MPD2    C4 2196   1.296   2.328   0.663 -0.8688 -0.3241  0.1838
  144MPD2    C5 2197   1.198   2.390   0.591 -0.1698 -0.1096 -1.0029
  144MPD2     H 2198   1.352   2.070   0.445 -0.0394 -0.8747  1.0340
  144MPD2    H1 2199   1.330   2.381   0.751  0.3306 -1.4438  0.3990
  144MPD2    H2 2200   1.061   2.386   0.424  2.3485  2.3007 -0.5876
  144MPD2    H3 2201   1.150   2.480   0.626 -0.3117  0.3378 -2.3492
  144MPD2     N 2202   1.462   2.156   0.690 -0.1128 -0.3509 -0.1975
  144MPD2    H5 2203   1.489   2.206   0.774  1.2473 -0.8170 -0.3555
  144MPD2    N1 2204   1.146   2.153   0.311  0.5073  0.1004  0.2076
  144MPD2    H7 2205   1.185   2.063   0.285 -3.9715 -1.2039 -2.0445
  145TCq2    C1 2206   1.531   2.041   0.661  0.5455 -0.0440 -0.6840
  145TCq2    O2 2207   1.489   1.946   0.592  0.3135 -0.7802  0.0105
  145TCq2    C2 2208   1.641   2.015   0.758 -0.2122  0.1017  0.0682
  145TCq2    C3 2209   1.687   1.889   0.760  0.3730 -0.6978  0.0177
  145TCq2    C4 2210   1.786   1.857   0.851  0.3652 -0.4936 -0.1043
  145TCq2    C5 2211   1.812   1.940   0.957  0.7248 -0.4309 -0.5618
  145TCq2    C6 2212   1.774   2.075   0.942 -0.3956  0.1149  0.2391
  145TCq2    C7 2213   1.694   2.113   0.842  0.5745  0.3201 -0.0434
  145TCq2    C8 2214   1.779   2.159   1.059 -0.5442  0.3585 -0.9462
  145TCq2    O4 2215   1.783   2.102   1.163 -0.2783  0.1209  0.4274
  145TCq2    C9 2216   1.828   1.721   0.851  0.4433  0.0945 -0.1755
  145TCq2    O5 2217   1.922   1.690   0.931  0.4554  0.0410  0.3684
  145TCq2    O6 2218   1.746   1.639   0.798  0.1495 -0.1242 -0.1192
  145TCq2    H2 2219   1.665   1.812   0.687 -0.2121 -1.0154  0.5266
  145TCq2    H3 2220   1.868   1.907   1.044  1.7549 -0.8494 -1.3852
  145TCq2    H4 2221   1.651   2.212   0.831  1.9376  0.7119 -1.7469
  146TMC2    C1 2222   4.104   0.691  11.677 -0.1700  0.1582  0.6833
  146TMC2    C2 2223   4.110   0.724  11.547  0.1606 -0.0067  0.6068
  146TMC2    C3 2224   4.180   0.651  11.458 -0.0627  0.3150 -0.2283
  146TMC2    C4 2225   4.158   0.575  11.724  0.8796 -0.0755  1.0652
  146TMC2    C5 2226   4.231   0.506  11.633  0.0401 -0.7698  0.3600
  146TMC2    C6 2227   4.240   0.534  11.500  0.3113 -0.2745 -0.7681
  146TMC2     C 2228   4.016   0.766  11.767  0.0179  0.9696  0.0680
  146TMC2     O 2229   3.918   0.829  11.724 -0.0034 -0.2723 -0.1154
  146TMC2     H 2230   4.071   0.822  11.520  1.4891  1.0674  2.6283
  146TMC2    H1 2231   4.144   0.540  11.825  1.3036 -1.9173  0.4891
  146TMC2    H2 2232   4.309   0.479  11.437  0.5322  1.7534 -2.2852
  146TMC2    C7 2233   4.289   0.374  11.675 -0.6475  0.6245 -0.6203
  146TMC2    C8 2234   4.207   0.696  11.324 -0.2737 -0.0029 -0.2844
  146TMC2    O1 2235   4.288   0.282  11.595  0.2472  0.1468 -0.9587
  146TMC2    O2 2236   4.124   0.761  11.257 -0.6231 -0.7798 -0.2710
  146TMC2    O5 2237   4.331   0.659  11.285  0.0118 -0.3085 -0.0668
  146TMC2    H5 2238   4.389   0.669  11.363  1.1671  0.7283 -1.0610
  147MPD2     C 2239   4.536   0.071  12.009  0.5931 -0.4365 -0.0774
  147MPD2    C1 2240   4.494   0.179  12.072  0.7225  0.4702  0.1407
  147MPD2    C2 2241   4.418   0.272  12.001  0.6787 -0.4812 -0.3012
  147MPD2    C3 2242   4.391   0.257  11.864 -0.2068  0.1810 -0.4209
  147MPD2    C4 2243   4.441   0.147  11.802 -0.3271 -0.1218  0.5448
  147MPD2    C5 2244   4.512   0.057  11.880 -0.0916  0.3177  0.2887
  147MPD2     H 2245   4.399   0.365  12.053 -0.0317 -1.3479  1.0105
  147MPD2    H1 2246   4.436   0.120  11.697  0.5870  0.5683  0.3246
  147MPD2    H2 2247   4.588   0.002  12.075 -3.2122 -1.1782  2.1416
  147MPD2    H3 2248   4.541   4.690  11.829 -3.1998 -0.9869  0.8355
  147MPD2     N 2249   4.333   0.368  11.804 -0.0731  0.1290 -0.0555
  147MPD2    H5 2250   4.323   0.455  11.855 -0.5494  0.3184 -0.4714
  147MPD2    N1 2251   4.522   0.190  12.203  0.1565 -0.2549  0.6055
  147MPD2    H7 2252   4.579   0.119  12.249 -0.5965 -2.4301 -1.8687
  148MPD2     C 2253   4.372   4.083  10.360  0.3077 -0.1375  0.7943
  148MPD2    C1 2254   4.376   3.968  10.281  0.5514  0.5413 -0.4773
  148MPD2    C2 2255   4.254   3.896  10.279  0.7189 -0.0455  0.3899
  148MPD2    C3 2256   4.146   3.921  10.357 -0.0718 -0.2543 -0.0228
  148MPD2    C4 2257   4.145   4.039  10.427 -0.2781  0.0334 -0.9419
  148MPD2    C5 2258   4.267   4.105  10.438 -0.5498  1.1544  0.0421
  148MPD2     H 2259   4.255   3.818  10.204  0.6989  1.5140 -1.2207
  148MPD2    H1 2260   4.061   4.081  10.481 -1.1628 -2.9356 -0.0101
  148MPD2    H2 2261   4.447   4.160  10.371  0.8305 -0.3138 -1.4189
  148MPD2    H3 2262   4.265   4.200  10.490  0.6530 -0.9721  4.0050
  148MPD2     N 2263   4.022   3.860  10.332 -0.1207 -0.2335 -1.1137
  148MPD2    H5 2264   3.939   3.905  10.368  1.1819  1.6311 -0.4696
  148MPD2    N1 2265   4.495   3.926  10.216 -0.4911 -0.2910 -0.3809
  148MPD2    H7 2266   4.505   3.837  10.169  0.2004 -0.2884 -0.2440
  149TCq2    C1 2267   4.605   4.013  10.196  0.7889 -0.6312 -0.2050
  149TCq2    O2 2268   4.603   4.135  10.210 -0.4714 -0.2565 -0.0081
  149TCq2    C2 2269   4.720   3.944  10.127  0.1894 -0.7432  0.2813
  149TCq2    C3 2270   0.045   4.020  10.020 -0.4075  0.5923  0.3093
  149TCq2    C4 2271   0.100   3.963   9.917  0.5453 -0.4083  0.3157
  149TCq2    C5 2272   0.084   3.827   9.902  0.2312  0.2660  0.9302
  149TCq2    C6 2273   0.046   3.755  10.012 -0.6254 -0.1938 -0.7894
  149TCq2    C7 2274   0.013   3.808  10.128 -0.3825  0.1768  0.4130
  149TCq2    C8 2275   0.037   3.610  10.004 -0.1886  0.1020  0.1248
  149TCq2    O4 2276   4.722   3.557   9.903 -0.3715 -0.5176  0.4285
  149TCq2    C9 2277   0.101   4.034   9.796  0.0890  0.8920 -0.5925
  149TCq2    O5 2278   0.077   4.156   9.805 -0.1563 -0.0262  0.1080
  149TCq2    O6 2279   0.105   3.977   9.684 -0.0695 -0.4608 -0.1780
  149TCq2    H2 2280   0.023   4.126  10.018  0.0699  0.6879  0.1253
  149TCq2    H3 2281   0.119   3.774   9.814 -1.5545  0.2988  0.2089
  149TCq2    H4 2282   4.696   3.747  10.208 -0.7025 -1.2014 -0.7998
  150MPD2     C 2283   0.444   3.379  12.020  0.7146 -0.3360  0.6087
  150MPD2    C1 2284   0.487   3.426  11.894 -0.3119 -0.7893  0.0528
  150MPD2    C2 2285   0.587   3.519  11.882 -0.6977  0.3838  0.9334
  150MPD2    C3 2286   0.656   3.563  11.998  0.3604  0.5988  0.6177
  150MPD2    C4 2287   0.618   3.509  12.120  0.2324  0.0381  0.3480
  150MPD2    C5 2288   0.507   3.432  12.131 -0.6443 -0.3477  0.6851
  150MPD2     H 2289   0.626   3.560  11.790  0.4656 -1.8275  0.4523
  150MPD2    H1 2290   0.666   3.534  12.215  1.3796 -1.4923  0.1615
  150MPD2    H2 2291   0.372   3.298  12.022 -1.1874  1.2689 -2.2167
  150MPD2    H3 2292   0.491   3.387  12.228  0.3394  0.0987  1.0484
  150MPD2     N 2293   0.759   3.661  11.988 -0.1007  0.6851  0.1926
  150MPD2    H5 2294   0.774   3.705  11.897  1.2675  0.3908  0.2750
  150MPD2    N1 2295   0.425   3.377  11.782 -0.8299  0.3708  0.5215
  150MPD2    H7 2296   0.342   3.322  11.800 -0.7002  0.3017  0.8991
  151TCq2    C1 2297   0.852   3.686  12.090 -0.3790 -0.4749 -0.4621
  151TCq2    O2 2298   0.870   3.641  12.200 -0.3887  0.0868 -0.6176
  151TCq2    C2 2299   0.946   3.798  12.054  0.4758  0.1860  1.0936
  151TCq2    C3 2300   0.960   3.851  11.926  0.5861  0.2478  0.1798
  151TCq2    C4 2301   1.046   3.956  11.900  0.0964 -0.3125 -0.0290
  151TCq2    C5 2302   1.124   4.004  12.001  0.2998 -0.4669  0.0460
  151TCq2    C6 2303   1.129   3.934  12.119  0.7954  0.0922  0.5959
  151TCq2    C7 2304   1.038   3.835  12.151  0.8258 -0.3132 -0.5071
  151TCq2    C8 2305   1.233   3.974  12.214  0.1160 -0.3008 -0.3332
  151TCq2    O4 2306   1.288   4.084  12.214  0.2140 -0.0263 -0.1226
  151TCq2    C9 2307   1.051   3.999  11.763  0.2012  0.4758  0.3973
  151TCq2    O5 2308   0.975   3.937  11.685  0.0118  0.2480  0.3397
  151TCq2    O6 2309   1.098   4.117  11.749  0.1098  0.0860  0.3657
  151TCq2    H2 2310   0.914   3.803  11.840  2.8817  0.4231 -1.1665
  151TCq2    H3 2311   1.181   4.092  11.972  0.6673 -0.1430  1.7031
  151TCq2    H4 2312   1.036   3.799  12.253 -1.5214 -0.1745 -0.5078
  152MPD2     C 2313   0.417   3.132  12.834 -0.1803 -0.0002  0.5703
  152MPD2    C1 2314   0.420   3.219  12.725  0.4543 -0.2085 -0.1811
  152MPD2    C2 2315   0.313   3.235  12.636 -0.0104  0.3068 -0.1251
  152MPD2    C3 2316   0.196   3.164  12.660  0.5201 -0.0208 -0.8799
  152MPD2    C4 2317   0.192   3.073  12.763 -0.2777 -0.4593 -0.7241
  152MPD2    C5 2318   0.301   3.060  12.849  0.3947 -0.2163  0.0347
  152MPD2     H 2319   0.322   3.294  12.546  3.2207 -1.4233 -0.9442
  152MPD2    H1 2320   0.109   3.004  12.769  0.6131 -1.4287  0.4951
  152MPD2    H2 2321   0.505   3.126  12.896  0.1364 -1.6778 -0.0323
  152MPD2    H3 2322   0.287   2.985  12.926 -2.8858  0.9954  0.5973
  152MPD2     N 2323   0.089   3.187  12.577 -0.5845 -0.0826 -0.6276
  152MPD2    H5 2324   0.103   3.250  12.498 -0.7362 -0.2214 -0.7645
  152MPD2    N1 2325   0.540   3.295  12.708 -0.1604  0.1363  0.4841
  152MPD2    H7 2326   0.623   3.267  12.759 -1.8304 -2.8056  1.5821
  153TCq2    C1 2327   0.547   3.399  12.615  0.4733  0.2786 -0.2851
  153TCq2    O2 2328   0.466   3.470  12.555 -0.1426  0.1543 -0.3729
  153TCq2    C2 2329   0.685   3.425  12.586 -0.0430 -0.0722 -0.3872
  153TCq2    C3 2330   0.789   3.327  12.602  0.1229 -0.1302 -0.1363
  153TCq2    C4 2331   0.919   3.369  12.587 -0.4155 -0.2264 -0.3056
  153TCq2    C5 2332   0.948   3.499  12.549 -0.4044  0.0236  0.7989
  153TCq2    C6 2333   0.843   3.584  12.537  0.0437 -0.0287  0.1985
  153TCq2    C7 2334   0.713   3.558  12.551 -0.0460 -0.2495  0.1683
  153TCq2    C8 2335   0.872   3.725  12.515  0.1628 -0.7013 -0.3095
  153TCq2    O4 2336   0.784   3.781  12.449  0.2343  0.2355  0.6226
  153TCq2    C9 2337   1.029   3.279  12.596 -0.2715 -0.4222 -0.1184
  153TCq2    O5 2338   1.133   3.332  12.552  0.4979  0.2972 -0.0797
  153TCq2    O6 2339   1.024   3.176  12.663 -0.4768  0.0477 -0.8555
  153TCq2    H2 2340   0.775   3.225  12.635 -0.6612 -0.6830 -2.1819
  153TCq2    H3 2341   1.044   3.546  12.533 -0.7707  0.9765  1.3881
  153TCq2    H4 2342   0.643   3.641  12.554 -0.8787 -0.9329 -0.2686
  154MPD2     C 2343   2.141   3.413  17.651  0.0529  0.1273  0.6778
  154MPD2    C1 2344   2.086   3.541  17.633 -0.7935 -0.5380  0.2983
  154MPD2    C2 2345   1.952   3.545  17.624  0.3081 -0.2899 -0.5007
  154MPD2    C3 2346   1.879   3.427  17.621 -0.7554  0.1082 -0.1007
  154MPD2    C4 2347   1.933   3.302  17.647  0.4800 -0.3911 -0.3445
  154MPD2    C5 2348   2.068   3.298  17.650 -0.0457 -0.7785 -0.1394
  154MPD2     H 2349   1.895   3.637  17.619 -0.2893 -0.6379 -0.0699
  154MPD2    H1 2350   1.876   3.210  17.651 -1.3318  0.8192  1.6184
  154MPD2    H2 2351   2.250   3.416  17.659  0.1297 -0.0042 -0.2901
  154MPD2    H3 2352   2.108   3.198  17.665  0.0294 -0.5394  1.2769
  154MPD2     N 2353   1.736   3.441  17.601  0.5522  1.2274  0.4287
  154MPD2    H5 2354   1.707   3.534  17.629  1.6279  2.0869 -1.2907
  154MPD2    N1 2355   2.178   3.651  17.627  0.1804  0.3764 -0.4304
  154MPD2    H7 2356   2.275   3.627  17.613  0.6117  1.5995  0.4949
  155TCq2    C1 2357   2.146   3.781  17.630 -0.0720 -0.1206  0.3662
  155TCq2    O2 2358   2.037   3.833  17.625 -1.1235  0.3515  0.5200
  155TCq2    C2 2359   2.266   3.859  17.655  0.3036 -0.1440 -0.8403
  155TCq2    C3 2360   2.393   3.807  17.653  0.4356 -0.3591  0.2781
  155TCq2    C4 2361   2.490   3.887   0.006 -0.3944  0.5227 -0.1221
  155TCq2    C5 2362   2.475   4.012   0.066  0.4556 -0.6468  0.4176
  155TCq2    C6 2363   2.342   4.059   0.062 -0.6223  0.0384 -0.1293
  155TCq2    C7 2364   2.242   3.984   0.007 -0.5487  0.1075  0.1435
  155TCq2    C8 2365   2.314   4.195   0.110  0.4129 -0.2167  0.3674
  155TCq2    O4 2366   2.193   4.215   0.128 -0.6078  0.2780  0.0070
  155TCq2    C9 2367   2.627   3.841   0.010  0.5197  0.5584 -0.1452
  155TCq2    O5 2368   2.717   3.925   0.034 -0.0653  0.3405  0.1571
  155TCq2    O6 2369   2.658   3.724  17.670  0.3092 -0.0478  0.3591
  155TCq2    H2 2370   2.428   3.716  17.605  0.8462  0.4857 -1.0275
  155TCq2    H3 2371   2.544   4.066   0.131  0.5892  1.0738 -1.1526
  155TCq2    H4 2372   2.140   4.021   0.005 -1.1332 -1.5106  0.4940
  156MPD2     C 2373   1.412   0.957  12.589  1.0634  0.2588  0.2116
  156MPD2    C1 2374   1.373   1.062  12.506 -0.0783  0.7792 -0.4831
  156MPD2    C2 2375   1.324   1.173  12.574  0.9007 -0.0961 -0.9232
  156MPD2    C3 2376   1.338   1.187  12.704 -0.8272  0.0976 -0.4561
  156MPD2    C4 2377   1.385   1.084  12.780  0.1322 -0.2719 -0.3378
  156MPD2    C5 2378   1.419   0.964  12.723  0.2225  0.2565 -0.1738
  156MPD2     H 2379   1.297   1.265  12.525  0.2117  0.5790  0.7222
  156MPD2    H1 2380   1.382   1.087  12.889 -2.6093  1.4458 -0.4664
  156MPD2    H2 2381   1.435   0.862  12.542  0.4945 -0.5030  1.4641
  156MPD2    H3 2382   1.438   0.880  12.789  1.8476 -0.4557 -1.5432
  156MPD2     N 2383   1.311   1.313  12.765  0.1646 -0.0353 -0.5701
  156MPD2    H5 2384   1.263   1.378  12.703  1.3636  1.0811 -0.3262
  156MPD2    N1 2385   1.373   1.048  12.365  0.6362  0.0783  0.2929
  156MPD2    H7 2386   1.410   0.961  12.328 -1.7933  0.7624 -3.7668
  157TCq2    C1 2387   1.341   1.144  12.274  0.2306  1.2824  0.1423
  157TCq2    O2 2388   1.263   1.236  12.298  0.3881  0.0064  0.2426
  157TCq2    C2 2389   1.374   1.119  12.132  0.7161 -0.7649 -0.0403
  157TCq2    C3 2390   1.460   1.017  12.094 -0.3899  0.1179 -0.1498
  157TCq2    C4 2391   1.474   1.004  11.960  0.2482  0.0142  0.0985
  157TCq2    C5 2392   1.428   1.095  11.868  0.2721  0.6274  0.0865
  157TCq2    C6 2393   1.354   1.202  11.911  1.1846 -0.0567 -0.1855
  157TCq2    C7 2394   1.317   1.209  12.043  0.1687  0.7674 -0.3015
  157TCq2    C8 2395   1.296   1.303  11.822 -1.0002  0.4680  0.2323
  157TCq2    O4 2396   1.246   1.403  11.877  0.3064 -0.0858 -0.0538
  157TCq2    C9 2397   1.548   0.889  11.914 -0.5862  0.4779  0.4644
  157TCq2    O5 2398   1.586   0.803  11.999  0.1969  0.3479 -0.0339
  157TCq2    O6 2399   1.549   0.873  11.790  0.0485  0.5156 -0.4650
  157TCq2    H2 2400   1.499   0.940  12.160 -0.1600 -0.3977 -0.8893
  157TCq2    H3 2401   1.453   1.080  11.763  2.2363 -0.6731  0.7288
  157TCq2    H4 2402   1.254   1.282  12.092 -1.6813 -1.1064  0.0910
  158TMC2    C1 2403   1.144   0.080  13.045 -1.1727 -0.3903 -0.2977
  158TMC2    C2 2404   1.180   0.159  12.939 -0.2467  1.1755  0.1823
  158TMC2    C3 2405   1.099   0.173  12.830  0.1090  0.2664 -0.6494
  158TMC2    C4 2406   1.018   0.035  13.048  0.0446 -0.0098 -0.0352
  158TMC2    C5 2407   0.934   0.049  12.939  0.2983  0.1830 -0.7180
  158TMC2    C6 2408   0.977   0.114  12.827 -0.2208  0.2370 -0.1323
  158TMC2     C 2409   1.235   0.082  13.166  0.3211  0.4533  0.4282
  158TMC2     O 2410   1.352   0.094  13.148 -0.0249  0.1083 -0.3177
  158TMC2     H 2411   1.280   0.200  12.953  0.5151 -0.4495 -0.5723
  158TMC2    H1 2412   0.987   4.697  13.132 -0.0653 -2.2118 -1.6886
  158TMC2    H2 2413   0.916   0.132  12.739  0.4750  0.9678 -0.4676
  158TMC2    C7 2414   0.789   0.021  12.942  0.3449 -0.4456 -0.1690
  158TMC2    C8 2415   1.127   0.263  12.723  0.4798  0.3293  0.7269
  158TMC2    O1 2416   0.721   0.045  12.842 -0.5460 -0.1318  0.3459
  158TMC2    O2 2417   1.046   0.307  12.649  0.1437  0.4752  0.3992
  158TMC2    O5 2418   1.257   0.285  12.711  0.2569 -0.2667  0.3044
  158TMC2    H5 2419   1.306   0.211  12.754 -0.2299 -0.4557  0.5394
  159MPD2     C 2420   1.386   4.697  13.640  0.4346 -1.0604 -0.5761
  159MPD2    C1 2421   1.250   4.696  13.642 -0.0648  0.1994 -0.1301
  159MPD2    C2 2422   1.182   0.010  13.522  0.3430  0.2627 -0.4720
  159MPD2    C3 2423   1.251   0.041  13.405 -1.0918 -0.5215  0.5669
  159MPD2    C4 2424   1.385   0.028  13.412  0.4672  0.2343 -0.6299
  159MPD2    C5 2425   1.456   0.003  13.529 -0.2442  0.2503 -0.0674
  159MPD2     H 2426   1.075   4.716  13.515  0.4714 -1.6665  2.4098
  159MPD2    H1 2427   1.454   0.049  13.331 -0.6055  0.6085 -1.4360
  159MPD2    H2 2428   1.447   4.681  13.728 -0.8327  0.9407  0.6910
  159MPD2    H3 2429   1.565   0.000  13.526 -0.2716 -0.4632 -0.3847
  159MPD2     N 2430   1.177   0.056  13.288 -0.1466 -0.1796 -0.1089
  159MPD2    H5 2431   1.077   0.041  13.294  0.0702 -1.6634 -0.2294
  159MPD2    N1 2432   1.184   4.660  13.762 -0.0920  0.2072 -0.0861
  159MPD2    H7 2433   1.237   4.677  13.848 -0.1484 -0.3735  0.0598
  160TMC2    C1 2434   0.765   2.701   1.270 -0.0893 -1.0188  0.2845
  160TMC2    C2 2435   0.836   2.674   1.384  1.0532  0.2119  0.3212
  160TMC2    C3 2436   0.958   2.628   1.365 -0.5081  0.1781 -0.0878
  160TMC2    C4 2437   0.823   2.698   1.141  0.8303  0.2078  0.8787
  160TMC2    C5 2438   0.949   2.648   1.130  0.2599  0.0536  0.4181
  160TMC2    C6 2439   1.020   2.611   1.241 -0.2553  0.2950 -0.3014
  160TMC2     C 2440   0.623   2.711   1.295 -0.9881 -0.6270 -0.0072
  160TMC2     O 2441   0.573   2.641   1.383  0.3592  0.0373 -0.3068
  160TMC2     H 2442   0.804   2.692   1.486 -0.8099 -2.7509  0.2599
  160TMC2    H1 2443   0.761   2.714   1.054  0.1587 -1.7350  1.0055
  160TMC2    H2 2444   1.113   2.555   1.230  1.4290  2.7439  1.3204
  160TMC2    C7 2445   1.028   2.678   1.014  0.0601 -0.1693 -0.2197
  160TMC2    C8 2446   1.017   2.581   1.491 -0.4912  0.3366 -0.1197
  160TMC2    O1 2447   1.126   2.604   0.987 -0.3224  0.5423 -0.0787
  160TMC2    O2 2448   0.950   2.516   1.568  0.0064 -0.3999 -0.2157
  160TMC2    O5 2449   1.143   2.558   1.466 -0.0696  0.2921 -0.4384
  160TMC2    H5 2450   1.180   2.612   1.393  1.6021  0.1773  0.3172
  161MPD2     C 2451   0.342   2.684   1.213 -0.0642 -0.7337  0.2252
  161MPD2    C1 2452   0.427   2.780   1.167  0.1788  0.2290 -0.2630
  161MPD2    C2 2453   0.375   2.884   1.085  0.2550 -0.2925 -0.7758
  161MPD2    C3 2454   0.241   2.886   1.052  0.2718  0.1039  0.0417
  161MPD2    C4 2455   0.159   2.796   1.108 -0.2049 -0.1600 -0.7817
  161MPD2    C5 2456   0.209   2.705   1.199 -0.6751 -0.1800  0.4958
  161MPD2     H 2457   0.437   2.967   1.054 -0.8804  1.2651  1.0541
  161MPD2    H1 2458   0.053   2.790   1.089 -0.3002 -0.5635 -0.1204
  161MPD2    H2 2459   0.379   2.600   1.270 -0.9504  0.5989  2.7385
  161MPD2    H3 2460   0.143   2.624   1.227 -0.6538 -0.6620 -0.8426
  161MPD2     N 2461   0.183   2.983   0.963 -0.3722  0.1220 -0.5687
  161MPD2    H5 2462   0.088   2.968   0.929  0.0450 -2.9900 -0.3840
  161MPD2    N1 2463   0.560   2.786   1.205 -0.0220  0.3789  0.3307
  161MPD2    H7 2464   0.624   2.854   1.164  1.3187 -0.8792  0.3587
  162TMC2    C1 2465   3.162   4.546   0.813 -0.4932  0.1144 -0.5350
  162TMC2    C2 2466   3.036   4.551   0.770  0.6780  0.0550 -0.1566
  162TMC2    C3 2467   2.935   4.537   0.860  0.5568 -0.4579  0.0435
  162TMC2    C4 2468   3.189   4.530   0.946 -0.7080 -0.4311 -0.4830
  162TMC2    C5 2469   3.085   4.498   1.031 -0.2558 -0.8896 -0.6475
  162TMC2    C6 2470   2.957   4.503   0.989 -0.1231  0.0688 -0.5952
  162TMC2     C 2471   3.271   4.580   0.717  0.0323  0.2264  0.3146
  162TMC2     O 2472   3.386   4.537   0.719  0.3414  0.3687  0.2074
  162TMC2     H 2473   3.013   4.557   0.664 -1.3344 -0.0436  0.2822
  162TMC2    H1 2474   3.289   4.539   0.986 -0.5456  1.4334 -1.2738
  162TMC2    H2 2475   2.873   4.477   1.053 -0.6145 -1.1068 -1.7239
  162TMC2    C7 2476   3.099   4.464   1.172 -0.4619 -0.2762  0.1842
  162TMC2    C8 2477   2.802   4.550   0.811  0.0443 -0.0382 -0.1912
  162TMC2    O1 2478   2.999   4.479   1.237 -0.4714  0.0466 -0.1354
  162TMC2    O2 2479   2.701   4.516   0.874  0.6242 -0.2664 -0.3673
  162TMC2    O5 2480   2.812   4.669   0.743 -0.1470 -0.5524  0.5609
  162TMC2    H5 2481   2.894   4.722   0.742 -0.2563 -0.4193 -1.3279
  163MPD2     C 2482   3.340   0.165   0.318 -0.1729 -0.0773 -0.3663
  163MPD2    C1 2483   3.393   0.045   0.334  0.1833  1.0238  0.4862
  163MPD2    C2 2484   3.351   4.699   0.445  0.3635  1.4834 -0.1304
  163MPD2    C3 2485   3.271   0.038   0.534  0.2830 -0.3351  1.1543
  163MPD2    C4 2486   3.206   0.153   0.508  0.0622  0.0294 -0.1716
  163MPD2    C5 2487   3.250   0.223   0.406  0.1287  0.1669 -0.3503
  163MPD2     H 2488   3.385   4.599   0.467 -1.0565  1.0701  0.1737
  163MPD2    H1 2489   3.128   0.192   0.572 -0.8275 -1.9181 -0.0825
  163MPD2    H2 2490   3.357   0.225   0.229  0.1444  0.6150  0.1587
  163MPD2    H3 2491   3.209   0.314   0.364 -1.3222  0.4834  1.7218
  163MPD2     N 2492   3.224   4.694   0.656  0.0759  0.0651  1.1251
  163MPD2    H5 2493   3.140   0.005   0.700 -1.8530 -3.6803  0.4503
  163MPD2    N1 2494   3.471   4.716   0.232  0.6080  0.6892 -0.0567
  163MPD2    H7 2495   3.480   0.051   0.149  0.6990 -0.1112 -0.6093
  164TCq2    C1 2496   4.482   3.668  10.570 -0.0634 -0.0801  0.6339
  164TCq2    O2 2497   4.541   3.585  10.502  0.5922 -0.4910 -0.0247
  164TCq2    C2 2498   4.345   3.633  10.611 -0.1462  0.4619 -0.4252
  164TCq2    C3 2499   4.308   3.498  10.632  0.5934 -0.6373  0.5045
  164TCq2    C4 2500   4.173   3.469  10.660 -0.0825  0.5475  0.2643
  164TCq2    C5 2501   4.083   3.566  10.674 -0.1313 -0.1325  1.3288
  164TCq2    C6 2502   4.120   3.698  10.652 -0.5214  0.0757 -1.0888
  164TCq2    C7 2503   4.251   3.727  10.612 -0.4156 -0.5830  0.2986
  164TCq2    C8 2504   4.041   3.802  10.715 -0.3578  0.0936 -0.2503
  164TCq2    O4 2505   4.068   3.918  10.688 -0.3418 -0.2981 -0.0115
  164TCq2    C9 2506   4.136   3.335  10.690 -0.6858 -0.0805  0.0355
  164TCq2    O5 2507   4.219   3.247  10.681 -0.0157  0.3295 -0.3255
  164TCq2    O6 2508   4.016   3.304  10.712 -1.0482  0.4284 -1.4355
  164TCq2    H2 2509   4.384   3.421  10.645 -0.6676 -1.8453  0.7622
  164TCq2    H3 2510   3.982   3.538  10.702 -0.4673 -0.4553 -0.2137
  164TCq2    H4 2511   4.265   3.828  10.574 -0.7541 -0.4768  0.4460
  165MPD2     C 2512   3.522   2.148   0.978  0.9041  0.4539 -0.1246
  165MPD2    C1 2513   3.631   2.081   0.924 -0.3491  0.1374  0.3501
  165MPD2    C2 2514   3.758   2.136   0.923 -0.4863 -0.2566 -0.0727
  165MPD2    C3 2515   3.779   2.259   0.981 -0.4897  0.0595  0.3098
  165MPD2    C4 2516   3.668   2.322   1.037  0.0969  0.3707 -0.1052
  165MPD2    C5 2517   3.539   2.275   1.023  0.6171  0.6516 -0.3247
  165MPD2     H 2518   3.847   2.080   0.896 -0.2419 -0.5297  1.2895
  165MPD2    H1 2519   3.681   2.423   1.075  2.0392  0.2552 -0.4815
  165MPD2    H2 2520   3.418   2.119   0.965  0.9661  0.2610 -0.1837
  165MPD2    H3 2521   3.451   2.333   1.049 -0.8241 -1.1391 -1.1972
  165MPD2     N 2522   3.899   2.324   1.008 -0.0065  0.5407 -0.1668
  165MPD2    H5 2523   3.884   2.405   1.066  0.4230 -0.0890  0.8295
  165MPD2    N1 2524   3.611   1.942   0.882 -0.3291 -0.2814  0.3575
  165MPD2    H7 2525   3.517   1.915   0.857 -0.3962 -0.2707  0.5958
  166TCq2    C1 2526   4.029   2.283   0.979  0.4398  0.0040 -0.0628
  166TCq2    O2 2527   4.061   2.189   0.910 -0.2746  0.8078  0.0330
  166TCq2    C2 2528   4.116   2.369   1.058 -0.2358  0.0469  0.0178
  166TCq2    C3 2529   4.068   2.481   1.128  0.8993 -0.8920 -0.3753
  166TCq2    C4 2530   4.161   2.551   1.197  0.2841  0.2929 -0.8214
  166TCq2    C5 2531   4.291   2.518   1.201  0.6215 -0.2646 -0.7846
  166TCq2    C6 2532   4.331   2.402   1.152  0.2567  0.2329 -0.3327
  166TCq2    C7 2533   4.243   2.324   1.075  0.5195  0.0540  0.0713
  166TCq2    C8 2534   4.466   2.361   1.190  0.9978 -0.2043  0.6049
  166TCq2    O4 2535   4.515   2.275   1.118  0.5527  0.6986 -0.6692
  166TCq2    C9 2536   4.126   2.681   1.242  0.0582 -0.3872  0.4278
  166TCq2    O5 2537   4.018   2.729   1.203 -0.0312  0.3116  0.0416
  166TCq2    O6 2538   4.212   2.747   1.309  0.1032 -0.0368 -0.0449
  166TCq2    H2 2539   3.968   2.522   1.119  0.6492 -1.5927 -0.8192
  166TCq2    H3 2540   4.365   2.592   1.229  0.9638 -0.6992 -0.5443
  166TCq2    H4 2541   4.254   2.220   1.045 -0.0420  0.2478 -0.8061
  167TMC2    C1 2542   3.431   4.210  12.578  0.6417  0.2476 -0.0758
  167TMC2    C2 2543   3.394   4.274  12.692  0.0732 -0.2606  0.0764
  167TMC2    C3 2544   3.351   4.200  12.794 -0.1557 -0.2739 -0.7780
  167TMC2    C4 2545   3.404   4.075  12.560  0.1096 -0.2885 -0.2640
  167TMC2    C5 2546   3.352   4.004  12.663  0.4060  0.2759  0.2268
  167TMC2    C6 2547   3.323   4.070  12.782  0.6454  0.4477 -0.7756
  167TMC2     C 2548   3.472   4.294  12.470  0.2609  0.2652  0.0006
  167TMC2     O 2549   3.440   4.413  12.477 -0.2499 -0.0273 -0.2809
  167TMC2     H 2550   3.429   4.375  12.705  2.0924 -1.1326  1.4488
  167TMC2    H1 2551   3.422   4.029  12.464  1.4618 -1.7054  0.6607
  167TMC2    H2 2552   3.292   4.004  12.862 -0.6870  1.5015 -0.4421
  167TMC2    C7 2553   3.345   3.856  12.669 -0.0705 -0.3317  0.2402
  167TMC2    C8 2554   3.339   4.256  12.919 -0.5415 -0.0411 -0.3134
  167TMC2    O1 2555   3.284   3.813  12.766  0.3035 -0.0792 -0.2897
  167TMC2    O2 2556   3.335   4.184  13.015  0.1258 -0.8992  1.2455
  167TMC2    O5 2557   3.280   4.374  12.910 -0.0688  0.1304  0.0654
  167TMC2    H5 2558   3.251   4.396  12.819 -0.7916  0.8021  0.4631
  168MPD2     C 2559   3.624   4.403  12.241  0.5283  0.4744 -0.4942
  168MPD2    C1 2560   3.585   4.271  12.251 -0.2006 -0.4514 -0.4061
  168MPD2    C2 2561   3.620   4.181  12.154  0.1155  0.4692 -0.5914
  168MPD2    C3 2562   3.693   4.229  12.045  0.1652 -0.2033  0.3743
  168MPD2    C4 2563   3.720   4.364  12.026 -0.0441  0.2582 -0.2844
  168MPD2    C5 2564   3.691   4.448  12.133  0.7823 -0.2250 -0.2387
  168MPD2     H 2565   3.598   4.076  12.168 -0.4109  0.6607  0.0107
  168MPD2    H1 2566   3.782   4.410  11.950 -0.2067 -0.8361 -1.0838
  168MPD2    H2 2567   3.616   4.470  12.326  1.4275  1.1792 -0.9715
  168MPD2    H3 2568   3.733   4.547  12.143 -0.1843  0.0228  1.4548
  168MPD2     N 2569   3.737   4.143  11.948  0.4560  0.1425  0.4012
  168MPD2    H5 2570   3.767   4.176  11.857  1.0870 -1.3514  0.0501
  168MPD2    N1 2571   3.524   4.222  12.364  0.5720  0.3478 -0.0058
  168MPD2    H7 2572   3.533   4.122  12.380  0.2267  0.0235 -1.8600
  169MPD1     C 2573   0.350   3.390   8.280 -0.1052 -0.3614  0.0490
  169MPD1    C1 2574   0.361   3.271   8.345  0.1043  0.2263  0.4422
  169MPD1    C2 2575   0.461   3.258   8.438 -0.6687  0.3067  0.1863
  169MPD1    C3 2576   0.558   3.361   8.465  0.0733 -0.1676  0.5645
  169MPD1    C4 2577   0.549   3.467   8.386  0.0267  0.1779 -0.1989
  169MPD1    C5 2578   0.448   3.484   8.289 -0.5647  0.2201 -0.0537
  169MPD1     H 2579   0.468   3.169   8.499  0.0708  0.7453  0.7413
  169MPD1    H1 2580   0.599   3.560   8.408  0.8223 -0.4900  0.7883
  169MPD1    H2 2581   0.278   3.410   8.201 -0.7976  0.2556  0.8386
  169MPD1    H3 2582   0.449   3.567   8.219 -1.7632 -0.2252 -0.6005
  169MPD1     N 2583   0.663   3.343   8.559 -0.0855  0.0850  0.2480
  169MPD1    H5 2584   0.657   3.253   8.606 -0.3312 -0.4277 -0.7583
  169MPD1    N1 2585   0.261   3.177   8.330  0.0769 -0.2948  0.2895
  169MPD1    H6 2586   0.207   3.172   8.243  0.8780 -1.5495 -0.1416
  169MPD1    H7 2587   0.291   3.081   8.346  0.0362  0.2948  3.8316
  170MPD1     C 2588   0.157   1.499  13.307 -0.1018  0.4983 -0.6404
  170MPD1    C1 2589   0.195   1.564  13.424 -0.5869  1.2858 -0.2282
  170MPD1    C2 2590   0.126   1.680  13.462  0.2701 -0.0774  0.6213
  170MPD1    C3 2591   0.033   1.737  13.376 -0.0663  0.6780 -0.6914
  170MPD1    C4 2592   0.010   1.676  13.250  0.5610  0.5283  0.2434
  170MPD1    C5 2593   0.068   1.552  13.220 -0.0095  0.0521 -0.5045
  170MPD1     H 2594   0.153   1.737  13.550  0.9136 -0.0558  0.4090
  170MPD1    H1 2595   4.668   1.717  13.175  1.1338  1.5923  0.3246
  170MPD1    H2 2596   0.204   1.404  13.287 -0.5567 -0.0190  0.7927
  170MPD1    H3 2597   0.050   1.501  13.126  3.2246  0.4229 -1.3295
  170MPD1     N 2598   4.689   1.855  13.421 -0.4018 -0.6739  0.6785
  170MPD1    H5 2599   4.708   1.883  13.516  2.3105 -0.2359  0.0090
  170MPD1    N1 2600   0.282   1.500  13.512 -0.6032  0.0832 -1.1365
  170MPD1    H6 2601   0.350   1.446  13.458  1.9155 -0.6242  2.7306
  170MPD1    H7 2602   0.327   1.560  13.581 -2.6765 -0.8918  1.0903
  171MPD1     C 2603   3.124   3.335  15.234  0.6064  0.6372  0.0263
  171MPD1    C1 2604   3.037   3.271  15.153 -0.7005  0.3205  0.2856
  171MPD1    C2 2605   2.959   3.167  15.202 -0.1874  0.0464 -0.3502
  171MPD1    C3 2606   2.980   3.114  15.325  0.8430  0.0089 -0.3774
  171MPD1    C4 2607   3.070   3.173  15.407  0.3703  0.2010  0.3523
  171MPD1    C5 2608   3.138   3.286  15.365 -0.8619  1.2129 -0.1441
  171MPD1     H 2609   2.880   3.125  15.140 -0.0762 -0.1838 -0.3391
  171MPD1    H1 2610   3.091   3.133  15.506 -0.4728 -3.0004 -0.7572
  171MPD1    H2 2611   3.181   3.420  15.199 -2.0167  1.9250 -1.1624
  171MPD1    H3 2612   3.208   3.325  15.438 -0.2970 -0.0834  0.0139
  171MPD1     N 2613   2.919   3.001  15.373  0.1641 -0.1567 -0.9311
  171MPD1    H5 2614   2.938   2.967  15.467  0.5674  1.3120 -0.4810
  171MPD1    N1 2615   3.016   3.321  15.020  0.4887 -0.6385  0.1922
  171MPD1    H6 2616   3.083   3.390  14.985 -0.1954 -0.0864 -0.0422
  171MPD1    H7 2617   3.029   3.245  14.954  2.5659  0.2422 -0.4328
  172MPD1     C 2618   2.157   2.252   0.918  0.9440 -0.5097  0.1935
  172MPD1    C1 2619   2.100   2.379   0.911  0.1881 -0.0892 -0.2866
  172MPD1    C2 2620   2.011   2.412   0.806 -0.3600  0.6828  0.3487
  172MPD1    C3 2621   1.971   2.316   0.721 -0.4792  0.2042 -0.0505
  172MPD1    C4 2622   2.026   2.191   0.729 -0.9542 -0.3698  0.1424
  172MPD1    C5 2623   2.111   2.158   0.832 -0.2702 -0.0211  0.5942
  172MPD1     H 2624   1.988   2.518   0.802 -0.0658  0.6771 -1.3036
  172MPD1    H1 2625   1.989   2.112   0.665  0.0769 -2.6173  2.3179
  172MPD1    H2 2626   2.229   2.219   0.993  1.3937  0.6730  0.2766
  172MPD1    H3 2627   2.151   2.057   0.826  0.0363  0.0582  1.3436
  172MPD1     N 2628   1.869   2.334   0.622 -0.8189  1.2375 -0.4114
  172MPD1    H5 2629   1.844   2.253   0.566 -0.2382  0.1250  0.9330
  172MPD1    N1 2630   2.143   2.485   0.993  0.1729  0.7134 -0.2605
  172MPD1    H6 2631   2.169   2.443   1.082  0.4225  3.0167  0.7681
  172MPD1    H7 2632   2.075   2.560   1.008  0.6603  0.9975  0.5799
  173MPD1     C 2633   3.156   2.383  13.555  0.0994  0.7444 -0.3518
  173MPD1    C1 2634   3.021   2.385  13.557  0.1022 -0.2718  0.3931
  173MPD1    C2 2635   2.958   2.330  13.666  0.2703 -0.2537 -1.0753
  173MPD1    C3 2636   3.029   2.285  13.774 -0.0595 -0.0297  0.4939
  173MPD1    C4 2637   3.171   2.290  13.776 -0.4834  0.2101  0.1286
  173MPD1    C5 2638   3.227   2.336  13.662 -0.2426  0.2234  0.0115
  173MPD1     H 2639   2.850   2.331  13.674  0.3136  0.7915 -0.5178
  173MPD1    H1 2640   3.231   2.261  13.862 -1.8327  0.6026  1.1884
  173MPD1    H2 2641   3.215   2.410  13.468 -2.8226 -0.4837 -2.7261
  173MPD1    H3 2642   3.334   2.341  13.645  0.1546 -0.9360  2.1316
  173MPD1     N 2643   2.953   2.235  13.880  0.5557  0.3466  0.0566
  173MPD1    H5 2644   2.855   2.248  13.860  0.4100 -0.7465  0.0253
  173MPD1    N1 2645   2.952   2.450  13.459  0.0752  0.5370  0.8128
  173MPD1    H6 2646   2.852   2.434  13.450  0.5062 -1.2444 -0.7893
  173MPD1    H7 2647   2.995   2.426  13.370 -2.3216  0.5638 -0.3457
  174MPD1     C 2648   2.727   1.388  13.777 -0.2897  0.2025 -0.3572
  174MPD1    C1 2649   2.611   1.475  13.777  0.1596 -0.2841  0.4409
  174MPD1    C2 2650   2.627   1.586  13.862  0.0503  0.5405 -0.4055
  174MPD1    C3 2651   2.738   1.611  13.943  0.0074  0.2932 -0.1612
  174MPD1    C4 2652   2.834   1.513  13.947  0.3779 -0.3711 -0.3869
  174MPD1    C5 2653   2.831   1.399  13.866  0.5199  0.5186  0.4424
  174MPD1     H 2654   2.542   1.653  13.871 -0.3523 -0.1484  0.8783
  174MPD1    H1 2655   2.921   1.532  14.008  0.8458 -0.8042 -0.9230
  174MPD1    H2 2656   2.740   1.303  13.712 -2.1573 -1.3545  1.3092
  174MPD1    H3 2657   2.917   1.334  13.861 -0.7161 -1.1392  0.4284
  174MPD1     N 2658   2.750   1.726  14.029  0.0591  0.1469  0.4122
  174MPD1    H5 2659   2.820   1.732  14.103  0.9716 -0.1937 -0.4295
  174MPD1    N1 2660   2.496   1.459  13.700  0.7241 -0.4389  0.2752
  174MPD1    H6 2661   2.475   1.363  13.670 -0.8549 -0.5268  1.6690
  174MPD1    H7 2662   2.418   1.519  13.723  0.7181  0.3839 -1.8546
  175MPD1     C 2663   1.303   3.320  14.879 -0.0112  0.6521 -0.0917
  175MPD1    C1 2664   1.207   3.236  14.940 -0.2448 -1.0317  0.2945
  175MPD1    C2 2665   1.230   3.178  15.062 -0.9318  0.5030  0.6299
  175MPD1    C3 2666   1.345   3.214  15.131 -0.0095  0.2867 -0.7310
  175MPD1    C4 2667   1.430   3.308  15.086 -0.2731  0.0962  0.0938
  175MPD1    C5 2668   1.406   3.361  14.958  0.3253 -0.2666  0.5596
  175MPD1     H 2669   1.169   3.092  15.084 -1.3442  0.7347  0.3997
  175MPD1    H1 2670   1.515   3.337  15.146 -0.1494  0.7283 -0.3935
  175MPD1    H2 2671   1.288   3.369  14.783 -1.9226  1.3710  0.5730
  175MPD1    H3 2672   1.478   3.435  14.923  0.8812 -0.3141  1.5974
  175MPD1     N 2673   1.373   3.163  15.262 -0.7551 -0.9627  0.1121
  175MPD1    H5 2674   1.455   3.195  15.312 -1.7017 -0.2347  1.1919
  175MPD1    N1 2675   1.088   3.202  14.883  0.1336  0.5167 -0.3130
  175MPD1    H6 2676   1.057   3.255  14.802 -1.5691  0.9284  0.6087
  175MPD1    H7 2677   1.023   3.210  14.961 -0.5290 -1.0507 -0.7083
  176MPD1     C 2678   1.926   0.116  17.670  0.4080 -0.7845  0.0779
  176MPD1    C1 2679   1.991   0.209  17.585  0.1629 -0.5960  0.3171
  176MPD1    C2 2680   2.101   0.279  17.634  0.8580  0.3124 -0.4795
  176MPD1    C3 2681   2.149   0.254   0.065 -0.0379  0.1184  0.1358
  176MPD1    C4 2682   2.084   0.168   0.151 -0.0505  0.2586 -1.1660
  176MPD1    C5 2683   1.972   0.096   0.105 -0.2945 -0.4418 -0.5796
  176MPD1     H 2684   2.162   0.350  17.580 -0.1989  0.5630 -1.3309
  176MPD1    H1 2685   2.104   0.156   0.257  0.0829  0.6980 -1.1387
  176MPD1    H2 2686   1.836   0.065  17.638 -1.8867  2.7022  0.9339
  176MPD1    H3 2687   1.933   0.017   0.168 -0.8156 -1.5991 -2.3350
  176MPD1     N 2688   2.268   0.325   0.107 -0.2791  0.2051 -0.1034
  176MPD1    H5 2689   2.329   0.367   0.037 -0.3781  1.1206  0.3681
  176MPD1    N1 2690   1.933   0.266  17.467  0.1921  0.0654  0.2104
  176MPD1    H6 2691   1.865   0.202  17.425 -0.0461  1.3049 -1.2663
  176MPD1    H7 2692   2.001   0.287  17.395  0.5066  2.9919  1.3816
  177MPD1     C 2693   2.015   0.058   9.599  0.1002 -0.2682  0.4732
  177MPD1    C1 2694   1.923   0.003   9.525  0.4308 -0.3191  0.5721
  177MPD1    C2 2695   1.812   0.077   9.495 -0.4779  0.5259 -0.2748
  177MPD1    C3 2696   1.785   0.192   9.553 -0.1972 -0.2080  0.2043
  177MPD1    C4 2697   1.884   0.250   9.632  0.5080  0.0973  0.6610
  177MPD1    C5 2698   2.001   0.180   9.658  0.0102 -0.1317 -0.4866
  177MPD1     H 2699   1.747   0.023   9.427  0.6554  0.2763 -1.1560
  177MPD1    H1 2700   1.881   0.354   9.662  0.5665 -0.0345  1.1256
  177MPD1    H2 2701   2.109   0.009   9.622  0.1473 -0.7882 -0.8269
  177MPD1    H3 2702   2.088   0.225   9.703 -0.9815  2.4964 -1.2274
  177MPD1     N 2703   1.661   0.255   9.523  0.0260 -0.0513 -0.1130
  177MPD1    H5 2704   1.594   0.205   9.465 -1.1933  2.2428 -0.6891
  177MPD1    N1 2705   1.951   4.601   9.466 -0.3314  0.3650  0.6470
  177MPD1    H6 2706   1.865   4.557   9.433  0.2123  0.0509 -0.3800
  177MPD1    H7 2707   1.973   4.538   9.543  0.8615  0.3090  0.2567
  178MPD1     C 2708   4.424   0.466   0.100 -0.5967 -0.4131  0.7856
  178MPD1    C1 2709   4.309   0.537   0.090  0.5303 -0.1570 -0.5333
  178MPD1    C2 2710   4.303   0.635  17.692  0.2503 -0.3920 -0.5789
  178MPD1    C3 2711   4.418   0.673  17.622 -0.0212 -0.0336 -0.7016
  178MPD1    C4 2712   4.532   0.600  17.632 -0.0163  0.5359 -0.0361
  178MPD1    C5 2713   4.531   0.495   0.025 -0.4222 -0.7250 -0.5049
  178MPD1     H 2714   4.213   0.694  17.686 -0.2707 -1.0076  1.3387
  178MPD1    H1 2715   4.623   0.617  17.574  0.2484  1.5380  0.6631
  178MPD1    H2 2716   4.429   0.379   0.164 -2.9579 -0.7518  0.5106
  178MPD1    H3 2717   4.621   0.436   0.032 -0.5667 -1.1210 -1.9585
  178MPD1     N 2718   4.401   0.784  17.529  0.1100  0.7714  0.4948
  178MPD1    H5 2719   4.481   0.792  17.467 -0.6752 -2.6746 -0.9592
  178MPD1    N1 2720   4.208   0.526   0.182 -0.3961 -0.8930  0.2218
  178MPD1    H6 2721   4.122   0.562   0.141  0.9013  1.8500 -0.1456
  178MPD1    H7 2722   4.198   0.432   0.219  2.7790 -1.1031  0.5393
  179MPD1     C 2723   3.942   4.223  15.471  0.2005  0.1580 -0.0603
  179MPD1    C1 2724   3.924   4.144  15.358 -0.0721 -0.3762  0.1939
  179MPD1    C2 2725   3.838   4.034  15.374 -0.3426 -0.0405  0.1337
  179MPD1    C3 2726   3.794   3.992  15.496  0.1401 -0.3965 -0.4265
  179MPD1    C4 2727   3.841   4.057  15.610 -0.7507 -0.5759 -0.2459
  179MPD1    C5 2728   3.900   4.180  15.593  0.3749 -0.8206  0.3931
  179MPD1     H 2729   3.818   3.981  15.282 -0.4033 -1.0806  0.7447
  179MPD1    H1 2730   3.800   4.039  15.708 -0.4665  0.5781  0.0846
  179MPD1    H2 2731   3.993   4.319  15.472  3.5346 -1.6123  0.2482
  179MPD1    H3 2732   3.911   4.255  15.671  0.8136  2.0410 -2.4144
  179MPD1     N 2733   3.712   3.883  15.529 -0.1366 -0.4003 -0.2075
  179MPD1    H5 2734   3.691   3.868  15.627 -0.0967 -0.4652 -0.2089
  179MPD1    N1 2735   3.962   4.206  15.233  0.0820  0.0566 -0.2080
  179MPD1    H6 2736   4.042   4.266  15.252 -0.0486  0.2023 -0.1205
  179MPD1    H7 2737   3.988   4.130  15.170  2.3358  2.0448 -1.6484
  180MPD1     C 2738   4.077   0.401  15.112  0.5820 -0.6004 -0.4616
  180MPD1    C1 2739   4.163   0.430  15.005 -0.4266  0.6502 -0.2622
  180MPD1    C2 2740   4.117   0.505  14.897 -0.1454  0.5033 -0.0931
  180MPD1    C3 2741   3.993   0.560  14.896 -0.0905 -0.3463  0.1850
  180MPD1    C4 2742   3.918   0.546  15.014  0.8311  0.2765  0.8550
  180MPD1    C5 2743   3.953   0.459  15.113  0.3878  0.2523 -1.2021
  180MPD1     H 2744   4.187   0.524  14.816 -0.1432 -0.1989 -0.2529
  180MPD1    H1 2745   3.823   0.597  15.022 -0.0320 -0.8984 -2.0786
  180MPD1    H2 2746   4.106   0.333  15.191  0.6092  1.2942  1.1668
  180MPD1    H3 2747   3.891   0.446  15.201 -1.0020 -0.7283 -2.3207
  180MPD1     N 2748   3.942   0.630  14.789  0.0081 -0.5136 -0.1450
  180MPD1    H5 2749   4.018   0.659  14.728  0.7997  1.8952  1.9662
  180MPD1    N1 2750   4.288   0.361  14.991 -0.0690  0.8412  0.1473
  180MPD1    H6 2751   4.320   0.318  15.078  1.8228  1.3010 -0.3075
  180MPD1    H7 2752   4.364   0.410  14.944 -0.0284 -0.1210 -0.8060
  181MPD1     C 2753   0.449   1.884  10.357  0.5551 -0.3700  0.4000
  181MPD1    C1 2754   0.439   1.796  10.250  0.4373  0.6385  0.1613
  181MPD1    C2 2755   0.537   1.805  10.149  0.3113  0.1175  0.8060
  181MPD1    C3 2756   0.656   1.877  10.171  0.0978 -0.4868  0.0397
  181MPD1    C4 2757   0.664   1.960  10.283 -0.0302 -0.1458  0.8208
  181MPD1    C5 2758   0.561   1.962  10.381 -0.2319  0.0457 -0.3059
  181MPD1     H 2759   0.525   1.735  10.068  0.5790  0.8316  0.1505
  181MPD1    H1 2760   0.751   2.021  10.303  0.3337 -0.7231  0.9970
  181MPD1    H2 2761   0.362   1.903  10.420 -0.1829 -0.3601 -0.6241
  181MPD1    H3 2762   0.556   2.025  10.468 -1.2071  1.4255 -1.3768
  181MPD1     N 2763   0.768   1.883  10.091 -0.1831  0.0925  0.3854
  181MPD1    H5 2764   0.849   1.923  10.137 -0.8084  2.9015 -0.9092
  181MPD1    N1 2765   0.314   1.737  10.222  0.2350  0.4657  0.1750
  181MPD1    H6 2766   0.312   1.667  10.147 -3.6873 -0.7593  1.4042
  181MPD1    H7 2767   0.274   1.697  10.307 -1.4042 -0.4289 -1.0074
  182MPD1     C 2768   0.708   0.346   0.899  0.1599 -0.4704 -0.7753
  182MPD1    C1 2769   0.638   0.449   0.954  0.4532 -0.8303 -0.2818
  182MPD1    C2 2770   0.677   0.574   0.907 -0.1958 -0.1204  0.2796
  182MPD1    C3 2771   0.746   0.591   0.794  0.5890 -0.1114  0.2366
  182MPD1    C4 2772   0.803   0.481   0.729 -0.0391  0.0273 -0.3235
  182MPD1    C5 2773   0.791   0.359   0.795  0.1005  0.7213  0.4990
  182MPD1     H 2774   0.634   0.660   0.958  0.2601  0.4601 -0.3240
  182MPD1    H1 2775   0.860   0.478   0.637 -0.8439  0.3449 -0.8322
  182MPD1    H2 2776   0.695   0.243   0.931 -0.7242  0.1158  0.7453
  182MPD1    H3 2777   0.834   0.268   0.753  0.2349  0.5648  0.9838
  182MPD1     N 2778   0.777   0.713   0.734 -0.1005 -0.2004  0.3245
  182MPD1    H5 2779   0.820   0.723   0.643 -2.1496 -0.0754 -0.6148
  182MPD1    N1 2780   0.568   0.438   1.078 -0.2669 -0.4507  0.1052
  182MPD1    H6 2781   0.501   0.361   1.073 -1.1232  0.1827  1.6912
  182MPD1    H7 2782   0.502   0.513   1.093 -0.8796 -0.7693 -1.0753
  183MPD1     C 2783   1.798   1.124   8.896 -0.0777  0.2678  0.2528
  183MPD1    C1 2784   1.920   1.146   8.961 -0.5910  0.4663  0.1467
  183MPD1    C2 2785   1.947   1.276   8.986 -0.1815 -0.0207  0.6145
  183MPD1    C3 2786   1.851   1.376   8.967 -0.5619 -0.9561 -0.6080
  183MPD1    C4 2787   1.723   1.348   8.936 -0.1320 -0.2790 -0.1944
  183MPD1    C5 2788   1.699   1.217   8.886  0.3927 -0.5304 -0.5606
  183MPD1     H 2789   2.051   1.308   8.995 -0.2640 -0.1528  1.9256
  183MPD1    H1 2790   1.640   1.417   8.920  0.6177  0.3698 -1.2793
  183MPD1    H2 2791   1.767   1.022   8.874  1.4416 -0.2140  0.3360
  183MPD1    H3 2792   1.600   1.188   8.852  0.1593 -1.9621  1.3418
  183MPD1     N 2793   1.891   1.511   8.972 -0.2360  0.5070  0.2451
  183MPD1    H5 2794   1.988   1.536   8.983  0.1672 -0.7529 -0.3710
  183MPD1    N1 2795   2.011   1.046   8.958 -0.4678 -0.2150  0.2389
  183MPD1    H6 2796   1.973   0.952   8.968  1.4590 -0.9500  0.6270
  183MPD1    H7 2797   2.087   1.061   9.025 -0.6439 -0.3351  0.4645
  184MPD1     C 2798   0.767   4.378   8.837  0.3372  0.9864  0.0048
  184MPD1    C1 2799   0.882   4.312   8.859 -0.5522  0.0471  0.0712
  184MPD1    C2 2800   0.955   4.343   8.977  0.1907  0.2792 -0.1548
  184MPD1    C3 2801   0.895   4.416   9.078 -0.2937  0.2225 -0.0429
  184MPD1    C4 2802   0.773   4.481   9.057  0.0661  0.3571  0.7361
  184MPD1    C5 2803   0.716   4.465   8.931  0.5318 -0.5682  0.5592
  184MPD1     H 2804   1.061   4.319   8.975  0.3245  1.0380 -2.4956
  184MPD1    H1 2805   0.724   4.545   9.129 -0.5235 -1.0926  1.6317
  184MPD1    H2 2806   0.705   4.355   8.751  2.3214  2.5942 -1.8569
  184MPD1    H3 2807   0.626   4.522   8.911  1.1217  0.4262  0.7240
  184MPD1     N 2808   0.957   4.438   9.200  0.6922  0.4741  0.0724
  184MPD1    H5 2809   0.927   4.521   9.252  0.3499  0.0543  0.5431
  184MPD1    N1 2810   0.931   4.221   8.764  0.1550 -0.1382  0.0694
  184MPD1    H6 2811   0.929   4.261   8.671 -0.5519 -2.5876 -0.9748
  184MPD1    H7 2812   1.019   4.180   8.795 -0.2331  0.7297  2.3196
  185MPD1     C 2813   0.552   0.100   9.796 -0.7381 -0.1978  0.5143
  185MPD1    C1 2814   0.664   0.065   9.872 -0.4361 -0.2253  0.4165
  185MPD1    C2 2815   0.778   0.023   9.816 -0.8652 -0.2008 -0.2746
  185MPD1    C3 2816   0.791   0.013   9.677  0.0525 -0.2230 -0.3756
  185MPD1    C4 2817   0.684   0.055   9.600  0.1045 -0.3669  0.4303
  185MPD1    C5 2818   0.562   0.104   9.656  1.1126  0.1275 -0.2611
  185MPD1     H 2819   0.853   4.699   9.877 -1.2841  1.9481  1.9139
  185MPD1    H1 2820   0.695   0.039   9.494  1.9474  2.7992  0.1366
  185MPD1    H2 2821   0.464   0.141   9.843 -1.0105  1.1958 -1.1962
  185MPD1    H3 2822   0.484   0.144   9.593  1.1034 -0.6963 -0.7727
  185MPD1     N 2823   0.901   4.674   9.606  0.5994  0.2001  0.1920
  185MPD1    H5 2824   0.892   4.681   9.505  0.6045 -1.1697  0.0889
  185MPD1    N1 2825   0.653   0.065  10.013 -0.1309  0.3823 -0.9787
  185MPD1    H6 2826   0.581   0.124  10.051 -0.9441 -0.7974 -0.6822
  185MPD1    H7 2827   0.739   0.094  10.060 -0.1128 -1.6600  0.2532
  186MPD1     C 2828   3.879   3.681  15.946 -0.0880 -0.1953  0.9341
  186MPD1    C1 2829   3.939   3.758  15.848 -0.6373 -0.7515  0.1687
  186MPD1    C2 2830   3.983   3.887  15.885  0.1168 -0.1194 -0.3143
  186MPD1    C3 2831   3.984   3.928  16.016 -0.1765 -0.7004 -0.2062
  186MPD1    C4 2832   3.948   3.840  16.115 -0.2036  1.0734 -0.3537
  186MPD1    C5 2833   3.892   3.720  16.077  0.6485 -0.5106 -0.1342
  186MPD1     H 2834   4.013   3.958  15.808  1.6753 -0.3989  0.0428
  186MPD1    H1 2835   3.964   3.865  16.219 -2.6881  0.9644  0.0561
  186MPD1    H2 2836   3.838   3.584  15.918 -2.3491  0.6451  1.4104
  186MPD1    H3 2837   3.873   3.648  16.156 -0.9596 -0.8020 -0.7914
  186MPD1     N 2838   4.022   4.054  16.054 -0.3192  0.1422  0.0328
  186MPD1    H5 2839   4.023   4.078  16.152  0.2755  3.4496 -0.7892
  186MPD1    N1 2840   3.906   3.729  15.715 -0.1064  0.5093 -0.0492
  186MPD1    H6 2841   3.961   3.778  15.645 -0.8024 -2.2684 -2.5112
  186MPD1    H7 2842   3.900   3.631  15.690 -1.1480  0.8648 -1.1994
  187MPD1     C 2843   3.243   0.731   0.337  0.4984 -0.2573  0.4138
  187MPD1    C1 2844   3.107   0.697   0.326  0.5304  0.1255 -0.0989
  187MPD1    C2 2845   3.015   0.777   0.249  0.5759 -0.4033  0.3938
  187MPD1    C3 2846   3.058   0.896   0.189 -0.5885  0.3772 -0.4992
  187MPD1    C4 2847   3.192   0.926   0.201  0.1250 -0.0098  0.1809
  187MPD1    C5 2848   3.285   0.840   0.265  0.9921  0.3016  0.8882
  187MPD1     H 2849   2.917   0.731   0.239  0.6491 -0.3776 -0.4990
  187MPD1    H1 2850   3.236   1.006   0.142 -0.3672  0.7001  0.7613
  187MPD1    H2 2851   3.311   0.659   0.381  0.4772 -0.6456 -0.1894
  187MPD1    H3 2852   3.389   0.870   0.266  1.1623 -0.2831  0.8895
  187MPD1     N 2853   2.979   0.986   0.125  0.0088 -0.0364 -0.3957
  187MPD1    H5 2854   3.026   1.072   0.098 -0.0676  0.2483  0.4072
  187MPD1    N1 2855   3.071   0.571   0.377 -0.3136 -0.0513 -0.5810
  187MPD1    H6 2856   3.110   0.492   0.327 -0.1825 -0.6925  0.5303
  187MPD1    H7 2857   2.969   0.563   0.374 -0.8388  5.2389  2.8009
  188MPD1     C 2858   3.931   1.096  10.298 -0.4833 -0.4866 -0.0361
  188MPD1    C1 2859   4.049   1.046  10.255  0.4875  0.3407 -0.0995
  188MPD1    C2 2860   4.057   0.907  10.239 -0.5528  0.4892 -0.3731
  188MPD1    C3 2861   3.942   0.827  10.245 -0.5876 -0.3426 -0.2948
  188MPD1    C4 2862   3.821   0.884  10.289  0.3403 -0.9379 -0.2576
  188MPD1    C5 2863   3.811   1.022  10.312 -0.7652 -0.2711  0.3987
  188MPD1     H 2864   4.145   0.864  10.192 -0.4571 -2.0939  2.0874
  188MPD1    H1 2865   3.731   0.824  10.285  0.5928 -1.5302  2.6257
  188MPD1    H2 2866   3.923   1.203  10.316 -0.4043 -0.4739 -0.0747
  188MPD1    H3 2867   3.716   1.070  10.332 -0.5029  1.3141 -2.2323
  188MPD1     N 2868   3.928   0.695  10.189 -0.5579 -0.2305 -0.1670
  188MPD1    H5 2869   3.841   0.644  10.202  0.7076 -2.2998  0.1670
  188MPD1    N1 2870   4.159   1.125  10.258  0.1878 -0.3639 -0.1071
  188MPD1    H6 2871   4.220   1.104  10.179  0.9895 -0.0548  0.4203
  188MPD1    H7 2872   4.141   1.225  10.266  0.1250 -0.3135 -0.9105
  189MPD1     C 2873   0.478   1.108   0.135 -0.0937 -0.3447  0.3564
  189MPD1    C1 2874   0.345   1.139   0.128 -0.6297  0.1146 -0.8243
  189MPD1    C2 2875   0.294   1.248   0.198 -1.1211 -0.0115 -0.1237
  189MPD1    C3 2876   0.383   1.337   0.253  0.1757  0.2693 -0.0188
  189MPD1    C4 2877   0.516   1.303   0.271  0.3623  0.3102 -0.6317
  189MPD1    C5 2878   0.558   1.189   0.214 -0.0058 -0.3485  0.0848
  189MPD1     H 2879   0.192   1.277   0.178 -1.2299 -0.7104 -0.5626
  189MPD1    H1 2880   0.587   1.363   0.328  1.8019 -0.8029 -1.2544
  189MPD1    H2 2881   0.508   1.016   0.086 -0.7877 -0.9634  1.0949
  189MPD1    H3 2882   0.659   1.151   0.220  0.4306  0.7427 -0.3527
  189MPD1     N 2883   0.326   1.465   0.288 -0.3190  0.0110 -0.3198
  189MPD1    H5 2884   0.227   1.478   0.275 -0.5837 -0.0805  1.6347
  189MPD1    N1 2885   0.250   1.048   0.068  0.0327 -0.6864  0.6365
  189MPD1    H6 2886   0.167   1.099   0.040  1.2469 -0.6269 -2.8514
  189MPD1    H7 2887   0.287   1.001  17.682  1.2110  0.6862  0.3865
  190MPD1     C 2888   3.877   1.454  15.301 -0.2100  0.4809 -0.6096
  190MPD1    C1 2889   3.872   1.369  15.189  0.2023 -0.0084  0.3232
  190MPD1    C2 2890   3.846   1.237  15.209  0.4298  0.6163  0.1298
  190MPD1    C3 2891   3.841   1.179  15.339 -0.2322  0.1966 -0.3831
  190MPD1    C4 2892   3.834   1.272  15.445  0.0153 -0.2894 -0.3905
  190MPD1    C5 2893   3.861   1.402  15.426  0.9827 -0.4253  0.3169
  190MPD1     H 2894   3.837   1.169  15.126  2.9425  2.2272 -1.4303
  190MPD1    H1 2895   3.818   1.247  15.549  0.3538  1.3787  0.0529
  190MPD1    H2 2896   3.882   1.561  15.285  0.4982  0.3182 -1.5506
  190MPD1    H3 2897   3.873   1.467  15.512  0.9018  0.2452 -0.1760
  190MPD1     N 2898   3.845   1.036  15.359  0.2981 -0.5137  0.3355
  190MPD1    H5 2899   3.849   0.973  15.280  2.0790  0.3858 -0.2931
  190MPD1    N1 2900   3.885   1.423  15.066  0.4493 -0.1915  0.4705
  190MPD1    H6 2901   3.917   1.519  15.057 -0.0411  0.0275  1.0466
  190MPD1    H7 2902   3.950   1.361  15.017 -0.1666 -1.2288  0.9523
  191MPD1     C 2903   3.728   1.851  12.871 -0.6761  0.2352  0.0922
  191MPD1    C1 2904   3.622   1.858  12.953  1.0290 -0.3120 -0.7444
  191MPD1    C2 2905   3.515   1.933  12.913 -0.4039  0.2578  0.1581
  191MPD1    C3 2906   3.511   2.000  12.794 -0.2800  0.1634 -0.1313
  191MPD1    C4 2907   3.622   1.994  12.714  0.8304 -0.1870 -0.3543
  191MPD1    C5 2908   3.732   1.924  12.757 -0.0179 -0.4429 -0.5790
  191MPD1     H 2909   3.423   1.936  12.969 -0.5852  1.0101 -0.1849
  191MPD1    H1 2910   3.632   2.050  12.622 -0.0530 -1.1126 -1.0240
  191MPD1    H2 2911   3.806   1.780  12.897  0.7412  0.8864 -2.3441
  191MPD1    H3 2912   3.815   1.911  12.688  0.1552  1.1485 -0.6649
  191MPD1     N 2913   3.411   2.090  12.759  0.0160  0.4803  0.4937
  191MPD1    H5 2914   3.426   2.154  12.682  0.0672  1.4532  1.3152
  191MPD1    N1 2915   3.628   1.789  13.073 -0.7257  0.1023  0.2315
  191MPD1    H6 2916   3.723   1.786  13.111 -0.9819  3.3150  1.1331
  191MPD1    H7 2917   3.565   1.834  13.139  0.0392 -0.2602  1.2206
  192MPD1     C 2918   2.447   2.227  13.063  1.0439  0.0431 -0.1947
  192MPD1    C1 2919   2.480   2.340  12.991  0.3644  0.8087  0.0217
  192MPD1    C2 2920   2.605   2.353  12.935 -0.0164  0.1919 -0.2519
  192MPD1    C3 2921   2.703   2.257  12.953  0.3635  0.8678 -0.4242
  192MPD1    C4 2922   2.670   2.149  13.026  0.7950 -1.2000 -0.3735
  192MPD1    C5 2923   2.541   2.129  13.071  0.2830 -0.7862 -0.1662
  192MPD1     H 2924   2.627   2.451  12.893  2.8033 -0.7104 -0.8703
  192MPD1    H1 2925   2.745   2.076  13.055  1.4688  0.5830  2.4175
  192MPD1    H2 2926   2.349   2.207  13.104  0.6897 -0.6903 -1.4140
  192MPD1    H3 2927   2.501   2.038  13.113  0.1165 -0.2111  0.9324
  192MPD1     N 2928   2.832   2.254  12.892 -0.6344 -0.1765 -0.1128
  192MPD1    H5 2929   2.897   2.181  12.919 -2.3437 -0.1720  4.0468
  192MPD1    N1 2930   2.395   2.454  12.995 -0.0714  0.1551 -0.0134
  192MPD1    H6 2931   2.403   2.530  12.927 -1.0905  0.4297  0.1817
  192MPD1    H7 2932   2.295   2.440  13.007  0.1399 -2.0281 -0.7157
  193MPD1     C 2933   2.315   2.556  16.215  0.6816  0.1652 -0.5730
  193MPD1    C1 2934   2.285   2.686  16.255  0.9866  0.8098  0.1683
  193MPD1    C2 2935   2.381   2.757  16.317  0.2098  0.5767 -0.3485
  193MPD1    C3 2936   2.507   2.701  16.339  0.2467 -0.3967  0.0503
  193MPD1    C4 2937   2.538   2.574  16.304  0.1511  0.0555 -0.7646
  193MPD1    C5 2938   2.442   2.503  16.239  0.6170  0.2407 -0.3938
  193MPD1     H 2939   2.358   2.862  16.335  0.5681  0.6504 -0.3189
  193MPD1    H1 2940   2.626   2.522  16.340 -0.8564 -0.4450  0.9779
  193MPD1    H2 2941   2.236   2.496  16.171  0.3841  0.7500 -0.8311
  193MPD1    H3 2942   2.459   2.397  16.224 -2.2668 -0.3230  0.4564
  193MPD1     N 2943   2.612   2.769  16.393  0.1680 -0.7852 -0.1130
  193MPD1    H5 2944   2.701   2.721  16.398  1.0699  0.8738  0.0532
  193MPD1    N1 2945   2.154   2.736  16.245  0.3294 -0.3045  0.7014
  193MPD1    H6 2946   2.114   2.705  16.156  3.0001 -0.8979 -0.3075
  193MPD1    H7 2947   2.139   2.836  16.257  0.3354 -0.1281 -0.6959
  194MPD1     C 2948   0.178   0.508  16.416  0.4065  0.4322  0.5663
  194MPD1    C1 2949   0.148   0.373  16.376  0.0488  0.0080  0.3028
  194MPD1    C2 2950   0.219   0.266  16.442  0.9226  0.0610  0.2039
  194MPD1    C3 2951   0.313   0.291  16.540 -0.2970 -0.6073 -0.6842
  194MPD1    C4 2952   0.316   0.423  16.584 -0.5344  0.2579  0.4559
  194MPD1    C5 2953   0.250   0.525  16.520  0.1688 -0.3302  0.8360
  194MPD1     H 2954   0.212   0.167  16.398  0.8890  0.6071 -1.0332
  194MPD1    H1 2955   0.381   0.457  16.665 -0.2481  0.7669  0.0087
  194MPD1    H2 2956   0.128   0.594  16.371  0.4217 -0.3095 -0.8464
  194MPD1    H3 2957   0.250   0.621  16.569 -3.0745  1.5796 -2.9379
  194MPD1     N 2958   0.405   0.198  16.598 -0.3701 -0.1908  0.1558
  194MPD1    H5 2959   0.485   0.233  16.649  0.6373 -0.0263 -1.5690
  194MPD1    N1 2960   0.057   0.353  16.267 -0.1704  0.1292 -0.6037
  194MPD1    H6 2961   0.017   0.259  16.268 -1.4496  0.6739 -3.3664
  194MPD1    H7 2962   4.706   0.421  16.263  0.2247  0.5381 -0.9422
  195MPD1     C 2963   2.132   2.084   0.084  0.2071  0.3395 -0.7819
  195MPD1    C1 2964   2.245   2.019   0.034 -0.4849  0.1277 -0.0064
  195MPD1    C2 2965   2.265   1.880   0.043  0.3459  0.2705 -0.9034
  195MPD1    C3 2966   2.163   1.808   0.104  0.2326 -0.1199  0.3377
  195MPD1    C4 2967   2.046   1.871   0.147 -0.2637 -0.5260  0.4286
  195MPD1    C5 2968   2.032   2.008   0.144  0.6158  0.4788 -0.2543
  195MPD1     H 2969   2.359   1.837   0.011  0.6440 -0.5678  1.0644
  195MPD1    H1 2970   1.960   1.812   0.176 -0.6668  0.5491  1.4354
  195MPD1    H2 2971   2.115   2.191   0.079 -0.2002  0.3146  0.1651
  195MPD1    H3 2972   1.940   2.054   0.180  0.0848  0.4193 -1.5432
  195MPD1     N 2973   2.176   1.671   0.148 -0.2408 -0.3183  0.8076
  195MPD1    H5 2974   2.105   1.645   0.216  1.9019 -3.6465  1.7784
  195MPD1    N1 2975   2.357   2.093   0.002  0.8283  0.3146  0.3860
  195MPD1    H6 2976   2.334   2.178  17.647  1.0169 -0.6211 -1.2351
  195MPD1    H7 2977   2.422   2.049  17.634 -0.7317  1.7518 -2.1523
  196MPD1     C 2978   1.202   0.177   0.630  0.7797  0.1055 -0.7413
  196MPD1    C1 2979   1.132   0.286   0.607  0.2720  0.1911  0.2174
  196MPD1    C2 2980   1.138   0.390   0.696 -0.2443  0.1172  0.4385
  196MPD1    C3 2981   1.218   0.389   0.812  0.6774 -0.9613  0.5347
  196MPD1    C4 2982   1.285   0.269   0.835  0.1397 -0.0540 -0.0523
  196MPD1    C5 2983   1.268   0.164   0.747  0.3049 -1.0772 -0.4274
  196MPD1     H 2984   1.091   0.484   0.671 -0.0075  0.0939 -0.0904
  196MPD1    H1 2985   1.341   0.242   0.924  1.1257 -2.1168 -1.2933
  196MPD1    H2 2986   1.202   0.095   0.559 -3.8819  1.2979 -2.1299
  196MPD1    H3 2987   1.329   0.075   0.757 -1.5494 -2.4207 -0.9922
  196MPD1     N 2988   1.236   0.494   0.902  0.6254 -0.6693 -0.1254
  196MPD1    H5 2989   1.289   0.472   0.986 -0.2696 -3.2904 -0.2757
  196MPD1    N1 2990   1.074   0.301   0.479 -0.4579 -0.7982 -0.7163
  196MPD1    H6 2991   1.049   0.205   0.456  1.0690 -2.1072  2.9474
  196MPD1    H7 2992   0.993   0.362   0.472 -1.1669 -1.4911  1.3899
  197MPD1     C 2993   1.182   2.430  17.028  0.5187  0.4416  0.2952
  197MPD1    C1 2994   1.287   2.455  17.112 -0.1755  0.3579  0.2165
  197MPD1    C2 2995   1.382   2.542  17.063  0.2392  0.3382 -0.2760
  197MPD1    C3 2996   1.387   2.581  16.933 -0.3260 -0.5053 -0.2338
  197MPD1    C4 2997   1.284   2.540  16.848 -0.3704  0.1885 -0.2016
  197MPD1    C5 2998   1.183   2.461  16.899  0.1133  0.6194 -0.7429
  197MPD1     H 2999   1.459   2.569  17.136  1.1193  0.7264 -1.3475
  197MPD1    H1 3000   1.283   2.565  16.743 -1.4289 -1.2515 -0.5320
  197MPD1    H2 3001   1.094   2.369  17.049 -0.4991  1.0478 -2.2380
  197MPD1    H3 3002   1.097   2.423  16.845  1.3684 -2.5746 -0.5301
  197MPD1     N 3003   1.483   2.679  16.893 -0.3813 -0.2042 -0.0153
  197MPD1    H5 3004   1.483   2.701  16.793  0.9927 -0.8407 -0.1557
  197MPD1    N1 3005   1.279   2.423  17.252 -0.5119 -0.0634  0.0898
  197MPD1    H6 3006   1.366   2.402  17.301 -0.5695 -0.6537 -0.0557
  197MPD1    H7 3007   1.228   2.335  17.259 -1.4698  0.6156  1.5388
  198MPD1     C 3008   3.121   2.053  15.887  0.4380  0.2142  0.3639
  198MPD1    C1 3009   3.218   2.152  15.862  0.3389 -0.4561  0.2115
  198MPD1    C2 3010   3.323   2.157  15.952  0.5177  0.8067 -0.0527
  198MPD1    C3 3011   3.336   2.065  16.059 -0.0328  0.2230 -0.8675
  198MPD1    C4 3012   3.240   1.971  16.074 -0.3492  0.6424  0.1043
  198MPD1    C5 3013   3.144   1.955  15.977  0.4385  0.2815  0.0340
  198MPD1     H 3014   3.408   2.218  15.923  1.9268 -0.6834  0.9679
  198MPD1    H1 3015   3.235   1.903  16.158 -2.1851  0.2686 -0.3013
  198MPD1    H2 3016   3.038   2.041  15.818  0.6427 -0.2686  0.2039
  198MPD1    H3 3017   3.066   1.882  15.994  1.2737 -0.1681  1.9718
  198MPD1     N 3018   3.461   2.065  16.120 -0.2939 -0.0821 -0.3326
  198MPD1    H5 3019   3.533   2.127  16.082  1.9562 -1.8760  1.0089
  198MPD1    N1 3020   3.222   2.218  15.740  0.0914 -0.2984 -0.4787
  198MPD1    H6 3021   3.124   2.225  15.711 -0.4756 -2.4176  1.0168
  198MPD1    H7 3022   3.251   2.312  15.765 -1.7547  0.1083  0.1733
  199MPD1     C 3023   2.173   2.328   9.255  0.1089  0.4014 -0.2279
  199MPD1    C1 3024   2.129   2.458   9.241  0.6397  0.6752  0.5162
  199MPD1    C2 3025   1.989   2.484   9.238  0.7698 -0.1351 -0.5228
  199MPD1    C3 3026   1.901   2.374   9.264  0.2010 -0.8996  0.0416
  199MPD1    C4 3027   1.946   2.249   9.287 -0.2045  0.4734 -0.1946
  199MPD1    C5 3028   2.080   2.223   9.270  0.2830  0.1931 -0.0524
  199MPD1     H 3029   1.950   2.582   9.214  0.7025 -0.2681 -0.9511
  199MPD1    H1 3030   1.878   2.169   9.315 -0.4424  0.7904  0.1185
  199MPD1    H2 3031   2.278   2.305   9.268  0.8772  2.5014 -2.6025
  199MPD1    H3 3032   2.121   2.124   9.285 -1.4465 -0.6269 -0.6831
  199MPD1     N 3033   1.766   2.389   9.274  0.0370 -0.3039  0.0590
  199MPD1    H5 3034   1.707   2.306   9.273 -0.3830 -0.0122  0.6559
  199MPD1    N1 3035   2.225   2.557   9.209  0.0731  0.3686  0.3161
  199MPD1    H6 3036   2.319   2.531   9.240  0.4349  0.4303 -0.7247
  199MPD1    H7 3037   2.189   2.645   9.246  1.2720  1.4558 -1.0517
  200MPD1     C 3038   4.520   2.939  14.993  0.0102  0.7631 -0.3108
  200MPD1    C1 3039   4.635   2.866  15.017  0.1512 -0.5823  0.1674
  200MPD1    C2 3040   0.025   2.910  14.956 -0.1814 -0.2990 -0.4995
  200MPD1    C3 3041   0.030   3.017  14.867 -0.1293  0.6042 -0.0640
  200MPD1    C4 3042   4.641   3.081  14.832 -0.5154 -0.3990 -0.8966
  200MPD1    C5 3043   4.526   3.046  14.898 -0.1079  0.4389 -0.6010
  200MPD1     H 3044   0.118   2.858  14.977 -0.8974 -1.0085  0.9432
  200MPD1    H1 3045   4.629   3.158  14.757  0.2012  0.7730  0.1865
  200MPD1    H2 3046   4.431   2.922  15.052 -0.7371 -2.0096 -2.2246
  200MPD1    H3 3047   4.434   3.102  14.883  0.5313  1.5069 -0.5219
  200MPD1     N 3048   0.152   3.050  14.807 -0.2267  0.2863 -0.4666
  200MPD1    H5 3049   0.230   2.997  14.844 -1.1846  0.1540  1.3848
  200MPD1    N1 3050   4.642   2.759  15.110 -0.0648  0.2072  0.0940
  200MPD1    H6 3051   4.697   2.681  15.076 -2.7999 -2.6823  2.3307
  200MPD1    H7 3052   4.552   2.713  15.120 -0.2179 -0.1267 -2.8185
  201MPD1     C 3053   2.229   1.858  12.610  0.6399  0.1497  0.0293
  201MPD1    C1 3054   2.189   1.761  12.702  0.5314  0.0499 -0.3594
  201MPD1    C2 3055   2.282   1.667  12.744 -0.2168 -0.1071  0.6568
  201MPD1    C3 3056   2.405   1.654  12.669  0.3168  0.4213  0.0138
  201MPD1    C4 3057   2.445   1.753  12.585 -0.1863  0.2477 -0.1911
  201MPD1    C5 3058   2.354   1.854  12.553  0.0378  0.0811  0.2252
  201MPD1     H 3059   2.246   1.607  12.827  1.4944 -1.7052  0.2324
  201MPD1    H1 3060   2.540   1.751  12.532  1.0383 -2.4512  2.1167
  201MPD1    H2 3061   2.163   1.942  12.590 -0.4797 -0.9994 -1.1729
  201MPD1    H3 3062   2.374   1.933  12.482 -0.2925 -0.6773 -0.7164
  201MPD1     N 3063   2.486   1.546  12.703 -0.2928 -0.7004 -0.2255
  201MPD1    H5 3064   2.461   1.486  12.781 -2.8935  0.6702  0.0134
  201MPD1    N1 3065   2.067   1.787  12.774 -0.1957  0.0351  0.1147
  201MPD1    H6 3066   2.022   1.711  12.824 -0.9219 -0.1683 -0.8373
  201MPD1    H7 3067   1.994   1.837  12.724 -1.4612 -1.3674  0.5620
  202MPD1     C 3068   2.084   0.567   9.034  0.3792 -0.1211  0.3060
  202MPD1    C1 3069   2.022   0.674   9.102 -0.5526 -0.0876  0.8348
  202MPD1    C2 3070   2.113   0.759   9.158  0.2554 -0.0666 -0.3859
  202MPD1    C3 3071   2.235   0.722   9.205 -0.4979  0.0262 -0.2168
  202MPD1    C4 3072   2.282   0.600   9.171 -0.3840 -0.0836 -0.2194
  202MPD1    C5 3073   2.206   0.528   9.077 -0.8285 -0.0695  0.4747
  202MPD1     H 3074   2.066   0.853   9.183 -0.5662  0.3470 -3.4903
  202MPD1    H1 3075   2.382   0.567   9.196  0.0916  1.1953 -0.4080
  202MPD1    H2 3076   2.036   0.510   8.955  0.7036  0.8098 -0.5729
  202MPD1    H3 3077   2.252   0.438   9.037  0.2124  1.4920 -1.8176
  202MPD1     N 3078   2.329   0.805   9.266  0.3776  0.0544  0.3161
  202MPD1    H5 3079   2.408   0.762   9.314  0.3211  1.9967  2.1632
  202MPD1    N1 3080   1.909   0.724   9.034  0.3130 -0.0493  0.2171
  202MPD1    H6 3081   1.841   0.657   9.000 -1.0359  2.7008 -2.5656
  202MPD1    H7 3082   1.854   0.785   9.095 -0.4303  1.7460 -2.2144
  203MPD1     C 3083   1.406   2.657  12.227  0.6071  0.2545 -0.1642
  203MPD1    C1 3084   1.343   2.581  12.130  0.2508 -0.1542 -0.9284
  203MPD1    C2 3085   1.358   2.445  12.135  0.4374 -0.7017  0.9075
  203MPD1    C3 3086   1.437   2.397  12.240  0.2352  0.4235 -0.5329
  203MPD1    C4 3087   1.497   2.476  12.332 -0.6198 -0.0332  0.8335
  203MPD1    C5 3088   1.482   2.608  12.326  0.1455  0.1392  0.0619
  203MPD1     H 3089   1.308   2.374  12.070 -0.8462  0.6809  0.3873
  203MPD1    H1 3090   1.575   2.437  12.397  1.1949  0.7853 -0.8643
  203MPD1    H2 3091   1.385   2.763  12.231  0.6228  0.3195 -2.0206
  203MPD1    H3 3092   1.523   2.668  12.406 -2.9430  1.7189  0.4819
  203MPD1     N 3093   1.470   2.257  12.258 -0.1872 -0.3564  0.0614
  203MPD1    H5 3094   1.431   2.196  12.187  0.7521  1.0023 -1.5928
  203MPD1    N1 3095   1.247   2.643  12.052 -0.6602 -0.2712  0.0645
  203MPD1    H6 3096   1.297   2.725  12.017 -0.2724 -0.2563  0.6548
  203MPD1    H7 3097   1.220   2.583  11.974  0.3796  1.1263 -1.3821
  204MPD1     C 3098   0.645   2.698   0.094  0.0241  0.0513 -0.1902
  204MPD1    C1 3099   0.636   2.586   0.017  0.0698  0.2433 -0.2936
  204MPD1    C2 3100   0.614   2.614  17.578  0.1053 -0.6493  0.0992
  204MPD1    C3 3101   0.597   2.738  17.534 -0.2724 -0.5128  0.4499
  204MPD1    C4 3102   0.585   2.850  17.613 -0.0139 -0.2811  0.0767
  204MPD1    C5 3103   0.612   2.823   0.052 -0.4964  0.3014  0.0268
  204MPD1     H 3104   0.611   2.529  17.512 -1.8863 -0.8534  0.4652
  204MPD1    H1 3105   0.567   2.951  17.577 -1.7552 -0.9886 -1.0581
  204MPD1    H2 3106   0.657   2.678   0.200  0.7210 -2.4201 -0.7424
  204MPD1    H3 3107   0.615   2.904   0.125  2.5240 -0.0719  0.3324
  204MPD1     N 3108   0.573   2.735  17.392  0.0480 -0.3580  0.0959
  204MPD1    H5 3109   0.578   2.640  17.356 -2.7131 -0.5136  0.1528
  204MPD1    N1 3110   0.665   2.454   0.063  0.2180 -0.3004 -0.3036
  204MPD1    H6 3111   0.612   2.382   0.015  0.4106 -0.8801  0.3551
  204MPD1    H7 3112   0.656   2.449   0.164 -3.3007 -1.8780 -0.6854
  205MPD1     C 3113   1.244   2.150  16.112 -0.1163 -0.1974 -0.2235
  205MPD1    C1 3114   1.251   2.026  16.164 -0.0161  0.1308  0.2406
  205MPD1    C2 3115   1.155   1.987  16.258 -0.1053  0.8584  0.6046
  205MPD1    C3 3116   1.044   2.064  16.292  0.4102 -0.6187  0.1547
  205MPD1    C4 3117   1.044   2.191  16.243 -0.1642 -0.2491 -0.5400
  205MPD1    C5 3118   1.136   2.231  16.149  0.7376  0.2943 -0.4016
  205MPD1     H 3119   1.174   1.890  16.303 -3.9196 -0.6287 -0.9556
  205MPD1    H1 3120   0.967   2.259  16.278 -1.1856 -1.5037 -0.3625
  205MPD1    H2 3121   1.311   2.186  16.034  1.0176  2.1123  1.8213
  205MPD1    H3 3122   1.128   2.331  16.109 -1.4464  0.0281 -0.6269
  205MPD1     N 3123   0.933   2.021  16.366  0.2649  0.2995 -0.7226
  205MPD1    H5 3124   0.862   2.091  16.382  1.2355  0.3996  3.1388
  205MPD1    N1 3125   1.359   1.943  16.138 -0.2966 -0.2461  0.1415
  205MPD1    H6 3126   1.349   1.842  16.150 -1.8213 -0.2835 -1.4129
  205MPD1    H7 3127   1.399   1.965  16.047 -0.2466 -0.8438  0.0134
  206MPD1     C 3128   0.827   4.574  16.363 -0.4227  0.3998  0.1432
  206MPD1    C1 3129   0.934   4.522  16.300  0.2852 -0.3594  0.3932
  206MPD1    C2 3130   0.923   4.503  16.160 -0.1339 -0.3943  0.5303
  206MPD1    C3 3131   0.809   4.550  16.087 -0.0975  0.2188 -0.4924
  206MPD1    C4 3132   0.712   4.623  16.154 -0.1187  0.9254  0.9018
  206MPD1    C5 3133   0.720   4.626  16.291 -0.3444  0.0449  0.4138
  206MPD1     H 3134   1.008   4.464  16.106 -0.3226  1.2593 -0.9331
  206MPD1    H1 3135   0.629   4.673  16.106 -0.1755  0.2807  0.3208
  206MPD1    H2 3136   0.822   4.584  16.471  2.0579 -1.3470  0.4293
  206MPD1    H3 3137   0.639   4.673  16.346 -2.2820  0.8719 -3.1623
  206MPD1     N 3138   0.796   4.528  15.949 -0.2227  0.3284 -0.2745
  206MPD1    H5 3139   0.709   4.569  15.916  0.2703  0.7954 -0.9856
  206MPD1    N1 3140   1.038   4.460  16.371  0.2155 -0.4597 -0.5113
  206MPD1    H6 3141   1.116   4.433  16.311  2.0314  1.6728  0.9020
  206MPD1    H7 3142   1.078   4.518  16.444  1.3603  0.3953 -1.8171
  207MPD1     C 3143   3.237   2.627   9.975 -0.1135 -0.2174  0.2786
  207MPD1    C1 3144   3.291   2.693   9.867  0.3398  0.0099 -0.9973
  207MPD1    C2 3145   3.426   2.714   9.877  1.0697  0.3417  0.0460
  207MPD1    C3 3146   3.508   2.682   9.984  0.0755 -0.8757  0.3060
  207MPD1    C4 3147   3.451   2.615  10.088  0.1013 -0.9530  1.2310
  207MPD1    C5 3148   3.316   2.589  10.086 -0.4794 -0.1709  0.0934
  207MPD1     H 3149   3.467   2.761   9.788 -0.4237 -1.9957 -1.8796
  207MPD1    H1 3150   3.500   2.566  10.172 -0.3052 -2.8180  0.3599
  207MPD1    H2 3151   3.130   2.610   9.980 -0.3391  1.5111  1.1490
  207MPD1    H3 3152   3.268   2.539  10.170  0.8334  0.3118  1.1291
  207MPD1     N 3153   3.646   2.698   9.979  0.2292  0.0787 -0.8270
  207MPD1    H5 3154   3.706   2.661  10.052 -2.0611 -1.8080  0.0547
  207MPD1    N1 3155   3.228   2.705   9.743 -0.2932  0.4399  0.0704
  207MPD1    H6 3156   3.267   2.778   9.683  0.6630 -0.1075  0.0298
  207MPD1    H7 3157   3.128   2.712   9.760 -0.6287 -1.5121 -1.0720
  208MPD1     C 3158   1.557   1.706  17.569 -0.0260 -0.0541  0.7777
  208MPD1    C1 3159   1.433   1.712  17.631 -0.0681  0.5198  0.1296
  208MPD1    C2 3160   1.336   1.627  17.592  0.0306 -0.1354  0.1759
  208MPD1    C3 3161   1.356   1.537  17.479  0.5803 -0.3448  0.2306
  208MPD1    C4 3162   1.485   1.538  17.423 -0.4430 -0.0933 -0.4857
  208MPD1    C5 3163   1.583   1.626  17.462  0.0922  0.3164  0.0155
  208MPD1     H 3164   1.241   1.616  17.643 -0.7449  2.4709 -0.7184
  208MPD1    H1 3165   1.516   1.465  17.349  0.4063 -1.5944  1.3506
  208MPD1    H2 3166   1.640   1.770  17.599  1.3420 -1.7425  0.6103
  208MPD1    H3 3167   1.678   1.635  17.409 -0.8191 -2.7893 -2.1061
  208MPD1     N 3168   1.249   1.453  17.444  0.5602  0.1461  0.1255
  208MPD1    H5 3169   1.172   1.433  17.507  0.9940 -1.8438  0.0283
  208MPD1    N1 3170   1.416   1.780   0.059  0.2015 -0.2049 -0.1722
  208MPD1    H6 3171   1.322   1.808   0.088  0.0335 -1.3906  0.4071
  208MPD1    H7 3172   1.469   1.866   0.047  0.3196 -0.1112  1.0737
  209MPD1     C 3173   3.958   1.352   9.777 -0.1798 -0.0209 -0.8441
  209MPD1    C1 3174   4.000   1.390   9.898 -0.2083  0.0191 -0.0219
  209MPD1    C2 3175   4.112   1.474   9.896  0.9564  0.1552  0.1860
  209MPD1    C3 3176   4.179   1.504   9.779  0.0479  0.1510 -0.1438
  209MPD1    C4 3177   4.140   1.455   9.659  0.0362  0.1318  0.2230
  209MPD1    C5 3178   4.035   1.367   9.666  0.1646  0.2028  0.1481
  209MPD1     H 3179   4.155   1.520   9.984  2.2913 -1.8383  0.5631
  209MPD1    H1 3180   4.197   1.465   9.568  1.5638 -2.5720  0.8891
  209MPD1    H2 3181   3.866   1.297   9.759  0.7532 -1.4356 -1.2797
  209MPD1    H3 3182   4.011   1.319   9.572  2.6501  1.3778 -1.0883
  209MPD1     N 3183   4.271   1.606   9.795  0.4790 -0.2106  0.0443
  209MPD1    H5 3184   4.272   1.647   9.888  0.3846 -0.9605  0.3701
  209MPD1    N1 3185   3.924   1.374  10.014 -0.5980  0.2078  0.3988
  209MPD1    H6 3186   3.984   1.373  10.096 -0.0836 -1.3251 -0.0059
  209MPD1    H7 3187   3.855   1.299  10.013 -2.0823  1.5413  1.4767
  210MPD1     C 3188   0.350   2.305   9.550 -0.3255 -0.2113 -0.3782
  210MPD1    C1 3189   0.340   2.172   9.514  1.1640 -0.4592 -0.0107
  210MPD1    C2 3190   0.247   2.088   9.579 -0.0934 -0.5267  0.1804
  210MPD1    C3 3191   0.158   2.143   9.669  0.1371 -1.2022  0.5909
  210MPD1    C4 3192   0.181   2.272   9.713  0.3533 -0.3909 -0.4548
  210MPD1    C5 3193   0.270   2.355   9.652  0.0595 -0.1685  0.7173
  210MPD1     H 3194   0.229   1.986   9.546  0.2515 -0.6700  0.4414
  210MPD1    H1 3195   0.128   2.310   9.799  0.7601  0.5032 -0.6062
  210MPD1    H2 3196   0.424   2.375   9.513  0.4840 -0.4705  0.7747
  210MPD1    H3 3197   0.280   2.456   9.690 -1.4817 -0.1953  1.2099
  210MPD1     N 3198   0.060   2.064   9.731  0.1397 -0.3719  0.3024
  210MPD1    H5 3199   0.015   2.101   9.815  1.4010 -1.8670  1.6461
  210MPD1    N1 3200   0.429   2.126   9.421  0.2285 -0.3651  0.0008
  210MPD1    H6 3201   0.407   2.032   9.389  1.3898 -0.4484 -0.5658
  210MPD1    H7 3202   0.444   2.189   9.342 -1.3052 -2.8915 -2.3307
  211MPD1     C 3203   1.412   2.281  15.345 -0.1614 -0.2373  0.2333
  211MPD1    C1 3204   1.330   2.382  15.354  0.1528 -0.1779  0.7869
  211MPD1    C2 3205   1.213   2.372  15.434 -0.1733 -0.8230 -0.8631
  211MPD1    C3 3206   1.193   2.260  15.510 -0.1820  0.5061 -0.1481
  211MPD1    C4 3207   1.285   2.160  15.506  0.5590 -0.2271 -0.4154
  211MPD1    C5 3208   1.390   2.164  15.418 -0.0560 -0.7877  0.5750
  211MPD1     H 3209   1.144   2.456  15.430  1.3189  0.4477 -0.2814
  211MPD1    H1 3210   1.267   2.073  15.568 -0.2715  0.9036  0.9079
  211MPD1    H2 3211   1.505   2.293  15.290  1.2299 -0.0738  2.6515
  211MPD1    H3 3212   1.462   2.083  15.410  0.0783 -0.5698 -0.5069
  211MPD1     N 3213   1.085   2.266  15.601  0.7221  0.5220 -0.1060
  211MPD1    H5 3214   1.049   2.360  15.612 -0.4869 -0.0688  1.0058
  211MPD1    N1 3215   1.356   2.508  15.295 -0.2670 -0.0530 -0.2988
  211MPD1    H6 3216   1.268   2.530  15.249 -0.6526 -2.0569 -0.5248
  211MPD1    H7 3217   1.423   2.498  15.219 -2.0741 -0.6820 -1.8169
  212MPD1     C 3218   0.490   0.509  17.046 -0.3469  0.3815  0.8962
  212MPD1    C1 3219   0.523   0.376  17.009 -0.3509 -0.2768  0.8005
  212MPD1    C2 3220   0.426   0.294  16.952 -0.5309 -0.0144 -0.0083
  212MPD1    C3 3221   0.307   0.344  16.913 -0.1218  0.5367  0.4714
  212MPD1    C4 3222   0.277   0.480  16.939  0.4178 -0.1889 -0.4051
  212MPD1    C5 3223   0.371   0.561  16.998  0.4799 -0.1514  0.6477
  212MPD1     H 3224   0.449   0.188  16.942 -0.5948 -0.1348  1.1783
  212MPD1    H1 3225   0.186   0.525  16.900  0.7371 -0.3901 -1.3775
  212MPD1    H2 3226   0.559   0.580  17.091 -1.1659  1.2012  0.8575
  212MPD1    H3 3227   0.348   0.667  17.003  0.1561 -0.2835  1.9431
  212MPD1     N 3228   0.200   0.268  16.871  0.2741 -0.2023 -0.3938
  212MPD1    H5 3229   0.119   0.316  16.833  1.1566 -0.6041 -2.7903
  212MPD1    N1 3230   0.636   0.312  17.069  0.3726 -0.5143 -0.5124
  212MPD1    H6 3231   0.672   0.239  17.008 -1.6947 -0.2703 -1.9902
  212MPD1    H7 3232   0.711   0.379  17.083  0.9392 -1.4808  1.1483
  213MPD1     C 3233   2.701   1.967  15.643  1.0511 -0.5016  0.1932
  213MPD1    C1 3234   2.619   1.850  15.634  0.5869 -0.8212 -0.2673
  213MPD1    C2 3235   2.694   1.741  15.597  0.4136  0.0871  0.6219
  213MPD1    C3 3236   2.824   1.744  15.536 -0.0403  0.3146  0.1018
  213MPD1    C4 3237   2.881   1.871  15.523 -1.3940  0.1384  0.9044
  213MPD1    C5 3238   2.823   1.979  15.583  0.2996 -0.2608 -0.5345
  213MPD1     H 3239   2.648   1.642  15.602  0.6611 -0.1357 -1.6948
  213MPD1    H1 3240   2.981   1.882  15.484 -1.2761 -3.1463  0.3283
  213MPD1    H2 3241   2.658   2.060  15.679  0.8484 -0.4251 -0.2516
  213MPD1    H3 3242   2.872   2.074  15.576  2.9207 -1.2977  3.4529
  213MPD1     N 3243   2.879   1.630  15.488  0.0117  0.0559 -0.4461
  213MPD1    H5 3244   2.822   1.546  15.481  1.8404 -1.3053  0.9001
  213MPD1    N1 3245   2.521   1.832  15.730  0.4048 -0.6177  0.2219
  213MPD1    H6 3246   2.469   1.920  15.733  2.0960  0.4094 -0.5514
  213MPD1    H7 3247   2.448   1.763  15.714  1.6851 -1.0660 -3.5333
  214MPD1     C 3248   2.720   0.660  15.394 -0.0119 -0.5426 -0.0020
  214MPD1    C1 3249   2.666   0.763  15.464 -0.4016  0.4032 -0.3211
  214MPD1    C2 3250   2.735   0.882  15.465 -0.6762  0.1470 -0.1823
  214MPD1    C3 3251   2.847   0.907  15.387 -0.4318 -0.2972 -0.9035
  214MPD1    C4 3252   2.902   0.800  15.322 -0.2681 -0.1781  0.0448
  214MPD1    C5 3253   2.836   0.683  15.326 -0.0154 -0.6268 -0.5637
  214MPD1     H 3254   2.694   0.964  15.523 -0.2159 -0.2365  0.6838
  214MPD1    H1 3255   2.986   0.821  15.257  0.3310 -3.4141 -0.2496
  214MPD1    H2 3256   2.672   0.564  15.381  0.6071 -1.1548  2.2939
  214MPD1    H3 3257   2.880   0.600  15.272  0.4343 -1.4364  1.0367
  214MPD1     N 3258   2.912   1.025  15.371 -0.1348 -0.0784 -0.6066
  214MPD1    H5 3259   2.989   1.016  15.306  1.0353  1.8347  0.5103
  214MPD1    N1 3260   2.539   0.752  15.530 -0.2907 -0.4686  0.4429
  214MPD1    H6 3261   2.518   0.654  15.547 -0.4468 -0.2531  1.4996
  214MPD1    H7 3262   2.528   0.803  15.618  1.8980  1.0784 -0.1868
  215MPD1     C 3263   2.638   1.580  11.151 -0.0072  0.0264 -0.3727
  215MPD1    C1 3264   2.722   1.569  11.261 -0.8253  0.6126 -0.1907
  215MPD1    C2 3265   2.817   1.664  11.287 -0.2727  0.3189  0.7196
  215MPD1    C3 3266   2.821   1.780  11.215 -0.5897 -0.5580 -0.1274
  215MPD1    C4 3267   2.733   1.791  11.102  0.0889  0.2833 -0.0100
  215MPD1    C5 3268   2.632   1.695  11.078  0.1278 -0.1810 -0.2906
  215MPD1     H 3269   2.890   1.653  11.367 -0.2770 -1.0224  0.5410
  215MPD1    H1 3270   2.735   1.881  11.042  0.3206  0.1866 -0.1436
  215MPD1    H2 3271   2.579   1.493  11.121  0.3865 -0.7564  1.1139
  215MPD1    H3 3272   2.575   1.705  10.986 -0.3956  0.0657  0.0591
  215MPD1     N 3273   2.935   1.870  11.238 -0.2886 -0.5184  0.4620
  215MPD1    H5 3274   2.999   1.837  11.310  1.5210  0.8088 -0.5324
  215MPD1    N1 3275   2.720   1.447  11.338 -0.5978  0.2584  0.3810
  215MPD1    H6 3276   2.753   1.460  11.434  3.7131  1.0441 -1.2170
  215MPD1    H7 3277   2.628   1.406  11.346  0.5295 -2.0914  1.3586
  216MPD1     C 3278   0.378   4.397  16.834 -0.3809  0.5706  0.0644
  216MPD1    C1 3279   0.479   4.336  16.918  0.2894  0.3008 -0.3684
  216MPD1    C2 3280   0.526   4.211  16.878  0.4540 -0.0248  0.0780
  216MPD1    C3 3281   0.462   4.142  16.777  0.6833 -0.7222 -0.0307
  216MPD1    C4 3282   0.352   4.193  16.707 -1.0597  0.7103 -0.6887
  216MPD1    C5 3283   0.313   4.323  16.741  0.6213  0.7947  0.3175
  216MPD1     H 3284   0.601   4.157  16.936  1.5854 -0.3486 -1.6897
  216MPD1    H1 3285   0.299   4.144  16.626 -3.1938 -0.6236  1.5082
  216MPD1    H2 3286   0.342   4.497  16.852  0.1806  0.1363  3.6473
  216MPD1    H3 3287   0.233   4.366  16.682  1.5689  0.0061 -1.5390
  216MPD1     N 3288   0.493   4.005  16.753  0.1217 -0.4597  0.3167
  216MPD1    H5 3289   0.577   3.965  16.794 -0.1767  0.6052  1.9573
  216MPD1    N1 3290   0.560   4.413  17.006  0.1002  0.5547  0.0913
  216MPD1    H6 3291   0.587   4.359  17.088  2.2348 -0.7670 -1.4931
  216MPD1    H7 3292   0.524   4.500  17.045 -1.1506 -0.0276  0.2027
  217MPD1     C 3293   0.681   0.400   8.588  0.1500 -0.4433  0.4594
  217MPD1    C1 3294   0.800   0.359   8.544 -0.6255  0.4587  0.5343
  217MPD1    C2 3295   0.915   0.386   8.619 -0.0282  0.0277 -0.0740
  217MPD1    C3 3296   0.906   0.429   8.746 -0.0667  0.5039 -0.2015
  217MPD1    C4 3297   0.785   0.453   8.793 -0.4161 -0.2539 -0.0482
  217MPD1    C5 3298   0.675   0.428   8.722 -0.1514  0.4588 -0.7299
  217MPD1     H 3299   1.009   0.359   8.573 -0.3083  1.9592 -1.7867
  217MPD1    H1 3300   0.765   0.478   8.896 -0.4367 -2.6251  0.5322
  217MPD1    H2 3301   0.591   0.401   8.529 -0.9649 -1.0941  2.1335
  217MPD1    H3 3302   0.573   0.455   8.749  0.1000  0.8537 -0.1735
  217MPD1     N 3303   1.020   0.456   8.828 -0.0868 -0.0237 -0.3027
  217MPD1    H5 3304   0.992   0.501   8.914 -1.6640 -0.4751 -0.5712
  217MPD1    N1 3305   0.810   0.292   8.417  0.2390 -0.1841 -0.4171
  217MPD1    H6 3306   0.741   0.219   8.404 -0.9253  0.6041  1.3204
  217MPD1    H7 3307   0.898   0.244   8.400 -0.1702 -1.4101  1.0028
  218MPD1     C 3308   2.500   1.749  13.151  0.0097  0.0515  0.1343
  218MPD1    C1 3309   2.629   1.749  13.192  0.1136  0.1661  0.2590
  218MPD1    C2 3310   2.727   1.785  13.104 -0.2079 -1.0154 -0.8768
  218MPD1    C3 3311   2.704   1.813  12.970 -0.1739 -0.3459  0.1025
  218MPD1    C4 3312   2.572   1.814  12.925 -0.1571 -0.4817  0.2090
  218MPD1    C5 3313   2.478   1.790  13.017 -0.2250 -0.1428 -0.1062
  218MPD1     H 3314   2.826   1.763  13.143 -0.3391 -1.2908 -0.6912
  218MPD1    H1 3315   2.551   1.839  12.821  0.9107 -0.0031  0.1168
  218MPD1    H2 3316   2.416   1.714  13.210  1.5512 -2.2934  0.9611
  218MPD1    H3 3317   2.377   1.796  12.977 -0.4695  2.6647  0.9080
  218MPD1     N 3318   2.819   1.840  12.892 -0.2037 -0.1763  0.2807
  218MPD1    H5 3319   2.911   1.833  12.935  0.5963 -1.9993 -1.7498
  218MPD1    N1 3320   2.665   1.692  13.317  0.2366 -0.9289 -0.4174
  218MPD1    H6 3321   2.755   1.724  13.351 -0.1174  2.1729 -2.3631
  218MPD1    H7 3322   2.589   1.715  13.381 -0.6866  0.1741 -1.9233
  219MPD1     C 3323   3.215   2.262  11.950 -0.6647 -0.1332 -0.7392
  219MPD1    C1 3324   3.170   2.330  12.064  0.1203  0.1962 -0.2938
  219MPD1    C2 3325   3.119   2.252  12.170 -0.0012 -0.3044  0.1987
  219MPD1    C3 3326   3.140   2.119  12.175 -0.1891  0.9524 -0.7863
  219MPD1    C4 3327   3.191   2.057  12.063  0.2876  0.4470  0.4121
  219MPD1    C5 3328   3.223   2.128  11.957  0.1087  0.3375  0.5715
  219MPD1     H 3329   3.094   2.313  12.256 -1.8342 -3.6826  2.0932
  219MPD1    H1 3330   3.218   1.953  12.066 -1.2109  0.0496  0.4746
  219MPD1    H2 3331   3.227   2.317  11.857 -1.5994  1.3395 -0.0048
  219MPD1    H3 3332   3.249   2.078  11.865 -1.2300 -0.5158  0.6541
  219MPD1     N 3333   3.127   2.040  12.293  0.1590 -0.5614 -0.4885
  219MPD1    H5 3334   3.160   1.946  12.274 -2.0983 -1.2390 -1.0929
  219MPD1    N1 3335   3.169   2.471  12.069  0.2252 -0.0788 -0.4815
  219MPD1    H6 3336   3.132   2.503  12.159  0.8154  2.7395 -1.2417
  219MPD1    H7 3337   3.094   2.497  12.006 -1.0274 -0.2152  0.9580
  220MPD1     C 3338   3.887   2.534   9.571 -0.9477  0.0768 -0.1577
  220MPD1    C1 3339   3.944   2.467   9.674 -0.3134 -0.0278 -0.3035
  220MPD1    C2 3340   3.861   2.403   9.767 -0.5106  0.2712 -0.4961
  220MPD1    C3 3341   3.723   2.411   9.756  0.1528 -0.2552 -0.0372
  220MPD1    C4 3342   3.664   2.479   9.652 -0.1266 -0.4783 -0.6204
  220MPD1    C5 3343   3.746   2.531   9.559 -0.0280  0.9213 -0.5166
  220MPD1     H 3344   3.912   2.343   9.841 -2.1500  0.1389  0.5186
  220MPD1    H1 3345   3.559   2.502   9.638  0.3612  0.7698 -2.2716
  220MPD1    H2 3346   3.952   2.581   9.499  0.7173  1.1164  2.0357
  220MPD1    H3 3347   3.704   2.587   9.476 -3.0430 -1.8211 -0.8153
  220MPD1     N 3348   3.644   2.349   9.861 -0.7231  0.2134  0.0308
  220MPD1    H5 3349   3.701   2.295   9.924 -0.0772  0.9901  0.1060
  220MPD1    N1 3350   4.080   2.437   9.672 -0.4573 -0.2376  0.2448
  220MPD1    H6 3351   4.119   2.423   9.765  0.6247 -0.4554 -0.2413
  220MPD1    H7 3352   4.134   2.514   9.633  0.2154 -1.6273 -1.5993
  221MPD1     C 3353   4.623   1.095  16.546  0.3981 -1.0129 -0.3739
  221MPD1    C1 3354   4.655   1.186  16.449  0.1729 -0.0408 -0.1998
  221MPD1    C2 3355   0.074   1.202  16.424 -0.8224 -0.8055 -0.5517
  221MPD1    C3 3356   0.168   1.110  16.468 -0.1860 -0.9720  0.4181
  221MPD1    C4 3357   0.123   1.011  16.549 -0.1832 -0.1897  0.0824
  221MPD1    C5 3358   4.718   1.006  16.587 -0.0803  0.1536  0.0596
  221MPD1     H 3359   0.109   1.291  16.373 -1.1144 -0.2054  0.2915
  221MPD1    H1 3360   0.189   0.933  16.586  1.4494  1.3893  0.5147
  221MPD1    H2 3361   4.522   1.074  16.578  0.9293 -1.4019  1.0419
  221MPD1    H3 3362   4.691   0.915  16.639  1.2750  0.1129  0.6830
  221MPD1     N 3363   0.301   1.112  16.426  0.2707 -0.3268  0.0631
  221MPD1    H5 3364   0.357   1.038  16.466 -1.7195 -2.1261 -0.4423
  221MPD1    N1 3365   4.567   1.283  16.415  0.1693  0.2221 -0.6073
  221MPD1    H6 3366   4.579   1.337  16.329 -0.7321 -1.8726 -2.0472
  221MPD1    H7 3367   4.470   1.253  16.417  0.4297 -0.6720 -1.3609
  222MPD1     C 3368   3.909   4.518  17.681  0.1386 -0.0770 -0.0519
  222MPD1    C1 3369   3.935   4.620   0.072  0.5195 -0.4339 -0.2341
  222MPD1    C2 3370   3.966   0.013   0.018 -0.1059  0.3416  0.0154
  222MPD1    C3 3371   4.006   0.032  17.576  0.0382  0.6711 -0.7937
  222MPD1    C4 3372   4.009   4.643  17.501 -0.4874  0.6005  0.2311
  222MPD1    C5 3373   3.949   4.534  17.551 -0.6632 -0.4611  0.1563
  222MPD1     H 3374   3.952   0.100   0.082 -1.1627 -1.2754  1.9885
  222MPD1    H1 3375   4.050   4.629  17.401 -1.3804 -0.0829 -0.0432
  222MPD1    H2 3376   3.856   4.426   0.003  0.6746 -0.1355  1.1496
  222MPD1    H3 3377   3.940   4.454  17.479 -0.1583 -0.7075  0.3700
  222MPD1     N 3378   4.059   0.151  17.531  0.3191 -1.1282 -0.2657
  222MPD1    H5 3379   4.116   0.152  17.447 -0.1196 -0.9472 -0.5607
  222MPD1    N1 3380   3.882   4.613   0.199 -0.4087 -0.0422 -0.7142
  222MPD1    H6 3381   3.867   4.527   0.251 -0.2511  0.7129  0.6029
  222MPD1    H7 3382   3.943   4.661   0.265 -2.3040  1.1828  0.1691
  223MPD1     C 3383   3.612   1.029  17.521  0.3421  0.6243  0.2941
  223MPD1    C1 3384   3.661   0.974  17.639  0.2244  0.9620 -0.4178
  223MPD1    C2 3385   3.747   0.866  17.630 -0.7622 -0.9344  0.2864
  223MPD1    C3 3386   3.805   0.832  17.505  0.4295  0.3029 -0.4850
  223MPD1    C4 3387   3.762   0.903  17.390  0.2028  0.4505 -0.2308
  223MPD1    C5 3388   3.664   1.000  17.400  0.0265 -0.3768 -0.1125
  223MPD1     H 3389   3.771   0.814   0.025 -1.4556 -1.6775  0.0510
  223MPD1    H1 3390   3.792   0.878  17.288 -0.8239  0.7695 -0.6146
  223MPD1    H2 3391   3.517   1.083  17.518  0.5841  1.0149 -0.2015
  223MPD1    H3 3392   3.605   1.039  17.317  1.2439  1.4044 -0.1412
  223MPD1     N 3393   3.898   0.727  17.499  0.2944 -0.3295  0.3530
  223MPD1    H5 3394   3.908   0.673  17.585 -0.0350 -1.5001 -0.3412
  223MPD1    N1 3395   3.586   0.990   0.062 -0.3736 -0.1003  0.5039
  223MPD1    H6 3396   3.642   0.976   0.146 -0.1176 -1.6791  0.0621
  223MPD1    H7 3397   3.548   1.085   0.067 -1.3160 -0.3796 -1.4777
  224MPD1     C 3398   1.027   0.761   8.600 -0.0121  0.7336 -0.2452
  224MPD1    C1 3399   1.155   0.785   8.574  0.5452  0.3667 -0.0273
  224MPD1    C2 3400   1.224   0.856   8.671 -0.6798  0.4422  0.5671
  224MPD1    C3 3401   1.161   0.907   8.785 -0.3459 -0.2677 -0.8220
  224MPD1    C4 3402   1.030   0.882   8.808 -0.3115  0.2536 -0.0323
  224MPD1    C5 3403   0.971   0.800   8.718 -0.1689  0.1194 -0.0970
  224MPD1     H 3404   1.327   0.884   8.655 -1.2685  2.4243  0.1888
  224MPD1    H1 3405   0.978   0.923   8.893 -0.7902 -3.2685  1.3928
  224MPD1    H2 3406   0.967   0.709   8.527 -0.4593 -0.5274  1.0195
  224MPD1    H3 3407   0.864   0.788   8.732  0.0082  1.4252  2.3980
  224MPD1     N 3408   1.228   0.987   8.878 -0.0288 -0.0151 -0.6859
  224MPD1    H5 3409   1.173   1.030   8.951 -0.5790 -0.0716 -1.0692
  224MPD1    N1 3410   1.212   0.770   8.443 -0.0182  0.0588 -0.3154
  224MPD1    H6 3411   1.310   0.744   8.442 -0.1240 -0.4351  1.2679
  224MPD1    H7 3412   1.161   0.693   8.400 -0.6378 -1.7911  3.6559
  225MPD1     C 3413   2.924   3.158  12.751  0.5171 -0.3688 -0.8010
  225MPD1    C1 3414   2.851   3.054  12.792 -0.6571  0.7299 -0.1827
  225MPD1    C2 3415   2.790   2.974  12.701 -0.4949 -1.1657 -0.1390
  225MPD1    C3 3416   2.803   3.004  12.564  0.4279  0.1309  0.4029
  225MPD1    C4 3417   2.881   3.109  12.529 -0.0990  0.4821  0.0324
  225MPD1    C5 3418   2.942   3.192  12.620  0.5538  0.1901 -0.2232
  225MPD1     H 3419   2.734   2.890  12.741 -0.6050 -1.7445 -1.4993
  225MPD1    H1 3420   2.893   3.139  12.425 -0.0771 -1.5430 -0.5487
  225MPD1    H2 3421   2.967   3.230  12.819  2.6124 -1.4362 -0.9929
  225MPD1    H3 3422   2.997   3.278  12.584 -1.2333  1.4355 -0.0084
  225MPD1     N 3423   2.750   2.925  12.460 -0.1942  0.1639 -0.2482
  225MPD1    H5 3424   2.782   2.958  12.369 -0.1609 -0.3748 -0.4314
  225MPD1    N1 3425   2.853   3.022  12.927  0.2120 -0.0835  0.1315
  225MPD1    H6 3426   2.867   3.097  12.995 -0.1230  1.0902 -1.1004
  225MPD1    H7 3427   2.777   2.959  12.955  1.2425 -1.1160  0.6166
  226MPD1     C 3428   0.600   2.095   9.163 -0.4226 -0.1536  0.3264
  226MPD1    C1 3429   0.565   2.203   9.082 -0.1095  0.0966 -0.3158
  226MPD1    C2 3430   0.659   2.302   9.053 -0.2545 -0.0979 -0.1122
  226MPD1    C3 3431   0.791   2.292   9.090  0.1140 -0.0189 -0.1136
  226MPD1    C4 3432   0.833   2.175   9.159  0.4349 -0.2546  0.1604
  226MPD1    C5 3433   0.735   2.077   9.199  0.4115 -0.1987  0.1509
  226MPD1     H 3434   0.623   2.393   9.006  0.1853 -0.4949 -1.2292
  226MPD1    H1 3435   0.932   2.169   9.203  0.1580  0.9704  0.9534
  226MPD1    H2 3436   0.529   2.022   9.198 -2.0994  0.0313 -2.6666
  226MPD1    H3 3437   0.770   1.996   9.261 -0.1341 -1.3217 -0.9981
  226MPD1     N 3438   0.877   2.390   9.032  0.0119 -0.1681  0.1350
  226MPD1    H5 3439   0.842   2.448   8.957  0.0475  0.7536  0.8324
  226MPD1    N1 3440   0.426   2.233   9.068 -0.0121 -0.4073 -0.1337
  226MPD1    H6 3441   0.411   2.304   8.996 -1.9828 -0.4698  0.2247
  226MPD1    H7 3442   0.362   2.157   9.047 -1.1698  0.1133  1.5381
  227MPD1     C 3443   0.933   3.193   8.409 -0.5736 -1.4046 -0.0036
  227MPD1    C1 3444   1.058   3.193   8.459  0.1591 -0.2441  0.4372
  227MPD1    C2 3445   1.088   3.093   8.555 -0.1614  1.1547  0.2380
  227MPD1    C3 3446   1.002   3.002   8.611 -0.0938  1.0773  0.1677
  227MPD1    C4 3447   0.870   3.004   8.557 -0.0538 -0.3392  0.8713
  227MPD1    C5 3448   0.843   3.099   8.459  0.7698 -0.3690 -0.2923
  227MPD1     H 3449   1.187   3.094   8.600 -0.9854 -0.6097  2.1067
  227MPD1    H1 3450   0.796   2.933   8.593 -1.0574  0.4897  0.4343
  227MPD1    H2 3451   0.895   3.267   8.340  0.3373 -0.2380  0.7448
  227MPD1    H3 3452   0.743   3.098   8.417  0.8759  0.7454 -0.5826
  227MPD1     N 3453   1.049   2.907   8.704  0.3741 -0.5451 -0.7147
  227MPD1    H5 3454   1.138   2.936   8.744 -0.7165 -0.1365  1.4207
  227MPD1    N1 3455   1.159   3.287   8.404 -0.1029 -0.4345 -0.0272
  227MPD1    H6 3456   1.119   3.363   8.349 -1.3838 -1.7888 -0.9623
  227MPD1    H7 3457   1.232   3.319   8.467 -0.6678  1.8062 -0.5085
  228MPD1     C 3458   0.580   0.085  12.555  0.2059 -0.3892  0.4777
  228MPD1    C1 3459   0.543   0.199  12.484  0.0187 -0.0129  0.4109
  228MPD1    C2 3460   0.405   0.215  12.471 -0.0593 -0.4377 -0.2070
  228MPD1    C3 3461   0.308   0.135  12.536 -0.0608  0.2463 -0.5113
  228MPD1    C4 3462   0.354   0.030  12.616 -0.5017 -0.0896  0.4202
  228MPD1    C5 3463   0.491   0.010  12.625  0.7047 -0.2511 -0.1200
  228MPD1     H 3464   0.372   0.292  12.403  0.9466  0.8438  0.7553
  228MPD1    H1 3465   0.294   4.685  12.675  0.0261 -0.7562  0.1762
  228MPD1    H2 3466   0.682   0.055  12.574  0.9812  2.3657  0.6623
  228MPD1    H3 3467   0.530   4.646  12.675 -1.0854  0.2578  2.1715
  228MPD1     N 3468   0.170   0.158  12.520 -0.0428 -0.1311  0.4045
  228MPD1    H5 3469   0.144   0.206  12.435  1.3998 -1.2274 -0.6695
  228MPD1    N1 3470   0.636   0.266  12.399 -0.2471  0.2551  0.5853
  228MPD1    H6 3471   0.606   0.356  12.361 -1.2058 -0.3041  0.0327
  228MPD1    H7 3472   0.735   0.281  12.418  0.1743 -0.6000 -1.0127
  229MPD1     C 3473   4.068   4.237  14.189 -0.3711 -0.5532  0.5799
  229MPD1    C1 3474   3.974   4.180  14.264 -0.3951  0.1789 -0.1531
  229MPD1    C2 3475   4.009   4.118  14.384 -0.0150 -0.8919  0.4565
  229MPD1    C3 3476   4.147   4.099  14.418 -0.1633 -0.3415 -0.0134
  229MPD1    C4 3477   4.239   4.153  14.334  0.1639 -0.6298  0.2154
  229MPD1    C5 3478   4.198   4.215  14.221  0.2876 -0.2158 -0.1331
  229MPD1     H 3479   3.938   4.060  14.441 -2.3091  2.6103  1.1672
  229MPD1    H1 3480   4.344   4.128  14.350  0.1145 -1.2746 -0.4310
  229MPD1    H2 3481   4.056   4.303  14.103  0.8223  2.7275  2.9051
  229MPD1    H3 3482   4.273   4.258  14.156  1.2267  0.1182  1.1646
  229MPD1     N 3483   4.189   4.005  14.516  0.1014  0.3890  0.3370
  229MPD1    H5 3484   4.282   3.966  14.510  0.2158  0.6726  0.2546
  229MPD1    N1 3485   3.841   4.189  14.225  0.4823 -0.0937  0.4242
  229MPD1    H6 3486   3.780   4.121  14.271  0.5759 -0.6888 -0.3195
  229MPD1    H7 3487   3.828   4.169  14.126  1.9256  1.6726 -0.1272
  230MPD1     C 3488   4.183   3.778  15.572  0.2921 -0.3111  0.2392
  230MPD1    C1 3489   4.141   3.669  15.509  0.0608 -0.1547 -0.2120
  230MPD1    C2 3490   4.116   3.669  15.371 -0.7003 -0.4018  0.2672
  230MPD1    C3 3491   4.114   3.781  15.297  0.1324 -0.5171 -0.0167
  230MPD1    C4 3492   4.146   3.901  15.362 -0.4949  0.2190 -0.5652
  230MPD1    C5 3493   4.177   3.893  15.497  0.3081  0.5881  0.4410
  230MPD1     H 3494   4.110   3.578  15.314 -2.0094  1.2499 -2.2196
  230MPD1    H1 3495   4.165   3.996  15.312  0.4077  1.0188  1.3188
  230MPD1    H2 3496   4.208   3.788  15.677 -0.2987  2.6727  0.0919
  230MPD1    H3 3497   4.202   3.988  15.544  3.1550 -0.4082  0.9224
  230MPD1     N 3498   4.093   3.777  15.157  0.7780  0.1350 -0.4985
  230MPD1    H5 3499   4.079   3.682  15.124  0.4700 -0.5759  1.6680
  230MPD1    N1 3500   4.175   3.549  15.568  0.0634 -0.1824 -0.1536
  230MPD1    H6 3501   4.112   3.480  15.527 -1.7095  0.3979  1.5858
  230MPD1    H7 3502   4.148   3.549  15.666  0.0463 -2.9415 -0.1717
  231MPD1     C 3503   2.354   1.258  15.829  0.8858 -0.2124  0.4392
  231MPD1    C1 3504   2.375   1.134  15.761  0.3276 -0.3068  0.3975
  231MPD1    C2 3505   2.432   1.140  15.631 -0.1177  0.3856 -0.8733
  231MPD1    C3 3506   2.464   1.267  15.571  0.3524  0.2429 -0.0368
  231MPD1    C4 3507   2.442   1.385  15.645  0.3731  0.6245  0.5630
  231MPD1    C5 3508   2.389   1.378  15.773  0.4608  0.2936 -0.1111
  231MPD1     H 3509   2.443   1.050  15.572 -0.7391 -0.7321  0.7056
  231MPD1    H1 3510   2.472   1.482  15.608  1.2766 -0.5901 -1.8811
  231MPD1    H2 3511   2.307   1.262  15.927 -0.3262 -0.0041 -0.1602
  231MPD1    H3 3512   2.378   1.468  15.832  0.8985  2.3419 -3.1719
  231MPD1     N 3513   2.516   1.265  15.441  0.0069  0.9233  0.2331
  231MPD1    H5 3514   2.520   1.180  15.385  1.3252  0.5100  0.9351
  231MPD1    N1 3515   2.329   1.016  15.809  0.4087  0.6544  0.3325
  231MPD1    H6 3516   2.338   0.929  15.755 -0.2776  0.8699 -0.1268
  231MPD1    H7 3517   2.342   1.002  15.909  0.4297 -1.0110  0.1030
  232MPD1     C 3518   3.941   2.779   0.475  0.1641  0.8649 -0.1288
  232MPD1    C1 3519   4.039   2.826   0.390 -0.0551  0.0450  0.1499
  232MPD1    C2 3520   4.002   2.848   0.256  0.3535 -0.0299 -0.4267
  232MPD1    C3 3521   3.874   2.808   0.214 -0.1347 -0.0469  0.3985
  232MPD1    C4 3522   3.777   2.766   0.306 -0.3537 -0.0631  0.1999
  232MPD1    C5 3523   3.810   2.752   0.440 -0.6276 -0.2272 -0.7285
  232MPD1     H 3524   4.070   2.888   0.182  0.8792  0.1322  0.1532
  232MPD1    H1 3525   3.672   2.746   0.287 -0.1521 -1.1665  0.2288
  232MPD1    H2 3526   3.972   2.758   0.576  2.2426  0.1410 -0.9027
  232MPD1    H3 3527   3.734   2.731   0.515 -0.2305  0.7627 -0.0451
  232MPD1     N 3528   3.831   2.838   0.082  0.2244 -0.3808 -0.3319
  232MPD1    H5 3529   3.898   2.880   0.018  0.6247 -1.3595 -0.5499
  232MPD1    N1 3530   4.166   2.870   0.433 -0.0921  0.4924 -0.3842
  232MPD1    H6 3531   4.243   2.882   0.368 -1.3001  1.3053 -1.6580
  232MPD1    H7 3532   4.184   2.842   0.530 -0.7744  1.4388  0.0173
  233MPD1     C 3533   4.097   2.031   0.391 -0.6144  0.3250  0.2701
  233MPD1    C1 3534   4.224   2.024   0.336 -0.2808 -0.0045 -0.4894
  233MPD1    C2 3535   4.313   1.945   0.398 -0.5941 -0.1401  0.4375
  233MPD1    C3 3536   4.276   1.857   0.503  0.2394  0.6886 -0.1599
  233MPD1    C4 3537   4.152   1.859   0.553  0.2566 -1.1353 -0.4311
  233MPD1    C5 3538   4.064   1.952   0.502 -0.2479 -1.1367  0.0733
  233MPD1     H 3539   4.414   1.946   0.359 -1.3411 -1.2267 -1.5354
  233MPD1    H1 3540   4.116   1.811   0.643 -0.7731 -1.2327 -0.8975
  233MPD1    H2 3541   4.017   2.096   0.358  1.1215  1.3746 -1.9122
  233MPD1    H3 3542   3.960   1.955   0.532 -0.1125  0.3254  0.4198
  233MPD1     N 3543   4.365   1.764   0.563 -0.4385  0.5897 -0.1814
  233MPD1    H5 3544   4.328   1.702   0.634 -3.0624  1.1440 -1.0532
  233MPD1    N1 3545   4.268   2.118   0.249  0.3745 -0.3130  0.1156
  233MPD1    H6 3546   4.343   2.074   0.196  1.4531 -0.4439  1.7686
  233MPD1    H7 3547   4.202   2.143   0.175 -1.3627  1.1273  2.1399
  234MPD1     C 3548   2.808   0.007   9.253 -0.0033 -0.1171  0.0891
  234MPD1    C1 3549   2.687   4.678   9.223 -0.0477 -0.2343 -0.0796
  234MPD1    C2 3550   2.579   0.040   9.230 -0.4229  0.0693 -0.0876
  234MPD1    C3 3551   2.582   0.158   9.302  0.0470  0.0791  0.1021
  234MPD1    C4 3552   2.698   0.195   9.348  0.0219 -0.0629 -0.8254
  234MPD1    C5 3553   2.814   0.128   9.324  0.4027 -0.3929 -0.0698
  234MPD1     H 3554   2.484   0.004   9.190 -0.9026  0.4666  0.6976
  234MPD1    H1 3555   2.707   0.287   9.404  0.6728  0.1848 -1.3332
  234MPD1    H2 3556   2.899   4.673   9.244 -0.4414 -0.3496 -2.6953
  234MPD1    H3 3557   2.910   0.158   9.364  0.8087 -1.2694 -0.4175
  234MPD1     N 3558   2.463   0.233   9.320 -0.5930  0.1231 -0.3226
  234MPD1    H5 3559   2.381   0.191   9.277  1.2690 -1.3923 -2.3796
  234MPD1    N1 3560   2.686   4.559   9.154 -0.0234 -0.3394  0.1166
  234MPD1    H6 3561   2.596   4.513   9.148  0.0371 -0.4147 -0.1757
  234MPD1    H7 3562   2.750   4.495   9.200 -0.2223 -1.1770 -0.7841
  235MPD1     C 3563   2.989   4.143   9.706 -0.0910  0.0764  0.6284
  235MPD1    C1 3564   3.120   4.169   9.706 -0.1692 -0.3038 -0.1806
  235MPD1    C2 3565   3.207   4.095   9.636  0.6259  1.1094 -0.4894
  235MPD1    C3 3566   3.160   3.976   9.575  0.5306 -0.2769  0.0447
  235MPD1    C4 3567   3.028   3.932   9.598 -0.1155 -0.5142 -0.1197
  235MPD1    C5 3568   2.946   4.023   9.657  0.1842 -0.5596 -0.0028
  235MPD1     H 3569   3.307   4.132   9.617  1.6158 -0.6461  1.2693
  235MPD1    H1 3570   2.993   3.835   9.566  0.6866 -0.8693  0.0968
  235MPD1    H2 3571   2.912   4.215   9.729 -0.0017 -0.1606  1.6696
  235MPD1    H3 3572   2.841   3.999   9.672 -0.2601  1.6188  0.3141
  235MPD1     N 3573   3.251   3.896   9.506 -0.2314  0.1120  0.0506
  235MPD1    H5 3574   3.350   3.916   9.518 -0.3422  1.3174 -1.0230
  235MPD1    N1 3575   3.149   4.308   9.723  0.0940 -0.8267  0.1183
  235MPD1    H6 3576   3.246   4.322   9.750 -0.2870  2.8021 -0.3835
  235MPD1    H7 3577   3.090   4.346   9.797  2.4184  0.8601  1.0846
  236MPD1     C 3578   3.380   4.328  10.193  0.2696  0.5197  0.5070
  236MPD1    C1 3579   3.327   4.222  10.123  0.5693  0.1510  0.0034
  236MPD1    C2 3580   3.388   4.100  10.141 -0.0388  0.1852  0.5214
  236MPD1    C3 3581   3.508   4.095  10.214  0.2468 -0.1927 -0.1779
  236MPD1    C4 3582   3.556   4.205  10.280 -0.0549 -0.1557 -0.5764
  236MPD1    C5 3583   3.490   4.318  10.270  0.0952 -0.1553 -0.0994
  236MPD1     H 3584   3.366   4.017  10.074  0.1386 -0.2398  0.9844
  236MPD1    H1 3585   3.647   4.209  10.339 -0.4440  0.0591  0.0056
  236MPD1    H2 3586   3.333   4.426  10.192 -0.3445  0.2245  0.2369
  236MPD1    H3 3587   3.525   4.408  10.320 -0.1488  0.7372 -1.5322
  236MPD1     N 3588   3.590   3.979  10.227 -0.0557  0.0363 -0.6145
  236MPD1    H5 3589   3.653   3.984  10.306  0.7347  1.2797 -1.3077
  236MPD1    N1 3590   3.205   4.229  10.052  0.4642 -0.3377  0.5987
  236MPD1    H6 3591   3.173   4.323  10.032  1.5081 -0.4178 -1.4122
  236MPD1    H7 3592   3.198   4.183   9.961  0.6001  2.2648 -0.7017
  237MPD1     C 3593   2.174   1.974  15.254 -0.3216 -0.7451  0.2293
  237MPD1    C1 3594   2.063   2.001  15.332 -0.4516  0.9203  0.0223
  237MPD1    C2 3595   1.937   2.036  15.270 -0.3942  0.1068 -0.0427
  237MPD1    C3 3596   1.924   2.057  15.134 -0.3830 -1.1613 -0.9058
  237MPD1    C4 3597   2.036   2.038  15.066  0.2107 -0.1610  0.7752
  237MPD1    C5 3598   2.159   2.002  15.123 -0.2694  0.5761  0.6963
  237MPD1     H 3599   1.854   2.062  15.334  0.4627  1.4921  0.5233
  237MPD1    H1 3600   2.029   2.067  14.962 -0.2124  0.2077  0.9055
  237MPD1    H2 3601   2.272   1.967  15.300 -1.2011  0.9550  2.3331
  237MPD1    H3 3602   2.244   1.995  15.056 -0.0238  1.4926  0.9196
  237MPD1     N 3603   1.815   2.096  15.058  0.2675  0.6186 -0.0229
  237MPD1    H5 3604   1.831   2.122  14.961 -1.0774  0.0305 -0.4068
  237MPD1    N1 3605   2.067   1.989  15.473 -0.6780  0.2261 -0.0209
  237MPD1    H6 3606   1.983   2.019  15.522 -0.1009 -3.0699  2.9887
  237MPD1    H7 3607   2.150   2.035  15.509 -2.0731  1.2555  1.8540
  238MPD1     C 3608   3.982   1.950  15.458  0.6875  0.1344  0.8324
  238MPD1    C1 3609   4.000   1.942  15.326 -0.3845  0.1988  0.0497
  238MPD1    C2 3610   3.914   1.876  15.240 -0.4414  0.2964  0.2506
  238MPD1    C3 3611   3.799   1.828  15.288  0.3505 -0.4557 -0.1995
  238MPD1    C4 3612   3.773   1.830  15.425  0.9967 -0.1067  0.7009
  238MPD1    C5 3613   3.864   1.894  15.510 -0.0120 -0.9327  0.0121
  238MPD1     H 3614   3.936   1.885  15.135  0.5398  0.5746  0.4765
  238MPD1    H1 3615   3.683   1.787  15.467  0.5362 -0.5805 -0.7702
  238MPD1    H2 3616   4.046   2.009  15.524  0.2802  1.3098  0.1755
  238MPD1    H3 3617   3.832   1.906  15.613  0.2818  1.6539 -0.1807
  238MPD1     N 3618   3.708   1.745  15.221  0.4969  0.0062 -0.1109
  238MPD1    H5 3619   3.621   1.730  15.271 -0.7685 -0.2332 -2.4279
  238MPD1    N1 3620   4.096   2.036  15.274 -0.6315  0.0003 -0.4552
  238MPD1    H6 3621   4.174   2.049  15.339  0.8749 -1.9611 -1.8943
  238MPD1    H7 3622   4.139   2.012  15.185 -0.1086  1.2960 -0.5489
  239MPD1     C 3623   4.276   2.264  15.051 -0.0964  0.6100  0.0224
  239MPD1    C1 3624   4.373   2.172  15.011  0.5499  0.2338 -0.4751
  239MPD1    C2 3625   4.386   2.163  14.876  1.0193  0.3023  0.5023
  239MPD1    C3 3626   4.316   2.242  14.789 -0.5840  0.2713  0.5494
  239MPD1    C4 3627   4.233   2.345  14.831  0.2163  0.1547  0.2705
  239MPD1    C5 3628   4.209   2.349  14.967 -0.3473 -0.0896  0.0513
  239MPD1     H 3629   4.451   2.085  14.838  0.2124 -0.5516  0.8729
  239MPD1    H1 3630   4.191   2.413  14.757 -2.7627 -0.7889  1.0855
  239MPD1    H2 3631   4.262   2.276  15.158 -1.2734 -0.4878 -0.0071
  239MPD1    H3 3632   4.136   2.416  15.010  2.2044  2.0639  1.0570
  239MPD1     N 3633   4.309   2.217  14.651 -1.2448 -0.0026  0.3873
  239MPD1    H5 3634   4.239   2.267  14.598 -1.3824  1.2410  1.7440
  239MPD1    N1 3635   4.436   2.075  15.101 -0.2217 -0.4317  0.0426
  239MPD1    H6 3636   4.424   2.094  15.200 -1.9665  0.2379 -0.3024
  239MPD1    H7 3637   4.534   2.079  15.076 -0.4167  1.0190 -0.5028
  240MPD1     C 3638   3.924   1.758  13.604 -0.1114 -0.1522 -0.2591
  240MPD1    C1 3639   4.003   1.770  13.716 -0.6883  0.0397  0.5867
  240MPD1    C2 3640   3.946   1.766  13.839 -0.0214 -0.0990  0.1932
  240MPD1    C3 3641   3.807   1.753  13.850  0.0608 -0.4495  0.0912
  240MPD1    C4 3642   3.728   1.742  13.733  0.9661 -0.0393  0.8883
  240MPD1    C5 3643   3.788   1.740  13.611  0.0260 -0.9380 -0.6914
  240MPD1     H 3644   4.003   1.765  13.932  2.1868  0.6651 -1.1453
  240MPD1    H1 3645   3.620   1.731  13.737  0.8337  0.7319 -0.7969
  240MPD1    H2 3646   3.975   1.752  13.508  0.2809 -0.8892 -0.0056
  240MPD1    H3 3647   3.729   1.738  13.520 -1.6267 -0.8984  0.3923
  240MPD1     N 3648   3.748   1.734  13.985 -0.7771 -1.5414 -0.4633
  240MPD1    H5 3649   3.806   1.738  14.069 -2.0141 -0.1575  0.3279
  240MPD1    N1 3650   4.146   1.772  13.701  0.2868  0.3558  0.0633
  240MPD1    H6 3651   4.163   1.813  13.609 -0.8254 -0.7940 -0.6522
  240MPD1    H7 3652   4.194   1.836  13.764 -1.0641  0.1254  1.3244
  241MPD1     C 3653   4.079   1.970  14.718 -0.6854  0.1924 -0.0800
  241MPD1    C1 3654   3.945   1.956  14.762  0.2138  0.6128 -0.5079
  241MPD1    C2 3655   3.852   1.922  14.674 -0.1264 -1.2642  0.0866
  241MPD1    C3 3656   3.887   1.889  14.544  0.1284  0.1157  1.0083
  241MPD1    C4 3657   4.015   1.885  14.504 -0.0384 -0.0960  0.5919
  241MPD1    C5 3658   4.110   1.933  14.587 -0.4271  0.2485  0.2360
  241MPD1     H 3659   3.748   1.924  14.704 -0.1928  1.0097 -0.2806
  241MPD1    H1 3660   4.045   1.841  14.409  1.5462  0.9938  0.5747
  241MPD1    H2 3661   4.156   2.004  14.786  0.8772 -0.4675 -1.5405
  241MPD1    H3 3662   4.212   1.928  14.552 -0.9360  1.4419 -1.4007
  241MPD1     N 3663   3.788   1.836  14.454 -0.1187 -0.2419  0.2771
  241MPD1    H5 3664   3.819   1.816  14.359  0.6869 -1.1227  0.7238
  241MPD1    N1 3665   3.909   2.000  14.889  0.1388  0.3849  0.3705
  241MPD1    H6 3666   3.991   2.004  14.949  1.3649 -0.0822 -1.2965
  241MPD1    H7 3667   3.845   1.932  14.930  2.1266 -1.1723  0.9170
  242MPD1     C 3668   3.510   0.805  15.159  0.2107  0.7458 -0.2822
  242MPD1    C1 3669   3.550   0.736  15.274 -0.2948  0.1656 -0.2628
  242MPD1    C2 3670   3.587   0.605  15.260  0.3247  0.6396  0.3316
  242MPD1    C3 3671   3.555   0.539  15.141  0.1367 -0.2504  0.1262
  242MPD1    C4 3672   3.493   0.608  15.035  1.3211 -0.7109  0.6276
  242MPD1    C5 3673   3.485   0.742  15.042 -0.0073 -0.1170 -0.2621
  242MPD1     H 3674   3.617   0.542  15.343  0.6684  2.0924  1.3155
  242MPD1    H1 3675   3.464   0.566  14.939  3.1329 -2.9795  1.0748
  242MPD1    H2 3676   3.508   0.913  15.166  1.1655  0.6444  1.8062
  242MPD1    H3 3677   3.437   0.799  14.964 -3.0460  0.5309  2.0818
  242MPD1     N 3678   3.583   0.403  15.108 -0.6714  0.2469  0.1185
  242MPD1    H5 3679   3.576   0.372  15.012  0.9126 -1.1829  0.4531
  242MPD1    N1 3680   3.571   0.803  15.399  0.1372  0.3313 -0.6166
  242MPD1    H6 3681   3.515   0.886  15.410  0.4085  0.2691  1.2142
  242MPD1    H7 3682   3.542   0.746  15.478 -1.9196 -2.9626 -3.7351
  243MPD1     C 3683   0.707   3.763  17.504  0.5212  0.1663  0.2744
  243MPD1    C1 3684   0.690   3.754  17.369  0.1755  0.0637  0.4544
  243MPD1    C2 3685   0.631   3.648  17.313 -0.0648 -0.1878 -0.9745
  243MPD1    C3 3686   0.610   3.541  17.387  0.1307  0.9039  0.8065
  243MPD1    C4 3687   0.642   3.536  17.520  0.5856  0.9938 -0.8546
  243MPD1    C5 3688   0.688   3.649  17.579  0.5007  0.0705 -0.0164
  243MPD1     H 3689   0.616   3.641  17.206 -1.2982  3.0542 -1.0326
  243MPD1    H1 3690   0.634   3.451  17.587  0.0692  0.9860 -0.9238
  243MPD1    H2 3691   0.744   3.851  17.554  2.4912 -0.6409  0.2369
  243MPD1    H3 3692   0.698   3.648  17.687 -2.3393 -1.6521  0.2306
  243MPD1     N 3693   0.554   3.428  17.319 -0.3752 -0.0725 -0.1954
  243MPD1    H5 3694   0.546   3.442  17.219 -0.1885  0.2945 -0.1564
  243MPD1    N1 3695   0.694   3.873  17.295 -0.1345  0.6409  0.2581
  243MPD1    H6 3696   0.750   3.846  17.214  0.6717 -0.0036  1.0356
  243MPD1    H7 3697   0.741   3.946  17.348  0.9895 -1.0153  1.5163
  244MPD1     C 3698   4.378   3.284  17.514  0.0846  0.2618 -0.2339
  244MPD1    C1 3699   4.487   3.311  17.590  0.0324 -0.2643 -0.0267
  244MPD1    C2 3700   4.610   3.298  17.537  0.0592 -0.9534  0.3486
  244MPD1    C3 3701   4.632   3.257  17.409  0.1376 -0.0416 -0.4031
  244MPD1    C4 3702   4.526   3.233  17.328 -0.0729 -0.1525  0.5646
  244MPD1    C5 3703   4.402   3.242  17.388  0.4342  0.1678 -0.4099
  244MPD1     H 3704   4.695   3.325  17.598 -1.8382  1.6761  1.8766
  244MPD1    H1 3705   4.528   3.210  17.223 -0.1198  0.5786  0.4045
  244MPD1    H2 3706   4.278   3.285  17.557  0.0776  0.1966 -0.2483
  244MPD1    H3 3707   4.316   3.217  17.327 -0.1525  0.4074  0.3136
  244MPD1     N 3708   0.040   3.222  17.361 -0.2944 -0.2683  0.2238
  244MPD1    H5 3709   0.103   3.202  17.438  0.9838  1.0530 -0.4507
  244MPD1    N1 3710   4.476   3.336   0.029  0.0151  0.2081  0.6754
  244MPD1    H6 3711   4.391   3.298   0.070  0.5519  0.6863  2.2362
  244MPD1    H7 3712   4.564   3.312   0.074  1.0930  0.6508 -1.2105
  245MPD1     C 3713   2.858   3.881  13.011  1.0830 -0.4817  0.0852
  245MPD1    C1 3714   2.772   3.903  13.117 -1.1604  0.7086  0.3033
  245MPD1    C2 3715   2.787   4.021  13.189  0.0853 -0.5868  0.1151
  245MPD1    C3 3716   2.884   4.119  13.152  0.7386  0.3092 -0.3808
  245MPD1    C4 3717   2.956   4.098  13.041 -0.4223 -0.4949  0.2973
  245MPD1    C5 3718   2.947   3.980  12.970  0.7536  0.0286 -0.5134
  245MPD1     H 3719   2.731   4.042  13.280  0.9424 -0.1023  0.5287
  245MPD1    H1 3720   3.027   4.169  13.001  1.2324 -1.0720  2.1982
  245MPD1    H2 3721   2.847   3.795  12.946 -0.1563  0.0127 -0.3726
  245MPD1    H3 3722   2.997   3.962  12.876 -1.5316 -0.1326 -1.6967
  245MPD1     N 3723   2.907   4.233  13.239 -0.2584  0.6765 -0.5929
  245MPD1    H5 3724   2.837   4.238  13.313 -0.7169  1.7054 -1.1006
  245MPD1    N1 3725   2.668   3.821  13.139  0.3604 -0.1417 -0.0792
  245MPD1    H6 3726   2.636   3.827  13.236  0.4360  0.8681 -0.1219
  245MPD1    H7 3727   2.699   3.724  13.129  1.6309 -0.0607  2.8723
  246MPD1     C 3728   4.122   3.738   8.462  0.5854  0.1658  0.1206
  246MPD1    C1 3729   4.054   3.805   8.565 -1.0332 -0.6406 -0.2958
  246MPD1    C2 3730   3.915   3.783   8.564  0.4853  0.7389  0.3884
  246MPD1    C3 3731   3.849   3.723   8.458 -0.2035  0.2312  0.0045
  246MPD1    C4 3732   3.922   3.683   8.350 -0.4694  0.2661 -0.2868
  246MPD1    C5 3733   4.056   3.690   8.355  0.3008  0.5549 -0.8478
  246MPD1     H 3734   3.844   3.820   8.639  1.6753 -0.3974  2.0606
  246MPD1    H1 3735   3.878   3.611   8.282 -0.8068  0.1682  0.0349
  246MPD1    H2 3736   4.229   3.723   8.456  0.6455  0.3117  0.8489
  246MPD1    H3 3737   4.124   3.636   8.291 -0.2182 -0.6940 -0.3281
  246MPD1     N 3738   3.709   3.697   8.471 -0.6727  0.6180 -0.1552
  246MPD1    H5 3739   3.663   3.719   8.559  0.3019 -1.0967  0.7716
  246MPD1    N1 3740   4.131   3.874   8.663 -0.1098  0.4005 -0.0252
  246MPD1    H6 3741   4.219   3.902   8.618  0.6235 -2.0781 -0.1307
  246MPD1    H7 3742   4.076   3.956   8.687 -0.1090  0.2069  0.6302
  247MPD1     C 3743   1.482   4.557  16.625  1.0004 -0.6185 -0.2433
  247MPD1    C1 3744   1.495   4.551  16.493  0.3378 -0.1295 -0.3295
  247MPD1    C2 3745   1.451   4.436  16.429 -0.3839  0.1119 -0.2636
  247MPD1    C3 3746   1.424   4.317  16.497 -0.0712  0.4553  0.1095
  247MPD1    C4 3747   1.417   4.327  16.635  0.7316 -0.4317 -0.1092
  247MPD1    C5 3748   1.445   4.446  16.698 -0.0771 -0.4538  0.5073
  247MPD1     H 3749   1.447   4.447  16.322  3.1747 -2.3636 -0.6688
  247MPD1    H1 3750   1.397   4.237  16.693  2.3724 -0.2998  0.6632
  247MPD1    H2 3751   1.498   4.647  16.683  0.1929 -1.2230  0.9349
  247MPD1    H3 3752   1.421   4.457  16.803 -1.9747  0.5406 -0.0267
  247MPD1     N 3753   1.403   4.192  16.429 -0.0948 -0.2790  0.5221
  247MPD1    H5 3754   1.381   4.108  16.482 -1.7777  0.4824  1.0485
  247MPD1    N1 3755   1.522   4.659  16.416  0.4286  0.7309  0.2115
  247MPD1    H6 3756   1.549   4.641  16.319 -0.3922  1.0519 -0.0774
  247MPD1    H7 3757   1.584   0.004  16.457  1.2277  0.2591 -0.1969
  248MPD1     C 3758   2.453   4.671   0.261  0.5034  0.3124  0.5113
  248MPD1    C1 3759   2.569   4.594   0.264  0.1983  0.3678 -0.5429
  248MPD1    C2 3760   2.562   4.470   0.200  0.0678 -0.8020  0.5016
  248MPD1    C3 3761   2.437   4.407   0.179  0.5654  0.6567 -0.1981
  248MPD1    C4 3762   2.324   4.482   0.187 -0.0906  0.0029 -0.2639
  248MPD1    C5 3763   2.327   4.611   0.224 -0.3825 -0.1018 -0.5154
  248MPD1     H 3764   2.654   4.413   0.196 -0.6412 -1.8608 -0.8095
  248MPD1    H1 3765   2.223   4.446   0.168 -0.1815 -0.1598  0.5329
  248MPD1    H2 3766   2.453   0.053   0.285 -1.0352  0.0264  1.8680
  248MPD1    H3 3767   2.236   4.671   0.225 -0.8485 -0.8177 -0.3123
  248MPD1     N 3768   2.431   4.271   0.136 -0.0193  0.7842 -0.3455
  248MPD1    H5 3769   2.514   4.221   0.104  0.7995  2.2176 -0.4977
  248MPD1    N1 3770   2.700   4.645   0.284 -0.0125  0.3661 -0.1111
  248MPD1    H6 3771   2.771   4.578   0.316  3.1036  3.1928 -1.0936
  248MPD1    H7 3772   2.711   4.720   0.352  1.2625  0.0843  0.0001
  249MPD1     C 3773   4.047   1.923   9.566 -0.1738  0.0334  0.8836
  249MPD1    C1 3774   4.025   2.002   9.676  0.0877  0.1784  0.5198
  249MPD1    C2 3775   4.138   2.076   9.715  0.6317  0.8283 -0.1284
  249MPD1    C3 3776   4.243   2.107   9.633 -0.5027  0.3267  0.2567
  249MPD1    C4 3777   4.252   2.032   9.518 -0.2830  0.5960 -0.4331
  249MPD1    C5 3778   4.157   1.941   9.484 -0.5157  0.4505  0.4451
  249MPD1     H 3779   4.137   2.118   9.815 -0.2910  0.7254 -0.0922
  249MPD1    H1 3780   4.330   2.054   9.446 -0.8695  3.4860 -0.1705
  249MPD1    H2 3781   3.969   1.859   9.525  0.5936 -0.9177  0.9021
  249MPD1    H3 3782   4.168   1.894   9.387  3.1069  1.0407  0.5618
  249MPD1     N 3783   4.343   2.199   9.674  0.1346 -0.3666  0.2237
  249MPD1    H5 3784   4.336   2.241   9.766  0.5039 -0.2793  0.2118
  249MPD1    N1 3785   3.925   1.964   9.769 -0.3207 -0.3177  0.6466
  249MPD1    H6 3786   3.833   1.931   9.738  0.1787 -1.1117  0.0170
  249MPD1    H7 3787   3.912   2.045   9.830 -2.4676  0.1802 -0.4450
  250MPD2     C 3788   0.845   2.377  13.560  0.2255 -0.0267 -0.5527
  250MPD2    C1 3789   0.773   2.398  13.448 -0.1288 -0.0749  0.1219
  250MPD2    C2 3790   0.666   2.320  13.418 -1.1029 -0.1103  0.3678
  250MPD2    C3 3791   0.632   2.217  13.504  0.4211  0.1206 -0.3156
  250MPD2    C4 3792   0.706   2.199  13.623 -0.7275 -0.1690  0.6885
  250MPD2    C5 3793   0.809   2.285  13.647  0.2796  0.6968  0.8324
  250MPD2     H 3794   0.623   2.324  13.319 -0.2473 -2.1023 -0.0867
  250MPD2    H1 3795   0.685   2.113  13.686 -0.7236  0.6941  1.8770
  250MPD2    H2 3796   0.930   2.441  13.583  0.5759 -0.7459  0.1281
  250MPD2    H3 3797   0.863   2.276  13.740  2.1322 -0.3020 -0.3360
  250MPD2     N 3798   0.525   2.125  13.469  0.4083 -0.3841 -0.6067
  250MPD2    H5 3799   0.509   2.047  13.532  0.2691 -0.4206 -0.6891
  250MPD2    N1 3800   0.824   2.497  13.360  0.4476  0.3814 -0.2257
  250MPD2    H7 3801   0.907   2.547  13.392  0.6883  0.1899 -0.5524
  251TMC3    C1 3802   0.812   2.677  13.207 -0.4245  0.1801 -0.3302
  251TMC3    C2 3803   0.732   2.778  13.166  0.3001  0.1817 -0.4359
  251TMC3    C3 3804   0.789   2.857  13.073 -1.2643  0.0031  0.0571
  251TMC3    C4 3805   0.939   2.650  13.164 -0.1956  0.3326  0.2606
  251TMC3    C5 3806   0.988   2.731  13.066  0.3514 -0.0121 -0.1891
  251TMC3    C6 3807   0.917   2.838  13.026  0.1038 -0.2574 -0.1204
  251TMC3     C 3808   0.752   2.562  13.263  0.0599 -0.1374 -0.0982
  251TMC3     O 3809   0.632   2.537  13.240 -0.6121 -0.0533  0.0899
  251TMC3     H 3810   0.627   2.787  13.191  0.0590  1.2378 -1.8121
  251TMC3    H1 3811   0.992   2.556  13.174 -0.0524  0.6764  2.7807
  251TMC3    H2 3812   0.963   2.909  12.958  2.9802 -0.8750  1.1977
  251TMC3    C7 3813   1.129   2.722  13.037  0.5166  0.8654  0.1033
  251TMC3    C8 3814   0.754   2.996  13.101  0.0270 -0.7032 -0.0587
  251TMC3    O1 3815   1.168   2.612  13.054 -0.0648 -0.5975  0.1715
  251TMC3    O2 3816   0.675   3.015  13.191 -0.1742 -0.5859 -0.2838
  252TMC3    C1 3817   0.841   3.390   8.700  0.1823 -0.3582  0.3495
  252TMC3    C2 3818   0.958   3.449   8.721  0.8205  0.8494  0.7335
  252TMC3    C3 3819   1.044   3.422   8.824 -0.3824  0.0334 -0.3605
  252TMC3    C4 3820   0.806   3.281   8.779 -0.2416 -0.4338 -0.6648
  252TMC3    C5 3821   0.901   3.243   8.877  0.3502 -0.6641 -0.5234
  252TMC3    C6 3822   1.019   3.314   8.903  0.2187 -0.1612  0.1572
  252TMC3     C 3823   0.768   3.427   8.581  0.2733 -0.5401  0.8136
  252TMC3     O 3824   0.804   3.528   8.518 -0.0359  0.2722 -0.1760
  252TMC3     H 3825   0.967   3.544   8.670  0.5238  1.3681  1.6450
  252TMC3    H1 3826   0.716   3.222   8.763 -1.7899  2.1095 -1.2455
  252TMC3    H2 3827   1.065   3.291   8.998 -0.1876  0.0442  0.4044
  252TMC3    C7 3828   0.853   3.142   8.968  0.2503  0.1882  0.1590
  252TMC3    C8 3829   1.162   3.506   8.833 -0.1715  0.2660  0.2630
  252TMC3    O1 3830   0.729   3.136   8.980 -0.5252  0.7357 -0.3636
  252TMC3    O2 3831   1.165   3.599   8.749 -0.0755 -0.2163 -0.5050
  253MPD2     C 3832   1.970   2.595  14.754 -0.3961 -0.3041  0.1351
  253MPD2    C1 3833   1.849   2.617  14.822  0.0525 -0.1923  0.2064
  253MPD2    C2 3834   1.811   2.557  14.939  0.6566  0.3496 -0.4573
  253MPD2    C3 3835   1.910   2.489  15.015 -0.2951 -0.0501  0.0250
  253MPD2    C4 3836   2.036   2.475  14.957 -0.5121 -0.4703  0.5884
  253MPD2    C5 3837   2.061   2.526  14.828  0.0615 -0.0645 -0.3815
  253MPD2     H 3838   1.707   2.554  14.970  0.5004 -0.8954 -1.0771
  253MPD2    H1 3839   2.112   2.419  15.010 -0.9307 -1.8339 -0.2469
  253MPD2    H2 3840   1.989   2.630  14.653  0.0797  0.4067  0.4675
  253MPD2    H3 3841   2.159   2.504  14.789  0.4000  1.8883 -0.5931
  253MPD2     N 3842   1.893   2.443  15.146  0.2587  0.8765 -0.6589
  253MPD2    H5 3843   1.969   2.402  15.200 -1.7880 -0.0653  1.5047
  253MPD2    N1 3844   1.743   2.679  14.748 -0.1305 -0.3564  0.0301
  253MPD2    H7 3845   1.650   2.681  14.787 -0.4586 -0.9611 -0.7409
  254TMC3    C1 3846   1.773   2.440  15.347 -0.5998  0.0975 -0.5463
  254TMC3    C2 3847   1.677   2.517  15.410 -0.0536  0.9884  0.7501
  254TMC3    C3 3848   1.663   2.483  15.547  0.6029 -0.3607 -0.1955
  254TMC3    C4 3849   1.850   2.349  15.404  0.3146 -0.3405 -0.3589
  254TMC3    C5 3850   1.830   2.319  15.537  0.3398  0.5262  0.7883
  254TMC3    C6 3851   1.735   2.385  15.614 -0.7873 -0.1739 -0.3253
  254TMC3     C 3852   1.765   2.446  15.206  0.6739  0.7685  0.0246
  254TMC3     O 3853   1.654   2.460  15.161 -0.0284  0.2784 -0.4254
  254TMC3     H 3854   1.615   2.584  15.352  1.3143  1.0623 -0.6152
  254TMC3    H1 3855   1.928   2.295  15.353 -0.0376 -1.8882  0.7138
  254TMC3    H2 3856   1.732   2.372  15.722 -1.3195  1.0808 -0.1931
  254TMC3    C7 3857   1.925   2.255  15.621  0.1603 -0.6328 -0.1386
  254TMC3    C8 3858   1.584   2.565  15.636  0.5018  0.3081 -0.5556
  254TMC3    O1 3859   1.894   2.156  15.691 -0.0866  0.7021 -0.1656
  254TMC3    O2 3860   1.622   2.569  15.752  0.4819  0.1211  0.0753
  255MPD2     C 3861   4.713   0.781  11.051 -0.8693 -0.2828  0.0464
  255MPD2    C1 3862   0.067   0.853  10.961 -0.2975 -0.2290  0.7673
  255MPD2    C2 3863   0.144   0.782  10.865 -0.5029 -0.1663  0.0778
  255MPD2    C3 3864   0.137   0.643  10.865 -0.0004  1.0979 -0.3754
  255MPD2    C4 3865   0.054   0.584  10.949  0.3288 -0.5673  0.3610
  255MPD2    C5 3866   4.715   0.647  11.041 -0.2808 -0.3773  0.0356
  255MPD2     H 3867   0.216   0.829  10.798 -1.7533  1.8584  0.1359
  255MPD2    H1 3868   0.040   0.477  10.952 -3.6482 -0.0156  0.5874
  255MPD2    H2 3869   4.645   0.820  11.125  1.0920  1.3590  0.9702
  255MPD2    H3 3870   4.651   0.590  11.107 -1.1918 -1.1945 -1.5452
  255MPD2     N 3871   0.216   0.578  10.772 -0.3344 -0.0685 -0.1881
  255MPD2    H5 3872   0.283   0.630  10.717 -0.5737 -0.1724 -0.5766
  255MPD2    N1 3873   0.059   0.992  10.981  0.2760 -0.6456  0.3093
  255MPD2    H7 3874   0.036   1.015  11.077  0.6173 -0.7522  0.4165
  256TMC3    C1 3875   0.138   1.077  10.768  0.0036 -0.5087 -0.2862
  256TMC3    C2 3876   0.247   1.153  10.726 -0.4127 -0.1312 -0.0135
  256TMC3    C3 3877   0.281   1.155  10.590 -0.3605 -0.7559  0.5128
  256TMC3    C4 3878   0.061   1.000  10.677  0.4480  0.3772  0.0874
  256TMC3    C5 3879   0.127   0.985  10.555  0.7535  0.1818 -0.1364
  256TMC3    C6 3880   0.227   1.064  10.502 -0.2123 -0.0431  0.1760
  256TMC3     C 3881   0.101   1.098  10.906 -0.2641 -0.0098 -0.4694
  256TMC3     O 3882   0.108   1.213  10.947  0.4432 -0.5019  0.6127
  256TMC3     H 3883   0.286   1.232  10.789  1.1404 -0.1734 -0.9330
  256TMC3    H1 3884   4.699   0.943  10.712  0.9031 -0.3771 -0.0149
  256TMC3    H2 3885   0.262   1.045  10.401 -1.3909 -0.2521 -0.1850
  256TMC3    C7 3886   0.112   0.858  10.482 -0.3121 -0.1552  0.2276
  256TMC3    C8 3887   0.360   1.267  10.539  0.1123  0.0368  0.2019
  256TMC3    O1 3888   0.193   0.832  10.394 -0.2438 -0.0402  0.2138
  256TMC3    O2 3889   0.377   1.367  10.610  0.2959 -0.4218  0.2662
  257MPD2     C 3890   4.413   2.802  13.089  0.0314 -0.1316 -0.2277
  257MPD2    C1 3891   4.366   2.689  13.027 -0.2761 -0.2942 -0.0356
  257MPD2    C2 3892   4.383   2.566  13.085 -0.2205  0.1170 -0.0549
  257MPD2    C3 3893   4.424   2.555  13.217  0.4843  0.6565 -0.2501
  257MPD2    C4 3894   4.453   2.675  13.288  0.0089  0.1461  0.4460
  257MPD2    C5 3895   4.459   2.793  13.216  0.1518 -0.0701 -0.2610
  257MPD2     H 3896   4.375   2.479  13.020  1.3201 -0.3919  0.4240
  257MPD2    H1 3897   4.491   2.684  13.389  1.0190  1.6915 -0.0673
  257MPD2    H2 3898   4.408   2.901  13.046  0.6378  0.1891  0.4560
  257MPD2    H3 3899   4.492   2.878  13.274  2.7882 -1.3947  0.1528
  257MPD2     N 3900   4.423   2.427  13.269  0.1535 -0.4239  0.4525
  257MPD2    H5 3901   4.395   2.354  13.204  2.0599 -0.1277 -0.6960
  257MPD2    N1 3902   4.319   2.692  12.893 -0.5709  0.4144 -0.4076
  257MPD2    H7 3903   4.339   2.779  12.844  3.4893  0.2148  0.8621
  258TMC3    C1 3904   4.446   2.252  13.421  0.5334  0.0076 -0.1116
  258TMC3    C2 3905   4.527   2.168  13.358 -0.7971  0.0283  0.1206
  258TMC3    C3 3906   4.545   2.042  13.414 -0.2838 -0.0136  0.9339
  258TMC3    C4 3907   4.391   2.217  13.542 -0.8685  0.0066 -0.4468
  258TMC3    C5 3908   4.415   2.094  13.593  0.2341 -0.0328 -0.3782
  258TMC3    C6 3909   4.500   2.004  13.535 -0.4534 -0.3118  0.2224
  258TMC3     C 3910   4.445   2.395  13.398 -0.1977 -0.2030 -0.1367
  258TMC3     O 3911   4.437   2.461  13.501  0.1901 -0.6118  0.2778
  258TMC3     H 3912   4.565   2.188  13.258 -0.5379  1.0205  0.4153
  258TMC3    H1 3913   4.338   2.294  13.596  0.3074 -0.1016  0.8552
  258TMC3    H2 3914   4.500   1.905  13.580  2.9432 -0.2080  0.4400
  258TMC3    C7 3915   4.328   2.062  13.700 -0.4911 -0.4815  0.2710
  258TMC3    C8 3916   4.627   1.943  13.343  0.4463  0.5430  0.2875
  258TMC3    O1 3917   4.224   2.129  13.710  0.0224  0.2497 -0.6977
  258TMC3    O2 3918   4.619   1.938  13.223  0.6373 -0.0813 -0.6668
  259MPD2     C 3919   2.820   4.038   0.430 -0.2378  0.3965 -0.1929
  259MPD2    C1 3920   2.923   3.961   0.488  0.5635  0.3200 -0.5846
  259MPD2    C2 3921   3.036   3.932   0.422  0.7519 -0.8181  0.9612
  259MPD2    C3 3922   3.052   3.967   0.291  0.6050 -0.8310  0.5092
  259MPD2    C4 3923   2.959   4.043   0.232 -0.1442  0.3721  0.1788
  259MPD2    C5 3924   2.840   4.074   0.297 -0.0838 -0.0149 -0.1142
  259MPD2     H 3925   3.101   3.855   0.462  1.9690 -1.2290 -1.7502
  259MPD2    H1 3926   2.969   4.085   0.133  2.1258 -0.5531  0.0031
  259MPD2    H2 3927   2.726   4.051   0.482  1.3754  0.7122  2.6114
  259MPD2    H3 3928   2.763   4.132   0.247  0.4475  0.9281  0.1427
  259MPD2     N 3929   3.171   3.920   0.233 -0.1776  0.0301  0.1183
  259MPD2    H5 3930   3.243   3.879   0.291  0.2907  0.8131  0.0957
  259MPD2    N1 3931   2.903   3.925   0.625  0.8482  0.4530  0.3387
  259MPD2    H7 3932   2.814   3.959   0.661  0.1514  0.5379 -1.4747
  260TMC3    C1 3933   3.293   3.834   0.056  0.7082 -0.6938  0.1070
  260TMC3    C2 3934   3.325   3.825  17.613  0.3150  0.7079 -0.2422
  260TMC3    C3 3935   3.432   3.749  17.580  0.4689  0.2847 -1.0615
  260TMC3    C4 3936   3.365   3.756   0.154  0.2336 -0.4004 -0.1438
  260TMC3    C5 3937   3.481   3.696   0.109  0.0347 -0.8125  0.3122
  260TMC3    C6 3938   3.510   3.685  17.675 -0.1989 -0.2240 -0.1198
  260TMC3     C 3939   3.171   3.896   0.101 -0.1274 -0.1106 -1.3376
  260TMC3     O 3940   3.080   3.900   0.023  0.0554 -0.5287 -0.5783
  260TMC3     H 3941   3.261   3.864  17.535 -0.2835  0.7317  0.2663
  260TMC3    H1 3942   3.333   3.743   0.257 -0.1675  0.2937 -0.1838
  260TMC3    H2 3943   3.597   3.625  17.651  0.3679  0.3201  0.5831
  260TMC3    C7 3944   3.474   3.560   0.149  0.0137  0.2890 -0.4142
  260TMC3    C8 3945   3.437   3.700  17.440  0.7822 -0.4432  0.1662
  260TMC3    O1 3946   3.525   3.519   0.250  0.4614 -0.2914 -0.3646
  260TMC3    O2 3947   3.373   3.753  17.353  0.2743 -0.4240  0.4495
  261MPD2     C 3948   0.009   2.081  12.798 -0.5207 -0.6357  0.3666
  261MPD2    C1 3949   0.128   2.128  12.847 -0.4218 -0.5377 -0.4777
  261MPD2    C2 3950   0.183   2.227  12.776  0.0086 -0.0768 -0.7645
  261MPD2    C3 3951   0.145   2.257  12.644 -0.0726 -0.3119 -0.2721
  261MPD2    C4 3952   0.038   2.189  12.594  0.6377  0.2510  0.4821
  261MPD2    C5 3953   4.685   2.110  12.673  0.5857  0.4168 -0.1308
  261MPD2     H 3954   0.280   2.267  12.802 -0.2800 -1.7299  2.7848
  261MPD2    H1 3955   4.708   2.220  12.506  0.7715 -0.0836  0.2849
  261MPD2    H2 3956   4.666   2.013  12.851 -0.5150 -0.3074  0.7943
  261MPD2    H3 3957   4.591   2.070  12.639  1.3959  0.0345 -1.9360
  261MPD2     N 3958   0.215   2.356  12.573 -0.0258  0.8060 -0.0763
  261MPD2    H5 3959   0.305   2.372  12.618  0.4369 -2.1968  0.0691
  261MPD2    N1 3960   0.186   2.094  12.973 -0.0906 -0.0451 -0.4723
  261MPD2    H7 3961   0.259   2.153  13.010 -2.0049  1.2457  1.2869
  262TMC3    C1 3962   0.271   2.495  12.380  0.2289 -0.8313  0.5354
  262TMC3    C2 3963   0.224   2.555  12.266  0.0252  0.4632  0.5818
  262TMC3    C3 3964   0.320   2.576  12.170 -0.3569 -0.3320 -0.2243
  262TMC3    C4 3965   0.398   2.450  12.393  0.4018 -0.4553 -0.5550
  262TMC3    C5 3966   0.492   2.474  12.299  0.3044 -0.2328  0.1977
  262TMC3    C6 3967   0.452   2.548  12.183 -0.1399  0.5963  0.1108
  262TMC3     C 3968   0.171   2.412  12.449 -0.0426 -0.3125 -0.2340
  262TMC3     O 3969   0.066   2.398  12.386  0.3838  0.4295 -0.0953
  262TMC3     H 3970   0.121   2.586  12.260  0.2051  0.6815 -1.3753
  262TMC3    H1 3971   0.421   2.401  12.487 -1.9200 -1.3059 -0.4494
  262TMC3    H2 3972   0.524   2.578  12.107 -2.7966  2.7500 -1.5531
  262TMC3    C7 3973   0.607   2.382  12.301  0.1451  0.6607 -0.3190
  262TMC3    C8 3974   0.288   2.652  12.050 -0.3677  0.4139 -1.2137
  262TMC3    O1 3975   0.642   2.345  12.413  0.3002 -0.1374 -0.1424
  262TMC3    O2 3976   0.380   2.698  11.982  0.5407  0.2935 -0.3375
  263MPD2     C 3977   1.270   1.928  11.122 -0.2045  0.0468 -0.1789
  263MPD2    C1 3978   1.394   1.903  11.075 -0.6854  0.3140 -0.3911
  263MPD2    C2 3979   1.425   1.947  10.945 -0.0933  0.8213  0.1557
  263MPD2    C3 3980   1.327   1.998  10.873 -0.2464 -0.8180  0.3239
  263MPD2    C4 3981   1.199   2.016  10.917  0.2907  0.0886  0.0074
  263MPD2    C5 3982   1.172   1.983  11.046  0.2189  0.2251  0.4693
  263MPD2     H 3983   1.525   1.937  10.906  0.1131  1.0156  0.6327
  263MPD2    H1 3984   1.120   2.056  10.853  0.9704 -0.4619 -1.1734
  263MPD2    H2 3985   1.247   1.893  11.222 -0.2100  1.0585  0.1716
  263MPD2    H3 3986   1.069   2.001  11.075  0.9646  2.1794  1.8908
  263MPD2     N 3987   1.370   2.053  10.750  0.3255 -0.2504  0.0248
  263MPD2    H5 3988   1.464   2.029  10.720 -0.5725 -2.6529 -0.9211
  263MPD2    N1 3989   1.490   1.843  11.160  0.5702 -0.1587  0.1883
  263MPD2    H7 3990   1.458   1.785  11.237 -0.2739  0.8935  0.6349
  264TMC3    C1 3991   1.386   2.211  10.572  0.4657  0.4727  0.1748
  264TMC3    C2 3992   1.364   2.343  10.572  0.7999 -0.2314 -0.0814
  264TMC3    C3 3993   1.415   2.420  10.473 -0.1513 -0.0958 -0.8065
  264TMC3    C4 3994   1.451   2.142  10.471 -0.8223 -0.0831  0.0726
  264TMC3    C5 3995   1.507   2.224  10.378  0.1990 -0.4600 -0.0236
  264TMC3    C6 3996   1.496   2.360  10.378  0.0988  0.0641  0.4424
  264TMC3     C 3997   1.302   2.142  10.668 -0.1610 -0.1637 -0.2062
  264TMC3     O 3998   1.195   2.196  10.685  0.2708 -0.4946 -0.2682
  264TMC3     H 3999   1.307   2.394  10.649  0.5690  0.0684 -0.4569
  264TMC3    H1 4000   1.489   2.041  10.483 -1.0064  0.1581  2.4926
  264TMC3    H2 4001   1.534   2.423  10.299  0.4191  1.5104  1.7559
  264TMC3    C7 4002   1.644   2.206  10.341  0.1697 -0.6155  0.3226
  264TMC3    C8 4003   1.475   2.539  10.524  0.1404  1.0728 -0.2533
  264TMC3    O1 4004   1.679   2.091  10.327 -0.9216 -0.3125 -0.5335
  264TMC3    O2 4005   1.591   2.547  10.490 -0.0026  0.1876  0.2550
  265MPD2     C 4006   2.934   2.166  15.267  0.3295  0.2154 -0.5995
  265MPD2    C1 4007   2.958   2.283  15.201 -0.7249  0.1473  0.5044
  265MPD2    C2 4008   3.046   2.285  15.088  0.2438 -0.9062 -0.4904
  265MPD2    C3 4009   3.110   2.167  15.051  0.3090 -0.5689  0.1311
  265MPD2    C4 4010   3.076   2.044  15.115  0.0462 -0.0600  0.0187
  265MPD2    C5 4011   2.987   2.044  15.217 -0.2502  0.3401  0.5723
  265MPD2     H 4012   3.072   2.374  15.032 -1.1345 -0.4849 -0.4598
  265MPD2    H1 4013   3.123   1.952  15.082 -2.8590 -1.4807 -0.1474
  265MPD2    H2 4014   2.866   2.155  15.352  1.8011 -4.2873 -0.0256
  265MPD2    H3 4015   2.946   1.951  15.254 -1.4386  0.5597 -0.1984
  265MPD2     N 4016   3.193   2.141  14.942 -0.2169 -0.0762  0.3741
  265MPD2    H5 4017   3.214   2.044  14.919  1.4194  0.2599  0.4522
  265MPD2    N1 4018   2.898   2.408  15.243  0.4064 -0.1181  0.2240
  265MPD2    H7 4019   2.918   2.492  15.189 -1.1853 -0.9653 -1.7004
  266TMC3    C1 4020   2.774   2.571  15.377 -0.1470  0.3661 -1.0333
  266TMC3    C2 4021   2.708   2.591  15.497  0.9663 -0.2334  0.6440
  266TMC3    C3 4022   2.694   2.722  15.544  0.3631 -0.7234 -1.0191
  266TMC3    C4 4023   2.814   2.676  15.307 -0.1471 -0.1134 -0.3033
  266TMC3    C5 4024   2.801   2.801  15.358 -0.4972  0.2649  0.1059
  266TMC3    C6 4025   2.735   2.832  15.474  1.0572 -0.8216 -0.3921
  266TMC3     C 4026   2.820   2.432  15.356 -0.4125 -1.1280  0.3276
  266TMC3     O 4027   2.776   2.349  15.432 -0.4181  0.2909 -0.2381
  266TMC3     H 4028   2.667   2.507  15.553 -0.2140 -1.7761 -2.5305
  266TMC3    H1 4029   2.869   2.661  15.215  0.0799  0.8958 -0.3339
  266TMC3    H2 4030   2.720   2.931  15.514 -0.6600 -0.5467 -1.7060
  266TMC3    C7 4031   2.863   2.907  15.291  0.1017 -0.2489 -0.7241
  266TMC3    C8 4032   2.601   2.729  15.650  0.3570 -1.0899 -0.5655
  266TMC3    O1 4033   2.866   2.896  15.170 -0.2646  0.3378 -0.0807
  266TMC3    O2 4034   2.507   2.652  15.650  0.0804  0.5042 -0.6593
  267MPD2     C 4035   1.142   3.589  17.221 -0.2124  0.0622  0.4290
  267MPD2    C1 4036   1.073   3.711  17.203  0.5654  0.2745  0.0431
  267MPD2    C2 4037   0.973   3.702  17.108 -0.2291  0.8418  0.3224
  267MPD2    C3 4038   0.947   3.596  17.025  0.4893 -0.4869 -0.1772
  267MPD2    C4 4039   1.025   3.487  17.039  0.6809 -0.7378 -0.1883
  267MPD2    C5 4040   1.121   3.477  17.133  0.1002 -0.8284 -0.1460
  267MPD2     H 4041   0.900   3.781  17.092  0.6899  1.7380  0.4818
  267MPD2    H1 4042   1.014   3.398  16.978 -0.9858  0.5475 -1.7784
  267MPD2    H2 4043   1.209   3.574  17.304  0.6526 -0.6951 -0.4093
  267MPD2    H3 4044   1.164   3.381  17.156  0.7748 -0.5091 -0.0687
  267MPD2     N 4045   0.845   3.589  16.926 -0.1669 -0.1181 -0.1663
  267MPD2    H5 4046   0.834   3.504  16.871  2.3832 -0.2546 -0.4220
  267MPD2    N1 4047   1.107   3.822  17.277 -0.5034 -0.6714  0.1414
  267MPD2    H7 4048   1.183   3.809  17.343  1.5518 -0.9331 -2.2760
  268TMC3    C1 4049   1.077   4.035  17.363 -0.2471 -0.0265 -0.1885
  268TMC3    C2 4050   1.079   4.174  17.337 -0.2992  0.0468 -0.3555
  268TMC3    C3 4051   1.091   4.256  17.444 -0.2519 -0.0104 -0.6724
  268TMC3    C4 4052   1.072   3.984  17.493 -0.0989 -0.1248 -0.2910
  268TMC3    C5 4053   1.081   4.074  17.591  0.1854 -0.5665 -0.2364
  268TMC3    C6 4054   1.084   4.210  17.572  0.1852  0.2485 -0.2036
  268TMC3     C 4055   1.057   3.945  17.253 -0.5636  0.8741 -0.2914
  268TMC3     O 4056   0.989   3.989  17.162  0.1490  0.1230  0.2348
  268TMC3     H 4057   1.074   4.196  17.231  0.9622  2.3301  0.0426
  268TMC3    H1 4058   1.076   3.879  17.517 -0.8345  0.6998  3.3923
  268TMC3    H2 4059   1.094   4.287  17.647  1.7073  0.5893 -0.7529
  268TMC3    C7 4060   1.040   4.022   0.024 -0.7525  1.1059 -0.0133
  268TMC3    C8 4061   1.064   4.394  17.424 -0.3039 -0.1402  0.4118
  268TMC3    O1 4062   0.999   3.908   0.029 -0.6718  0.3629 -0.0720
  268TMC3    O2 4063   1.073   4.473  17.520  0.1838 -0.0409 -0.0625
  269MPD2     C 4064   0.653   2.790  15.607 -0.3004 -0.2540  0.7842
  269MPD2    C1 4065   0.526   2.851  15.613 -0.6187 -0.7996 -0.1031
  269MPD2    C2 4066   0.511   2.975  15.568 -0.2988  0.5435 -0.8714
  269MPD2    C3 4067   0.618   3.043  15.511  0.2646  0.7060 -0.0513
  269MPD2    C4 4068   0.741   2.978  15.495 -0.5769  0.2793 -0.6036
  269MPD2    C5 4069   0.758   2.857  15.554 -0.0153 -0.9837 -0.3240
  269MPD2     H 4070   0.415   3.023  15.586 -0.2475  0.0748  0.6456
  269MPD2    H1 4071   0.826   3.027  15.450  0.1888  0.6600  1.2596
  269MPD2    H2 4072   0.661   2.688  15.643  2.6979 -0.6474 -1.0279
  269MPD2    H3 4073   0.847   2.795  15.553 -0.1750 -1.1998 -1.4003
  269MPD2     N 4074   0.601   3.177  15.471 -0.4223  0.6705 -0.1505
  269MPD2    H5 4075   0.518   3.225  15.503 -1.3994  0.3322 -2.1826
  269MPD2    N1 4076   0.419   2.782  15.660  0.2003 -0.0754  0.2992
  269MPD2    H7 4077   0.420   2.681  15.648 -0.3166 -0.3222  2.4027
  270TMC3    C1 4078   0.205   2.739  15.743 -0.3911 -0.6694  0.1155
  270TMC3    C2 4079   0.188   2.671  15.624 -0.4910 -0.1082 -0.1473
  270TMC3    C3 4080   0.133   2.545  15.635  0.0713  0.2354 -0.0660
  270TMC3    C4 4081   0.170   2.695  15.866 -0.8093 -0.3537 -0.0764
  270TMC3    C5 4082   0.102   2.571  15.868 -0.7981  0.2433  0.6567
  270TMC3    C6 4083   0.078   2.496  15.751 -0.3632  0.3488  0.1967
  270TMC3     C 4084   0.318   2.836  15.735  0.2333  0.1762 -0.2973
  270TMC3     O 4085   0.312   2.943  15.792  0.1161  0.0620 -0.4804
  270TMC3     H 4086   0.228   2.699  15.527 -1.5494 -0.0164 -0.5544
  270TMC3    H1 4087   0.226   2.724  15.953  0.1794 -0.1624 -0.7805
  270TMC3    H2 4088   0.020   2.404  15.746 -2.6925  1.8121  0.0522
  270TMC3    C7 4089   0.170   2.477  15.956 -0.4756 -0.1113 -0.2278
  270TMC3    C8 4090   0.214   2.452  15.560  0.4312  0.0365 -0.2370
  270TMC3    O1 4091   0.290   2.474  15.935  0.0864  0.3992 -0.5760
  270TMC3    O2 4092   0.324   2.490  15.518 -0.1774 -0.0673 -0.3581
  271MPD2     C 4093   4.585   2.564  14.129  0.6206 -0.1458  0.4938
  271MPD2    C1 4094   4.526   2.538  14.250  0.7018 -0.0367 -0.6127
  271MPD2    C2 4095   4.390   2.556  14.260  0.7756 -0.2243  0.3296
  271MPD2    C3 4096   4.306   2.594  14.154  0.5044  0.1979  0.1003
  271MPD2    C4 4097   4.366   2.611  14.033  0.8673 -0.5110 -0.2067
  271MPD2    C5 4098   4.506   2.607  14.024 -0.0728  0.4335 -0.3972
  271MPD2     H 4099   4.351   2.539  14.359 -1.2734 -1.0553 -0.6037
  271MPD2    H1 4100   4.312   2.626  13.941  2.2297 -1.4409 -1.1449
  271MPD2    H2 4101   4.690   2.543  14.107 -0.1690 -1.0918 -2.3931
  271MPD2    H3 4102   4.558   2.633  13.932  0.6998 -1.2279 -0.4152
  271MPD2     N 4103   4.164   2.601  14.157 -0.1329 -0.1633  0.3996
  271MPD2    H5 4104   4.114   2.632  14.074  0.4578  1.6164  0.7086
  271MPD2    N1 4105   4.602   2.486  14.354 -0.1190  0.2704 -0.8803
  271MPD2    H7 4106   4.550   2.458  14.437  0.3526 -2.0686 -1.4000
  272TMC3    C1 4107   0.033   2.334  14.434  0.1421 -0.1499  0.1249
  272TMC3    C2 4108   0.136   2.260  14.395  0.0225 -0.2585 -0.1114
  272TMC3    C3 4109   0.218   2.204  14.484  0.1166  0.8169 -0.2303
  272TMC3    C4 4110   4.711   2.329  14.562 -0.8726  0.1914  0.4163
  272TMC3    C5 4111   0.065   2.257  14.652  0.1073  0.3774  0.3211
  272TMC3    C6 4112   0.190   2.205  14.618 -0.0422 -0.2842 -0.2355
  272TMC3     C 4113   0.014   2.447  14.341 -0.5631  0.8114 -0.3519
  272TMC3     O 4114   0.104   2.462  14.258  0.6374  0.1934 -0.1166
  272TMC3     H 4115   0.166   2.252  14.291 -2.0396 -0.2468 -0.7201
  272TMC3    H1 4116   4.625   2.387  14.594 -3.0972 -2.0125 -1.5809
  272TMC3    H2 4117   0.255   2.161  14.692  1.3962 -0.2354 -1.4613
  272TMC3    C7 4118   0.035   2.276  14.793  0.0360 -0.5945 -0.3904
  272TMC3    C8 4119   0.333   2.132  14.432 -0.6297  0.2415  0.2492
  272TMC3    O1 4120   4.644   2.302  14.824 -0.2521  0.0438  0.2091
  272TMC3    O2 4121   0.362   2.137  14.314 -0.0871  0.1521  0.0401
  273MPD2     C 4122   1.967   0.362  11.385 -0.1256 -0.1560 -0.0130
  273MPD2    C1 4123   2.086   0.431  11.365 -0.0772 -0.0687 -0.0059
  273MPD2    C2 4124   2.088   0.518  11.257 -0.4802  0.3523  0.7977
  273MPD2    C3 4125   1.973   0.543  11.183  0.2868 -0.2325  0.4865
  273MPD2    C4 4126   1.852   0.471  11.209 -0.4098 -0.3683  0.2292
  273MPD2    C5 4127   1.854   0.380  11.310 -0.1747  0.1591 -0.0980
  273MPD2     H 4128   2.175   0.575  11.227  1.4004 -3.2208 -0.5676
  273MPD2    H1 4129   1.756   0.492  11.165 -0.3614 -1.2688 -0.3014
  273MPD2    H2 4130   1.963   0.282  11.458  0.4844 -1.4377 -1.4044
  273MPD2    H3 4131   1.770   0.314  11.330 -0.1730 -0.1151 -0.9835
  273MPD2     N 4132   1.959   0.642  11.083  0.1541 -0.0991  0.1798
  273MPD2    H5 4133   1.881   0.638  11.019 -0.2551  0.1368  0.6638
  273MPD2    N1 4134   2.196   0.404  11.455 -0.3850 -0.7613  0.0308
  273MPD2    H7 4135   2.187   0.336  11.531  1.2671 -1.3061 -0.2713
  274TMC3    C1 4136   2.047   0.838  10.970  0.1836  0.6768 -0.5987
  274TMC3    C2 4137   1.987   0.797  10.856  0.0004 -0.3653  0.7261
  274TMC3    C3 4138   2.005   0.863  10.742 -0.5385  0.0967  0.2584
  274TMC3    C4 4139   2.145   0.934  10.970 -0.8205  0.3616  0.2573
  274TMC3    C5 4140   2.175   0.985  10.849 -0.3043  0.4344 -0.0408
  274TMC3    C6 4141   2.109   0.954  10.733  0.4776 -0.0252  0.4027
  274TMC3     C 4142   2.030   0.760  11.094  0.7839 -0.2658  0.1453
  274TMC3     O 4143   2.106   0.794  11.186 -0.3029  0.5134  0.2658
  274TMC3     H 4144   1.917   0.715  10.866 -0.4003  0.0995  1.6951
  274TMC3    H1 4145   2.216   0.940  11.052  1.1919  1.1690 -1.5489
  274TMC3    H2 4146   2.123   1.026  10.652 -2.3475  2.1507  1.8667
  274TMC3    C7 4147   2.233   1.116  10.851 -1.0450 -0.1314 -0.2002
  274TMC3    C8 4148   1.889   0.880  10.652 -0.4070  0.4288 -0.7514
  274TMC3    O1 4149   2.306   1.147  10.759 -0.0771  0.2893  0.3980
  274TMC3    O2 4150   1.787   0.835  10.698  0.7632  0.2795 -0.2657
  275MPD2     C 4151   1.760   2.982  14.304 -0.0202  0.0686  0.3917
  275MPD2    C1 4152   1.676   3.086  14.344 -0.0483  1.1901 -0.8852
  275MPD2    C2 4153   1.541   3.050  14.353  0.1423  0.5331  0.0378
  275MPD2    C3 4154   1.492   2.926  14.316  0.0596  0.6839 -0.1318
  275MPD2    C4 4155   1.576   2.833  14.267 -0.2775  0.6358 -0.8235
  275MPD2    C5 4156   1.708   2.862  14.261 -0.3986 -0.4991 -1.0516
  275MPD2     H 4157   1.470   3.128  14.379 -0.2319 -0.5106  2.2124
  275MPD2    H1 4158   1.528   2.740  14.237  1.7222 -1.4196  2.4233
  275MPD2    H2 4159   1.868   2.980  14.297  0.0213  3.6470 -0.1226
  275MPD2    H3 4160   1.780   2.785  14.238  1.2938  0.9133 -0.4852
  275MPD2     N 4161   1.354   2.895  14.317  0.3429 -0.5579  0.0074
  275MPD2    H5 4162   1.320   2.815  14.264 -1.7042  1.0155 -1.0607
  275MPD2    N1 4163   1.727   3.210  14.390 -0.7449  0.6298 -0.2873
  275MPD2    H7 4164   1.667   3.277  14.437 -0.3195  0.3184  0.7084
  276TMC3    C1 4165   1.871   3.370  14.477  0.5640 -0.7774  0.9682
  276TMC3    C2 4166   1.779   3.466  14.442 -0.4442 -0.2379  0.1563
  276TMC3    C3 4167   1.787   3.585  14.510  0.1177 -1.2087 -0.0860
  276TMC3    C4 4168   1.971   3.385  14.569  0.6372 -0.0090  0.8307
  276TMC3    C5 4169   1.977   3.507  14.628 -0.7219 -0.2351  0.2994
  276TMC3    C6 4170   1.881   3.600  14.607 -0.5961  0.0098 -0.1418
  276TMC3     C 4171   1.859   3.244  14.403 -0.9093 -0.0021  0.1434
  276TMC3     O 4172   1.964   3.202  14.360 -0.1139  0.2450  0.6199
  276TMC3     H 4173   1.714   3.450  14.357 -1.1564 -1.8754  1.0175
  276TMC3    H1 4174   2.049   3.315  14.596  0.5972  0.0427  1.0840
  276TMC3    H2 4175   1.895   3.694  14.658  1.8545 -0.7860  0.6732
  276TMC3    C7 4176   2.033   3.510  14.764  0.1100 -0.0052  0.2773
  276TMC3    C8 4177   1.694   3.698  14.493 -0.4233 -0.4237 -0.3663
  276TMC3    O1 4178   1.982   3.591  14.844 -0.4442  0.0166 -0.2092
  276TMC3    O2 4179   1.743   3.808  14.517 -0.5831 -0.2792 -0.1929
  277MPD2     C 4180   3.455   2.203  13.203 -0.1821 -0.8076 -0.5548
  277MPD2    C1 4181   3.320   2.227  13.217 -0.1486 -0.3694 -0.3756
  277MPD2    C2 4182   3.255   2.164  13.318  0.3535  0.3183  0.1324
  277MPD2    C3 4183   3.300   2.062  13.397  0.4214 -0.7464  0.3589
  277MPD2    C4 4184   3.438   2.034  13.387  0.2858  0.9636 -0.2726
  277MPD2    C5 4185   3.508   2.112  13.296  0.0719 -0.3957 -0.5717
  277MPD2     H 4186   3.150   2.187  13.335  0.2378  0.1745 -0.3655
  277MPD2    H1 4187   3.488   1.973  13.462 -1.5210  2.0025  1.7798
  277MPD2    H2 4188   3.522   2.258  13.139 -0.9706  1.5634  0.6777
  277MPD2    H3 4189   3.615   2.099  13.288  0.4948  1.6383  1.8249
  277MPD2     N 4190   3.213   2.011  13.493 -0.2524  1.0010 -0.4753
  277MPD2    H5 4191   3.116   2.033  13.476 -0.2588  0.6824 -0.8447
  277MPD2    N1 4192   3.264   2.330  13.141 -0.4529 -0.6535  0.1555
  277MPD2    H7 4193   3.329   2.385  13.086  1.7357 -1.8946  1.4977
  278TMC3    C1 4194   3.117   1.873  13.663  0.4634  0.7234 -0.6021
  278TMC3    C2 4195   3.114   1.736  13.686 -0.0229 -0.2154  0.3587
  278TMC3    C3 4196   2.997   1.665  13.682 -0.0750  0.6204  0.5283
  278TMC3    C4 4197   3.000   1.941  13.635  0.5129  0.2164 -0.0504
  278TMC3    C5 4198   2.884   1.866  13.641 -0.7174 -0.1728  0.1012
  278TMC3    C6 4199   2.881   1.727  13.657 -0.4503  0.7881  0.0638
  278TMC3     C 4200   3.235   1.907  13.584  0.6996  0.2812 -0.5724
  278TMC3     O 4201   3.343   1.849  13.604 -0.4338  0.4614  0.3943
  278TMC3     H 4202   3.209   1.685  13.695  1.0227  1.6506 -0.1250
  278TMC3    H1 4203   2.999   2.047  13.615 -3.7865 -0.1326 -1.6076
  278TMC3    H2 4204   2.793   1.664  13.649 -0.7348  1.0144  1.3512
  278TMC3    C7 4205   2.760   1.939  13.599 -0.9391  0.5116  0.2614
  278TMC3    C8 4206   3.014   1.535  13.622  0.3514 -0.4369  0.2906
  278TMC3    O1 4207   2.775   2.047  13.543 -0.1332  0.0260  0.3613
  278TMC3    O2 4208   3.067   1.445  13.686 -0.0445  0.2211 -0.4899
  279MPD2     C 4209   1.652   2.117  17.673 -0.3336  0.3805  0.6490
  279MPD2    C1 4210   1.732   2.214   0.039  0.5283  0.5071  0.3685
  279MPD2    C2 4211   1.848   2.252  17.676 -0.5403 -0.1010 -0.4385
  279MPD2    C3 4212   1.893   2.218  17.552  0.2297  0.5558  0.1896
  279MPD2    C4 4213   1.808   2.132  17.487 -0.4063  0.3726  0.5139
  279MPD2    C5 4214   1.694   2.078  17.550  0.5440 -0.6404  0.3777
  279MPD2     H 4215   1.901   2.319   0.046  1.1378 -2.6676  0.7995
  279MPD2    H1 4216   1.820   2.083  17.391 -2.9450 -0.2523  0.5150
  279MPD2    H2 4217   1.569   2.062   0.019  0.4918 -1.8565 -0.5743
  279MPD2    H3 4218   1.632   2.009  17.494  1.9522 -1.7819  0.2166
  279MPD2     N 4219   2.011   2.264  17.491  0.2034  0.0167 -0.3307
  279MPD2    H5 4220   2.015   2.229  17.396  0.9683 -0.2903 -0.1870
  279MPD2    N1 4221   1.704   2.266   0.163 -0.0565  0.0311  0.3526
  279MPD2    H7 4222   1.774   2.330   0.200 -0.8629 -0.2066  2.2634
  280TMC3    C1 4223   1.581   2.346   0.338  0.7763  0.2850 -0.9711
  280TMC3    C2 4224   1.680   2.345   0.427 -1.0251 -0.1252 -0.8199
  280TMC3    C3 4225   1.669   2.437   0.530 -0.4824  0.2436  0.2345
  280TMC3    C4 4226   1.467   2.417   0.353 -0.4682  0.1947  0.5771
  280TMC3    C5 4227   1.470   2.523   0.438 -0.0794  0.7397 -0.1236
  280TMC3    C6 4228   1.570   2.529   0.526  0.1123  0.7121 -0.4334
  280TMC3     C 4229   1.581   2.259   0.220 -0.2007  0.3236 -0.3030
  280TMC3     O 4230   1.477   2.221   0.173  0.8472  0.0144  0.2473
  280TMC3     H 4231   1.762   2.275   0.414 -0.6618  0.7635 -3.4278
  280TMC3    H1 4232   1.380   2.391   0.293 -0.1535  0.9139 -0.1907
  280TMC3    H2 4233   1.582   2.608   0.600  0.6057  1.0565 -0.8789
  280TMC3    C7 4234   1.386   2.642   0.414  0.0499 -0.1415  0.4974
  280TMC3    C8 4235   1.780   2.441   0.627 -0.2541 -0.3355  0.1560
  280TMC3    O1 4236   1.404   2.748   0.483  0.1701  0.0635 -0.7477
  280TMC3    O2 4237   1.784   2.535   0.702 -0.5990  0.3802  0.2558
  281TMC3    C1 4238   1.269   2.562  13.399  0.3057 -0.1179  0.3488
  281TMC3    C2 4239   1.393   2.601  13.349 -0.0197  0.3682  0.3135
  281TMC3    C3 4240   1.464   2.505  13.273 -0.0941  0.1653  0.2116
  281TMC3    C4 4241   1.221   2.436  13.365  0.7130 -0.3113 -0.4166
  281TMC3    C5 4242   1.294   2.355  13.285 -0.4851  0.5598 -0.2612
  281TMC3    C6 4243   1.417   2.379  13.236  0.5154 -0.5554 -0.5382
  281TMC3     C 4244   1.173   2.659  13.442 -0.6517  0.1370 -0.0334
  281TMC3     O 4245   1.076   2.613  13.498 -0.0059  0.2460 -0.3003
  281TMC3     H 4246   1.439   2.690  13.391  1.1090 -0.0106 -0.1250
  281TMC3    H1 4247   1.119   2.410  13.390  0.7009  2.6971  2.6470
  281TMC3    H2 4248   1.468   2.313  13.166 -0.5652 -0.5014 -1.3673
  281TMC3    C7 4249   1.223   2.250  13.218 -0.5883 -0.2787 -0.5305
  281TMC3    C8 4250   1.592   2.535  13.214 -0.3243  0.5515  0.2024
  281TMC3    O1 4251   1.252   2.242  13.097 -0.1799  0.5191  0.5333
  281TMC3    O2 4252   1.667   2.438  13.198 -0.4295 -0.5639 -0.5056
  282MPD2     C 4253   3.235   4.025  15.255  0.7788  0.6853  0.3121
  282MPD2    C1 4254   3.105   4.065  15.238  0.2417 -0.4882 -0.7068
  282MPD2    C2 4255   3.046   4.065  15.118 -0.2826 -0.4733  0.1104
  282MPD2    C3 4256   3.115   4.032  15.005 -0.0964  0.1171  0.7534
  282MPD2    C4 4257   3.244   3.992  15.018 -0.3338 -0.4006  0.0816
  282MPD2    C5 4258   3.306   3.994  15.142 -0.3345  0.0856 -0.5030
  282MPD2     H 4259   2.947   4.108  15.113  1.9444  4.6773  0.8601
  282MPD2    H1 4260   3.315   3.978  14.937  0.7602  0.4901  0.8888
  282MPD2    H2 4261   3.275   4.017  15.355  0.5789 -0.9215  0.2485
  282MPD2    H3 4262   3.412   3.972  15.144 -0.0176  1.4949 -2.1340
  282MPD2     N 4263   3.047   4.047  14.880  0.1516 -0.8277 -0.1460
  282MPD2    H5 4264   2.955   4.090  14.886  0.6822  0.2132  0.3492
  282MPD2    N1 4265   3.021   4.100  15.343 -0.6169 -0.0546 -0.1088
  282MPD2    H7 4266   2.927   4.120  15.308 -1.0435 -0.5812  0.7475
  283TMC3    C1 4267   2.939   4.176  15.543  0.0574 -0.1617 -0.8342
  283TMC3    C2 4268   2.949   4.281  15.634 -0.0939  0.0360 -0.2446
  283TMC3    C3 4269   2.851   4.290  15.731  0.0430 -0.3062 -0.3612
  283TMC3    C4 4270   2.846   4.075  15.567  0.0329 -0.0095  0.2179
  283TMC3    C5 4271   2.761   4.092  15.677  0.4427  0.3845 -0.2679
  283TMC3    C6 4272   2.765   4.191  15.764  0.0531 -0.4898  0.2051
  283TMC3     C 4273   3.060   4.140  15.468  0.2542 -0.2482  0.1878
  283TMC3     O 4274   3.171   4.166  15.514  0.6337 -0.1136 -0.1320
  283TMC3     H 4275   3.028   4.354  15.623  1.6636 -1.8231  0.0372
  283TMC3    H1 4276   2.858   3.984  15.509 -3.4014 -0.8108  0.7785
  283TMC3    H2 4277   2.688   4.206  15.839 -0.0319  1.0995 -0.2053
  283TMC3    C7 4278   2.680   3.986  15.724 -0.1067  0.2582  0.5555
  283TMC3    C8 4279   2.843   4.418  15.814  0.3901  0.0944 -0.0160
  283TMC3    O1 4280   2.631   3.976  15.837  0.6828  0.6796  0.7083
  283TMC3    O2 4281   2.787   4.410  15.923 -0.3985 -0.2646  0.0613
  284MPD2     C 4282   1.573   3.753  11.409  0.2688  0.3455  0.2793
  284MPD2    C1 4283   1.697   3.734  11.453 -0.5267  0.0255 -0.5680
  284MPD2    C2 4284   1.726   3.637  11.548  0.4376 -0.3855 -0.0153
  284MPD2    C3 4285   1.620   3.568  11.605  0.1054 -0.0593  0.2420
  284MPD2    C4 4286   1.494   3.585  11.552  0.0682 -0.2285  0.2142
  284MPD2    C5 4287   1.467   3.684  11.459 -0.2945  0.5882  0.3209
  284MPD2     H 4288   1.830   3.624  11.573  0.7961  1.5969 -0.5466
  284MPD2    H1 4289   1.415   3.520  11.588  0.2996 -0.8176 -0.3429
  284MPD2    H2 4290   1.548   3.827  11.334  0.0118  1.0343  1.0444
  284MPD2    H3 4291   1.366   3.700  11.424 -0.0743  2.6140  0.6137
  284MPD2     N 4292   1.633   3.460  11.699  0.3402  0.2349  0.7825
  284MPD2    H5 4293   1.557   3.393  11.706  0.8812 -0.2620  1.8893
  284MPD2    N1 4294   1.805   3.804  11.400  0.3381 -0.5659 -0.5087
  284MPD2    H7 4295   1.895   3.768  11.431  0.5837  1.1671  0.7337
  285TMC3    C1 4296   1.924   3.888  11.220  0.7700  0.4629  0.6711
  285TMC3    C2 4297   1.986   3.765  11.195  0.0669  0.6475  0.0269
  285TMC3    C3 4298   2.116   3.774  11.150  0.2291 -0.9870  0.2040
  285TMC3    C4 4299   1.980   4.014  11.197  0.0684  0.0604 -0.2290
  285TMC3    C5 4300   2.113   4.008  11.157 -0.5026 -0.6292  0.4937
  285TMC3    C6 4301   2.183   3.894  11.139 -0.2733 -0.2112 -0.0570
  285TMC3     C 4302   1.801   3.894  11.298  0.4419  0.5470 -0.6109
  285TMC3     O 4303   1.716   3.959  11.235 -0.2410  0.0564 -0.0224
  285TMC3     H 4304   1.933   3.674  11.219 -1.9156  1.7949 -0.0292
  285TMC3    H1 4305   1.917   4.102  11.207  0.4076  0.3423 -0.5815
  285TMC3    H2 4306   2.286   3.897  11.105 -0.7313  0.1681 -1.3991
  285TMC3    C7 4307   2.185   4.137  11.137 -0.6801  1.1549 -0.0114
  285TMC3    C8 4308   2.154   3.662  11.074  0.2593  0.0180  0.4664
  285TMC3    O1 4309   2.304   4.134  11.158 -0.4637 -0.2193  0.4248
  285TMC3    O2 4310   2.061   3.591  11.031 -0.0500  0.8435  0.2237
  286MPD2     C 4311   0.378   1.625   0.993 -0.0270  0.1735  0.1878
  286MPD2    C1 4312   0.504   1.676   1.029  0.4106 -0.4002 -0.3214
  286MPD2    C2 4313   0.602   1.582   1.066 -0.4183  0.0137  0.4654
  286MPD2    C3 4314   0.577   1.450   1.070  0.1767  0.7092  0.7962
  286MPD2    C4 4315   0.457   1.398   1.035 -1.2292  0.3603 -0.6914
  286MPD2    C5 4316   0.360   1.490   0.995  0.1151  0.1637  0.3090
  286MPD2     H 4317   0.703   1.618   1.080 -0.6809  0.6922  0.5831
  286MPD2    H1 4318   0.446   1.290   1.044  0.8745  0.0667 -1.4906
  286MPD2    H2 4319   0.305   1.686   0.942  1.2647 -0.7729 -2.7863
  286MPD2    H3 4320   0.260   1.457   0.967  0.4114 -0.1230 -0.4021
  286MPD2     N 4321   0.676   1.361   1.127  0.1632  1.0630  0.2291
  286MPD2    H5 4322   0.663   1.264   1.099  0.5218  0.5677  1.7941
  286MPD2    N1 4323   0.543   1.808   1.020  0.3618 -0.1542 -0.3828
  286MPD2    H7 4324   0.638   1.826   1.052  0.3885 -1.0029  0.0290
  287TMC3    C1 4325   0.876   1.292   1.223  0.4796  0.3035 -0.2491
  287TMC3    C2 4326   0.906   1.212   1.117  0.0019 -0.1321 -0.1226
  287TMC3    C3 4327   1.039   1.205   1.078 -0.1082 -0.1015 -0.0022
  287TMC3    C4 4328   0.978   1.349   1.298 -0.4356  0.2344 -0.5087
  287TMC3    C5 4329   1.111   1.331   1.262 -0.4060  0.0461  0.4531
  287TMC3    C6 4330   1.143   1.267   1.143 -0.0248  0.3317 -0.4867
  287TMC3     C 4331   0.783   1.399   1.203 -0.5235 -0.4548  0.7387
  287TMC3     O 4332   0.816   1.509   1.246  0.2676  0.0719  0.2493
  287TMC3     H 4333   0.838   1.147   1.063 -0.6598  0.4865 -0.0373
  287TMC3    H1 4334   0.955   1.403   1.389  0.0817  1.8460 -1.3390
  287TMC3    H2 4335   1.244   1.269   1.104  0.8361 -3.9609  1.5838
  287TMC3    C7 4336   1.217   1.388   1.350  0.4890 -0.3928 -0.0522
  287TMC3    C8 4337   1.059   1.169   0.943 -0.0770  0.8221 -0.2688
  287TMC3    O1 4338   1.175   1.470   1.433 -0.4090 -0.4204  0.3880
  287TMC3    O2 4339   1.013   1.064   0.907  0.0252 -0.4840 -0.1818
  288TMC3    C1 4340   2.751   1.955  14.080  0.3459 -0.4885 -0.0142
  288TMC3    C2 4341   2.795   1.916  14.204  0.5249 -0.7616 -0.5339
  288TMC3    C3 4342   2.881   1.997  14.277  0.0920  0.4154 -0.4995
  288TMC3    C4 4343   2.799   2.066  14.016  0.4855 -0.1340  0.2451
  288TMC3    C5 4344   2.896   2.137  14.087 -0.5467 -0.4883 -1.1986
  288TMC3    C6 4345   2.940   2.106  14.212  0.5033 -0.5472  0.0822
  288TMC3     C 4346   2.700   1.853  13.993  0.1612  0.2738  0.1839
  288TMC3     O 4347   2.658   1.890  13.885  0.4756  0.2152  0.2529
  288TMC3     H 4348   2.737   1.845  14.262  1.0971  0.0115  0.9597
  288TMC3    H1 4349   2.769   2.096  13.916 -0.1160  0.7490  0.6843
  288TMC3    H2 4350   3.007   2.174  14.263  1.3392  0.2952 -2.1000
  288TMC3    C7 4351   2.997   2.203  14.002  0.1752 -0.4028 -0.6485
  288TMC3    C8 4352   2.879   2.006  14.417  0.3055  0.0054  0.2608
  288TMC3    O1 4353   3.110   2.194  14.050 -0.3461 -0.5233  0.4997
  288TMC3    O2 4354   2.912   2.116  14.462  0.0389  0.7955  0.3808
  289MPD2     C 4355   3.269   1.248  14.564 -0.1096  0.3949 -0.0444
  289MPD2    C1 4356   3.245   1.315  14.449  0.2277 -0.2510  0.2087
  289MPD2    C2 4357   3.134   1.291  14.379 -0.8641  0.4822 -0.1853
  289MPD2    C3 4358   3.047   1.187  14.422 -0.3166  0.0926 -0.6665
  289MPD2    C4 4359   3.067   1.118  14.541 -0.3154  0.1296  0.1151
  289MPD2    C5 4360   3.184   1.154  14.608 -0.2100  0.2881 -0.2350
  289MPD2     H 4361   3.113   1.342  14.286 -1.3943  0.7937  0.1009
  289MPD2    H1 4362   3.001   1.043  14.584  0.2047  0.6624  1.8219
  289MPD2    H2 4363   3.361   1.267  14.619  0.3631 -1.7949 -0.0806
  289MPD2    H3 4364   3.215   1.098  14.695  0.0649  0.7825 -0.0211
  289MPD2     N 4365   2.930   1.158  14.349  0.4574 -0.4441  0.1248
  289MPD2    H5 4366   2.879   1.076  14.382  0.4315 -0.7257 -0.6157
  289MPD2    N1 4367   3.335   1.418  14.411 -0.3268  0.3098 -0.6304
  289MPD2    H7 4368   3.415   1.436  14.471 -1.1791 -0.5405  0.7391
  290TMC3    C1 4369   2.743   1.187  14.191 -0.5653 -0.4429  0.2812
  290TMC3    C2 4370   2.655   1.283  14.158 -0.2425  0.9253  0.8686
  290TMC3    C3 4371   2.526   1.249  14.147  0.0845 -0.9806  0.3364
  290TMC3    C4 4372   2.703   1.057  14.197  0.2310 -0.1495 -0.1763
  290TMC3    C5 4373   2.577   1.019  14.162  1.3100 -0.1823 -1.0099
  290TMC3    C6 4374   2.483   1.117  14.134  0.3137  0.6701 -0.7160
  290TMC3     C 4375   2.873   1.228  14.241 -0.9626 -0.1101  0.3791
  290TMC3     O 4376   2.917   1.333  14.194  0.1859  0.4645 -0.1349
  290TMC3     H 4377   2.697   1.381  14.140  1.4717  0.0741  0.2663
  290TMC3    H1 4378   2.780   0.986  14.226  1.6314  0.7234 -1.7105
  290TMC3    H2 4379   2.377   1.101  14.114  0.2745 -1.3425  1.2011
  290TMC3    C7 4380   2.536   0.879  14.154 -0.1731  0.0934 -0.0419
  290TMC3    C8 4381   2.431   1.357  14.120  1.0580 -0.3161 -0.7881
  290TMC3    O1 4382   2.436   0.849  14.090  0.7614  0.0372  0.2394
  290TMC3    O2 4383   2.321   1.328  14.075  0.1154 -0.4444 -0.2710
  291MPD2     C 4384   1.541   1.096   0.329 -0.1622  0.3634  0.5242
  291MPD2    C1 4385   1.650   1.017   0.365  0.6002  0.3350  0.4453
  291MPD2    C2 4386   1.775   1.080   0.368 -0.2079  0.0206 -0.3297
  291MPD2    C3 4387   1.793   1.214   0.331  0.4739 -0.0088  1.0938
  291MPD2    C4 4388   1.687   1.277   0.278  0.0452  0.1470 -0.3835
  291MPD2    C5 4389   1.562   1.226   0.285  0.0530 -0.0289 -0.3733
  291MPD2     H 4390   1.865   1.022   0.386 -0.8219 -1.0753 -0.7926
  291MPD2    H1 4391   1.693   1.383   0.256 -0.5691 -0.1383 -1.9284
  291MPD2    H2 4392   1.439   1.062   0.329  0.3111 -1.0514  0.2319
  291MPD2    H3 4393   1.480   1.294   0.264  0.5868  0.4053 -1.0786
  291MPD2     N 4394   1.916   1.279   0.328 -0.3987  0.2276 -0.0132
  291MPD2    H5 4395   1.920   1.372   0.287 -1.1429  0.4694  0.4489
  291MPD2    N1 4396   1.638   0.879   0.397 -0.3123  0.1916 -0.4079
  291MPD2    H7 4397   1.716   0.830   0.440 -0.1061 -0.3369 -1.4021
  292TMC3    C1 4398   1.545   0.654   0.369  0.2912  0.1457 -0.5314
  292TMC3    C2 4399   1.569   0.614   0.499  0.7883  0.4180  0.1764
  292TMC3    C3 4400   1.552   0.483   0.531 -0.1692  0.0073 -0.9736
  292TMC3    C4 4401   1.496   0.574   0.275  0.6736 -0.6599 -0.3988
  292TMC3    C5 4402   1.477   0.442   0.313  0.3050  0.5125  0.0001
  292TMC3    C6 4403   1.497   0.400   0.437  0.3277  0.4127  0.2339
  292TMC3     C 4404   1.542   0.804   0.343  0.4535 -0.5931  0.0089
  292TMC3     O 4405   1.469   0.833   0.245 -0.3070 -0.2142  0.6888
  292TMC3     H 4406   1.621   0.684   0.563  1.9693  0.3801 -0.7506
  292TMC3    H1 4407   1.498   0.611   0.174 -1.6322  0.7951  0.0803
  292TMC3    H2 4408   1.455   0.303   0.463  0.7386 -0.1691 -1.2609
  292TMC3    C7 4409   1.462   0.336   0.220  0.2878 -0.1006  0.0191
  292TMC3    C8 4410   1.597   0.441   0.659  0.0177 -0.2218 -0.3391
  292TMC3    O1 4411   1.505   0.233   0.257 -1.4242  0.0691 -0.4464
  292TMC3    O2 4412   1.631   0.526   0.742  0.7845  0.3461 -0.0408
  293MPD2     C 4413   4.660   2.626  12.595 -0.6611 -1.0536 -0.7134
  293MPD2    C1 4414   4.587   2.544  12.683  0.7088  0.4476 -1.0095
  293MPD2    C2 4415   4.618   2.540  12.818 -0.2797  0.3611  0.0289
  293MPD2    C3 4416   4.723   2.617  12.865 -0.1992  0.0795 -0.5362
  293MPD2    C4 4417   0.071   2.706  12.777 -0.1126  0.7462  0.6691
  293MPD2    C5 4418   0.040   2.708  12.645 -0.3450 -0.7782  0.1060
  293MPD2     H 4419   4.566   2.472  12.884  1.7210 -1.9604 -0.8037
  293MPD2    H1 4420   0.152   2.767  12.814 -0.2422  0.6865  1.0623
  293MPD2    H2 4421   4.635   2.623  12.489 -0.4523  1.5309 -0.8299
  293MPD2    H3 4422   0.096   2.778  12.584 -2.7150  1.1361  0.1111
  293MPD2     N 4423   0.027   2.590  13.003  0.4020 -0.0574  0.2461
  293MPD2    H5 4424   4.694   2.521  13.052 -1.7526 -0.0400 -2.2318
  293MPD2    N1 4425   4.486   2.464  12.624  0.2704 -0.2027  0.6926
  293MPD2    H7 4426   4.478   2.467  12.523  1.8491  2.4200  0.6424
  294TMC3    C1 4427   4.321   2.312  12.614 -0.1616 -0.3156 -0.5475
  294TMC3    C2 4428   4.254   2.199  12.657 -0.5908  0.2999  0.1169
  294TMC3    C3 4429   4.155   2.160  12.576 -0.5854 -0.2717 -0.1671
  294TMC3    C4 4430   4.282   2.385  12.502 -0.5041  0.4153 -0.3612
  294TMC3    C5 4431   4.171   2.343  12.438  0.4767 -0.1986  0.0484
  294TMC3    C6 4432   4.111   2.223  12.457 -0.0062  0.3169 -0.4449
  294TMC3     C 4433   4.432   2.359  12.692 -0.3799 -0.6898  1.0880
  294TMC3     O 4434   4.452   2.302  12.799  0.3778  0.0032  0.5277
  294TMC3     H 4435   4.286   2.138  12.740  2.2031  2.0602  0.3396
  294TMC3    H1 4436   4.333   2.474  12.464  1.3759 -0.9367 -1.0267
  294TMC3    H2 4437   4.035   2.189  12.388  1.2805 -0.7091 -1.3544
  294TMC3    C7 4438   4.146   2.386  12.297 -0.0602  0.3535 -0.0703
  294TMC3    C8 4439   4.119   2.019  12.597  0.9412 -0.0314  0.0750
  294TMC3    O1 4440   4.028   2.394  12.257  0.0965  0.4258 -0.0623
  294TMC3    O2 4441   4.134   1.979  12.713  0.0775  0.1339 -0.3296
  295MPD2     C 4442   0.292   0.441   0.187 -0.0188  0.7985 -0.4826
  295MPD2    C1 4443   0.257   0.562   0.139 -0.1720 -0.3175  0.0390
  295MPD2    C2 4444   0.156   0.631   0.193 -0.2340  0.3040 -0.0646
  295MPD2    C3 4445   0.086   0.577   0.297  0.4158 -0.4815  0.4178
  295MPD2    C4 4446   0.115   0.457   0.353  0.2015 -0.5783  0.7775
  295MPD2    C5 4447   0.225   0.392   0.297 -0.1385 -0.0732 -0.6788
  295MPD2     H 4448   0.118   0.722   0.146 -2.2192 -1.1292 -1.2324
  295MPD2    H1 4449   0.066   0.417   0.441 -3.0319 -2.6724 -1.9763
  295MPD2    H2 4450   0.365   0.377   0.139 -1.4405 -0.0028 -1.5862
  295MPD2    H3 4451   0.260   0.298   0.339  2.0871  0.9747 -0.1435
  295MPD2     N 4452   4.690   0.638   0.346  0.3738 -0.7152 -0.1444
  295MPD2    H5 4453   4.633   0.590   0.415 -2.9857 -0.0653 -2.4390
  295MPD2    N1 4454   0.316   0.616   0.025  0.6871  0.7131 -0.0092
  295MPD2    H7 4455   0.269   0.697  17.684 -1.8092 -1.7915 -2.2021
  296TMC3    C1 4456   4.522   0.801   0.385  0.2123  0.4153  0.2091
  296TMC3    C2 4457   4.494   0.938   0.395 -0.0708 -0.3729  0.3883
  296TMC3    C3 4458   4.374   0.981   0.435 -0.7085  0.0922  0.0554
  296TMC3    C4 4459   4.429   0.706   0.399 -0.7194 -0.1829  0.1431
  296TMC3    C5 4460   4.300   0.758   0.420 -1.0111 -0.4308 -0.2462
  296TMC3    C6 4461   4.274   0.894   0.445 -0.1785  0.0865  0.1800
  296TMC3     C 4462   4.656   0.768   0.326 -0.0140  0.6557 -0.8358
  296TMC3     O 4463   0.005   0.852   0.284 -0.1293 -0.2623 -0.1897
  296TMC3     H 4464   4.580   1.003   0.379 -0.8945  0.8616  0.9363
  296TMC3    H1 4465   4.443   0.611   0.350  2.8714  0.4101  0.0443
  296TMC3    H2 4466   4.171   0.923   0.461 -0.6506 -0.6790 -1.5140
  296TMC3    C7 4467   4.197   0.672   0.479 -0.2852  0.6189  0.4550
  296TMC3    C8 4468   4.355   1.126   0.413 -0.8639  0.3462  0.2991
  296TMC3    O1 4469   4.090   0.720   0.498 -0.4929 -0.3907  0.4478
  296TMC3    O2 4470   4.447   1.191   0.356  0.5212 -0.2163 -0.1929
  297MPD2     C 4471   1.878   2.818  15.631 -0.3484  0.0432 -0.2465
  297MPD2    C1 4472   1.831   2.934  15.682 -0.5425  0.5573  0.1373
  297MPD2    C2 4473   1.910   3.015  15.768  0.1213  0.0203 -0.5896
  297MPD2    C3 4474   2.051   2.982  15.777  0.0380 -0.2470  0.0901
  297MPD2    C4 4475   2.099   2.858  15.731  0.9614 -0.4571 -0.7295
  297MPD2    C5 4476   2.010   2.779  15.663  0.4609  0.0280 -0.6833
  297MPD2     H 4477   1.871   3.113  15.794  1.0232 -0.2881  1.9594
  297MPD2    H1 4478   2.202   2.827  15.740  1.3459  1.1837  0.4501
  297MPD2    H2 4479   1.812   2.750  15.578 -1.5076  1.0425 -0.0811
  297MPD2    H3 4480   2.049   2.683  15.631 -1.6126 -0.8054 -0.7429
  297MPD2     N 4481   2.136   3.083  15.836 -0.0040 -0.1088 -0.2174
  297MPD2    H5 4482   2.089   3.157  15.887  2.1259 -0.0415  1.6702
  297MPD2    N1 4483   1.699   2.972  15.651  0.0609 -1.0043  0.1153
  297MPD2    H7 4484   1.652   2.916  15.580 -1.5244 -0.0766  0.4447
  298TMC3    C1 4485   1.495   3.093  15.643 -0.2975  0.5818  0.4011
  298TMC3    C2 4486   1.466   3.062  15.510 -0.2428  0.3444 -0.9492
  298TMC3    C3 4487   1.333   3.062  15.473 -0.3876 -0.4860 -0.3158
  298TMC3    C4 4488   1.398   3.121  15.732  0.2698 -0.2172  0.6162
  298TMC3    C5 4489   1.266   3.112  15.701  0.7281 -0.1479  0.5163
  298TMC3    C6 4490   1.233   3.085  15.567  0.1704 -0.2547 -0.2042
  298TMC3     C 4491   1.628   3.076  15.702 -0.0164 -0.0400  0.3344
  298TMC3     O 4492   1.650   3.131  15.814  0.1298 -0.2819 -0.4262
  298TMC3     H 4493   1.544   3.049  15.436  0.8793  0.2370  0.2545
  298TMC3    H1 4494   1.420   3.151  15.834 -1.1796  1.2220  0.5131
  298TMC3    H2 4495   1.136   3.056  15.529  0.6211  0.2688 -1.7541
  298TMC3    C7 4496   1.167   3.147  15.797 -0.0511 -0.0205  0.4774
  298TMC3    C8 4497   1.297   3.074  15.329 -0.6273 -0.1358 -0.9627
  298TMC3    O1 4498   1.210   3.175  15.907  0.3034 -0.5983 -0.2101
  298TMC3    O2 4499   1.216   2.992  15.285  0.2670 -0.0519  0.6053
  299MPD2     C 4500   3.116   2.440  10.965  0.0007  1.0038  0.0514
  299MPD2    C1 4501   3.193   2.455  10.848 -0.3666  0.1606 -0.1275
  299MPD2    C2 4502   3.160   2.385  10.734 -0.2807  0.0680 -0.3287
  299MPD2    C3 4503   3.034   2.316  10.733  0.4498  0.1207 -0.1737
  299MPD2    C4 4504   2.960   2.308  10.848  0.3991 -1.0645  0.0440
  299MPD2    C5 4505   2.997   2.371  10.964  0.3097  0.0008  0.9290
  299MPD2     H 4506   3.230   2.398  10.652  1.9030 -0.1396  1.5346
  299MPD2    H1 4507   2.865   2.255  10.845  0.8643 -1.8456 -1.1220
  299MPD2    H2 4508   3.135   2.500  11.053  1.2343  0.6381  0.0232
  299MPD2    H3 4509   2.939   2.373  11.056 -0.3393  0.9791  0.4910
  299MPD2     N 4510   2.982   2.256  10.622 -0.0459 -0.3733  0.6457
  299MPD2    H5 4511   2.897   2.206  10.647 -1.0614  1.2669  0.4494
  299MPD2    N1 4512   3.314   2.533  10.853  0.4784 -1.0425 -0.0065
  299MPD2    H7 4513   3.328   2.570  10.946 -0.8853  1.2040 -0.7239
  300TMC3    C1 4514   2.944   2.197  10.399 -0.0002 -0.0012 -0.3513
  300TMC3    C2 4515   2.948   2.268  10.278  0.4910  0.0649 -0.0716
  300TMC3    C3 4516   2.831   2.287  10.217 -0.1997 -0.7588 -0.8460
  300TMC3    C4 4517   2.821   2.142  10.442  0.4314 -0.5876 -0.7454
  300TMC3    C5 4518   2.702   2.167  10.374 -0.3074  0.1432 -0.7721
  300TMC3    C6 4519   2.708   2.245  10.262 -0.1822 -0.5096 -0.4761
  300TMC3     C 4520   3.040   2.234  10.496 -0.7637 -0.1683  0.1860
  300TMC3     O 4521   3.149   2.277  10.463 -0.0517 -0.8899 -0.1215
  300TMC3     H 4522   3.041   2.322  10.262  1.7911 -1.2757  2.9612
  300TMC3    H1 4523   2.816   2.074  10.525 -0.9198 -0.9027 -1.0843
  300TMC3    H2 4524   2.618   2.282  10.214 -0.1860  0.7090  0.5085
  300TMC3    C7 4525   2.593   2.189  10.469  0.3697  0.7864  0.4546
  300TMC3    C8 4526   2.831   2.407  10.138 -0.2288  0.3144  0.2554
  300TMC3    O1 4527   2.578   2.102  10.555 -0.6236  0.1396  0.0884
  300TMC3    O2 4528   2.905   2.500  10.176  0.3257  0.6202 -0.0944
  301MPD2     C 4529   4.708   3.912   0.926  0.3277 -0.1161 -0.2294
  301MPD2    C1 4530   4.620   3.851   0.848 -0.1496  0.0163  0.1111
  301MPD2    C2 4531   4.655   3.727   0.792 -0.0754  0.1879  0.3455
  301MPD2    C3 4532   0.050   3.676   0.816  0.9796  0.1321  0.1228
  301MPD2    C4 4533   0.139   3.739   0.898  0.5454 -0.3045 -0.0772
  301MPD2    C5 4534   0.110   3.866   0.949  0.3903  0.5278 -0.3067
  301MPD2     H 4535   4.575   3.670   0.747  0.7161 -0.0199 -0.7798
  301MPD2    H1 4536   0.239   3.700   0.915  0.4697  0.4657  2.1462
  301MPD2    H2 4537   4.683   4.006   0.974 -2.0041 -0.0424 -1.5729
  301MPD2    H3 4538   0.184   3.922   1.005 -2.2301  1.0841  2.5487
  301MPD2     N 4539   0.096   3.551   0.761  0.0528  0.4306 -0.3915
  301MPD2    H5 4540   0.179   3.513   0.804  1.2167  1.5219 -1.6525
  301MPD2    N1 4541   4.490   3.903   0.820 -0.2968 -0.6610 -0.1178
  301MPD2    H7 4542   4.436   3.844   0.758 -0.1209 -0.3933 -0.5275
  302TMC3    C1 4543   0.081   3.339   0.680  0.8161 -0.8615  0.4970
  302TMC3    C2 4544   0.150   3.290   0.792 -0.7029  0.2954 -0.6394
  302TMC3    C3 4545   0.150   3.151   0.809  0.4750  0.1660  0.0080
  302TMC3    C4 4546   0.015   3.258   0.592  0.2099  0.2140 -0.1868
  302TMC3    C5 4547   0.006   3.126   0.619  0.6455  0.0696 -0.1426
  302TMC3    C6 4548   0.081   3.071   0.720 -0.0417  0.1884 -1.1025
  302TMC3     C 4549   0.024   3.473   0.679  0.0409 -0.7986 -0.6336
  302TMC3     O 4550   4.644   3.497   0.623 -0.2419 -0.8046 -0.1080
  302TMC3     H 4551   0.186   3.352   0.873 -1.2401 -1.0958  0.6455
  302TMC3    H1 4552   4.690   3.299   0.505 -0.3039 -0.3781 -0.1788
  302TMC3    H2 4553   0.109   2.967   0.706 -1.5171 -0.3025 -0.4220
  302TMC3    C7 4554   4.660   3.052   0.519 -0.0058  0.1936 -0.0433
  302TMC3    C8 4555   0.236   3.095   0.909  0.1757  0.5738  0.3305
  302TMC3    O1 4556   4.684   2.934   0.522  0.4743  0.1425 -0.4732
  302TMC3    O2 4557   0.330   3.156   0.953 -0.1343 -0.6142  0.3546
  303MPD2     C 4558   0.514   2.402  10.417  0.3119  0.2602  0.0136
  303MPD2    C1 4559   0.413   2.312  10.410  0.1771 -0.3899 -0.3076
  303MPD2    C2 4560   0.404   2.232  10.296  0.6391 -0.1434  0.0300
  303MPD2    C3 4561   0.493   2.245  10.191  0.2392  0.1350  0.0405
  303MPD2    C4 4562   0.592   2.339  10.204 -0.6257  1.0030  0.8297
  303MPD2    C5 4563   0.607   2.412  10.317 -0.0989 -0.3653  0.2343
  303MPD2     H 4564   0.331   2.153  10.288  0.6495 -0.1857  0.3560
  303MPD2    H1 4565   0.667   2.366  10.131 -0.0970 -1.9244  0.3023
  303MPD2    H2 4566   0.532   2.467  10.503 -0.8301 -0.2283  0.6178
  303MPD2    H3 4567   0.693   2.476  10.332 -0.8561  0.2242  2.1199
  303MPD2     N 4568   0.473   2.165  10.084  0.6055 -0.2567 -0.2591
  303MPD2    H5 4569   0.388   2.109  10.087 -0.1817  1.0540  2.4146
  303MPD2    N1 4570   0.327   2.298  10.521 -0.0629  0.2767 -0.5293
  303MPD2    H7 4571   0.352   2.363  10.595  1.2941 -1.1623  0.2801
  304TMC3    C1 4572   0.147   2.215  10.664 -0.5655  0.4501 -0.3996
  304TMC3    C2 4573   0.016   2.184  10.674  0.0502  0.2927  0.0006
  304TMC3    C3 4574   4.685   2.152  10.796 -0.0897  0.3838 -0.9225
  304TMC3    C4 4575   0.233   2.209  10.772 -0.1805 -0.2428  0.1886
  304TMC3    C5 4576   0.174   2.176  10.888 -0.0515 -0.3828  0.3868
  304TMC3    C6 4577   0.045   2.140  10.901 -0.5103 -0.1269  0.5151
  304TMC3     C 4578   0.203   2.232  10.527 -0.5171 -0.1120  0.0454
  304TMC3     O 4579   0.135   2.185  10.439 -0.0130  0.3698  0.0137
  304TMC3     H 4580   4.671   2.185  10.590  0.4292 -0.2010 -0.3220
  304TMC3    H1 4581   0.338   2.235  10.770 -0.2369  0.0582  0.9003
  304TMC3    H2 4582   0.015   2.090  10.993  2.6196  0.0818  1.6740
  304TMC3    C7 4583   0.262   2.139  10.998 -0.2412 -0.1451 -0.2307
  304TMC3    C8 4584   4.565   2.073  10.783  0.0587  0.0334 -1.0631
  304TMC3    O1 4585   0.240   2.192  11.107  0.0780 -0.2740  0.0669
  304TMC3    O2 4586   4.545   2.002  10.685 -0.1016  0.2252  0.2465
  305MPD2     C 4587   3.335   4.485  13.548  0.3848  0.2373 -0.0240
  305MPD2    C1 4588   3.301   4.371  13.618  0.0042 -0.0529 -0.3170
  305MPD2    C2 4589   3.277   4.247  13.544  0.0893 -0.1176  0.4873
  305MPD2    C3 4590   3.279   4.254  13.402 -0.3210 -0.5236 -0.1340
  305MPD2    C4 4591   3.324   4.371  13.342  0.2003  0.0130 -0.1904
  305MPD2    C5 4592   3.351   4.480  13.416 -0.5749  0.3103  0.4400
  305MPD2     H 4593   3.248   4.157  13.597 -0.0936 -0.6007 -0.4435
  305MPD2    H1 4594   3.331   4.381  13.235 -2.1710 -2.0893 -0.5474
  305MPD2    H2 4595   3.347   4.581  13.597 -3.3830 -1.1169  3.4295
  305MPD2    H3 4596   3.396   4.562  13.361  1.7646 -0.7975  0.7105
  305MPD2     N 4597   3.254   4.149  13.308  0.1629 -0.7430 -0.0116
  305MPD2    H5 4598   3.273   4.172  13.211 -1.5020 -0.9058 -0.3833
  305MPD2    N1 4599   3.301   4.387  13.758 -0.0665  0.2515  0.4664
  305MPD2    H7 4600   3.334   4.482  13.775 -0.6892  0.5415  0.0791
  306TMC3    C1 4601   3.356   4.327  13.977  0.7808 -0.2379  0.1517
  306TMC3    C2 4602   3.401   4.222  14.046  0.1200  0.1090 -0.6409
  306TMC3    C3 4603   3.457   4.251  14.165 -0.5463 -0.5031  0.1890
  306TMC3    C4 4604   3.381   4.457  14.008  0.5230  0.5054 -0.4765
  306TMC3    C5 4605   3.445   4.476  14.127  0.1962 -0.2790 -0.4932
  306TMC3    C6 4606   3.491   4.372  14.202 -0.4513 -0.1516 -0.2610
  306TMC3     C 4607   3.297   4.289  13.851  0.2902 -0.3521  0.0093
  306TMC3     O 4608   3.258   4.178  13.834  0.2999 -0.0162  0.4513
  306TMC3     H 4609   3.380   4.120  14.016  0.0503 -0.1701  0.3723
  306TMC3    H1 4610   3.332   4.538  13.955 -0.7235 -0.7296 -1.2346
  306TMC3    H2 4611   3.536   4.391  14.299 -0.8354  1.0566 -0.3142
  306TMC3    C7 4612   3.451   4.615  14.169  0.2479  0.1683  0.4758
  306TMC3    C8 4613   3.509   4.136  14.236  1.0714  0.2495 -0.7773
  306TMC3    O1 4614   3.437   4.701  14.084 -0.5592 -0.1279 -0.1240
  306TMC3    O2 4615   3.566   4.046  14.171  0.1385 -0.4295 -0.5064
  307MPD2     C 4616   0.902   2.144   0.639 -0.9799  0.3831 -0.3104
  307MPD2    C1 4617   0.771   2.125   0.608 -0.1900 -0.2052  0.1606
  307MPD2    C2 4618   0.673   2.203   0.681  0.1022 -1.5544  0.1134
  307MPD2    C3 4619   0.708   2.304   0.767  0.1954  0.3837 -0.1636
  307MPD2    C4 4620   0.842   2.317   0.795  0.3938 -0.1908  0.1255
  307MPD2    C5 4621   0.938   2.243   0.730  0.3251 -0.7220  0.8509
  307MPD2     H 4622   0.568   2.192   0.657 -0.4451  0.1585  1.7253
  307MPD2    H1 4623   0.884   2.394   0.859 -3.9596  2.3794 -0.1273
  307MPD2    H2 4624   0.982   2.108   0.575 -0.5746 -0.4240  0.6554
  307MPD2    H3 4625   1.043   2.265   0.749  0.2036  1.5272 -1.0685
  307MPD2     N 4626   0.605   2.396   0.811  0.5493 -0.3655  1.1393
  307MPD2    H5 4627   0.514   2.379   0.771  0.7569 -0.9278  0.8885
  307MPD2    N1 4628   0.730   2.042   0.503  0.2812 -0.8169  0.4901
  307MPD2    H7 4629   0.638   2.047   0.461  0.4264 -0.8715  0.1656
  308TMC3    C1 4630   0.301   2.611   0.761 -0.1319 -0.5359 -0.3372
  308TMC3    C2 4631   0.322   2.733   0.712 -0.3222  0.0126  0.0991
  308TMC3    C3 4632   0.452   2.793   0.714 -0.3887  0.0922 -0.4262
  308TMC3    C4 4633   0.394   2.542   0.831  0.2532  0.1469 -0.0687
  308TMC3    C5 4634   0.518   2.605   0.850  0.1438  0.2852 -0.1195
  308TMC3    C6 4635   0.547   2.730   0.789 -0.5333  0.7003 -0.5298
  308TMC3     C 4636   0.166   2.578   0.792 -0.0871  0.6443 -0.6314
  308TMC3     O 4637   0.140   2.525   0.898  0.3715  0.2492  0.7632
  308TMC3     H 4638   0.239   2.789   0.669  1.9325  2.9490 -0.3772
  308TMC3    H1 4639   0.375   2.447   0.881  1.3560 -1.1110 -2.0573
  308TMC3    H2 4640   0.640   2.785   0.795  0.1227 -0.5052  0.3281
  308TMC3    C7 4641   0.633   2.523   0.853  0.3526  0.3899 -0.8127
  308TMC3    C8 4642   0.462   2.931   0.667 -0.3099  0.7169 -0.1781
  308TMC3    O1 4643   0.742   2.580   0.860 -0.8195 -0.4145  0.1156
  308TMC3    O2 4644   0.550   3.008   0.712 -0.0088  0.4301 -0.0174
  309MPD2     C 4645   0.053   2.903  16.982  0.2722  0.4931 -0.4299
  309MPD2    C1 4646   4.708   2.921  16.861 -0.4628 -0.1726 -0.0384
  309MPD2    C2 4647   4.569   2.933  16.864 -0.2016  0.1522  0.0783
  309MPD2    C3 4648   4.506   2.933  16.991  0.9908  0.1632 -0.2995
  309MPD2    C4 4649   4.575   2.906  17.107  0.7311 -0.3320  0.2571
  309MPD2    C5 4650   4.712   2.889  17.104 -0.2989  0.1774  1.1647
  309MPD2     H 4651   4.517   2.949  16.771  1.2480 -0.8220 -0.8932
  309MPD2    H1 4652   4.523   2.898  17.202  0.9759  1.8380  0.5734
  309MPD2    H2 4653   0.161   2.910  16.983  0.2086  1.4173  0.7098
  309MPD2    H3 4654   0.044   2.876  17.195 -0.6792 -2.2528  1.0389
  309MPD2     N 4655   4.373   2.969  17.023  0.0873 -0.1120  0.5514
  309MPD2    H5 4656   4.336   2.964  17.117  0.9949 -1.7534  0.8339
  309MPD2    N1 4657   0.042   2.941  16.737 -0.1853 -0.0244 -0.4540
  309MPD2    H7 4658   4.704   2.945  16.657 -0.1388 -0.7629 -0.5297
  310TMC3    C1 4659   0.197   2.938  16.565 -0.4839 -1.0268 -0.5952
  310TMC3    C2 4660   0.110   3.013  16.491 -0.3082  0.2014 -0.0467
  310TMC3    C3 4661   0.126   3.024  16.356  0.1428 -0.2842  0.4653
  310TMC3    C4 4662   0.298   2.869  16.500 -0.3984 -0.0742  0.5738
  310TMC3    C5 4663   0.306   2.880  16.371 -0.0739 -0.3228  0.3266
  310TMC3    C6 4664   0.224   2.955  16.284  0.6393  0.3460 -0.5688
  310TMC3     C 4665   0.176   2.938  16.712 -0.0005 -0.5889  0.3101
  310TMC3     O 4666   0.271   2.923  16.784  0.5135  0.3175 -0.2028
  310TMC3     H 4667   0.051   3.089  16.541 -0.7386 -0.6438  0.7296
  310TMC3    H1 4668   0.360   2.806  16.563  1.5851  0.7253 -0.5888
  310TMC3    H2 4669   0.221   2.946  16.176 -2.9795 -0.0586 -0.4390
  310TMC3    C7 4670   0.415   2.818  16.308 -0.7666 -0.3381  0.2928
  310TMC3    C8 4671   0.011   3.083  16.288  0.3689 -0.0226  0.1059
  310TMC3    O1 4672   0.458   2.714  16.356 -0.1233  0.6680 -0.4031
  310TMC3    O2 4673   4.628   3.087  16.348  0.1633 -0.4462  0.4121
  311MPD2     C 4674   2.398   3.707  12.829  0.4276  0.0885  0.3292
  311MPD2    C1 4675   2.402   3.842  12.808 -0.5722  0.2301  0.6838
  311MPD2    C2 4676   2.288   3.910  12.829  0.1060 -0.2064  0.1730
  311MPD2    C3 4677   2.164   3.847  12.840 -0.0628 -1.1631  0.3143
  311MPD2    C4 4678   2.158   3.711  12.855  0.0662 -0.7822  0.7087
  311MPD2    C5 4679   2.277   3.643  12.846  0.1802 -0.7157 -0.1314
  311MPD2     H 4680   2.293   4.017  12.814  1.6177 -0.2484  0.3314
  311MPD2    H1 4681   2.068   3.651  12.863 -0.2453 -0.6220 -1.6674
  311MPD2    H2 4682   2.487   3.646  12.828 -0.4051 -1.1079 -0.8587
  311MPD2    H3 4683   2.284   3.535  12.839  1.7120 -0.7098  1.5479
  311MPD2     N 4684   2.046   3.920  12.829  0.1771  0.6042  0.3053
  311MPD2    H5 4685   2.056   4.021  12.828  0.3226  0.5719 -1.2604
  311MPD2    N1 4686   2.508   3.916  12.762 -0.2442  0.0045  0.1173
  311MPD2    H7 4687   2.497   4.017  12.754 -0.4527  0.0332  0.8580
  312TMC3    C1 4688   1.810   3.963  12.810  0.7989 -0.5003 -0.2559
  312TMC3    C2 4689   1.689   3.926  12.755 -0.6189 -0.1313  0.0743
  312TMC3    C3 4690   1.587   4.012  12.751  0.6233 -0.7750  0.8334
  312TMC3    C4 4691   1.823   4.085  12.868 -0.1152  0.0551  0.6700
  312TMC3    C5 4692   1.715   4.171  12.866  0.0928  0.0524  0.5856
  312TMC3    C6 4693   1.598   4.132  12.810 -0.4686 -0.7802  0.2975
  312TMC3     C 4694   1.918   3.870  12.800 -0.4172  0.7149 -0.0666
  312TMC3     O 4695   1.884   3.756  12.766  0.1341  0.3382 -0.1237
  312TMC3     H 4696   1.665   3.826  12.720  0.3075 -0.2294 -0.2767
  312TMC3    H1 4697   1.912   4.124  12.914  0.8211 -1.5019  0.1953
  312TMC3    H2 4698   1.511   4.195  12.823  1.4021  1.4793  1.8013
  312TMC3    C7 4699   1.706   4.270  12.968  0.1372  0.2560  0.0894
  312TMC3    C8 4700   1.455   3.963  12.712 -0.3884 -0.3139  0.0428
  312TMC3    O1 4701   1.626   4.359  12.940 -0.2960  0.5098 -0.3424
  312TMC3    O2 4702   1.422   3.848  12.750 -0.4490  0.1492 -0.0321
  313MPD2     C 4703   2.369   3.066   9.809  0.1507 -0.3196  0.0634
  313MPD2    C1 4704   2.328   2.974   9.903 -0.6403  0.3866  0.1154
  313MPD2    C2 4705   2.267   2.860   9.865 -0.9712 -0.0050  0.9666
  313MPD2    C3 4706   2.235   2.834   9.734 -0.2727 -0.0699  0.1864
  313MPD2    C4 4707   2.267   2.932   9.636  0.8729  0.1074 -0.4407
  313MPD2    C5 4708   2.327   3.042   9.678 -0.0685 -0.1657 -0.1598
  313MPD2     H 4709   2.235   2.789   9.940  0.5974  0.2746  1.8877
  313MPD2    H1 4710   2.249   2.913   9.531 -4.0022  0.8733  0.2100
  313MPD2    H2 4711   2.423   3.155   9.839 -0.3633  0.2497 -0.6775
  313MPD2    H3 4712   2.362   3.106   9.597 -2.4322 -0.1310 -1.1731
  313MPD2     N 4713   2.167   2.717   9.705  0.2233  0.1668 -0.0548
  313MPD2    H5 4714   2.159   2.651   9.782 -0.9598 -0.3881 -0.6512
  313MPD2    N1 4715   2.331   3.002  10.045  0.7641 -0.1317  0.0421
  313MPD2    H7 4716   2.291   2.926  10.100  0.6085 -0.9025 -1.1231
  314TMC3    C1 4717   2.284   3.156  10.216  0.5455 -0.0344  0.7114
  314TMC3    C2 4718   2.313   3.265  10.287 -0.0592 -0.7783 -0.0330
  314TMC3    C3 4719   2.221   3.330  10.370  0.4126 -0.2938 -0.0059
  314TMC3    C4 4720   2.152   3.105  10.223  0.4033 -0.4364  0.1110
  314TMC3    C5 4721   2.068   3.172  10.301  0.5134 -0.3455 -0.5286
  314TMC3    C6 4722   2.096   3.286  10.376 -0.5464 -0.6808  0.1583
  314TMC3     C 4723   2.373   3.117  10.103 -0.4882 -0.0922  0.3642
  314TMC3     O 4724   2.454   3.193  10.062 -0.1128  0.0654 -0.0914
  314TMC3     H 4725   2.409   3.311  10.266 -1.2795  1.6650 -0.2888
  314TMC3    H1 4726   2.119   3.027  10.155  0.1611  0.4034 -0.7394
  314TMC3    H2 4727   2.030   3.319  10.455  0.6589 -0.5428  1.1045
  314TMC3    C7 4728   1.927   3.161  10.263 -0.1117 -0.8765  0.0877
  314TMC3    C8 4729   2.269   3.424  10.467 -0.4159 -0.9295  0.1236
  314TMC3    O1 4730   1.845   3.208  10.334  0.2431 -0.6849  0.0924
  314TMC3    O2 4731   2.185   3.496  10.524 -0.2210  0.1853  0.4530
  315MPD2     C 4732   0.763   2.281  17.262 -0.1486  0.0835  0.2216
  315MPD2    C1 4733   0.822   2.336  17.374  0.1596  0.8162 -0.2175
  315MPD2    C2 4734   0.880   2.465  17.372 -0.1874 -0.2142 -0.6600
  315MPD2    C3 4735   0.877   2.535  17.250 -0.5044 -0.3136  0.5444
  315MPD2    C4 4736   0.808   2.488  17.137  0.2906 -0.5259  0.1207
  315MPD2    C5 4737   0.759   2.359  17.152  0.2494  0.5772  0.3125
  315MPD2     H 4738   0.927   2.506  17.461 -0.1285  0.2892 -0.9209
  315MPD2    H1 4739   0.798   2.547  17.046  0.0672  0.2624  0.6586
  315MPD2    H2 4740   0.706   2.190  17.258  1.0737 -0.7102  0.7827
  315MPD2    H3 4741   0.717   2.309  17.065  0.1589  1.4993 -0.1779
  315MPD2     N 4742   0.947   2.652  17.248 -0.9583  0.4962 -0.2731
  315MPD2    H5 4743   1.004   2.669  17.331 -0.8803 -1.0619 -0.0084
  315MPD2    N1 4744   0.845   2.258  17.494  0.3857 -0.3419  0.0574
  315MPD2    H7 4745   0.899   2.304  17.567  0.2994 -2.1125  1.2182
  316TMC3    C1 4746   1.072   2.825  17.174 -0.2151 -0.3247 -0.3069
  316TMC3    C2 4747   1.113   2.836  17.306 -0.1071  0.0966  0.0121
  316TMC3    C3 4748   1.229   2.914  17.319 -0.4004  0.1021  0.0088
  316TMC3    C4 4749   1.132   2.885  17.065  0.1471 -0.5771  0.9135
  316TMC3    C5 4750   1.250   2.958  17.082  0.4983 -1.0002 -0.8985
  316TMC3    C6 4751   1.296   2.975  17.214 -0.3775  0.3903 -0.4856
  316TMC3     C 4752   0.969   2.737  17.143  0.4552 -0.1848 -0.2569
  316TMC3     O 4753   0.925   2.746  17.030 -0.1210 -0.1648  0.5166
  316TMC3     H 4754   1.050   2.822  17.393  0.0678 -1.1177 -0.0632
  316TMC3    H1 4755   1.087   2.879  16.966  0.8345 -0.9550  0.6214
  316TMC3    H2 4756   1.388   3.031  17.227 -0.4625  0.4789 -0.2648
  316TMC3    C7 4757   1.318   3.019  16.973 -0.6783  0.3613  0.2774
  316TMC3    C8 4758   1.271   2.947  17.456 -0.0661  0.3477  0.4878
  316TMC3    O1 4759   1.437   3.039  16.979 -0.0963 -0.1384 -0.2285
  316TMC3    O2 4760   1.342   3.048  17.466  0.0477  0.4548 -0.0675
  317MPD2     C 4761   3.846   0.823  12.000 -0.3050  0.2316 -0.3282
  317MPD2    C1 4762   3.980   0.788  12.018  0.2867  0.4922  0.3753
  317MPD2    C2 4763   4.034   0.748  12.142  0.4629  0.4247 -0.0761
  317MPD2    C3 4764   3.962   0.752  12.261 -0.3816  0.1499  0.1121
  317MPD2    C4 4765   3.823   0.785  12.243  0.3524 -0.0125 -0.6169
  317MPD2    C5 4766   3.774   0.824  12.119  0.5702  0.1909  0.0378
  317MPD2     H 4767   4.139   0.718  12.143 -0.4086 -2.6436 -0.7801
  317MPD2    H1 4768   3.758   0.793  12.329  0.4355  0.3857 -0.5908
  317MPD2    H2 4769   3.791   0.845  11.909 -1.7986 -0.7935  0.3289
  317MPD2    H3 4770   3.672   0.861  12.118  1.2103  2.0632  2.7358
  317MPD2     N 4771   4.019   0.717  12.387  0.1025  0.3386  0.5188
  317MPD2    H5 4772   4.112   0.676  12.383 -1.0810 -2.4560  1.5701
  317MPD2    N1 4773   4.053   0.765  11.898  0.4433  0.0251 -0.8247
  317MPD2    H7 4774   4.145   0.724  11.915 -0.9448 -1.8892  1.8983
  318TMC3    C1 4775   4.024   0.668  12.614 -0.5549 -0.2373 -0.8725
  318TMC3    C2 4776   3.959   0.642  12.734  0.1898 -0.1627  0.3441
  318TMC3    C3 4777   4.029   0.590  12.843 -0.1361  0.3241  0.6869
  318TMC3    C4 4778   4.154   0.646  12.603  0.2219 -0.0456 -0.2865
  318TMC3    C5 4779   4.215   0.595  12.716  0.1799  0.1158  0.1491
  318TMC3    C6 4780   4.161   0.576  12.835  0.3452  0.1650  0.9817
  318TMC3     C 4781   3.945   0.724  12.504 -0.1225 -1.2658  0.1736
  318TMC3     O 4782   3.834   0.761  12.537 -0.0494 -0.0657  0.2768
  318TMC3     H 4783   3.854   0.662  12.749  0.2879  2.4096 -2.5197
  318TMC3    H1 4784   4.216   0.689  12.525  0.6452  1.5208  0.8936
  318TMC3    H2 4785   4.224   0.562  12.922  1.0994 -0.1864  0.3857
  318TMC3    C7 4786   4.357   0.557  12.706  0.1770 -0.0540 -0.8930
  318TMC3    C8 4787   3.974   0.608  12.973 -0.2635  0.1542  0.3540
  318TMC3    O1 4788   4.414   0.517  12.809 -0.4243  0.0791 -0.2027
  318TMC3    O2 4789   4.048   0.634  13.066  0.0539 -0.4715  0.5940
  319MPD2     C 4790   3.732   2.360  16.702  0.8079  0.4842 -0.1238
  319MPD2    C1 4791   3.687   2.293  16.813 -0.3529 -0.8029  0.3715
  319MPD2    C2 4792   3.571   2.220  16.806 -0.1057  0.4142  0.1185
  319MPD2    C3 4793   3.505   2.208  16.684 -0.5800 -0.1145 -0.0879
  319MPD2    C4 4794   3.548   2.275  16.572 -0.3958  0.4881  0.0193
  319MPD2    C5 4795   3.665   2.351  16.586  0.0033 -0.2488 -0.8683
  319MPD2     H 4796   3.540   2.157  16.889 -1.2511  2.3275  1.1413
  319MPD2    H1 4797   3.501   2.264  16.475  0.2019 -0.6758 -0.1430
  319MPD2    H2 4798   3.832   2.403  16.700  0.7720  0.6433  1.1842
  319MPD2    H3 4799   3.720   2.394  16.503  1.1829 -1.6179 -0.8044
  319MPD2     N 4800   3.407   2.113  16.661 -0.1956 -0.2197 -0.6253
  319MPD2    H5 4801   3.358   2.114  16.572 -1.8106 -1.9541  0.2288
  319MPD2    N1 4802   3.768   2.274  16.931 -0.8197 -0.0925 -0.3012
  319MPD2    H7 4803   3.730   2.208  16.999 -0.9181  1.5048  1.2002
  320TMC3    C1 4804   3.226   1.978  16.678 -0.2143 -0.0795 -0.8076
  320TMC3    C2 4805   3.154   2.060  16.591 -0.2449 -0.0849 -0.5689
  320TMC3    C3 4806   3.093   2.000  16.485 -1.3408 -0.4293 -0.2736
  320TMC3    C4 4807   3.259   1.846  16.650  0.0600 -0.4283 -0.1624
  320TMC3    C5 4808   3.183   1.790  16.547 -0.7820  0.6067  0.1335
  320TMC3    C6 4809   3.102   1.867  16.464  0.1455  0.5787 -0.0085
  320TMC3     C 4810   3.345   2.032  16.751  0.2775  0.0628 -0.2313
  320TMC3     O 4811   3.364   2.002  16.868 -0.1343 -0.7924  0.9008
  320TMC3     H 4812   3.141   2.166  16.609  2.3226 -0.4389  3.4071
  320TMC3    H1 4813   3.323   1.781  16.708  2.3186  0.8103 -1.2561
  320TMC3    H2 4814   3.058   1.818  16.377 -1.4811  0.3812  0.9321
  320TMC3    C7 4815   3.229   1.669  16.490 -0.3415  0.1236 -0.9616
  320TMC3    C8 4816   3.044   2.085  16.381 -0.1482 -0.0282  0.0114
  320TMC3    O1 4817   3.208   1.650  16.374  0.1403 -0.2320  0.5267
  320TMC3    O2 4818   3.078   2.201  16.399 -0.2616  0.0299 -0.7485
  321TMC3    C1 4819   3.928   2.306  17.101 -0.5597  0.2780  0.2736
  321TMC3    C2 4820   3.867   2.201  17.167  0.3370  0.4966  0.0143
  321TMC3    C3 4821   3.941   2.140  17.268  0.0145  0.2372  0.3470
  321TMC3    C4 4822   4.053   2.352  17.138 -0.7741 -0.0930 -0.4641
  321TMC3    C5 4823   4.111   2.300  17.251  0.2112 -0.3493  0.0586
  321TMC3    C6 4824   4.054   2.196  17.323 -0.6012  0.4958 -0.6422
  321TMC3     C 4825   3.884   2.341  16.965  0.4676  0.0253  0.1607
  321TMC3     O 4826   3.938   2.434  16.908  0.0411 -0.5811  0.2664
  321TMC3     H 4827   3.780   2.145  17.134  1.4205 -0.9916 -0.3095
  321TMC3    H1 4828   4.105   2.411  17.063  1.3165 -1.9923 -0.5332
  321TMC3    H2 4829   4.094   2.153  17.414 -3.1645 -1.0234 -0.2434
  321TMC3    C7 4830   4.253   2.271  17.243  0.6736  0.0580  0.4478
  321TMC3    C8 4831   3.948   1.999  17.275 -0.5958  0.2015  0.7231
  321TMC3    O1 4832   4.273   2.149  17.250 -0.0736  0.3899 -0.3063
  321TMC3    O2 4833   3.841   1.933  17.265 -0.0293  0.2543  0.0164
  322MPD2     C 4834   3.456   3.486  13.226 -0.9339 -0.0744  0.1870
  322MPD2    C1 4835   3.343   3.462  13.305  0.1143  0.3486  0.0157
  322MPD2    C2 4836   3.269   3.354  13.286 -0.2809 -0.4502 -0.6404
  322MPD2    C3 4837   3.305   3.261  13.193 -0.4467  0.5243  0.1228
  322MPD2    C4 4838   3.411   3.288  13.111  0.8265 -0.1409 -0.7084
  322MPD2    C5 4839   3.490   3.396  13.133 -0.4299 -0.4611 -0.4177
  322MPD2     H 4840   3.186   3.324  13.348 -1.7513  2.9157 -0.9945
  322MPD2    H1 4841   3.443   3.216  13.037  2.0101 -0.8432  0.4930
  322MPD2    H2 4842   3.514   3.575  13.251  1.3510 -1.0990 -1.4884
  322MPD2    H3 4843   3.584   3.408  13.081 -0.4154 -1.4871 -0.6355
  322MPD2     N 4844   3.223   3.143  13.187 -0.1374  0.2019 -0.1603
  322MPD2    H5 4845   3.159   3.131  13.265 -0.4965  2.0597 -0.1698
  322MPD2    N1 4846   3.310   3.556  13.403 -0.2131 -0.5268  0.4342
  322MPD2    H7 4847   3.391   3.617  13.410 -0.9146  0.5266 -0.6503
  323TMC3    C1 4848   3.221   3.669  13.587  0.6776  0.4904 -0.1447
  323TMC3    C2 4849   3.313   3.775  13.582 -0.4909  0.3521  0.2581
  323TMC3    C3 4850   3.347   3.834  13.696 -0.2151  0.0152 -0.5636
  323TMC3    C4 4851   3.156   3.636  13.708 -0.8859  0.3679 -0.7185
  323TMC3    C5 4852   3.186   3.706  13.822  0.1723  0.3402 -0.0555
  323TMC3    C6 4853   3.283   3.806  13.816 -0.2741 -0.3571 -0.5989
  323TMC3     C 4854   3.199   3.568  13.486 -0.2480 -0.0536 -0.0372
  323TMC3     O 4855   3.096   3.502  13.484 -0.1092 -0.1127  0.1484
  323TMC3     H 4856   3.357   3.814  13.491 -1.5824 -0.1371 -0.4707
  323TMC3    H1 4857   3.088   3.552  13.704 -1.1195  0.4703  0.9047
  323TMC3    H2 4858   3.300   3.872  13.900 -1.9816 -0.4179 -0.2102
  323TMC3    C7 4859   3.177   3.633  13.947 -0.0966 -0.4024  0.4279
  323TMC3    C8 4860   3.423   3.956  13.681 -0.1851  0.8432 -0.0014
  323TMC3    O1 4861   3.115   3.530  13.954  0.0963 -0.6853  0.0981
  323TMC3    O2 4862   3.440   3.997  13.567  0.0147  0.1361 -0.5975
  324MPD2     C 4863   0.555   0.327  13.778 -0.2165 -0.6176  1.1651
  324MPD2    C1 4864   0.554   0.411  13.890 -0.7540  0.4991 -0.1451
  324MPD2    C2 4865   0.437   0.467  13.934 -0.1821 -1.2184 -0.3121
  324MPD2    C3 4866   0.328   0.451  13.857  0.0456  0.4369  0.8995
  324MPD2    C4 4867   0.331   0.381  13.738  0.2209  0.7717  0.5633
  324MPD2    C5 4868   0.446   0.316  13.694 -0.3938 -0.3939 -0.5926
  324MPD2     H 4869   0.437   0.532  14.021  3.1578  0.9732 -1.9502
  324MPD2    H1 4870   0.245   0.369  13.673 -0.5774  2.1717  1.3507
  324MPD2    H2 4871   0.642   0.271  13.745  0.4838  0.8133  0.5862
  324MPD2    H3 4872   0.450   0.260  13.602 -2.3281 -0.4955 -0.6138
  324MPD2     N 4873   0.200   0.496  13.892  0.3384 -0.5091 -0.3543
  324MPD2    H5 4874   0.133   0.492  13.817  1.1701 -1.3468 -1.0527
  324MPD2    N1 4875   0.670   0.436  13.958  0.0351  0.1457 -0.1455
  324MPD2    H7 4876   0.665   0.514  14.023 -0.9791 -0.1695  0.1565
  325TMC3    C1 4877   0.041   0.619  14.027 -0.4764 -0.0469  0.2818
  325TMC3    C2 4878   4.662   0.584  13.942  0.1783 -0.2105  0.0253
  325TMC3    C3 4879   4.536   0.627  13.963  0.4559 -0.3228  0.3682
  325TMC3    C4 4880   0.021   0.699  14.137  0.2537 -0.2657 -0.0142
  325TMC3    C5 4881   4.614   0.726  14.160 -0.0749  0.2014 -0.1828
  325TMC3    C6 4882   4.513   0.700  14.074  0.5521 -0.2586 -0.2880
  325TMC3     C 4883   0.175   0.568  14.009 -0.3261 -0.2545 -0.5032
  325TMC3     O 4884   0.236   0.569  14.114  0.0598 -0.1550  0.2077
  325TMC3     H 4885   4.685   0.541  13.846  0.2235 -0.6810  0.2462
  325TMC3    H1 4886   0.093   0.727  14.214 -0.9291 -0.7400  1.2497
  325TMC3    H2 4887   4.414   0.739  14.098 -0.6713 -3.4531 -0.0943
  325TMC3    C7 4888   4.595   0.837  14.251  0.1491 -0.3670 -0.1699
  325TMC3    C8 4889   4.431   0.568  13.886 -0.3271  0.0289 -0.0178
  325TMC3    O1 4890   4.690   0.910  14.273  0.6283  0.3061 -0.1595
  325TMC3    O2 4891   4.448   0.544  13.765 -0.1074 -0.1027 -0.0321
  326MPD2     C 4892   1.349   1.260  11.114  0.5455 -0.0706  0.2470
  326MPD2    C1 4893   1.396   1.221  10.989  0.1815  0.1930 -0.2702
  326MPD2    C2 4894   1.529   1.225  10.964 -0.2765 -0.4186  0.3868
  326MPD2    C3 4895   1.615   1.296  11.053 -0.0207 -0.1402 -0.6610
  326MPD2    C4 4896   1.575   1.320  11.184  0.1340  0.6779  0.2647
  326MPD2    C5 4897   1.435   1.299  11.208  0.5209  0.0250  0.3866
  326MPD2     H 4898   1.553   1.205  10.860 -0.4071 -0.5258  0.3776
  326MPD2    H1 4899   1.639   1.361  11.261  0.9283 -0.2631  0.1095
  326MPD2    H2 4900   1.246   1.245  11.145  0.5430 -0.3355  0.1166
  326MPD2    H3 4901   1.401   1.321  11.308 -1.6471  1.0085 -0.5621
  326MPD2     N 4902   1.744   1.323  11.013  0.1834 -0.0244 -0.0064
  326MPD2    H5 4903   1.818   1.369  11.065  1.1055  0.1161 -1.4310
  326MPD2    N1 4904   1.310   1.184  10.888  0.0784  0.5600 -0.2461
  326MPD2    H7 4905   1.345   1.140  10.804  0.8435 -1.2548  1.0377
  327TMC3    C1 4906   1.157   1.272  10.735 -0.1116 -0.2815  0.5306
  327TMC3    C2 4907   1.092   1.392  10.732 -1.0032  0.1705  0.2297
  327TMC3    C3 4908   1.149   1.489  10.648  0.1942 -1.3565 -0.1733
  327TMC3    C4 4909   1.260   1.235  10.653 -0.3326  0.2076 -0.6376
  327TMC3    C5 4910   1.300   1.321  10.557  0.3024  0.3067  0.1322
  327TMC3    C6 4911   1.243   1.453  10.558  0.3739 -0.1682  0.1254
  327TMC3     C 4912   1.183   1.230  10.871 -0.1494  1.2355  0.4036
  327TMC3     O 4913   1.111   1.264  10.964  0.9479  0.1450  0.2110
  327TMC3     H 4914   1.003   1.416  10.790 -1.1390  0.1235  0.0425
  327TMC3    H1 4915   1.286   1.130  10.645  2.8616  0.8853  0.9562
  327TMC3    H2 4916   1.287   1.535  10.502 -0.1250  0.4846  0.6934
  327TMC3    C7 4917   1.421   1.301  10.477 -0.1274  0.6210  0.3532
  327TMC3    C8 4918   1.105   1.628  10.665 -0.1783  0.2640 -0.7176
  327TMC3    O1 4919   1.440   1.387  10.395  0.4541 -0.6540  0.1810
  327TMC3    O2 4920   1.126   1.709  10.574  0.3494  0.4329  0.3420
  328MPD2     C 4921   3.114   0.427   0.056  0.4334  0.9779 -0.2082
  328MPD2    C1 4922   2.977   0.452   0.028  0.5406  0.7516  0.4071
  328MPD2    C2 4923   2.955   0.562  17.649 -0.8081 -0.0808 -0.8758
  328MPD2    C3 4924   3.054   0.627  17.579 -0.2166 -1.1756  0.5472
  328MPD2    C4 4925   3.184   0.588  17.598 -0.2328 -0.0177  0.0775
  328MPD2    C5 4926   3.217   0.491  17.687  0.1986 -0.0675  0.3835
  328MPD2     H 4927   2.856   0.605  17.648  0.4429  2.8651  1.2182
  328MPD2    H1 4928   3.259   0.640  17.540  0.7849 -1.8042 -0.1844
  328MPD2    H2 4929   3.127   0.334   0.110  0.7274 -0.0449 -2.0515
  328MPD2    H3 4930   3.317   0.448  17.690 -0.4945 -1.7072  0.4679
  328MPD2     N 4931   3.019   0.725  17.478 -0.2412  0.1633 -0.1202
  328MPD2    H5 4932   3.093   0.780  17.436 -1.0962  0.1912 -1.6104
  328MPD2    N1 4933   2.872   0.372   0.089  0.7370  0.4801 -0.4444
  328MPD2    H7 4934   2.897   0.283   0.130 -2.0723  0.5904  1.4368
  329TMC3    C1 4935   2.662   0.326   0.177 -0.5551  0.1404 -0.0994
  329TMC3    C2 4936   2.705   0.355   0.305 -0.4115  0.0198 -0.7993
  329TMC3    C3 4937   2.613   0.418   0.391  0.6679  0.3681  0.0576
  329TMC3    C4 4938   2.534   0.340   0.145 -0.3377 -0.5760  0.2841
  329TMC3    C5 4939   2.442   0.388   0.239  0.3947  0.3575  0.4473
  329TMC3    C6 4940   2.483   0.431   0.360 -0.0344 -0.2087  0.0687
  329TMC3     C 4941   2.740   0.401   0.085 -0.0683  0.4826 -0.4458
  329TMC3     O 4942   2.679   0.487   0.026 -0.1444 -0.4190  0.1783
  329TMC3     H 4943   2.809   0.343   0.331 -0.7979 -1.3791  0.1147
  329TMC3    H1 4944   2.504   0.312   0.045 -4.1081  2.0481  0.6646
  329TMC3    H2 4945   2.424   0.481   0.435 -0.0215 -0.0728 -0.0104
  329TMC3    C7 4946   2.307   0.349   0.232  0.7470 -0.2805  0.4126
  329TMC3    C8 4947   2.682   0.536   0.446  0.5097 -0.4375  0.0983
  329TMC3    O1 4948   2.246   0.336   0.335  0.1433 -0.0608  0.5092
  329TMC3    O2 4949   2.803   0.530   0.471 -0.6969  0.1884  0.4882
  330TMC3    C1 4950   1.289   0.537   9.564  0.2037  0.0345  0.2258
  330TMC3    C2 4951   1.244   0.483   9.448 -0.1049  0.5313  0.1044
  330TMC3    C3 4952   1.322   0.408   9.361 -0.2401  0.8727 -0.8707
  330TMC3    C4 4953   1.416   0.507   9.597 -0.4550 -0.2282  0.4548
  330TMC3    C5 4954   1.495   0.419   9.518 -0.5957 -0.3802  0.6222
  330TMC3    C6 4955   1.445   0.367   9.404 -0.8070  0.1932 -0.3209
  330TMC3     C 4956   1.196   0.566   9.671 -0.8040 -0.1691  0.2037
  330TMC3     O 4957   1.243   0.559   9.781 -0.3559  0.2823  0.2434
  330TMC3     H 4958   1.140   0.507   9.430 -0.1487  0.2591 -0.0018
  330TMC3    H1 4959   1.467   0.532   9.690  0.4555  1.5660 -0.5347
  330TMC3    H2 4960   1.518   0.317   9.341  0.3704  2.1232 -0.4809
  330TMC3    C7 4961   1.630   0.378   9.569 -0.0743 -0.3671 -0.3348
  330TMC3    C8 4962   1.256   0.345   9.244 -0.2375 -0.0656 -0.2647
  330TMC3    O1 4963   1.685   0.463   9.634 -0.0597 -0.2144  0.2855
  330TMC3    O2 4964   1.158   0.401   9.205 -0.2121  0.0993 -0.3324
  331MPD2     C 4965   4.207   3.849  12.730  0.6504  0.0871  0.2218
  331MPD2    C1 4966   4.325   3.851  12.661  0.7045 -0.3346  0.8127
  331MPD2    C2 4967   4.358   3.742  12.579  1.0688  0.4668  0.3380
  331MPD2    C3 4968   4.285   3.622  12.595  0.2995  0.2886  0.2743
  331MPD2    C4 4969   4.175   3.618  12.681 -0.1292 -0.2791  0.2464
  331MPD2    C5 4970   4.131   3.734  12.737 -0.5642 -0.2589 -0.5056
  331MPD2     H 4971   4.439   3.743  12.507  2.0938 -1.4282  1.4691
  331MPD2    H1 4972   4.106   3.535  12.691 -1.3850  0.9134  1.4554
  331MPD2    H2 4973   4.172   3.932  12.790 -0.7968  0.4931 -1.1648
  331MPD2    H3 4974   4.039   3.733  12.793 -0.3923  2.2987 -0.1477
  331MPD2     N 4975   4.337   3.515  12.530  0.1504  0.5687  0.1194
  331MPD2    H5 4976   4.426   3.526  12.483  0.4143 -3.5887 -0.3000
  331MPD2    N1 4977   4.412   3.965  12.666 -0.6471 -0.0312 -0.0270
  331MPD2    H7 4978   4.370   4.044  12.714 -2.2930 -1.4300  0.8334
  332TMC3    C1 4979   4.379   3.306  12.456 -1.0030  0.0692  0.4043
  332TMC3    C2 4980   4.436   3.372  12.348 -0.1483  0.1131  0.9632
  332TMC3    C3 4981   4.560   3.339  12.307  0.1971 -0.4444  0.6427
  332TMC3    C4 4982   4.464   3.222  12.526 -0.4837  0.0681 -0.0065
  332TMC3    C5 4983   4.598   3.197  12.488 -1.1443 -1.1131 -0.2274
  332TMC3    C6 4984   4.648   3.261  12.382 -0.3444  1.5063 -0.1537
  332TMC3     C 4985   4.289   3.388  12.535 -0.0146  0.4907 -0.2735
  332TMC3     O 4986   4.204   3.335  12.608 -0.8486 -0.1899  0.2077
  332TMC3     H 4987   4.360   3.421  12.289 -1.3635  1.9507  4.0862
  332TMC3    H1 4988   4.419   3.173  12.611  1.9818 -1.5045  0.3994
  332TMC3    H2 4989   0.018   3.239  12.333 -1.2132 -2.1484 -0.1558
  332TMC3    C7 4990   4.689   3.141  12.587 -0.5481 -0.2097  0.2159
  332TMC3    C8 4991   4.608   3.403  12.190  0.2791 -0.2603 -0.3518
  332TMC3    O1 4992   4.645   3.080  12.681  0.0163 -0.0746 -0.0648
  332TMC3    O2 4993   4.723   3.387  12.158 -0.4232 -0.0972 -0.0562
  333MPD2     C 4994   4.474   3.633  10.961 -0.0561 -0.0958 -0.0531
  333MPD2    C1 4995   4.593   3.570  10.914  0.5350 -0.2456  0.0147
  333MPD2    C2 4996   4.614   3.439  10.951  0.4867 -0.2918 -0.0435
  333MPD2    C3 4997   4.520   3.365  11.037 -0.3924  0.4488  0.5893
  333MPD2    C4 4998   4.401   3.430  11.071  0.1082 -0.3058 -0.2947
  333MPD2    C5 4999   4.384   3.562  11.035 -0.3226 -0.1023  0.5171
  333MPD2     H 5000   4.712   3.396  10.934  0.9199 -0.3432  2.5653
  333MPD2    H1 5001   4.326   3.379  11.131  0.7141  0.6268  1.2695
  333MPD2    H2 5002   4.452   3.738  10.946  0.6989  0.0641 -0.0387
  333MPD2    H3 5003   4.295   3.610  11.076 -0.6093 -1.4316  1.4297
  333MPD2     N 5004   4.557   3.237  11.089 -0.4265 -0.4062  0.5114
  333MPD2    H5 5005   4.657   3.223  11.102 -0.5044 -1.2107  0.1855
  333MPD2    N1 5006   4.688   3.652  10.851 -0.0930 -0.3836 -0.0841
  333MPD2    H7 5007   4.671   3.751  10.864  0.5885 -0.0994 -1.3728
  334TMC3    C1 5008   0.169   3.711  10.741 -0.3887  0.0043  0.2281
  334TMC3    C2 5009   0.276   3.677  10.652  0.0192  0.1397  0.1288
  334TMC3    C3 5010   0.373   3.774  10.625  0.1208 -0.0940 -0.9401
  334TMC3    C4 5011   0.162   3.835  10.804  0.2737 -0.4108 -0.0358
  334TMC3    C5 5012   0.255   3.931  10.764  0.5464 -0.5161  0.4886
  334TMC3    C6 5013   0.359   3.903  10.675  0.4861 -0.0699  0.4168
  334TMC3     C 5014   0.078   3.604  10.787  0.1671 -0.3561  0.5322
  334TMC3     O 5015   0.099   3.489  10.756  0.1981 -0.1374 -0.4568
  334TMC3     H 5016   0.288   3.574  10.623 -0.5548 -0.3007  1.4290
  334TMC3    H1 5017   0.089   3.853  10.882  1.7981  2.8674  0.6535
  334TMC3    H2 5018   0.402   3.988  10.624  0.7379  0.4603  1.5053
  334TMC3    C7 5019   0.269   4.061  10.832 -0.0761 -0.3114 -0.4038
  334TMC3    C8 5020   0.480   3.750  10.530 -0.6479 -0.2418 -0.1776
  334TMC3    O1 5021   0.368   4.126  10.808  0.6850 -0.4283  0.1556
  334TMC3    O2 5022   0.462   3.685  10.430  0.3817  0.7475 -0.1531
  335TMC3    C1 5023   4.326   0.976  17.424 -0.6242  1.2689  0.8026
  335TMC3    C2 5024   4.234   0.992  17.323 -0.1968  0.2831 -0.2957
  335TMC3    C3 5025   4.279   1.065  17.211  0.2328  0.8896  0.1359
  335TMC3    C4 5026   4.436   1.050  17.438  0.8586 -0.1473 -0.5437
  335TMC3    C5 5027   4.472   1.135  17.339 -0.1032  0.0698  0.4869
  335TMC3    C6 5028   4.393   1.144  17.221  0.0500  0.5929 -0.1083
  335TMC3     C 5029   4.297   0.877  17.521 -0.7174  0.4814  0.6053
  335TMC3     O 5030   4.186   0.889  17.568 -0.1929  0.1510  0.3350
  335TMC3     H 5031   4.147   0.927  17.316  0.4859 -1.0955  3.7954
  335TMC3    H1 5032   4.507   1.031  17.518 -0.3746  1.4153  0.9153
  335TMC3    H2 5033   4.427   1.193  17.131 -1.4963 -2.5728 -2.4359
  335TMC3    C7 5034   4.602   1.178  17.326  0.7268 -0.4249 -0.2790
  335TMC3    C8 5035   4.216   1.054  17.082 -0.7650  0.6227 -0.2962
  335TMC3    O1 5036   4.686   1.118  17.395 -0.3437 -0.1656 -0.1052
  335TMC3    O2 5037   4.248   1.141  17.000 -0.4535 -0.0919 -0.2649
  336MPD2     C 5038   3.595   3.507  16.048 -0.3119 -0.1819 -0.2425
  336MPD2    C1 5039   3.600   3.438  15.924  0.1483  0.0509  0.0632
  336MPD2    C2 5040   3.652   3.308  15.922 -0.2535 -0.2186  0.3793
  336MPD2    C3 5041   3.704   3.258  16.037 -0.6443  0.5334 -0.3009
  336MPD2    C4 5042   3.705   3.336  16.150 -0.0657 -0.0070  0.3448
  336MPD2    C5 5043   3.647   3.456  16.160  0.2170  0.2420 -0.2079
  336MPD2     H 5044   3.654   3.254  15.828  1.9392 -1.4528  1.1243
  336MPD2    H1 5045   3.747   3.292  16.240  1.3602  2.4078  0.8516
  336MPD2    H2 5046   3.541   3.600  16.042 -2.2546 -1.3430 -1.0434
  336MPD2    H3 5047   3.643   3.512  16.252 -0.6924  1.4593 -0.9902
  336MPD2     N 5048   3.738   3.119  16.053 -0.2525  0.7068  0.4505
  336MPD2    H5 5049   3.758   3.085  16.146  0.9682 -0.9920 -0.4206
  336MPD2    N1 5050   3.564   3.505  15.808 -0.2460  0.2836  0.0876
  336MPD2    H7 5051   3.552   3.606  15.807 -1.0234  0.1841 -0.9974
  337TMC3    C1 5052   3.488   3.533  15.596  0.2662 -0.3570  0.0801
  337TMC3    C2 5053   3.366   3.521  15.532 -0.6398  0.5786  0.0300
  337TMC3    C3 5054   3.339   3.611  15.425 -0.1357 -0.2533 -0.1719
  337TMC3    C4 5055   3.575   3.633  15.561 -0.0080 -0.3688 -0.0219
  337TMC3    C5 5056   3.542   3.719  15.464 -0.0483 -0.6311  0.0458
  337TMC3    C6 5057   3.433   3.700  15.381 -0.2819 -0.1529 -0.1763
  337TMC3     C 5058   3.520   3.442  15.702 -0.0238 -0.9546 -0.5366
  337TMC3     O 5059   3.471   3.328  15.690 -0.3472  0.3116  0.9000
  337TMC3     H 5060   3.293   3.444  15.550  1.5929 -1.3093  0.9302
  337TMC3    H1 5061   3.674   3.642  15.605  0.6666  0.0843 -1.6547
  337TMC3    H2 5062   3.416   3.770  15.300  2.5758 -0.6178 -1.1601
  337TMC3    C7 5063   3.640   3.814  15.432 -1.1369  0.6227  0.4532
  337TMC3    C8 5064   3.203   3.615  15.387  0.0074 -0.0366  0.0358
  337TMC3    O1 5065   3.631   3.844  15.313  0.4128  0.0539  1.0613
  337TMC3    O2 5066   3.122   3.585  15.474 -0.2219  0.2698  0.3296
  338MPD2     C 5067   3.758   2.188   0.536  0.3689  0.0270  0.1645
  338MPD2    C1 5068   3.744   2.253   0.409  0.0847  0.9119 -0.4681
  338MPD2    C2 5069   3.623   2.231   0.342 -0.0840  0.9584  0.0797
  338MPD2    C3 5070   3.513   2.177   0.408 -0.1830  0.1007  0.3231
  338MPD2    C4 5071   3.533   2.106   0.529  0.7687  0.1005  0.7585
  338MPD2    C5 5072   3.657   2.117   0.584  0.8334  0.1389 -0.3567
  338MPD2     H 5073   3.601   2.278   0.247 -0.1808  3.4094  1.3029
  338MPD2    H1 5074   3.456   2.056   0.587  2.3121 -2.1305  0.8534
  338MPD2    H2 5075   3.846   2.196   0.598 -0.2954 -1.7910  1.3411
  338MPD2    H3 5076   3.668   2.081   0.685 -0.7259  4.6307  1.4513
  338MPD2     N 5077   3.388   2.164   0.340 -0.5320 -0.2393  0.1268
  338MPD2    H5 5078   3.378   2.208   0.250 -0.5851 -1.5173 -0.4927
  338MPD2    N1 5079   3.853   2.327   0.360  0.0273  0.5489 -0.0279
  338MPD2    H7 5080   3.840   2.355   0.263 -0.1549 -1.8128 -0.6799
  339TMC3    C1 5081   3.149   2.147   0.326 -0.3773  0.0502 -0.3912
  339TMC3    C2 5082   3.028   2.160   0.387 -0.3821  0.0190 -0.0832
  339TMC3    C3 5083   2.929   2.229   0.325 -1.1552 -0.6382  0.2183
  339TMC3    C4 5084   3.170   2.194   0.202  0.0790 -0.6637  0.4287
  339TMC3    C5 5085   3.073   2.260   0.141 -0.3210  0.1446  0.2988
  339TMC3    C6 5086   2.956   2.296   0.204 -0.6671  0.9873 -0.2668
  339TMC3     C 5087   3.273   2.125   0.405 -0.4012  0.2929  0.5741
  339TMC3     O 5088   3.246   2.096   0.523  0.1889  0.4885  0.4803
  339TMC3     H 5089   3.026   2.125   0.490 -1.2857  0.7860  0.1546
  339TMC3    H1 5090   3.248   2.148   0.142  0.3005  0.8527 -0.4353
  339TMC3    H2 5091   2.870   2.346   0.161 -1.2378  1.4529  1.4223
  339TMC3    C7 5092   3.108   2.328   0.021  0.2533  0.3137 -0.6474
  339TMC3    C8 5093   2.818   2.270   0.401  0.4155 -0.4730 -0.5421
  339TMC3    O1 5094   3.219   2.302  17.668 -0.6482  0.1589  0.1163
  339TMC3    O2 5095   2.763   2.375   0.368  0.4168  0.3475 -0.2914
  340MPD2     C 5096   4.626   0.428  10.331  0.2806 -0.0703 -1.0296
  340MPD2    C1 5097   4.699   0.519  10.257 -0.3566  0.3235 -0.7630
  340MPD2    C2 5098   0.006   0.635  10.319 -0.1879  0.0237 -0.3498
  340MPD2    C3 5099   4.693   0.657  10.454  0.1745 -0.4376 -0.1580
  340MPD2    C4 5100   4.619   0.563  10.520  0.6454  0.2065  0.0771
  340MPD2    C5 5101   4.579   0.444  10.463 -0.0680 -0.2984  0.1694
  340MPD2     H 5102   0.046   0.714  10.257 -0.1649 -0.0104 -0.3789
  340MPD2    H1 5103   4.570   0.588  10.613  1.4077 -2.5473  1.1955
  340MPD2    H2 5104   4.605   0.339  10.272 -0.2348  1.5707 -3.3163
  340MPD2    H3 5105   4.512   0.374  10.511 -0.5859 -0.2466 -0.4861
  340MPD2     N 5106   0.005   0.779  10.523  0.1281  0.9190  0.7626
  340MPD2    H5 5107   4.691   0.802  10.614 -1.8304 -0.3585  0.2729
  340MPD2    N1 5108   0.008   0.494  10.114  0.1944 -0.2887  0.1586
  340MPD2    H7 5109   4.678   0.419  10.070  0.0974  0.6167 -1.2764
  341TMC3    C1 5110   0.106   0.529   9.909  0.4845  0.5054 -0.8171
  341TMC3    C2 5111   4.718   0.476   9.839  1.0456  0.3066  0.3660
  341TMC3    C3 5112   0.013   0.399   9.731 -0.1040 -0.5477 -0.5370
  341TMC3    C4 5113   0.230   0.515   9.860 -0.4847  0.5276  0.4038
  341TMC3    C5 5114   0.243   0.454   9.739  0.4348 -0.1441  0.9009
  341TMC3    C6 5115   0.139   0.385   9.677 -0.3717  0.3336 -0.7677
  341TMC3     C 5116   0.098   0.568  10.040  0.1649 -1.1080 -0.2444
  341TMC3     O 5117   0.177   0.656  10.065 -0.1582  0.2085  0.1906
  341TMC3     H 5118   4.618   0.492   9.877  0.2018  0.9746 -2.1323
  341TMC3    H1 5119   0.316   0.553   9.915 -0.6671  2.0114 -0.3422
  341TMC3    H2 5120   0.171   0.325   9.593 -0.3718  1.0100 -1.2500
  341TMC3    C7 5121   0.384   0.442   9.702 -0.5828  0.6842 -0.3908
  341TMC3    C8 5122   4.641   0.308   9.678 -0.2010 -0.3437  0.1960
  341TMC3    O1 5123   0.462   0.447   9.797  0.3042  0.0056  0.3044
  341TMC3    O2 5124   4.693   0.226   9.600 -0.2096 -0.6697 -0.3557
  342MPD2     C 5125   1.578   3.652  17.185 -0.4240  0.1438  0.4042
  342MPD2    C1 5126   1.692   3.699  17.241  0.3382 -0.2487  0.5000
  342MPD2    C2 5127   1.697   3.835  17.282 -1.0497 -0.2194 -0.1149
  342MPD2    C3 5128   1.588   3.917  17.265  0.1514  0.2544 -0.1487
  342MPD2    C4 5129   1.480   3.866  17.194  0.2973  0.3940 -0.8664
  342MPD2    C5 5130   1.477   3.740  17.157 -0.2329 -0.2671  0.0748
  342MPD2     H 5131   1.795   3.860  17.321 -1.6232  0.2235  1.0503
  342MPD2    H1 5132   1.385   3.919  17.188 -0.7718 -1.7111 -2.9359
  342MPD2    H2 5133   1.564   3.545  17.172 -0.0806  0.3638 -1.7718
  342MPD2    H3 5134   1.385   3.695  17.124  1.9147 -2.7425 -2.5299
  342MPD2     N 5135   1.591   4.044  17.320  0.3654 -0.1008  0.4285
  342MPD2    H5 5136   1.675   4.056  17.375  0.5247  0.0897  0.1422
  342MPD2    N1 5137   1.807   3.625  17.269  0.0273  0.1945 -0.1840
  342MPD2    H7 5138   1.892   3.673  17.295  0.9533 -0.4723 -1.9564
  343TMC3    C1 5139   1.942   3.429  17.290 -0.3278  0.1763  0.3879
  343TMC3    C2 5140   2.055   3.475  17.220  0.6255  0.8131 -0.3743
  343TMC3    C3 5141   2.153   3.384  17.189  0.6084  0.1542 -0.3469
  343TMC3    C4 5142   1.927   3.297  17.323 -0.5685 -0.1719  0.4512
  343TMC3    C5 5143   2.028   3.210  17.293 -0.1827 -0.2654  0.4919
  343TMC3    C6 5144   2.146   3.248  17.222  0.5324  0.1524 -0.2655
  343TMC3     C 5145   1.817   3.494  17.257  0.4168 -0.0648 -0.2033
  343TMC3     O 5146   1.736   3.408  17.218 -0.2891  0.1143 -0.1109
  343TMC3     H 5147   2.064   3.578  17.187  1.5537  0.7384 -0.3632
  343TMC3    H1 5148   1.834   3.259  17.364 -0.1286 -0.2648  1.3415
  343TMC3    H2 5149   2.223   3.175  17.199  0.4093 -0.1937  0.4039
  343TMC3    C7 5150   2.008   3.068  17.301  0.7286 -0.0674 -0.1207
  343TMC3    C8 5151   2.280   3.437  17.163  0.5259  0.7064 -0.1985
  343TMC3    O1 5152   2.069   2.990  17.227 -0.5370  0.0299 -0.8157
  343TMC3    O2 5153   2.307   3.551  17.193 -0.3559 -0.6874  0.3283
  344MPD2     C 5154   4.076   2.574  10.516  0.0505  0.1121 -0.4988
  344MPD2    C1 5155   3.972   2.671  10.503 -0.0911 -0.3389  1.0478
  344MPD2    C2 5156   3.963   2.750  10.389 -0.3704 -0.0367  0.3993
  344MPD2    C3 5157   4.068   2.751  10.305 -0.0064  0.4882  0.2127
  344MPD2    C4 5158   4.174   2.664  10.323  0.6669  0.1020 -0.5603
  344MPD2    C5 5159   4.175   2.567  10.420  1.1254  0.3971  0.0846
  344MPD2     H 5160   3.873   2.810  10.377  0.4142  1.2983  1.1231
  344MPD2    H1 5161   4.245   2.653  10.242  2.5405 -0.2515  1.1401
  344MPD2    H2 5162   4.066   2.499  10.594  2.7251  1.0279  0.7168
  344MPD2    H3 5163   4.251   2.490  10.422  2.1743  1.4611  2.1810
  344MPD2     N 5164   4.091   2.860  10.217 -0.0166  0.5807  0.0585
  344MPD2    H5 5165   4.174   2.849  10.161  0.8543 -1.0876  1.6733
  344MPD2    N1 5166   3.873   2.677  10.599 -0.8909  0.9131 -0.3028
  344MPD2    H7 5167   3.789   2.728  10.573 -0.5998  0.6436 -1.7543
  345TMC3    C1 5168   4.052   3.067  10.100  0.1399 -0.5635  0.2282
  345TMC3    C2 5169   4.193   3.086  10.101  0.1446  0.7646  0.9140
  345TMC3    C3 5170   4.237   3.202  10.039  0.2094  0.4594  0.5383
  345TMC3    C4 5171   3.962   3.160  10.049  0.4741  1.0154  0.0041
  345TMC3    C5 5172   4.016   3.276   9.989  1.0104 -0.1136  0.0883
  345TMC3    C6 5173   4.149   3.303   9.994 -0.2916  0.4398 -0.0382
  345TMC3     C 5174   4.014   2.970  10.202  0.6481  0.9139 -0.1850
  345TMC3     O 5175   3.904   2.999  10.245  0.2225 -0.1061 -0.3498
  345TMC3     H 5176   4.267   3.019  10.142  0.4169 -0.1614 -1.0891
  345TMC3    H1 5177   3.856   3.151  10.068  0.6377 -0.8551 -0.0034
  345TMC3    H2 5178   4.186   3.399   9.960  2.0689  0.0897  1.5376
  345TMC3    C7 5179   3.934   3.393   9.960 -0.1924 -0.3030  0.5260
  345TMC3    C8 5180   4.370   3.258  10.053  0.0950 -0.0694  0.3551
  345TMC3    O1 5181   3.990   3.503   9.959  0.6111 -0.2399  0.4016
  345TMC3    O2 5182   4.400   3.343   9.974 -0.4911  0.0099 -0.1539
  346MPD2     C 5183   3.591   0.352  13.918 -0.1951  0.9534 -0.2165
  346MPD2    C1 5184   3.714   0.415  13.913  0.1042 -0.2360  0.5608
  346MPD2    C2 5185   3.753   0.499  14.019 -0.0513 -0.6405 -0.0537
  346MPD2    C3 5186   3.663   0.520  14.125 -0.2081  0.1201  0.2860
  346MPD2    C4 5187   3.541   0.459  14.126  0.2433 -0.0841 -0.1537
  346MPD2    C5 5188   3.502   0.379  14.018  0.0685 -0.2530  0.2098
  346MPD2     H 5189   3.854   0.538  14.030 -0.5630  0.9461 -1.0009
  346MPD2    H1 5190   3.465   0.483  14.200  2.1598  0.9091  1.4973
  346MPD2    H2 5191   3.557   0.289  13.837  2.9577 -0.1914 -0.6546
  346MPD2    H3 5192   3.408   0.326  14.020 -0.5963  0.8472 -3.1338
  346MPD2     N 5193   3.708   0.605  14.233  0.5013 -0.0730  0.7793
  346MPD2    H5 5194   3.798   0.651  14.223  0.1583  0.0591 -1.6720
  346MPD2    N1 5195   3.795   0.397  13.800  0.2603 -0.2668 -0.2864
  346MPD2    H7 5196   3.871   0.462  13.785 -0.4823  0.6515 -0.0675
  347TMC3    C1 5197   3.708   0.716  14.438 -0.2877 -0.0089 -0.1279
  347TMC3    C2 5198   3.785   0.817  14.384 -0.4267 -0.3869  0.4316
  347TMC3    C3 5199   3.872   0.888  14.475  0.1755 -0.0060 -0.2294
  347TMC3    C4 5200   3.708   0.681  14.569  0.6156 -0.3884 -0.3355
  347TMC3    C5 5201   3.795   0.745  14.647  0.5839 -0.4578  0.2128
  347TMC3    C6 5202   3.885   0.839  14.601 -0.5326  0.6345  0.8611
  347TMC3     C 5203   3.643   0.627  14.353  0.1717  0.2913  0.2331
  347TMC3     O 5204   3.536   0.588  14.388 -0.0717 -0.3707  0.1468
  347TMC3     H 5205   3.780   0.846  14.280 -3.0145  1.2544  1.0238
  347TMC3    H1 5206   3.656   0.592  14.602  0.2200  0.0190  0.1558
  347TMC3    H2 5207   3.953   0.887  14.671  1.7736 -1.9700  0.4045
  347TMC3    C7 5208   3.820   0.687  14.779  0.1736 -0.9805  0.0645
  347TMC3    C8 5209   3.996   0.939  14.420  0.0712  0.0771  0.0079
  347TMC3    O1 5210   3.718   0.649  14.840  0.2453 -0.4900  0.3594
  347TMC3    O2 5211   4.018   0.917  14.304  0.1902  0.5010 -0.2267
  348MPD2     C 5212   2.153   4.078  11.732  0.3944 -0.5592 -0.2729
  348MPD2    C1 5213   2.213   4.198  11.760 -0.1215 -0.1510 -0.7489
  348MPD2    C2 5214   2.183   4.315  11.684 -0.2215  0.3981  0.7369
  348MPD2    C3 5215   2.107   4.301  11.568 -0.6466  0.9403 -0.8439
  348MPD2    C4 5216   2.059   4.176  11.531  0.2561  0.1984  0.2813
  348MPD2    C5 5217   2.080   4.072  11.619 -0.3957  0.4089  0.0282
  348MPD2     H 5218   2.224   4.413  11.709 -0.1201  0.7831 -0.9852
  348MPD2    H1 5219   1.997   4.155  11.445  0.1160  0.7635  0.2416
  348MPD2    H2 5220   2.180   3.986  11.782 -0.1526 -2.1202 -2.8213
  348MPD2    H3 5221   2.039   3.976  11.592 -0.3529  0.1582  0.8468
  348MPD2     N 5222   2.085   4.410  11.486  0.4853 -0.0480 -0.0960
  348MPD2    H5 5223   2.144   4.491  11.502  1.1539 -0.1401 -2.0472
  348MPD2    N1 5224   2.297   4.211  11.872  0.1518 -0.4347  0.6328
  348MPD2    H7 5225   2.345   4.300  11.889  1.0355 -1.2332  2.3849
  349TMC3    C1 5226   2.439   4.150  12.051  0.7815 -0.4264 -0.1639
  349TMC3    C2 5227   2.480   4.063  12.149  0.5421 -0.2903  0.2250
  349TMC3    C3 5228   2.604   4.086  12.204  0.2643  0.5377  0.0119
  349TMC3    C4 5229   2.527   4.251  12.016 -0.6136  0.2986  0.7468
  349TMC3    C5 5230   2.648   4.267  12.070  0.6936 -0.0445 -0.0011
  349TMC3    C6 5231   2.691   4.185  12.170  0.2682  0.1095  0.5433
  349TMC3     C 5232   2.323   4.110  11.967  0.8029  0.4631  0.2616
  349TMC3     O 5233   2.278   4.000  11.983 -0.3003  0.4720  0.1213
  349TMC3     H 5234   2.421   3.979  12.183 -0.8061  0.6901  0.2744
  349TMC3    H1 5235   2.514   4.307  11.924 -0.7627 -0.7802  0.1075
  349TMC3    H2 5236   2.785   4.215  12.215  0.4785  1.2086 -0.6314
  349TMC3    C7 5237   2.745   4.333  11.982 -0.5596 -0.6624 -0.6724
  349TMC3    C8 5238   2.662   3.978  12.281 -0.0876 -0.3672 -0.1854
  349TMC3    O1 5239   2.790   4.265  11.888 -0.4335  0.6375  0.0089
  349TMC3    O2 5240   2.610   3.960  12.391 -0.1024  0.0201 -0.4008
  350MPD2     C 5241   1.231   2.351   9.710 -0.6728  0.8163  0.1992
  350MPD2    C1 5242   1.303   2.233   9.727 -0.0487 -0.7272  0.3669
  350MPD2    C2 5243   1.441   2.244   9.702  0.4917  0.2461  0.2886
  350MPD2    C3 5244   1.493   2.372   9.680  0.1060 -0.8932  0.7281
  350MPD2    C4 5245   1.428   2.493   9.691  0.1549  0.0201  0.7766
  350MPD2    C5 5246   1.294   2.470   9.682  0.4401  0.2123  0.0370
  350MPD2     H 5247   1.505   2.156   9.705 -0.2020 -0.2555  0.3686
  350MPD2    H1 5248   1.469   2.592   9.706  0.6058  0.2810 -2.0428
  350MPD2    H2 5249   1.124   2.364   9.723 -0.7525  0.8694 -0.5316
  350MPD2    H3 5250   1.232   2.558   9.686  2.1911  1.3610  1.9946
  350MPD2     N 5251   1.632   2.371   9.672 -0.0443 -0.5067 -0.6402
  350MPD2    H5 5252   1.677   2.281   9.667  0.5853 -0.3360  1.9323
  350MPD2    N1 5253   1.246   2.102   9.757 -0.0474  0.3334 -0.7631
  350MPD2    H7 5254   1.305   2.020   9.749 -1.8723 -0.9448 -1.2080
  351TMC3    C1 5255   1.070   1.953   9.817  0.4280  0.2745  0.2779
  351TMC3    C2 5256   1.116   1.850   9.735  0.0192 -0.2844  0.1622
  351TMC3    C3 5257   1.054   1.733   9.752 -0.1986 -1.4830 -0.2478
  351TMC3    C4 5258   0.960   1.944   9.902 -0.2209 -0.2610  0.1549
  351TMC3    C5 5259   0.911   1.817   9.918  0.0042 -0.4921 -0.4738
  351TMC3    C6 5260   0.955   1.714   9.842 -0.7335  0.0050 -0.1893
  351TMC3     C 5261   1.115   2.089   9.800 -0.9130 -0.0416  0.0185
  351TMC3     O 5262   1.041   2.177   9.842  0.1713 -1.0708 -0.7255
  351TMC3     H 5263   1.192   1.862   9.660  1.5425 -1.9117  1.4351
  351TMC3    H1 5264   0.905   2.029   9.941  0.6382  1.2919 -1.9741
  351TMC3    H2 5265   0.902   1.619   9.844 -0.2352 -0.3162 -2.4681
  351TMC3    C7 5266   0.779   1.810   9.975 -0.4175 -0.6449  0.1974
  351TMC3    C8 5267   1.079   1.634   9.648  0.2700 -0.5850 -0.0699
  351TMC3    O1 5268   0.703   1.729   9.926  0.2283  0.0024  0.5707
  351TMC3    O2 5269   1.193   1.633   9.604  0.0889  0.5923  0.4795
  352MPD2     C 5270   4.058   4.708   0.432  0.4809 -0.3625  0.1861
  352MPD2    C1 5271   3.972   4.664   0.527  0.0953  0.9750  0.1084
  352MPD2    C2 5272   3.997   4.551   0.599 -0.0935 -0.6184  0.4779
  352MPD2    C3 5273   4.114   4.478   0.572  0.1135 -0.3250 -0.3906
  352MPD2    C4 5274   4.207   4.532   0.484 -0.0807 -0.3912  0.0919
  352MPD2    C5 5275   4.173   4.641   0.411  0.0017 -0.0408  0.0633
  352MPD2     H 5276   3.939   4.519   0.685 -1.2713  1.8069  0.5733
  352MPD2    H1 5277   4.302   4.488   0.456  0.4468  1.0774 -0.4506
  352MPD2    H2 5278   4.029   0.067   0.368 -0.9078 -0.3738  0.8119
  352MPD2    H3 5279   4.238   4.679   0.333 -0.4657  0.4530 -0.0877
  352MPD2     N 5280   4.147   4.361   0.641  0.3164 -0.3164  0.1364
  352MPD2    H5 5281   4.235   4.316   0.617  0.1743 -1.3592  1.5431
  352MPD2    N1 5282   3.851   0.009   0.538  0.0917 -0.1317 -0.4350
  352MPD2    H7 5283   3.846   0.094   0.484  1.9341  0.1730 -0.1320
  353TMC3    C1 5284   4.128   4.175   0.789  0.2822  0.1507 -0.2105
  353TMC3    C2 5285   4.260   4.148   0.786  0.4559  0.0624 -0.1176
  353TMC3    C3 5286   4.299   4.032   0.826 -1.1172  0.0134 -0.3534
  353TMC3    C4 5287   4.040   4.077   0.827  0.2476  0.0592  0.6423
  353TMC3    C5 5288   4.082   3.952   0.861  0.1611  0.4229 -0.8063
  353TMC3    C6 5289   4.217   3.930   0.868  0.4168  0.5189 -0.0408
  353TMC3     C 5290   4.064   4.287   0.727  0.0528  0.0298 -0.1160
  353TMC3     O 5291   3.951   4.309   0.766 -0.0376  0.3222  0.1947
  353TMC3     H 5292   4.334   4.221   0.753  0.4588 -0.4132 -1.1651
  353TMC3    H1 5293   3.932   4.079   0.827  0.1869 -2.4244 -0.6671
  353TMC3    H2 5294   4.258   3.830   0.868 -2.0497 -0.4764  2.2110
  353TMC3    C7 5295   4.004   3.850   0.792  0.2110 -0.6733 -0.0250
  353TMC3    C8 5296   4.441   4.023   0.861  0.0374  0.2144 -0.9283
  353TMC3    O1 5297   3.934   3.883   0.694 -0.5691  0.2408 -0.2814
  353TMC3    O2 5298   4.505   4.119   0.905 -0.0541 -0.4196 -0.1274
  354TMC3    C1 5299   1.626   1.062  13.036 -0.9396  0.2199  0.0908
  354TMC3    C2 5300   1.645   1.192  13.002 -0.5351 -0.3585  0.2983
  354TMC3    C3 5301   1.701   1.228  12.879  0.0227  0.1571 -0.3333
  354TMC3    C4 5302   1.665   0.963  12.958  0.0553  0.2849  0.4733
  354TMC3    C5 5303   1.719   0.989  12.833 -0.5752 -0.2768  0.4181
  354TMC3    C6 5304   1.728   1.119  12.796 -0.6713  0.3538 -0.5064
  354TMC3     C 5305   1.550   1.022  13.155  0.0924  0.3621  0.7044
  354TMC3     O 5306   1.585   0.923  13.213  0.0230 -0.0461 -0.3893
  354TMC3     H 5307   1.615   1.276  13.064 -0.2266  0.4709 -0.6847
  354TMC3    H1 5308   1.631   0.862  12.976 -2.4484  1.1969  0.8062
  354TMC3    H2 5309   1.758   1.144  12.694  1.7647 -0.0271  0.1253
  354TMC3    C7 5310   1.781   0.888  12.750 -0.3966 -0.5644 -0.0164
  354TMC3    C8 5311   1.674   1.355  12.827  0.0534 -0.6360 -0.7979
  354TMC3    O1 5312   1.748   0.774  12.783 -0.1058 -0.2959 -0.1979
  354TMC3    O2 5313   1.643   1.363  12.710 -0.2656 -1.1165 -0.7944
  355MPD2     C 5314   1.389   2.255  11.600 -0.6128  0.0978  0.2860
  355MPD2    C1 5315   1.474   2.193  11.509 -1.0829  0.4105 -0.1137
  355MPD2    C2 5316   1.564   2.097  11.556  0.1155 -0.1519  0.0050
  355MPD2    C3 5317   1.567   2.066  11.692 -0.3410  0.1008 -0.2462
  355MPD2    C4 5318   1.474   2.125  11.777  0.3832  0.8959  0.1199
  355MPD2    C5 5319   1.390   2.220  11.729  0.5315 -0.3918  0.1140
  355MPD2     H 5320   1.627   2.038  11.491 -2.1947 -0.6241 -1.8077
  355MPD2    H1 5321   1.477   2.109  11.884  1.5219 -0.1100 -0.0682
  355MPD2    H2 5322   1.318   2.336  11.585 -0.2552  0.4097  0.2629
  355MPD2    H3 5323   1.332   2.276  11.801  0.3944 -0.0817 -0.2437
  355MPD2     N 5324   1.664   1.980  11.753  0.1213  0.1507  0.0293
  355MPD2    H5 5325   1.663   1.941  11.846 -0.1919 -1.4179 -0.6375
  355MPD2    N1 5326   1.473   2.252  11.378  0.3842  0.4767 -0.2258
  355MPD2    H7 5327   1.409   2.329  11.359  1.0074  1.2715  0.8902
  356TMC3    C1 5328   1.864   1.857  11.772  0.4213 -0.2678 -0.5052
  356TMC3    C2 5329   1.969   1.805  11.700  0.5932 -0.7027 -0.3532
  356TMC3    C3 5330   2.096   1.841  11.722  0.3414  0.2487  0.2101
  356TMC3    C4 5331   1.896   1.929  11.885 -0.1139 -0.2929 -0.3249
  356TMC3    C5 5332   2.027   1.952  11.913  0.2182 -0.4924 -0.0988
  356TMC3    C6 5333   2.135   1.927  11.825  0.1419 -0.6111  0.4111
  356TMC3     C 5334   1.782   1.949  11.689 -0.0788 -0.6942  0.7042
  356TMC3     O 5335   1.836   1.997  11.587  0.0827  0.3098 -0.2465
  356TMC3     H 5336   1.947   1.747  11.611 -0.1800 -0.1742 -0.5105
  356TMC3    H1 5337   1.827   1.969  11.959  0.5367  2.3581 -1.1454
  356TMC3    H2 5338   2.238   1.957  11.844  0.3887 -0.9439 -0.3890
  356TMC3    C7 5339   2.064   1.981  12.050  0.2723  0.4621  0.1918
  356TMC3    C8 5340   2.182   1.835  11.599 -0.1615  0.2548 -0.3709
  356TMC3    O1 5341   1.984   1.950  12.139 -0.3959 -0.1207 -0.1782
  356TMC3    O2 5342   2.153   1.750  11.512 -0.9692  0.0437 -0.1841
  357MPD2     C 5343   0.683   1.649   0.691  0.7499 -0.1908 -0.0829
  357MPD2    C1 5344   0.622   1.528   0.659 -0.0809  0.4482  0.6504
  357MPD2    C2 5345   0.487   1.553   0.628 -0.3417 -0.3252 -0.2483
  357MPD2    C3 5346   0.413   1.664   0.658 -0.0671  0.0509 -0.1644
  357MPD2    C4 5347   0.483   1.777   0.699 -0.1639  0.2031  0.0938
  357MPD2    C5 5348   0.618   1.761   0.715 -0.3558 -0.2495  0.8559
  357MPD2     H 5349   0.442   1.472   0.571  0.7312 -1.9369  1.1646
  357MPD2    H1 5350   0.438   1.876   0.698 -0.7782 -0.0775 -0.2495
  357MPD2    H2 5351   0.789   1.662   0.711  0.5941 -0.2848  0.8355
  357MPD2    H3 5352   0.671   1.853   0.736  0.9933 -1.4225  2.5804
  357MPD2     N 5353   0.269   1.662   0.653  0.5442 -0.6069  0.3042
  357MPD2    H5 5354   0.221   1.748   0.680 -1.5454 -1.4372 -0.7779
  357MPD2    N1 5355   0.691   1.404   0.657 -0.0436 -0.8396 -0.1896
  357MPD2    H7 5356   0.792   1.403   0.660  0.0016  3.6188  0.4050
  358TMC3    C1 5357   0.709   1.170   0.669 -0.2217  0.1965  0.6237
  358TMC3    C2 5358   0.797   1.178   0.566  0.2724  0.3618  0.8731
  358TMC3    C3 5359   0.838   1.055   0.521  0.7429  0.0699 -0.1508
  358TMC3    C4 5360   0.674   1.063   0.737  1.1943 -0.2735 -0.0628
  358TMC3    C5 5361   0.737   0.947   0.702 -0.6109  0.5200 -0.0252
  358TMC3    C6 5362   0.828   0.945   0.601 -0.1538  0.0210  0.2778
  358TMC3     C 5363   0.627   1.282   0.681 -0.3637 -0.8461 -0.1909
  358TMC3     O 5364   0.512   1.260   0.719  0.2718  0.3440  0.0378
  358TMC3     H 5365   0.799   1.263   0.499 -2.1559  1.1850  1.8293
  358TMC3    H1 5366   0.594   1.066   0.811 -0.4687 -0.7878 -1.8450
  358TMC3    H2 5367   0.831   0.851   0.547 -0.0215  0.4621 -0.4816
  358TMC3    C7 5368   0.734   0.835   0.789  0.5657  0.2612 -0.4820
  358TMC3    C8 5369   0.830   1.044   0.374  0.4787  1.0343  0.5059
  358TMC3    O1 5370   0.711   0.862   0.905 -0.2169 -0.4632  0.2522
  358TMC3    O2 5371   0.886   1.135   0.314  0.1166 -0.5649  0.1750
  359MPD2     C 5372   2.164   0.322  12.127  0.5778 -0.1814 -0.0679
  359MPD2    C1 5373   2.202   0.266  12.013  0.4464  0.1098  0.0567
  359MPD2    C2 5374   2.167   0.140  11.981  0.5150 -0.3716  0.2692
  359MPD2    C3 5375   2.082   0.060  12.061 -0.2449 -0.0904 -0.3346
  359MPD2    C4 5376   2.047   0.114  12.178 -0.3846 -0.0913 -0.5657
  359MPD2    C5 5377   2.085   0.242  12.207 -0.3776 -0.5098 -0.0276
  359MPD2     H 5378   2.185   0.117  11.877 -1.5347 -0.9482  0.0430
  359MPD2    H1 5379   1.982   0.056  12.243  0.8935 -0.8979 -0.0016
  359MPD2    H2 5380   2.188   0.423  12.158 -0.9458 -0.2954  1.4779
  359MPD2    H3 5381   2.056   0.287  12.301 -2.3062 -1.4878 -0.1594
  359MPD2     N 5382   2.027   4.658  12.021  0.0112  0.0119 -0.1967
  359MPD2    H5 5383   1.961   4.612  12.082 -0.5733  1.9788  0.6396
  359MPD2    N1 5384   2.271   0.339  11.912  0.0562  0.0773  0.6344
  359MPD2    H7 5385   2.280   0.284  11.828 -2.3193  0.3568  0.1979
  360TMC3    C1 5386   2.388   0.511  11.788 -1.0328 -0.2519 -0.9362
  360TMC3    C2 5387   2.518   0.540  11.802  0.1286 -0.5524 -0.1250
  360TMC3    C3 5388   2.584   0.543  11.685  1.4650 -0.4527 -0.2004
  360TMC3    C4 5389   2.323   0.473  11.675  0.0213 -0.0274 -0.1853
  360TMC3    C5 5390   2.396   0.460  11.565 -0.5822  0.3245  0.1143
  360TMC3    C6 5391   2.528   0.497  11.569 -0.5823  1.1123 -0.4654
  360TMC3     C 5392   2.316   0.474  11.912 -0.0720 -0.1078 -0.0863
  360TMC3     O 5393   2.349   0.538  12.010  0.0647 -0.0980  0.3872
  360TMC3     H 5394   2.565   0.520  11.898  0.8583 -3.2157 -1.0331
  360TMC3    H1 5395   2.221   0.442  11.691  0.3127 -2.1853 -2.4985
  360TMC3    H2 5396   2.569   0.521  11.472  0.2310 -1.0140 -0.6454
  360TMC3    C7 5397   2.319   0.461  11.439 -0.3109  0.3616 -0.0693
  360TMC3    C8 5398   2.719   0.596  11.687  0.2492  0.1620 -0.0294
  360TMC3    O1 5399   2.371   0.511  11.337 -0.2787  0.3336  0.1760
  360TMC3    O2 5400   2.753   0.660  11.788 -0.0063 -0.0599 -0.2890
  361MPD2     C 5401   2.509   4.017  16.740  0.4757 -1.4254  0.0550
  361MPD2    C1 5402   2.560   4.065  16.857 -0.6946  1.2406  0.6386
  361MPD2    C2 5403   2.696   4.040  16.879 -0.8200 -0.5288  0.5985
  361MPD2    C3 5404   2.772   3.981  16.776 -0.1375 -0.2132  0.6740
  361MPD2    C4 5405   2.707   3.915  16.672 -0.0248 -0.2282  0.0018
  361MPD2    C5 5406   2.575   3.939  16.651  0.0431 -0.0074 -0.2359
  361MPD2     H 5407   2.739   4.074  16.972 -1.0149  0.5105  0.3060
  361MPD2    H1 5408   2.767   3.860  16.600 -0.5485  0.4614 -0.9611
  361MPD2    H2 5409   2.403   4.024  16.719  0.3826  1.0074  1.2647
  361MPD2    H3 5410   2.521   3.909  16.562  1.2732 -0.0984 -0.9579
  361MPD2     N 5411   2.914   3.951  16.789 -0.8944 -0.2479 -0.4559
  361MPD2    H5 5412   2.963   3.890  16.725  1.7420  0.3610  0.9782
  361MPD2    N1 5413   2.472   4.135  16.944  0.8522  0.2253  0.6444
  361MPD2    H7 5414   2.373   4.140  16.923  0.7801 -0.0619  0.9235
  362TMC3    C1 5415   2.422   4.302  17.102  0.2211  0.2177  0.4685
  362TMC3    C2 5416   2.281   4.283  17.100 -0.0624  0.2970 -0.1204
  362TMC3    C3 5417   2.199   4.393  17.117  0.2724  0.4855  0.2951
  362TMC3    C4 5418   2.468   4.430  17.118  0.7322 -0.5284 -0.2744
  362TMC3    C5 5419   2.385   4.539  17.129 -0.2874  0.1344 -0.0040
  362TMC3    C6 5420   2.248   4.520  17.136  0.7161 -0.1845 -0.1275
  362TMC3     C 5421   2.519   4.214  17.045 -0.2232  0.3275 -0.1117
  362TMC3     O 5422   2.638   4.237  17.073  0.0623 -0.1605  1.0120
  362TMC3     H 5423   2.234   4.186  17.089  0.3790  0.0280  0.3350
  362TMC3    H1 5424   2.569   4.444  17.157  0.8827 -0.9050 -0.5345
  362TMC3    H2 5425   2.178   4.601  17.117  0.8956 -0.1990 -0.8464
  362TMC3    C7 5426   2.425   4.652  17.045 -0.1866  0.1866 -1.2734
  362TMC3    C8 5427   2.059   4.372  17.096 -0.6499  0.0572  0.8673
  362TMC3    O1 5428   2.333   4.701  16.982  1.0694  0.0437 -0.3487
  362TMC3    O2 5429   2.031   4.271  17.038  0.8991  0.2697 -0.3738
  363TMC3    C1 5430   1.890   1.745   8.957 -0.6113 -0.3056 -0.5376
  363TMC3    C2 5431   2.009   1.751   9.027 -0.2171 -0.0720 -0.4584
  363TMC3    C3 5432   2.076   1.871   9.030 -0.4860  0.4379 -0.0291
  363TMC3    C4 5433   1.842   1.858   8.890 -0.0246  0.0385 -0.1247
  363TMC3    C5 5434   1.912   1.983   8.893 -0.2543 -0.2670 -0.4529
  363TMC3    C6 5435   2.034   1.987   8.964  0.7411  0.2877  0.4559
  363TMC3     C 5436   1.815   1.621   8.948  0.2443 -0.4525  0.9573
  363TMC3     O 5437   1.698   1.630   8.918  0.3239 -0.1321 -0.3740
  363TMC3     H 5438   2.009   1.674   9.103 -3.0388  3.1039  2.7615
  363TMC3    H1 5439   1.740   1.852   8.854  0.1991 -2.1325 -0.3834
  363TMC3    H2 5440   2.084   2.083   8.968  0.8450  0.3071 -1.1673
  363TMC3    C7 5441   1.827   2.105   8.885  0.2133 -0.6396 -0.4029
  363TMC3    C8 5442   2.198   1.880   9.102 -0.3366 -0.0644  0.3645
  363TMC3    O1 5443   1.707   2.076   8.900  0.3145 -0.2129  0.1932
  363TMC3    O2 5444   2.251   1.991   9.115 -0.2225 -0.3828 -0.0584
  364MPD2     C 5445   0.806   1.968  10.906 -0.0705  0.4411 -0.2792
  364MPD2    C1 5446   0.858   1.969  10.776  0.7241  0.8802 -0.1318
  364MPD2    C2 5447   0.947   1.868  10.744  0.2206  0.4297  0.0282
  364MPD2    C3 5448   0.973   1.763  10.829  0.6963 -0.3722  0.0560
  364MPD2    C4 5449   0.931   1.771  10.961 -0.6683 -0.5492 -0.3693
  364MPD2    C5 5450   0.855   1.881  11.000  0.6096  0.2511  0.1817
  364MPD2     H 5451   0.985   1.862  10.643 -0.7622 -3.8236 -0.1074
  364MPD2    H1 5452   0.949   1.694  11.036 -0.6208 -1.5616 -1.4195
  364MPD2    H2 5453   0.750   2.055  10.936 -1.3379 -0.4006 -0.1990
  364MPD2    H3 5454   0.834   1.902  11.105  1.8630  0.8445  0.3142
  364MPD2     N 5455   1.043   1.646  10.788  0.2710  0.3194  0.9836
  364MPD2    H5 5456   1.050   1.580  10.865 -1.5316  0.4501  1.2749
  364MPD2    N1 5457   0.824   2.075  10.690  0.3991 -0.0227  0.0431
  364MPD2    H7 5458   0.766   2.151  10.724 -0.9200 -0.4339 -1.2665
  365TMC3    C1 5459   0.861   2.239  10.526 -0.9384 -0.2295  1.2427
  365TMC3    C2 5460   0.915   2.253  10.402  0.0452  0.2031  0.3206
  365TMC3    C3 5461   1.015   2.348  10.382  0.1140  0.8307  0.4361
  365TMC3    C4 5462   0.902   2.313  10.631  0.0677 -0.4604  0.1902
  365TMC3    C5 5463   0.995   2.415  10.602  0.2272 -0.4261 -0.4367
  365TMC3    C6 5464   1.054   2.433  10.478  0.6544  0.3846 -0.1405
  365TMC3     C 5465   0.874   2.098  10.561  0.9998 -0.0009  0.2390
  365TMC3     O 5466   0.931   2.031  10.472 -0.0241  0.0049  0.0232
  365TMC3     H 5467   0.864   2.199  10.323  2.5300 -1.5511 -0.0842
  365TMC3    H1 5468   0.861   2.305  10.731 -1.3713  0.4973 -0.3246
  365TMC3    H2 5469   1.138   2.498  10.460  1.8404 -1.3275 -0.7606
  365TMC3    C7 5470   1.054   2.494  10.714 -0.1566 -0.5997  0.7230
  365TMC3    C8 5471   1.125   2.302  10.289 -0.2993  0.4919  0.0718
  365TMC3    O1 5472   1.145   2.576  10.691 -0.4311 -0.6703  0.0246
  365TMC3    O2 5473   1.181   2.382  10.218 -0.0095  0.3070 -0.5407
  366MPD2     C 5474   3.216   2.443  15.367  0.4153  0.1223  0.2769
  366MPD2    C1 5475   3.265   2.517  15.256  0.0917 -0.0903 -0.2911
  366MPD2    C2 5476   3.351   2.445  15.172 -0.5774  0.1941  0.3466
  366MPD2    C3 5477   3.405   2.327  15.212 -0.2129 -0.1093 -0.2396
  366MPD2    C4 5478   3.356   2.265  15.322  0.3057 -0.2152 -0.1090
  366MPD2    C5 5479   3.253   2.317  15.392 -0.1023 -0.2323  0.1017
  366MPD2     H 5480   3.394   2.497  15.088 -0.7666 -1.3429 -0.6941
  366MPD2    H1 5481   3.400   2.172  15.356 -1.0582 -1.4013 -1.6161
  366MPD2    H2 5482   3.141   2.493  15.427  2.2778  0.2707  2.4365
  366MPD2    H3 5483   3.204   2.255  15.466 -1.8318  1.5146  0.4166
  366MPD2     N 5484   3.526   2.286  15.153 -0.3191 -0.2340 -0.3055
  366MPD2    H5 5485   3.573   2.338  15.081  1.2875  0.2079  1.0627
  366MPD2    N1 5486   3.246   2.648  15.231  0.2036  0.3225  0.1704
  366MPD2    H7 5487   3.274   2.674  15.137  0.4409 -1.6764 -0.2952
  367TMC3    C1 5488   3.222   2.869  15.249  0.4028  0.2863  0.3142
  367TMC3    C2 5489   3.288   2.955  15.326  0.2201  0.2057  0.2486
  367TMC3    C3 5490   3.353   3.061  15.265 -0.7404  0.2098  0.6628
  367TMC3    C4 5491   3.208   2.890  15.116  0.2162 -0.1210 -0.1248
  367TMC3    C5 5492   3.265   2.999  15.059  0.0455  0.1219 -0.4263
  367TMC3    C6 5493   3.328   3.093  15.133  0.6360 -0.4309 -0.8909
  367TMC3     C 5494   3.201   2.741  15.314  0.0933 -0.5245  0.6436
  367TMC3     O 5495   3.178   2.728  15.430 -0.1294 -0.3114 -0.8365
  367TMC3     H 5496   3.293   2.930  15.432  0.2388 -0.0348  0.1916
  367TMC3    H1 5497   3.160   2.813  15.058 -1.3689 -0.1252  1.2042
  367TMC3    H2 5498   3.387   3.167  15.079  1.2049  0.2346  0.6328
  367TMC3    C7 5499   3.231   3.047  14.928 -0.1247  0.4252 -0.2396
  367TMC3    C8 5500   3.456   3.115  15.343 -0.0401 -1.0181  0.8141
  367TMC3    O1 5501   3.299   3.135  14.879  0.1134  0.9688 -0.2123
  367TMC3    O2 5502   3.489   3.039  15.428  0.0156  0.0490 -0.2365
  368MPD2     C 5503   0.533   4.274  12.867  0.2215 -0.0259  0.2598
  368MPD2    C1 5504   0.533   4.338  12.740 -0.1891  0.1028  0.2456
  368MPD2    C2 5505   0.645   4.397  12.682  0.2264 -0.5336 -0.8044
  368MPD2    C3 5506   0.766   4.394  12.750  0.1677 -0.1036 -0.3312
  368MPD2    C4 5507   0.766   4.333  12.880 -1.1615 -0.1953 -0.8980
  368MPD2    C5 5508   0.649   4.290  12.934  0.1221  0.3790 -0.3432
  368MPD2     H 5509   0.626   4.444  12.586 -0.1627 -1.1182 -1.0136
  368MPD2    H1 5510   0.855   4.328  12.942 -1.5363  1.5936 -0.1948
  368MPD2    H2 5511   0.448   4.229  12.917 -0.5423  1.3620  0.2125
  368MPD2    H3 5512   0.655   4.259  13.038  0.3601  0.5276 -0.3106
  368MPD2     N 5513   0.887   4.457  12.713  0.5201  0.1481 -0.0680
  368MPD2    H5 5514   0.971   4.455  12.770 -0.0421 -2.2920  0.6944
  368MPD2    N1 5515   0.406   4.345  12.674  0.3822  0.0609 -0.8234
  368MPD2    H7 5516   0.325   4.317  12.729  1.1001  1.3836  0.8638
  369TMC3    C1 5517   0.240   4.389  12.512 -0.2163 -0.2366  0.1540
  369TMC3    C2 5518   0.228   4.447  12.392  0.8081  0.1119  0.4311
  369TMC3    C3 5519   0.122   4.528  12.367  0.1154 -0.7181  0.3760
  369TMC3    C4 5520   0.148   4.413  12.614 -0.2072  0.4575  0.8558
  369TMC3    C5 5521   0.026   4.476  12.578 -0.1628 -0.2585  0.0509
  369TMC3    C6 5522   0.019   4.535  12.453  0.2062 -1.3123 -0.7386
  369TMC3     C 5523   0.378   4.358  12.538 -0.3072  0.3848  0.5824
  369TMC3     O 5524   0.469   4.358  12.456 -0.3475  0.0358 -0.3068
  369TMC3     H 5525   0.301   4.444  12.313 -0.5392 -1.2473 -0.7456
  369TMC3    H1 5526   0.152   4.369  12.713  1.1337 -0.6340  0.3130
  369TMC3    H2 5527   4.657   4.594  12.424 -0.7575 -2.3435 -0.0318
  369TMC3    C7 5528   4.646   4.478  12.680  0.0481 -1.0780 -0.3319
  369TMC3    C8 5529   0.137   4.646  12.278  1.0732 -0.1541  0.3427
  369TMC3    O1 5530   4.675   4.423  12.784  0.3357  0.1700 -0.1941
  369TMC3    O2 5531   0.039   4.709  12.239 -0.0438 -0.3461 -0.8102
  370TMC3    C1 5532   4.257   0.606  16.030 -0.6516 -0.4672  0.4545
  370TMC3    C2 5533   4.179   0.542  16.125 -0.5531 -0.3453  0.1220
  370TMC3    C3 5534   4.111   0.433  16.086 -0.0506  0.2755  0.0574
  370TMC3    C4 5535   4.252   0.564  15.899 -0.5711 -0.4520  0.1044
  370TMC3    C5 5536   4.188   0.446  15.870 -0.5196 -0.1914  0.5001
  370TMC3    C6 5537   4.125   0.375  15.967 -0.0962 -0.2172 -0.3419
  370TMC3     C 5538   4.302   0.739  16.065  0.3088  0.2154  0.5265
  370TMC3     O 5539   4.268   0.775  16.174  0.2741 -0.4211 -0.3359
  370TMC3     H 5540   4.182   0.576  16.228  0.0634 -0.9359  0.3012
  370TMC3    H1 5541   4.292   0.623  15.816  0.4584  0.3507  1.1707
  370TMC3    H2 5542   4.055   0.302  15.927 -1.3695  1.3891 -1.0675
  370TMC3    C7 5543   4.208   0.382  15.740 -0.0310 -0.3923  0.3130
  370TMC3    C8 5544   4.071   0.350  16.193  0.2765 -0.2045 -0.6483
  370TMC3    O1 5545   4.230   0.463  15.645  0.5235 -0.1708  0.2400
  370TMC3    O2 5546   4.053   0.232  16.170  0.0838 -0.1079  0.4570
  371TMC3    C1 5547   0.626   3.378  15.354 -0.3178  0.0276 -0.0090
  371TMC3    C2 5548   0.572   3.451  15.456 -0.2307 -0.8155  0.4576
  371TMC3    C3 5549   0.547   3.583  15.435  0.1132  0.3789  0.4746
  371TMC3    C4 5550   0.652   3.434  15.230  0.2337 -0.7325  0.2178
  371TMC3    C5 5551   0.629   3.570  15.216  0.3258 -0.1652  0.4193
  371TMC3    C6 5552   0.574   3.643  15.318 -0.1906  0.5615 -0.5125
  371TMC3     C 5553   0.677   3.250  15.381 -0.3575  0.3191  0.3813
  371TMC3     O 5554   0.771   3.219  15.311 -0.3406  0.1753  0.7667
  371TMC3     H 5555   0.553   3.406  15.553 -1.9892  1.3674  1.1392
  371TMC3    H1 5556   0.686   3.366  15.152  1.2473  0.4676 -0.3780
  371TMC3    H2 5557   0.573   3.750  15.303  1.1218  0.5935 -0.3310
  371TMC3    C7 5558   0.679   3.638  15.097  0.4868  0.1918 -1.1025
  371TMC3    C8 5559   0.553   3.662  15.557 -0.5765 -0.3004 -0.9263
  371TMC3    O1 5560   0.624   3.745  15.064 -0.2027 -0.5515 -0.1192
  371TMC3    O2 5561   0.603   3.600  15.647 -0.0164  0.0404 -0.1753
  372MPD2     C 5562   0.522   4.620  12.997 -0.4441 -0.1763  0.2858
  372MPD2    C1 5563   0.625   4.612  13.088 -0.4779  0.4746 -0.0398
  372MPD2    C2 5564   0.609   4.541  13.208 -0.0912 -0.1260  0.6633
  372MPD2    C3 5565   0.481   4.482  13.229 -0.1055  0.6061  0.3837
  372MPD2    C4 5566   0.382   4.496  13.132 -0.4450 -0.7344 -0.0535
  372MPD2    C5 5567   0.404   4.559  13.012  0.6608  0.4825 -0.0713
  372MPD2     H 5568   0.683   4.526  13.285 -0.1722  1.9845  1.1475
  372MPD2    H1 5569   0.283   4.453  13.130 -1.5722  2.0304 -3.7562
  372MPD2    H2 5570   0.524   4.682  12.907 -2.5865  1.5216  1.3872
  372MPD2    H3 5571   0.332   4.546  12.932  0.1002 -2.0313  0.8200
  372MPD2     N 5572   0.468   4.401  13.348 -0.5032  0.1644  0.3473
  372MPD2    H5 5573   0.555   4.383  13.396 -0.0349  1.0143 -0.1840
  372MPD2    N1 5574   0.757   4.681  13.062  0.0808 -0.2633  0.2326
  372MPD2    H7 5575   0.832   4.676  13.130 -0.1485  0.2361  0.5257
  373TMC3    C1 5576   0.342   4.289  13.510  1.0664 -0.5480  0.0368
  373TMC3    C2 5577   0.294   4.337  13.627  0.4736 -0.5023  0.0600
  373TMC3    C3 5578   0.316   4.265  13.745 -0.1791 -0.0219 -0.3507
  373TMC3    C4 5579   0.418   4.173  13.504  0.5178  0.6713 -0.7129
  373TMC3    C5 5580   0.445   4.111  13.625 -0.6211  0.2411 -0.2884
  373TMC3    C6 5581   0.401   4.158  13.746 -0.0454 -0.9923  0.0849
  373TMC3     C 5582   0.341   4.360  13.390 -0.0851  0.2472  1.1587
  373TMC3     O 5583   0.229   4.380  13.352  0.5767 -0.3176  0.0206
  373TMC3     H 5584   0.245   4.433  13.624  0.4490 -0.5841 -1.8579
  373TMC3    H1 5585   0.448   4.131  13.408  0.7234 -1.3279  0.2321
  373TMC3    H2 5586   0.424   4.113  13.842  0.6222 -2.2174 -0.6340
  373TMC3    C7 5587   0.546   4.001  13.620 -0.3112  0.0869  0.0601
  373TMC3    C8 5588   0.319   4.341  13.868  1.0659 -0.7193  0.0007
  373TMC3    O1 5589   0.563   3.958  13.506  0.4953 -0.1717 -0.1977
  373TMC3    O2 5590   0.418   4.312  13.940  0.1634 -0.6980 -0.2753
  374TMC3    C1 5591   1.130   4.442   9.369  0.1899 -0.0837  0.5241
  374TMC3    C2 5592   1.257   4.412   9.395  0.3287 -0.0671  0.0208
  374TMC3    C3 5593   1.305   4.451   9.515  0.5435 -0.0776  0.3704
  374TMC3    C4 5594   1.039   4.501   9.452 -0.5334 -0.2221 -0.6421
  374TMC3    C5 5595   1.102   4.557   9.562  0.0288 -0.6684 -0.0094
  374TMC3    C6 5596   1.231   4.532   9.603  0.1183  0.3614  0.3141
  374TMC3     C 5597   1.077   4.376   9.246  0.0472  0.5653  0.3307
  374TMC3     O 5598   1.145   4.288   9.196 -0.1356 -0.0105 -0.4698
  374TMC3     H 5599   1.320   4.358   9.325  1.2233 -1.2090  1.7067
  374TMC3    H1 5600   0.935   4.521   9.433  0.0362  0.2479 -3.1938
  374TMC3    H2 5601   1.267   4.570   9.698  0.1346  0.7761  0.1411
  374TMC3    C7 5602   1.017   4.619   9.665  0.4843  0.0043  0.2139
  374TMC3    C8 5603   1.445   4.428   9.541  0.3873 -0.3193  0.9759
  374TMC3    O1 5604   1.054   4.607   9.784 -0.1308 -0.7628  0.3565
  374TMC3    O2 5605   1.497   4.351   9.465  0.2619 -0.1052 -0.5581
  375MPD2     C 5606   0.834   0.634  17.250 -0.4510  0.7079  0.6511
  375MPD2    C1 5607   0.800   0.661  17.119  0.2505 -0.5383  0.1255
  375MPD2    C2 5608   0.840   0.584  17.011 -0.2183  0.1637 -0.2170
  375MPD2    C3 5609   0.928   0.475  17.034  1.0154  0.4472 -0.2301
  375MPD2    C4 5610   0.962   0.450  17.165 -1.2629  0.1231  0.8891
  375MPD2    C5 5611   0.918   0.524  17.273  0.4398 -0.2726  0.4114
  375MPD2     H 5612   0.797   0.601  16.913 -0.9504  1.3403  0.3088
  375MPD2    H1 5613   1.037   0.375  17.190 -1.0780  0.8190  2.4084
  375MPD2    H2 5614   0.800   0.680  17.342  0.4101  1.2057  0.7190
  375MPD2    H3 5615   0.948   0.499  17.375 -1.3445 -1.1889  0.7112
  375MPD2     N 5616   0.982   0.396  16.926  0.3610 -0.3952 -0.7543
  375MPD2    H5 5617   1.040   0.317  16.953 -0.1835 -0.5960 -0.1634
  375MPD2    N1 5618   0.721   0.780  17.097  0.0910 -0.0070 -0.5941
  375MPD2    H7 5619   0.702   0.786  16.997  1.2748 -0.1031 -0.8290
  376TMC3    C1 5620   1.050   0.318  16.709  0.3462 -0.1648 -0.6185
  376TMC3    C2 5621   1.186   0.323  16.720  0.1465 -0.0216 -0.4090
  376TMC3    C3 5622   1.259   0.284  16.604 -0.2185  0.1329 -0.3228
  376TMC3    C4 5623   0.989   0.272  16.594  0.3412  0.0803 -0.6092
  376TMC3    C5 5624   1.068   0.235  16.490 -0.5363  0.8096 -0.4391
  376TMC3    C6 5625   1.201   0.232  16.495  0.4773 -0.9282  0.4622
  376TMC3     C 5626   0.970   0.413  16.789 -0.9969  0.2198 -0.3811
  376TMC3     O 5627   0.886   0.475  16.726 -0.1650 -0.6227 -0.0400
  376TMC3     H 5628   1.231   0.377  16.802  1.1519 -0.1807 -0.8566
  376TMC3    H1 5629   0.881   0.268  16.583  0.3975 -0.7107 -0.8230
  376TMC3    H2 5630   1.256   0.224  16.402  0.0049 -0.9272  0.1790
  376TMC3    C7 5631   1.018   0.277  16.358  0.3912 -0.5019  0.6945
  376TMC3    C8 5632   1.388   0.335  16.580 -0.5485 -0.1582 -0.0548
  376TMC3    O1 5633   0.927   0.359  16.370 -0.2368  0.0276  0.0317
  376TMC3    O2 5634   1.436   0.345  16.467  0.0086  0.1289 -0.4581
  377MPD2     C 5635   4.070   0.085  11.971 -0.2728  0.0609 -0.0351
  377MPD2    C1 5636   4.106   4.702  12.042  0.0158 -0.6387  0.6487
  377MPD2    C2 5637   4.042   4.668  12.161  0.2531  0.3254  0.0813
  377MPD2    C3 5638   3.933   0.026  12.201 -0.2744 -0.1857 -0.3452
  377MPD2    C4 5639   3.890   0.123  12.119  0.1464 -0.2719  0.6381
  377MPD2    C5 5640   3.956   0.153  12.007 -0.7731 -0.1883  0.4783
  377MPD2     H 5641   4.069   4.578  12.215  1.6131 -0.7650 -2.3971
  377MPD2    H1 5642   3.804   0.187  12.135  0.9011  1.0556 -0.6127
  377MPD2    H2 5643   4.123   0.117  11.882  1.2084  0.1622  0.8788
  377MPD2    H3 5644   3.917   0.229  11.941 -1.1485 -1.3602 -0.6472
  377MPD2     N 5645   3.861   0.005  12.320  0.0014  0.1816 -0.1715
  377MPD2    H5 5646   3.782   0.066  12.337 -0.5863 -0.0731 -1.9506
  377MPD2    N1 5647   4.231   4.634  12.001  0.7059  0.3898  0.8416
  377MPD2    H7 5648   4.267   4.655  11.909 -1.4048  1.4894  0.2597
  378TMC3    C1 5649   4.435   4.344  11.779  0.4341 -0.0661  0.3707
  378TMC3    C2 5650   4.343   4.404  11.866 -0.4375 -0.6574 -0.1912
  378TMC3    C3 5651   4.393   4.467  11.976  0.6726  0.2139  0.0174
  378TMC3    C4 5652   4.564   4.323  11.811  0.3594 -1.2170  0.1938
  378TMC3    C5 5653   4.608   4.390  11.924 -0.0298 -0.1562 -0.2976
  378TMC3    C6 5654   4.527   4.465  12.002  0.0986 -0.0184 -0.3287
  378TMC3     C 5655   4.379   4.277  11.658  0.0465 -0.2593 -0.4393
  378TMC3     O 5656   4.455   4.223  11.578  0.0833  0.2616  0.5491
  378TMC3     H 5657   4.241   4.427  11.837 -0.6683  0.9177  1.8541
  378TMC3    H1 5658   4.623   4.256  11.750  0.2463  2.0546 -3.5182
  378TMC3    H2 5659   4.570   4.502  12.095  0.6611 -2.8011  0.5063
  378TMC3    C7 5660   0.017   4.363  11.973 -0.4667 -0.5125  1.2250
  378TMC3    C8 5661   4.304   4.536  12.065  0.1405 -0.2958  0.8745
  378TMC3    O1 5662   0.038   4.386  12.089 -0.7392  0.4690 -0.1314
  378TMC3    O2 5663   4.312   4.520  12.187 -0.4240  0.1586 -0.3391
  379MPD2     C 5664   4.555   3.395  15.929 -0.2857  0.2118 -0.5912
  379MPD2    C1 5665   4.491   3.316  16.012  0.1891 -0.6878  0.4042
  379MPD2    C2 5666   4.561   3.232  16.098 -0.5219  0.1043 -0.1959
  379MPD2    C3 5667   4.704   3.230  16.094 -0.2468 -0.1044 -0.1856
  379MPD2    C4 5668   0.042   3.324  16.010 -0.6836 -0.6335 -0.1048
  379MPD2    C5 5669   4.691   3.404  15.924 -1.3062  0.9868 -0.1078
  379MPD2     H 5670   4.512   3.158  16.160 -1.5775  0.7225 -0.2973
  379MPD2    H1 5671   0.150   3.333  16.008 -0.6648 -0.7978  0.2396
  379MPD2    H2 5672   4.504   3.468  15.867  0.0790  2.4762  1.7428
  379MPD2    H3 5673   0.024   3.461  15.852  1.2596 -0.7432  0.5527
  379MPD2     N 5674   0.061   3.150  16.179  0.1433  0.6928 -0.2338
  379MPD2    H5 5675   0.163   3.156  16.177  0.2135  0.5182  2.8075
  379MPD2    N1 5676   4.349   3.308  15.995  0.4994  0.2264 -0.2660
  379MPD2    H7 5677   4.315   3.352  15.910 -0.5560 -1.2060 -0.5697
  380TMC3    C1 5678   4.155   3.170  15.993  0.6681  0.2628  0.5611
  380TMC3    C2 5679   4.173   3.044  15.957  0.1791 -0.4617 -0.4569
  380TMC3    C3 5680   4.138   2.998  15.834  0.2430  0.2187 -0.3930
  380TMC3    C4 5681   4.095   3.265  15.914 -0.3234  0.6261 -0.3869
  380TMC3    C5 5682   4.033   3.209  15.802 -0.5357 -0.2123  0.0104
  380TMC3    C6 5683   4.067   3.087  15.751 -0.3655  0.1158 -0.2154
  380TMC3     C 5684   4.268   3.227  16.068 -0.1285  0.3922  0.2622
  380TMC3     O 5685   4.291   3.167  16.174 -0.4847 -0.5500 -0.3795
  380TMC3     H 5686   4.241   2.986  16.018 -0.3750 -0.0510  0.5567
  380TMC3    H1 5687   4.093   3.369  15.945 -1.0758  0.5087 -0.0585
  380TMC3    H2 5688   4.044   3.060  15.649  2.1759 -2.7379 -0.0278
  380TMC3    C7 5689   3.961   3.300  15.720  0.3888  0.2302  0.0266
  380TMC3    C8 5690   4.234   2.907  15.775  0.0324  0.0692 -0.1268
  380TMC3    O1 5691   3.967   3.418  15.742  0.3285  0.3217  0.4640
  380TMC3    O2 5692   4.346   2.913  15.820 -0.0948  0.3038 -0.1171
  381TMC3    C1 5693   4.071   4.286  16.057 -0.0701 -0.3172 -0.5515
  381TMC3    C2 5694   4.155   4.384  16.015 -0.3692 -0.9427  0.1435
  381TMC3    C3 5695   4.170   4.501  16.091  0.4737 -0.0483  0.6978
  381TMC3    C4 5696   4.005   4.295  16.179 -0.4119  0.4486 -0.6520
  381TMC3    C5 5697   4.038   4.401  16.253  0.0194  0.3373  0.0299
  381TMC3    C6 5698   4.111   4.515  16.216  0.0262  0.6023  0.2042
  381TMC3     C 5699   4.064   4.165  15.979  0.4205 -0.5331  0.0957
  381TMC3     O 5700   4.093   4.172  15.861 -0.0702  0.5043  0.2619
  381TMC3     H 5701   4.208   4.378  15.921 -0.8469 -3.3995  0.0257
  381TMC3    H1 5702   3.936   4.219  16.214 -1.1004  0.3469 -2.2330
  381TMC3    H2 5703   4.120   4.606  16.275  0.9573  1.1354 -0.7691
  381TMC3    C7 5704   3.994   4.394  16.389 -0.0013  0.6711  0.0992
  381TMC3    C8 5705   4.281   4.586  16.045  0.4755  0.0321 -0.4190
  381TMC3    O1 5706   4.007   4.280  16.439 -0.4655 -0.2992 -0.3906
  381TMC3    O2 5707   4.339   4.572  15.936 -0.3480  0.3402 -0.1145
  382MPD2     C 5708   3.165   1.794   0.131  0.1529 -0.0471  0.3471
  382MPD2    C1 5709   3.070   1.794   0.030 -0.7549  0.0926  0.3026
  382MPD2    C2 5710   2.985   1.683   0.021  0.3956 -0.0789 -0.2944
  382MPD2    C3 5711   2.999   1.572   0.098  0.0117 -0.1223 -0.4627
  382MPD2    C4 5712   3.107   1.573   0.187 -0.3636  0.7496 -0.4832
  382MPD2    C5 5713   3.182   1.680   0.210  0.5399  0.5062  0.1040
  382MPD2     H 5714   2.907   1.676  17.643  2.5024 -1.4928 -2.3490
  382MPD2    H1 5715   3.117   1.483   0.246  0.4473  1.2130  0.0745
  382MPD2    H2 5716   3.233   1.877   0.146 -0.1686  0.2461  0.1751
  382MPD2    H3 5717   3.263   1.666   0.281 -1.0853  2.3776  2.3384
  382MPD2     N 5718   2.923   1.452   0.072 -0.7282  0.3121 -0.1122
  382MPD2    H5 5719   2.963   1.373   0.122 -1.3706 -0.4342 -0.7791
  382MPD2    N1 5720   3.054   1.897  17.633  0.4494  0.3905 -0.0734
  382MPD2    H7 5721   2.975   1.896  17.570 -0.9404  0.6169  1.6515
  383TMC3    C1 5722   2.759   1.310  17.690  0.6992  0.8035 -0.3421
  383TMC3    C2 5723   2.688   1.287  17.574 -0.1378 -0.3986  0.1032
  383TMC3    C3 5724   2.664   1.155  17.539  0.0728  0.4021 -1.0372
  383TMC3    C4 5725   2.807   1.205   0.070 -0.5258 -0.3478 -0.1614
  383TMC3    C5 5726   2.785   1.078   0.024 -0.0351 -0.5978  0.6002
  383TMC3    C6 5727   2.709   1.047  17.612 -0.9789  0.3249 -0.8246
  383TMC3     C 5728   2.808   1.442  17.694  1.0875  0.3207 -0.5509
  383TMC3     O 5729   2.733   1.532  17.654  0.3615 -0.2004  0.0948
  383TMC3     H 5730   2.646   1.371  17.519 -0.0790 -1.1798 -1.1255
  383TMC3    H1 5731   2.866   1.230   0.158 -0.7690  0.9767 -0.3677
  383TMC3    H2 5732   2.702   0.943  17.585  1.7130  0.3853 -1.8136
  383TMC3    C7 5733   2.850   0.964   0.087  0.1457 -0.4275 -0.4226
  383TMC3    C8 5734   2.566   1.131  17.434  0.3235 -0.0822  0.4140
  383TMC3    O1 5735   2.787   0.858   0.085  0.1114 -0.1442  0.7475
  383TMC3    O2 5736   2.538   1.217  17.352  0.1872  0.1949  0.1916
  384MPD2     C 5737   0.724   2.889  11.959  0.8096  0.5493  0.3253
  384MPD2    C1 5738   0.704   2.903  12.093 -0.5199 -0.1015 -0.0301
  384MPD2    C2 5739   0.799   2.842  12.181  0.0727  0.1190  0.0739
  384MPD2    C3 5740   0.912   2.775  12.130 -0.0274  0.7509 -0.0615
  384MPD2    C4 5741   0.919   2.768  11.995  0.4840  0.0139  0.2805
  384MPD2    C5 5742   0.825   2.812  11.911  0.1476  0.8142 -0.4113
  384MPD2     H 5743   0.768   2.836  12.285  4.9061 -2.3029  1.3906
  384MPD2    H1 5744   1.005   2.715  11.955  0.6820 -0.2208  1.0166
  384MPD2    H2 5745   0.653   2.932  11.888  0.1462  2.6213  2.2334
  384MPD2    H3 5746   0.844   2.804  11.804  0.2869 -0.9635 -0.2439
  384MPD2     N 5747   1.016   2.716  12.205 -0.5827 -0.7136 -0.4647
  384MPD2    H5 5748   1.093   2.665  12.164  2.0347  2.4170  0.5877
  384MPD2    N1 5749   0.600   2.975  12.150 -0.2196 -0.1336  0.5129
  384MPD2    H7 5750   0.598   2.987  12.250 -1.6673  0.0796  0.4561
  385TMC3    C1 5751   1.107   2.642  12.409 -0.6516 -0.3381 -0.3053
  385TMC3    C2 5752   1.122   2.517  12.351  0.4029  0.0838  0.1771
  385TMC3    C3 5753   1.100   2.412  12.432 -0.0160  0.2280 -0.6527
  385TMC3    C4 5754   1.087   2.652  12.543 -0.3649 -0.0710  0.6321
  385TMC3    C5 5755   1.069   2.548  12.627 -0.2599 -0.2923  0.2973
  385TMC3    C6 5756   1.066   2.427  12.562 -0.0027 -0.5203 -0.3979
  385TMC3     C 5757   1.022   2.733  12.340 -0.6064  0.4206 -0.8676
  385TMC3     O 5758   0.953   2.806  12.414 -0.5676  0.7479 -0.4511
  385TMC3     H 5759   1.133   2.508  12.243 -2.4551 -2.3485  0.0947
  385TMC3    H1 5760   1.109   2.755  12.568 -0.2648 -0.2293  1.2113
  385TMC3    H2 5761   1.021   2.339  12.607 -3.8860  1.6758 -0.0559
  385TMC3    C7 5762   0.958   2.553  12.720  0.3393 -0.2005 -0.2208
  385TMC3    C8 5763   1.129   2.277  12.394 -0.0102  0.4224 -0.1253
  385TMC3    O1 5764   0.956   2.469  12.810 -0.1134 -0.1918  0.2588
  385TMC3    O2 5765   1.154   2.199  12.483 -0.5054 -0.6591 -0.9167
  386TMC3    C1 5766   1.258   4.508  11.516 -0.6339 -0.0926 -0.0018
  386TMC3    C2 5767   1.276   4.641  11.495  0.1902  1.1813 -0.6238
  386TMC3    C3 5768   1.180   0.006  11.535  0.8178  0.4887 -0.0957
  386TMC3    C4 5769   1.141   4.457  11.566  0.7942  0.4047  0.4663
  386TMC3    C5 5770   1.053   4.549  11.623 -0.2970 -0.0688  0.5370
  386TMC3    C6 5771   1.071   4.684  11.604  0.2721 -0.5003  0.0109
  386TMC3     C 5772   1.373   4.416  11.493 -0.7829  0.2893 -0.1970
  386TMC3     O 5773   1.456   4.453  11.411  0.3514 -0.1010  0.1318
  386TMC3     H 5774   1.376   4.664  11.459 -0.1694  1.7312 -1.2815
  386TMC3    H1 5775   1.125   4.350  11.572  1.7420  0.2122 -0.4032
  386TMC3    H2 5776   0.998   0.034  11.636  1.8822  0.6849  0.9611
  386TMC3    C7 5777   0.920   4.523  11.595 -0.8687 -0.3389  0.2771
  386TMC3    C8 5778   1.125   0.077  11.422  0.2125 -0.0558  0.3193
  386TMC3    O1 5779   0.838   4.581  11.664  0.3577 -0.3684  0.5593
  386TMC3    O2 5780   1.019   0.135  11.434 -0.2707 -0.2831  0.2637
  387MPD2     C 5781   3.479   0.161   9.853 -0.3310  0.0758  0.5378
  387MPD2    C1 5782   3.565   0.115   9.947 -0.2768  0.3668 -0.4816
  387MPD2    C2 5783   3.581   4.701   9.973 -0.0737 -0.6332 -0.6107
  387MPD2    C3 5784   3.508   4.604   9.911 -0.7901 -0.6611  0.3211
  387MPD2    C4 5785   3.430   4.647   9.806 -0.1171  0.0305  0.5482
  387MPD2    C5 5786   3.409   0.056   9.782 -0.4854  0.2614  0.1985
  387MPD2     H 5787   3.658   4.664  10.040  0.0715  0.1202 -0.3568
  387MPD2    H1 5788   3.386   4.571   9.741  1.6987 -0.4191 -0.1591
  387MPD2    H2 5789   3.462   0.260   9.813  0.5178  0.5862  1.4437
  387MPD2    H3 5790   3.349   0.089   9.698 -2.8660  2.6441  2.8490
  387MPD2     N 5791   3.541   4.471   9.935 -0.3033 -0.6994 -0.2779
  387MPD2    H5 5792   3.615   4.453  10.002  0.0720  1.5853 -0.0598
  387MPD2    N1 5793   3.657   0.196  10.015  0.1505  0.9295 -0.5543
  387MPD2    H7 5794   3.732   0.142  10.056 -0.3451 -1.0707 -2.2702
  388TMC3    C1 5795   3.830   0.342  10.005  0.3865 -0.4763  0.1131
  388TMC3    C2 5796   3.858   0.470  10.050 -0.8846  0.4594  0.0677
  388TMC3    C3 5797   3.993   0.500  10.069 -0.3019  0.2374 -0.0710
  388TMC3    C4 5798   3.925   0.248   9.990  0.6603  0.2459 -0.7943
  388TMC3    C5 5799   4.050   0.277  10.026 -0.1644 -0.2407 -0.7967
  388TMC3    C6 5800   4.089   0.408  10.043  0.1889 -0.0362  0.5046
  388TMC3     C 5801   3.687   0.323   9.972  0.0827  0.1477  0.3137
  388TMC3     O 5802   3.607   0.413   9.946 -0.4720 -0.0988 -0.0581
  388TMC3     H 5803   3.784   0.548  10.062 -2.1727 -0.5739 -1.3226
  388TMC3    H1 5804   3.897   0.154   9.943  2.8830 -1.2307  0.8603
  388TMC3    H2 5805   4.196   0.421  10.055 -0.1353  2.0426  1.0750
  388TMC3    C7 5806   4.146   0.165  10.022  0.1413 -0.9104  0.3568
  388TMC3    C8 5807   4.026   0.636  10.116 -0.0582  0.2211 -0.1030
  388TMC3    O1 5808   4.269   0.187  10.032  0.4411  0.3129  0.2391
  388TMC3    O2 5809   4.141   0.662  10.089  1.3366 -0.8250  0.4438
  389MPD2     C 5810   2.975   3.282  10.617 -0.3026 -0.2008  0.0866
  389MPD2    C1 5811   2.886   3.187  10.568  0.0565 -0.0790 -0.1457
  389MPD2    C2 5812   2.811   3.102  10.653 -0.1227  0.0378  0.9667
  389MPD2    C3 5813   2.815   3.122  10.790 -0.9903 -0.0769  0.1925
  389MPD2    C4 5814   2.909   3.204  10.840  0.1464  0.1515 -0.4083
  389MPD2    C5 5815   2.996   3.280  10.758 -0.2086 -0.2864 -0.0393
  389MPD2     H 5816   2.750   3.021  10.615  1.0973 -1.1896  1.6171
  389MPD2    H1 5817   2.936   3.210  10.945 -1.8358  0.5664  0.0749
  389MPD2    H2 5818   3.034   3.349  10.556 -1.6281 -0.0580 -1.0300
  389MPD2    H3 5819   3.079   3.336  10.799  0.1331  0.6044 -1.9188
  389MPD2     N 5820   2.744   3.037  10.876 -0.5751 -0.7316  0.2746
  389MPD2    H5 5821   2.775   3.031  10.973 -3.4620  2.7255  1.4250
  389MPD2    N1 5822   2.888   3.175  10.425  0.1424 -0.0346  0.5738
  389MPD2    H7 5823   2.949   3.232  10.368 -2.0827  0.4879 -1.2467
  390TMC3    C1 5824   2.557   2.930  10.954 -1.0216 -0.0078  0.0817
  390TMC3    C2 5825   2.435   2.864  10.927  0.2878 -0.6408  0.6054
  390TMC3    C3 5826   2.345   2.851  11.026  0.1278  0.0175 -0.0429
  390TMC3    C4 5827   2.588   2.975  11.084 -0.9435 -0.5614 -0.0396
  390TMC3    C5 5828   2.497   2.948  11.185 -0.4867  0.0746 -0.3271
  390TMC3    C6 5829   2.377   2.884  11.156 -0.3138  0.6211 -0.1519
  390TMC3     C 5830   2.625   2.983  10.844  0.8355 -0.2684 -0.1688
  390TMC3     O 5831   2.553   2.993  10.749 -0.2957 -0.2273  0.6511
  390TMC3     H 5832   2.409   2.823  10.829 -0.3718  1.7346 -0.1965
  390TMC3    H1 5833   2.679   3.033  11.100 -2.2314  2.1143 -2.2904
  390TMC3    H2 5834   2.310   2.847  11.233  3.3894 -1.5731  2.0598
  390TMC3    C7 5835   2.523   2.999  11.321  0.0396  0.1264 -0.3909
  390TMC3    C8 5836   2.207   2.827  10.996  0.6316  0.4873  0.6839
  390TMC3    O1 5837   2.639   3.032  11.334 -0.1401  0.0620  0.0617
  390TMC3    O2 5838   2.188   2.753  10.900 -0.5287 -0.0137 -0.3546
  391MPD2     C 5839   1.570   4.619  10.830  1.1588  0.7366  0.3691
  391MPD2    C1 5840   1.695   4.671  10.854  0.8548  0.7556  0.8194
  391MPD2    C2 5841   1.762   0.006  10.748  0.5345 -0.5458 -0.6332
  391MPD2    C3 5842   1.706   0.006  10.625 -0.2105 -0.6350  0.8893
  391MPD2    C4 5843   1.580   4.688  10.606 -0.0278  0.5556 -0.3359
  391MPD2    C5 5844   1.505   4.631  10.710  0.1294  0.7238 -0.2019
  391MPD2     H 5845   1.868   0.016  10.766  0.2322  3.3224 -0.9781
  391MPD2    H1 5846   1.530   4.690  10.510 -1.5548 -1.3313  0.4035
  391MPD2    H2 5847   1.521   4.562  10.908  0.6103  1.5743  0.6424
  391MPD2    H3 5848   1.406   4.590  10.700 -0.7524  2.6372  0.5394
  391MPD2     N 5849   1.785   0.058  10.518  0.3698 -0.8430  0.0168
  391MPD2    H5 5850   1.879   0.084  10.546  0.5597 -0.5513 -0.8885
  391MPD2    N1 5851   1.745   4.658  10.984 -0.2085  0.5856  0.0189
  391MPD2    H7 5852   1.695   4.601  11.051 -0.8926  2.5162  1.1505
  392TMC3    C1 5853   1.857   0.132  10.293 -0.8223 -0.0008 -0.1931
  392TMC3    C2 5854   1.849   0.081  10.165 -0.0254 -0.0255  0.0661
  392TMC3    C3 5855   1.962   0.082  10.090 -0.5246 -0.0327 -0.1666
  392TMC3    C4 5856   1.974   0.176  10.346 -0.8545 -0.3489 -0.1798
  392TMC3    C5 5857   2.087   0.175  10.266 -0.7135  0.7374 -0.4665
  392TMC3    C6 5858   2.088   0.128  10.137  0.5577 -0.1980  0.3323
  392TMC3     C 5859   1.747   0.084  10.380  0.8333  0.4505  0.0092
  392TMC3     O 5860   1.632   0.077  10.335  0.2940 -0.4241 -0.4151
  392TMC3     H 5861   1.761   0.035  10.121  2.7407 -3.2253 -2.1861
  392TMC3    H1 5862   1.991   0.219  10.444  1.6625 -0.0233 -0.7540
  392TMC3    H2 5863   2.181   0.140  10.082  1.0710 -0.0944  1.2148
  392TMC3    C7 5864   2.197   0.258  10.317 -0.2132 -1.1950 -0.3458
  392TMC3    C8 5865   1.972   4.710   9.981 -0.3917  0.1466 -0.6652
  392TMC3    O1 5866   2.219   0.259  10.437 -0.4604  0.4811  0.1272
  392TMC3    O2 5867   2.079   4.651   9.975  0.0003  0.4888  0.4318
  393TMC3    C1 5868   1.273   2.926  10.116  0.1807  0.7435 -0.0076
  393TMC3    C2 5869   1.181   2.922  10.208 -0.1444  0.6941  0.3232
  393TMC3    C3 5870   1.219   2.921  10.337  0.7098 -0.8703  0.4565
  393TMC3    C4 5871   1.405   2.922  10.144 -0.0665  0.1459 -0.0935
  393TMC3    C5 5872   1.445   2.905  10.276 -0.2581 -0.2322 -0.2222
  393TMC3    C6 5873   1.350   2.911  10.376  0.8105 -0.2692  0.3247
  393TMC3     C 5874   1.231   2.932   9.980 -0.0548  0.4489 -0.4167
  393TMC3     O 5875   1.121   2.982   9.962 -0.1829  0.0849 -0.1730
  393TMC3     H 5876   1.074   2.929  10.190 -0.4884 -1.3509  1.5461
  393TMC3    H1 5877   1.483   2.927  10.070  0.4149  1.3925  0.5000
  393TMC3    H2 5878   1.382   2.884  10.476 -1.3521  0.0398  1.0883
  393TMC3    C7 5879   1.577   2.862  10.307 -0.0259 -0.1484  0.2536
  393TMC3    C8 5880   1.130   2.891  10.445  0.3605 -0.0298 -0.2149
  393TMC3    O1 5881   1.620   2.907  10.415  0.8885 -0.1430 -0.1691
  393TMC3    O2 5882   1.040   2.811  10.420 -0.0955  0.0574  0.9461
  394TMC3    C1 5883   2.836   3.095  10.201  0.2918  0.3257  0.8131
  394TMC3    C2 5884   2.732   3.076  10.110  0.1511 -0.5023  0.4137
  394TMC3    C3 5885   2.762   3.088   9.978 -0.4643 -0.1504 -0.0143
  394TMC3    C4 5886   2.964   3.117  10.164 -0.1033 -0.2261 -0.0101
  394TMC3    C5 5887   2.984   3.133  10.030  0.0768 -0.0006  0.2619
  394TMC3    C6 5888   2.886   3.124   9.936 -0.0753 -0.3515 -0.0724
  394TMC3     C 5889   2.806   3.094  10.347 -0.1163 -0.3379  0.0872
  394TMC3     O 5890   2.716   3.015  10.378 -0.5211  0.2458 -0.7166
  394TMC3     H 5891   2.637   3.047  10.152 -1.1483  3.6962  0.3481
  394TMC3    H1 5892   3.039   3.142  10.239  0.7043  0.2917 -0.9900
  394TMC3    H2 5893   2.905   3.144   9.831  1.2954 -1.1275  0.0313
  394TMC3    C7 5894   3.120   3.168  10.003 -0.3222  0.1493 -0.3724
  394TMC3    C8 5895   2.697   2.984   9.897 -0.1343  0.3155  0.1343
  394TMC3    O1 5896   3.157   3.262   9.938  0.2541 -0.3077  0.8199
  394TMC3    O2 5897   2.700   2.985   9.775 -0.8082 -0.5121  0.5339
  395TMC3    C1 5898   2.243   0.311  15.186 -0.0289 -0.8660  0.1872
  395TMC3    C2 5899   2.265   0.238  15.072 -0.0663  0.4420  0.0822
  395TMC3    C3 5900   2.241   0.306  14.951 -0.2108 -0.2204  0.1151
  395TMC3    C4 5901   2.224   0.445  15.187 -0.3671 -0.1964 -0.2149
  395TMC3    C5 5902   2.205   0.504  15.068  0.4631  0.8502  0.3038
  395TMC3    C6 5903   2.212   0.434  14.946 -0.0662  0.5123  0.0496
  395TMC3     C 5904   2.232   0.231  15.307 -0.2440  0.1491  0.3645
  395TMC3     O 5905   2.272   0.117  15.294 -0.1051 -0.2971  0.0472
  395TMC3     H 5906   2.291   0.133  15.081 -0.2488  0.3480 -0.5441
  395TMC3    H1 5907   2.245   0.508  15.273 -3.6975 -1.0729  1.2389
  395TMC3    H2 5908   2.207   0.489  14.852 -1.2508 -0.2891 -0.3575
  395TMC3    C7 5909   2.241   0.648  15.065 -0.0168  0.7805  0.0724
  395TMC3    C8 5910   2.306   0.246  14.834 -0.0245  0.0079 -0.0047
  395TMC3    O1 5911   2.289   0.699  15.163 -0.8642 -0.3228 -0.1022
  395TMC3    O2 5912   2.397   0.168  14.856  0.3101  0.1433 -0.4334
  396MPD2     C 5913   1.413   1.595  16.650  0.1266 -0.3633 -0.0616
  396MPD2    C1 5914   1.520   1.616  16.735 -0.6725 -0.5999  0.0303
  396MPD2    C2 5915   1.629   1.700  16.703  0.0699  0.4558  0.1674
  396MPD2    C3 5916   1.627   1.768  16.581  0.4268 -0.5387 -0.3874
  396MPD2    C4 5917   1.512   1.746  16.501 -0.1316 -0.8748 -0.0819
  396MPD2    C5 5918   1.413   1.658  16.531 -0.5793  0.1388  0.1989
  396MPD2     H 5919   1.721   1.714  16.758 -1.1354  1.6710  1.8611
  396MPD2    H1 5920   1.498   1.803  16.410 -2.2064 -1.7158 -0.2992
  396MPD2    H2 5921   1.329   1.528  16.663  0.4495 -0.7528  0.0187
  396MPD2    H3 5922   1.328   1.652  16.464 -0.3967  2.9656 -0.2471
  396MPD2     N 5923   1.734   1.848  16.541  0.8796 -0.0852  0.5807
  396MPD2    H5 5924   1.809   1.865  16.608  2.4933 -0.1933 -1.1939
  396MPD2    N1 5925   1.528   1.534  16.846  0.0533  0.1401 -0.4070
  396MPD2    H7 5926   1.453   1.465  16.840 -1.9693  2.4964 -2.1956
  397TMC3    C1 5927   1.593   1.428  17.050 -0.2678  0.0606 -0.1741
  397TMC3    C2 5928   1.708   1.409  17.123 -0.1163  0.0653  0.4616
  397TMC3    C3 5929   1.739   1.279  17.147  0.7738 -0.0845 -0.0884
  397TMC3    C4 5930   1.508   1.326  17.009  0.1763 -0.0373  0.1501
  397TMC3    C5 5931   1.536   1.195  17.055 -0.6130  0.0062  0.4971
  397TMC3    C6 5932   1.653   1.174  17.125  0.4230  0.0694 -0.0006
  397TMC3     C 5933   1.610   1.536  16.955 -0.2522  0.4635 -0.8721
  397TMC3     O 5934   1.681   1.629  16.981 -0.7066  0.3953 -0.0762
  397TMC3     H 5935   1.779   1.491  17.127 -0.3256  0.2119  1.1242
  397TMC3    H1 5936   1.415   1.347  16.955 -1.2313 -1.6417  1.9519
  397TMC3    H2 5937   1.685   1.072  17.141  1.2425  0.6732  2.1623
  397TMC3    C7 5938   1.430   1.105  17.074  0.6694 -0.3315 -0.6341
  397TMC3    C8 5939   1.863   1.251  17.221 -0.0290 -0.1914  0.0560
  397TMC3    O1 5940   1.343   1.109  16.986  0.5759 -0.2777 -0.5265
  397TMC3    O2 5941   1.859   1.166  17.310 -0.4644 -0.2142  0.2214
  398MPD2     C 5942   0.410   2.298   0.455  0.3521 -0.9440  0.0080
  398MPD2    C1 5943   0.280   2.257   0.439 -0.0570 -0.0113 -0.8259
  398MPD2    C2 5944   0.182   2.353   0.425 -0.1151 -0.1382 -0.2269
  398MPD2    C3 5945   0.212   2.483   0.409  0.1591  0.3624  0.4588
  398MPD2    C4 5946   0.344   2.524   0.433  0.2954  0.2108 -0.3911
  398MPD2    C5 5947   0.438   2.429   0.458 -0.1958  0.4029 -0.9111
  398MPD2     H 5948   0.085   2.318   0.391  0.0174 -0.5630 -0.1695
  398MPD2    H1 5949   0.375   2.628   0.425 -1.6171  0.7715 -0.7100
  398MPD2    H2 5950   0.491   2.227   0.466  0.9964 -0.1043  0.6686
  398MPD2    H3 5951   0.539   2.457   0.487 -0.3735  0.7696 -0.6390
  398MPD2     N 5952   0.116   2.569   0.347  0.3729  0.1447 -0.3993
  398MPD2    H5 5953   0.034   2.530   0.302 -1.9505  2.5220  1.8132
  398MPD2    N1 5954   0.241   2.117   0.430  0.1310  0.0575 -0.5565
  398MPD2    H7 5955   0.142   2.105   0.415  0.5226 -0.4671 -2.8058
  399TMC3    C1 5956   0.270   1.893   0.382  0.2912  0.9989  0.1705
  399TMC3    C2 5957   0.364   1.802   0.354 -0.0919 -0.3723  0.6463
  399TMC3    C3 5958   0.326   1.706   0.271 -0.3399 -0.1232  0.4047
  399TMC3    C4 5959   0.156   1.897   0.316 -0.1180  0.5575 -0.4753
  399TMC3    C5 5960   0.134   1.803   0.216 -0.3712 -0.4443 -0.8320
  399TMC3    C6 5961   0.217   1.699   0.192 -0.3506  0.0919  0.0864
  399TMC3     C 5962   0.324   2.014   0.438 -0.4198  0.1825  0.1068
  399TMC3     O 5963   0.442   2.009   0.466  0.6447 -0.1265 -0.0494
  399TMC3     H 5964   0.462   1.795   0.401  0.5158  1.9755 -0.2726
  399TMC3    H1 5965   0.084   1.975   0.340 -0.1901 -0.0289  1.2683
  399TMC3    H2 5966   0.192   1.620   0.123  3.6614  1.5444 -3.1030
  399TMC3    C7 5967   0.004   1.794   0.157  0.7141 -0.8373  0.3504
  399TMC3    C8 5968   0.403   1.579   0.288 -0.3211  0.4085 -0.3983
  399TMC3    O1 5969   4.675   1.687   0.131  0.2336  0.3709  0.0309
  399TMC3    O2 5970   0.523   1.596   0.295  0.0386  0.0286  0.1711
  400TMC3    C1 5971   2.902   0.848  17.310  0.4837 -0.0224 -0.1131
  400TMC3    C2 5972   2.790   0.868  17.225  0.0652  0.3720  0.2757
  400TMC3    C3 5973   2.792   0.983  17.152  0.0283 -0.1373 -0.6331
  400TMC3    C4 5974   3.000   0.946  17.322 -0.5994  0.0139  0.0877
  400TMC3    C5 5975   2.985   1.068  17.259 -0.8233 -0.2368  0.3590
  400TMC3    C6 5976   2.885   1.090  17.165  0.5612  1.0937 -0.1083
  400TMC3     C 5977   2.897   0.747  17.417  0.2313 -0.2588  0.0596
  400TMC3     O 5978   2.790   0.688  17.439  0.1210  0.9861  0.1384
  400TMC3     H 5979   2.710   0.795  17.227 -2.8945  3.5972 -2.7057
  400TMC3    H1 5980   3.082   0.938  17.392  0.4062  0.6225 -1.0285
  400TMC3    H2 5981   2.889   1.166  17.088 -1.6486  0.0897 -1.1923
  400TMC3    C7 5982   3.025   1.189  17.329  0.0139 -0.3190 -0.0959
  400TMC3    C8 5983   2.698   1.011  17.041  0.2348  0.3939 -0.2276
  400TMC3    O1 5984   3.107   1.176  17.422  0.0745 -0.2847 -0.4618
  400TMC3    O2 5985   2.683   1.129  17.010  0.1993  0.2773  0.5919
  401MPD2     C 5986   1.436   4.192   0.086  0.1482 -0.0892 -0.2875
  401MPD2    C1 5987   1.468   4.087   0.174  0.7374 -0.0280 -0.2606
  401MPD2    C2 5988   1.474   3.961   0.122 -0.5535 -0.8163 -0.4299
  401MPD2    C3 5989   1.427   3.930  17.695  0.3095  0.4754 -0.3294
  401MPD2    C4 5990   1.400   4.032  17.610 -0.1172 -0.2257  0.4422
  401MPD2    C5 5991   1.423   4.162  17.648 -0.0323 -0.3047 -0.0288
  401MPD2     H 5992   1.508   3.872   0.175 -1.1524 -0.7419  0.0732
  401MPD2    H1 5993   1.388   4.006  17.506  0.1978 -0.5767  0.4923
  401MPD2    H2 5994   1.444   4.297   0.113 -0.9250 -0.0046 -0.3207
  401MPD2    H3 5995   1.403   4.236  17.571  0.4672 -1.6882 -1.4869
  401MPD2     N 5996   1.419   3.790  17.662 -0.7317  0.7617  0.4019
  401MPD2    H5 5997   1.461   3.724   0.029  0.7732  2.6242  1.3099
  401MPD2    N1 5998   1.487   4.102   0.315 -0.2710  0.1363 -0.0983
  401MPD2    H7 5999   1.509   4.016   0.365  0.4918 -0.0727 -0.8002
  402TMC3    C1 6000   1.377   3.586  17.564  0.2696 -0.2420  1.0447
  402TMC3    C2 6001   1.289   3.531  17.647 -0.4445  0.1011 -0.6145
  402TMC3    C3 6002   1.319   3.412   0.008 -0.7438 -0.7125  0.8449
  402TMC3    C4 6003   1.496   3.527  17.531 -0.0488 -0.0482 -0.1026
  402TMC3    C5 6004   1.514   3.404  17.575 -0.3255  0.4041 -0.5925
  402TMC3    C6 6005   1.427   3.347  17.659  0.6415 -0.0355  0.4046
  402TMC3     C 6006   1.357   3.732  17.551  0.9790 -0.0939 -0.1134
  402TMC3     O 6007   1.292   3.778  17.461  0.3769  0.2828  0.8415
  402TMC3     H 6008   1.194   3.581  17.667 -0.1510  1.0177 -1.5036
  402TMC3    H1 6009   1.570   3.568  17.463  1.1708 -0.6305  0.8776
  402TMC3    H2 6010   1.440   3.250   0.010 -0.7826  0.0026  0.8736
  402TMC3    C7 6011   1.642   3.342  17.578 -0.3977 -0.6757 -0.5100
  402TMC3    C8 6012   1.329   3.418   0.152  0.5579 -0.0872  0.5310
  402TMC3    O1 6013   1.658   3.221  17.566 -0.3723  0.3841 -0.1589
  402TMC3    O2 6014   1.394   3.331   0.211 -0.0719 -0.1264  0.3090
  403MPD2     C 6015   0.145   3.247  13.420 -0.3618  0.0659  0.1051
  403MPD2    C1 6016   0.180   3.118  13.465  0.3472  0.7284  0.5569
  403MPD2    C2 6017   0.269   3.112  13.567  0.1547 -0.3015  0.1697
  403MPD2    C3 6018   0.307   3.219  13.643  0.4470 -0.2643 -0.5913
  403MPD2    C4 6019   0.266   3.346  13.609 -1.2351 -0.2722 -0.4350
  403MPD2    C5 6020   0.183   3.354  13.495  0.4855 -0.4390 -0.0413
  403MPD2     H 6021   0.301   3.016  13.607 -1.6779 -1.1588 -0.4235
  403MPD2    H1 6022   0.296   3.434  13.664 -1.0253  0.6570 -2.0355
  403MPD2    H2 6023   0.080   3.257  13.334  0.1016  1.4803 -0.0705
  403MPD2    H3 6024   0.151   3.451  13.460  0.4735  0.6251  2.9491
  403MPD2     N 6025   0.389   3.184  13.757 -0.5732  0.2507  0.0236
  403MPD2    H5 6026   0.426   3.090  13.745  2.6912  1.8693 -2.3533
  403MPD2    N1 6027   0.113   3.004  13.411  0.2295  0.6657  0.5014
  403MPD2    H7 6028   0.056   3.011  13.327 -1.6631 -1.5248  1.5922
  404TMC3    C1 6029   0.042   2.781  13.409 -0.2454 -0.1591  0.2920
  404TMC3    C2 6030   0.038   2.660  13.478 -0.1278  0.7668  0.4546
  404TMC3    C3 6031   0.052   2.546  13.409 -0.1693  0.2293  0.4068
  404TMC3    C4 6032   0.058   2.789  13.274 -0.0991 -0.1802 -0.2651
  404TMC3    C5 6033   0.076   2.669  13.212  0.0919  0.1841  0.0406
  404TMC3    C6 6034   0.085   2.542  13.275 -0.2706 -0.4046 -0.0204
  404TMC3     C 6035   0.117   2.881  13.475  0.0010  0.2137  0.1938
  404TMC3     O 6036   0.176   2.845  13.574 -0.1512 -0.2899  0.0728
  404TMC3     H 6037   0.043   2.665  13.587  0.5044  0.3890  0.4443
  404TMC3    H1 6038   0.078   2.878  13.217  1.4471 -1.0701 -1.0983
  404TMC3    H2 6039   0.094   2.445  13.227 -1.4053  0.1880 -1.4416
  404TMC3    C7 6040   0.115   2.671  13.070  0.0912 -0.0652  0.2278
  404TMC3    C8 6041   0.100   2.426  13.484  0.0580  0.2798  0.0706
  404TMC3    O1 6042   0.174   2.770  13.029 -0.1318  0.2182 -0.5241
  404TMC3    O2 6043   0.175   2.347  13.433 -0.4095 -0.0512  0.1680
  405MPD2     C 6044   0.204   3.655  14.374  0.4126 -0.1562  1.0260
  405MPD2    C1 6045   0.263   3.540  14.322 -0.1764 -0.7274 -0.1228
  405MPD2    C2 6046   0.239   3.505  14.192 -0.0520  0.4370  0.6869
  405MPD2    C3 6047   0.144   3.573  14.114 -0.1929 -0.4360 -0.6403
  405MPD2    C4 6048   0.079   3.682  14.170  0.5005  0.5669  0.2694
  405MPD2    C5 6049   0.113   3.727  14.297  0.2887 -0.1966 -0.4980
  405MPD2     H 6050   0.286   3.420  14.145 -0.1381  0.0256  1.3348
  405MPD2    H1 6051   0.005   3.744  14.121 -0.4762 -0.5386  0.3408
  405MPD2    H2 6052   0.214   3.688  14.477  1.5387 -3.5459  2.0157
  405MPD2    H3 6053   0.062   3.816  14.333 -1.0803 -0.9901 -0.5120
  405MPD2     N 6054   0.120   3.523  13.983 -0.2834  0.5923  0.6375
  405MPD2    H5 6055   0.186   3.454  13.949 -0.6415  2.2541 -3.4731
  405MPD2    N1 6056   0.349   3.457  14.402  0.0397  0.0852  0.7224
  405MPD2    H7 6057   0.371   3.494  14.494 -0.4784 -0.7698  1.1903
  406TMC3    C1 6058   4.516   3.364  13.691 -0.0660  0.0205 -0.5376
  406TMC3    C2 6059   4.554   3.236  13.724  0.1353  0.2598 -0.2509
  406TMC3    C3 6060   4.670   3.218  13.786 -1.4451  0.2437 -0.2878
  406TMC3    C4 6061   4.586   3.472  13.742  0.7043  0.3955 -0.0897
  406TMC3    C5 6062   4.696   3.451  13.819 -0.0570 -0.1865 -0.3680
  406TMC3    C6 6063   0.022   3.328  13.833 -0.1523 -0.8997 -0.6717
  406TMC3     C 6064   4.379   3.395  13.688 -0.5290 -0.4185  0.7665
  406TMC3     O 6065   4.334   3.447  13.591  0.9953 -0.1083 -0.1669
  406TMC3     H 6066   4.488   3.153  13.701 -0.5234  0.8245 -0.4078
  406TMC3    H1 6067   4.561   3.570  13.702 -1.0668 -0.4224 -1.0171
  406TMC3    H2 6068   0.109   3.311  13.894 -0.2816  1.7881  0.2509
  406TMC3    C7 6069   0.004   3.550  13.916  0.3479  1.0847  0.1253
  406TMC3    C8 6070   4.700   3.089  13.843 -0.3044  0.7945  0.5310
  406TMC3    O1 6071   4.646   3.638  13.931 -0.0436  0.0958  0.2095
  406TMC3    O2 6072   4.647   2.993  13.796  0.0773 -0.0100 -0.1931
  407MPD2     C 6073   2.727   4.498   9.506 -0.2040 -0.4291 -0.2084
  407MPD2    C1 6074   2.853   4.512   9.536 -0.2737 -0.8469  0.1776
  407MPD2    C2 6075   2.889   4.603   9.629  0.5511 -0.0617 -0.8647
  407MPD2    C3 6076   2.806   4.687   9.695 -0.1719  0.3126 -0.6188
  407MPD2    C4 6077   2.672   4.678   9.656 -0.0679 -0.0805  0.0774
  407MPD2    C5 6078   2.630   4.584   9.568 -0.4052 -0.0970 -0.1463
  407MPD2     H 6079   2.996   4.609   9.647  0.0027  1.5960  1.8741
  407MPD2    H1 6080   2.599   0.016   9.709  0.2232  0.2518  0.0904
  407MPD2    H2 6081   2.702   4.418   9.438  0.0412 -1.1693  0.5662
  407MPD2    H3 6082   2.526   4.583   9.539  0.5308 -0.2408 -3.5228
  407MPD2     N 6083   2.845   0.059   9.793  0.6033  0.3708  0.0660
  407MPD2    H5 6084   2.771   0.111   9.839  2.1879  0.6687  2.2526
  407MPD2    N1 6085   2.949   4.439   9.465 -0.7176  0.2452  0.1771
  407MPD2    H7 6086   3.045   4.445   9.498 -0.5234 -1.2323 -0.1231
  408TMC3    C1 6087   3.058   4.293   9.332  0.2305  0.2393  0.2387
  408TMC3    C2 6088   3.180   4.321   9.392  0.2524 -0.4050 -0.4491
  408TMC3    C3 6089   3.289   4.256   9.359  0.5935  0.3247 -0.3835
  408TMC3    C4 6090   3.052   4.189   9.244  0.3196 -0.3363 -0.5724
  408TMC3    C5 6091   3.164   4.110   9.222 -0.3169  0.3543 -0.1061
  408TMC3    C6 6092   3.282   4.142   9.279  0.3282 -0.0118  0.1628
  408TMC3     C 6093   2.935   4.365   9.359 -0.7599  0.1779  0.3881
  408TMC3     O 6094   2.837   4.348   9.291  0.1897  0.4908  0.4776
  408TMC3     H 6095   3.199   4.409   9.453 -0.1956 -0.2957 -0.4673
  408TMC3    H1 6096   2.956   4.181   9.193 -1.3590 -0.6486  2.6645
  408TMC3    H2 6097   3.372   4.086   9.256 -0.3142 -0.7156 -0.6012
  408TMC3    C7 6098   3.160   4.005   9.124 -0.5239  0.0518  0.3447
  408TMC3    C8 6099   3.417   4.292   9.414  0.3132  0.5901 -0.5270
  408TMC3    O1 6100   3.271   3.980   9.079 -0.0410 -0.1580  0.5782
  408TMC3    O2 6101   3.491   4.192   9.425 -0.2594 -0.3218 -0.2039
  409MPD2     C 6102   1.314   0.680  16.902  0.0055  0.5366  0.4053
  409MPD2    C1 6103   1.421   0.666  16.994 -0.1615  0.2872 -0.4429
  409MPD2    C2 6104   1.544   0.718  16.966  0.2900 -0.3041  0.5102
  409MPD2    C3 6105   1.566   0.795  16.856 -0.0692  0.0650  0.5920
  409MPD2    C4 6106   1.469   0.813  16.767  0.3522  0.7957 -0.1856
  409MPD2    C5 6107   1.345   0.752  16.790  0.3520  0.1738  0.3050
  409MPD2     H 6108   1.627   0.708  17.034  1.1620  0.0177 -0.4981
  409MPD2    H1 6109   1.480   0.876  16.680 -0.1631  0.2543 -0.6384
  409MPD2    H2 6110   1.217   0.632  16.910 -0.2626  0.6428 -1.9961
  409MPD2    H3 6111   1.281   0.765  16.704  1.3828 -0.0077 -0.4970
  409MPD2     N 6112   1.690   0.861  16.838 -0.3332  0.3147 -0.2056
  409MPD2    H5 6113   1.706   0.908  16.749 -2.1382 -0.0775 -0.7300
  409MPD2    N1 6114   1.420   0.578  17.106  0.0786  0.3675 -0.0725
  409MPD2    H7 6115   1.485   0.607  17.179 -0.3589 -0.9381  0.8234
  410TMC3    C1 6116   1.910   0.958  16.880 -0.4550  0.1408  0.5211
  410TMC3    C2 6117   2.006   0.989  16.977  0.3040  0.0670  0.2569
  410TMC3    C3 6118   2.106   1.069  16.929  0.0694 -1.0436 -0.1370
  410TMC3    C4 6119   1.917   0.994  16.750 -0.4173 -0.1641  0.3264
  410TMC3    C5 6120   2.017   1.084  16.716 -0.2780 -0.5501 -0.3975
  410TMC3    C6 6121   2.113   1.121  16.800  0.4747  0.1676  0.2045
  410TMC3     C 6122   1.791   0.884  16.937  1.1767  0.0401  0.4594
  410TMC3     O 6123   1.792   0.864  17.058 -0.1654 -0.5598  0.4385
  410TMC3     H 6124   1.995   0.960  17.081 -1.6807 -2.9805 -0.7899
  410TMC3    H1 6125   1.849   0.963  16.671 -1.1545 -3.1486  2.1436
  410TMC3    H2 6126   2.199   1.181  16.772 -0.0374  1.3298  1.1004
  410TMC3    C7 6127   2.018   1.134  16.573 -0.0433 -0.2745  0.6800
  410TMC3    C8 6128   2.226   1.057  17.006 -0.6587  0.5643 -0.2752
  410TMC3    O1 6129   1.927   1.094  16.506 -0.0837  0.5820  0.1110
  410TMC3    O2 6130   2.289   1.161  17.033  0.0959 -0.4325 -0.4396
  411MPD2     C 6131   2.326   1.119  14.471 -0.4858  0.3628  1.5738
  411MPD2    C1 6132   2.228   1.193  14.407  0.1332  0.7270 -0.8943
  411MPD2    C2 6133   2.147   1.136  14.313  0.3060 -0.1547  0.1502
  411MPD2    C3 6134   2.169   1.001  14.283  0.1660 -0.0170 -0.2402
  411MPD2    C4 6135   2.260   0.927  14.354 -0.7307  0.0435 -0.2516
  411MPD2    C5 6136   2.336   0.983  14.453  0.2531 -0.3312  0.0035
  411MPD2     H 6137   2.050   1.179  14.293  1.2717  1.3818 -1.1332
  411MPD2    H1 6138   2.281   0.824  14.328 -0.2146 -0.6938  3.0040
  411MPD2    H2 6139   2.383   1.174  14.545 -0.3109  0.6470  1.2243
  411MPD2    H3 6140   2.415   0.927  14.502  1.7273  1.5994 -0.1601
  411MPD2     N 6141   2.087   0.937  14.188  0.5157  0.1710  0.3595
  411MPD2    H5 6142   2.116   0.840  14.177  0.3002  0.0778  0.6112
  411MPD2    N1 6143   2.226   1.330  14.434 -0.6344  0.3584  0.4304
  411MPD2    H7 6144   2.288   1.364  14.507  0.5728  0.3047 -0.5601
  412TMC3    C1 6145   1.964   0.888  13.999  0.0435  0.1437  0.7979
  412TMC3    C2 6146   1.856   0.909  13.926  0.1881 -0.6303  0.0420
  412TMC3    C3 6147   1.856   0.887  13.797  0.1055  0.0524 -1.1279
  412TMC3    C4 6148   2.069   0.817  13.945 -0.2681 -0.1920  0.2637
  412TMC3    C5 6149   2.069   0.800  13.812 -0.1896  1.2138  0.5197
  412TMC3    C6 6150   1.959   0.830  13.735  1.0642  0.5195  0.1243
  412TMC3     C 6151   1.992   0.987  14.104 -0.1477  0.3109 -0.1829
  412TMC3     O 6152   1.952   1.098  14.092 -0.0968  0.2534 -0.0769
  412TMC3     H 6153   1.768   0.952  13.973  0.6085 -0.9929  1.1681
  412TMC3    H1 6154   2.164   0.808  13.997 -0.0614  0.8117  0.0800
  412TMC3    H2 6155   1.965   0.828  13.627  1.8257 -0.4300  0.1860
  412TMC3    C7 6156   2.174   0.876  13.749 -0.1113  0.1546 -0.0624
  412TMC3    C8 6157   1.791   0.994  13.724  0.1614  0.2390  0.1299
  412TMC3    O1 6158   2.138   0.982  13.703 -0.9749 -0.1505  0.8578
  412TMC3    O2 6159   1.673   1.028  13.735 -0.0460 -0.3759  0.1672
  413MPD2     C 6160   4.039   4.606  15.510 -0.0803 -0.7444  0.2614
  413MPD2    C1 6161   4.056   4.599  15.375 -0.6847  0.0062  1.0631
  413MPD2    C2 6162   4.159   4.519  15.322  0.1358 -0.0464  0.1250
  413MPD2    C3 6163   4.239   4.436  15.407  0.3918 -0.3262  0.5047
  413MPD2    C4 6164   4.216   4.452  15.544 -0.0182  0.1687  0.4486
  413MPD2    C5 6165   4.119   4.540  15.594 -0.2820  0.9819 -0.2110
  413MPD2     H 6166   4.164   4.503  15.215  1.8960  2.1203 -0.1169
  413MPD2    H1 6167   4.275   4.397  15.617 -0.2410  0.2986  0.7275
  413MPD2    H2 6168   3.967   4.674  15.554  0.8298  0.1307  0.3974
  413MPD2    H3 6169   4.091   4.553  15.697  0.0649  0.8762 -0.1025
  413MPD2     N 6170   4.316   4.335  15.350 -0.0126  0.6273 -0.0447
  413MPD2    H5 6171   4.326   4.342  15.250  1.2397 -2.0435 -0.0991
  413MPD2    N1 6172   3.973   4.677  15.295  0.3590 -0.7727 -0.2285
  413MPD2    H7 6173   3.908   0.016  15.343  0.9952 -0.0326 -0.3427
  414TMC3    C1 6174   4.440   4.130  15.319 -0.5707  0.0655  0.4871
  414TMC3    C2 6175   4.479   4.013  15.383  0.1100 -0.1951 -0.1573
  414TMC3    C3 6176   4.513   3.903  15.310  0.7956 -0.6420 -0.1223
  414TMC3    C4 6177   4.428   4.138  15.183  0.0858 -0.6206  0.3446
  414TMC3    C5 6178   4.455   4.023  15.118 -0.3042  0.8746  0.3605
  414TMC3    C6 6179   4.493   3.906  15.178 -0.2889  0.5850 -0.1531
  414TMC3     C 6180   4.385   4.232  15.412  0.4049  1.0605 -0.0879
  414TMC3     O 6181   4.393   4.198  15.530 -0.7088 -0.0879  0.0629
  414TMC3     H 6182   4.493   4.005  15.490  1.5285  3.3966 -0.0630
  414TMC3    H1 6183   4.396   4.229  15.133  1.7829 -1.2697 -1.9405
  414TMC3    H2 6184   4.524   3.827  15.111  0.2967 -0.8836  1.8356
  414TMC3    C7 6185   4.490   4.024  14.972 -0.1210 -0.1276  0.6033
  414TMC3    C8 6186   4.571   3.785  15.361  0.2088 -0.5464  0.0154
  414TMC3    O1 6187   4.570   3.940  14.934 -0.5945  0.7361 -0.6378
  414TMC3    O2 6188   4.561   3.683  15.295 -0.0723 -0.0844 -0.4156
  415TMC3    C1 6189   0.527   2.047   9.880  0.0960  0.2608  0.3703
  415TMC3    C2 6190   0.625   2.029   9.778  0.2889 -0.2625 -0.0113
  415TMC3    C3 6191   0.596   1.929   9.686 -0.4181 -0.1763  0.5016
  415TMC3    C4 6192   0.419   1.968   9.888  0.3064  1.0271  0.4411
  415TMC3    C5 6193   0.398   1.867   9.798 -0.0553  0.6313  0.3078
  415TMC3    C6 6194   0.482   1.854   9.691  0.2752 -0.1536  0.4057
  415TMC3     C 6195   0.557   2.152   9.982  0.0560 -0.7547 -0.1967
  415TMC3     O 6196   0.660   2.218   9.963  0.3807 -0.3109  0.0711
  415TMC3     H 6197   0.705   2.101   9.770 -0.3769  0.4059 -0.7636
  415TMC3    H1 6198   0.345   1.997   9.961 -1.1476  0.8982 -0.9845
  415TMC3    H2 6199   0.466   1.776   9.617 -2.8660 -0.1275  1.0739
  415TMC3    C7 6200   0.282   1.779   9.806 -0.4531  0.1961 -0.1310
  415TMC3    C8 6201   0.698   1.898   9.592 -0.0554 -0.3878  0.0329
  415TMC3    O1 6202   0.263   1.703   9.709  0.3464  0.0437  0.0200
  415TMC3    O2 6203   0.713   1.780   9.549 -0.4953  0.1498  0.7900
  416MPD2     C 6204   2.271   1.598  11.058  0.0303  0.2762  0.0371
  416MPD2    C1 6205   2.173   1.528  11.124  0.4600  0.2645 -0.4089
  416MPD2    C2 6206   2.156   1.388  11.102 -0.8016 -0.2676  0.4386
  416MPD2    C3 6207   2.227   1.324  10.996 -0.3102  0.1655  0.6717
  416MPD2    C4 6208   2.317   1.407  10.927 -0.7592  1.1652 -0.2651
  416MPD2    C5 6209   2.341   1.537  10.958  0.1678 -0.0831 -0.6013
  416MPD2     H 6210   2.087   1.321  11.153  0.8126 -0.3255  2.5551
  416MPD2    H1 6211   2.345   1.370  10.829  2.0469  1.0570  0.5767
  416MPD2    H2 6212   2.273   1.706  11.067 -0.9213  0.1029  2.3838
  416MPD2    H3 6213   2.398   1.603  10.894  1.2644 -0.8966 -0.4582
  416MPD2     N 6214   2.189   1.190  10.959 -0.1837  0.2423 -1.4653
  416MPD2    H5 6215   2.138   1.131  11.024 -0.0205  0.4793 -1.1215
  416MPD2    N1 6216   2.080   1.600  11.196  0.0763  0.4249 -0.0290
  416MPD2    H7 6217   2.082   1.700  11.209  0.6070  0.1359  2.1195
  417TMC3    C1 6218   1.882   1.653  11.315 -0.1881  0.5110 -0.1637
  417TMC3    C2 6219   1.815   1.606  11.423  0.3391 -0.2994  0.0842
  417TMC3    C3 6220   1.685   1.658  11.441  0.1959 -0.1273  0.4903
  417TMC3    C4 6221   1.826   1.744  11.226  0.2917  0.0961 -0.7738
  417TMC3    C5 6222   1.702   1.790  11.252  1.0941 -0.5101 -0.8778
  417TMC3    C6 6223   1.630   1.755  11.366 -0.3969 -0.2148 -0.0421
  417TMC3     C 6224   1.962   1.550  11.243  0.2070 -0.3772  0.2013
  417TMC3     O 6225   1.894   1.452  11.208 -0.4391  0.3617  0.3250
  417TMC3     H 6226   1.860   1.530  11.486  1.2052  1.7818  1.9791
  417TMC3    H1 6227   1.869   1.749  11.126 -3.0400 -0.0906 -2.2037
  417TMC3    H2 6228   1.536   1.802  11.395  1.1495  2.9051 -0.0610
  417TMC3    C7 6229   1.631   1.867  11.155  0.1540 -0.2927  0.0909
  417TMC3    C8 6230   1.628   1.642  11.573  0.8208  0.2852 -0.1102
  417TMC3    O1 6231   1.699   1.918  11.068 -0.2866 -0.0338  0.3320
  417TMC3    O2 6232   1.553   1.729  11.611  0.0571  0.2915 -0.0786
  418TMC3    C1 6233   0.171   2.724  17.693  0.0617 -0.0100  0.0051
  418TMC3    C2 6234   0.119   2.670   0.109 -0.4463 -0.5213  0.2170
  418TMC3    C3 6235   0.088   2.756   0.210  0.3346 -0.2421  1.1311
  418TMC3    C4 6236   0.218   2.849  17.687 -0.6379  0.3090  0.3861
  418TMC3    C5 6237   0.180   2.934   0.093 -0.2599 -0.3128  0.3124
  418TMC3    C6 6238   0.112   2.889   0.204  0.0206  0.0210 -0.4792
  418TMC3     C 6239   0.215   2.642  17.587  0.6093 -0.4042  0.2749
  418TMC3     O 6240   0.198   2.684  17.472  0.2542 -0.1309  0.0432
  418TMC3     H 6241   0.084   2.568   0.119  0.8845 -1.1774 -1.8876
  418TMC3    H1 6242   0.273   2.886  17.601 -0.6231 -0.7884 -0.0699
  418TMC3    H2 6243   0.091   2.952   0.289  0.4616  1.6457 -1.5655
  418TMC3    C7 6244   0.182   3.074   0.052  0.1721 -0.3173 -0.2486
  418TMC3    C8 6245   0.120   2.704   0.344  0.0061  0.5531  0.1995
  418TMC3    O1 6246   0.162   3.085  17.629 -0.3163 -0.2265 -0.5453
  418TMC3    O2 6247   0.199   2.777   0.412  0.1752  0.1113  0.4247
  419MPD2     C 6248   4.336   0.968  12.397 -0.6595  0.6311  0.2848
  419MPD2    C1 6249   4.223   1.045  12.360 -0.0371 -0.1146  0.8572
  419MPD2    C2 6250   4.118   1.052  12.444  0.3423 -0.0716 -0.8355
  419MPD2    C3 6251   4.131   0.995  12.572 -0.4761  0.3749 -0.1887
  419MPD2    C4 6252   4.244   0.931  12.614  0.0180  0.5938  0.4460
  419MPD2    C5 6253   4.347   0.917  12.525  0.0590  0.3845 -0.3762
  419MPD2     H 6254   4.027   1.101  12.414  0.7477  0.6006 -0.9771
  419MPD2    H1 6255   4.254   0.878  12.708 -3.4158 -0.3596  0.2563
  419MPD2    H2 6256   4.426   0.955  12.338 -1.0151 -0.7590  0.0479
  419MPD2    H3 6257   4.440   0.867  12.549 -0.5255 -0.1478  0.7676
  419MPD2     N 6258   4.016   1.013  12.656 -0.0592 -0.2049 -0.3958
  419MPD2    H5 6259   3.931   1.048  12.613  0.4525  2.0599  0.4798
  419MPD2    N1 6260   4.201   1.114  12.237 -0.4494 -0.1696  0.0595
  419MPD2    H7 6261   4.116   1.168  12.229 -0.5109 -0.2452  0.1990
  420TMC3    C1 6262   3.878   1.029  12.834  0.6820  0.1196  0.2639
  420TMC3    C2 6263   3.782   1.054  12.735  0.2530  0.6613 -0.0837
  420TMC3    C3 6264   3.680   1.143  12.764 -0.3366  0.3774 -0.3415
  420TMC3    C4 6265   3.872   1.075  12.961 -0.0837 -0.1140  0.0048
  420TMC3    C5 6266   3.769   1.159  12.984 -0.4901  1.0508 -0.4942
  420TMC3    C6 6267   3.670   1.192  12.890  0.4787  0.1218  0.2729
  420TMC3     C 6268   4.007   0.987  12.788 -0.6928 -0.3696 -0.1856
  420TMC3     O 6269   4.090   0.945  12.862  0.1501  0.1967 -0.2141
  420TMC3     H 6270   3.781   0.997  12.643 -0.4670 -1.8398  1.4493
  420TMC3    H1 6271   3.943   1.038  13.033 -0.3309 -1.4513 -0.4481
  420TMC3    H2 6272   3.580   1.250  12.906  1.6595  2.3008 -1.0755
  420TMC3    C7 6273   3.748   1.188  13.127  0.3369 -0.3273 -0.2547
  420TMC3    C8 6274   3.682   1.246  12.661 -0.2868 -0.2299  0.0406
  420TMC3    O1 6275   3.796   1.109  13.208 -0.0011  0.0800  0.1385
  420TMC3    O2 6276   3.771   1.239  12.577 -0.1898 -0.1426 -0.1240
  421TMC3    C1 6277   0.476   3.194  13.972 -0.6316  0.3007  0.0152
  421TMC3    C2 6278   0.563   3.279  14.036  0.1550 -0.0082  0.1556
  421TMC3    C3 6279   0.665   3.218  14.102 -0.5167  0.1446  0.1356
  421TMC3    C4 6280   0.495   3.061  13.968  0.2372  1.2473  0.2426
  421TMC3    C5 6281   0.594   3.005  14.046 -0.2354 -0.4369 -0.0141
  421TMC3    C6 6282   0.686   3.082  14.114  0.1256  0.0830 -0.2393
  421TMC3     C 6283   0.403   3.262  13.873  1.3081  0.3629 -0.6865
  421TMC3     O 6284   0.348   3.368  13.899 -0.3250  0.2058  0.1618
  421TMC3     H 6285   0.562   3.387  14.042 -1.9337 -0.0000 -0.3279
  421TMC3    H1 6286   0.421   3.001  13.915  0.4788  1.7523 -0.6733
  421TMC3    H2 6287   0.768   3.041  14.172  1.5887  0.9929 -1.6804
  421TMC3    C7 6288   0.619   2.865  14.043 -0.0762 -0.4343  0.0620
  421TMC3    C8 6289   0.756   3.291  14.187  0.0115  0.6975  0.1301
  421TMC3    O1 6290   0.683   2.824  14.139 -0.0814  0.0470  0.8316
  421TMC3    O2 6291   0.782   3.251  14.299  0.2335 -0.3959 -0.3561
  422TMC3    C1 6292   2.925   4.006  12.562  0.0138 -0.9456 -0.0632
  422TMC3    C2 6293   2.938   4.123  12.616  0.1551  0.3547  0.0899
  422TMC3    C3 6294   2.837   4.155  12.705  0.4908 -0.0084  0.1544
  422TMC3    C4 6295   2.821   3.918  12.590  0.2404  0.0773  0.1099
  422TMC3    C5 6296   2.722   3.956  12.676 -0.4198 -0.2662  0.0187
  422TMC3    C6 6297   2.729   4.074  12.749 -0.5206  0.1931 -0.8009
  422TMC3     C 6298   3.022   3.970  12.459 -0.4453  0.3212  0.2123
  422TMC3     O 6299   3.074   4.062  12.394 -0.2850 -0.6733  0.4986
  422TMC3     H 6300   3.015   4.193  12.583 -0.5830  1.2618  0.2736
  422TMC3    H1 6301   2.805   3.821  12.543 -1.5643  0.7359 -0.6251
  422TMC3    H2 6302   2.651   4.108  12.816 -0.2197  1.4919 -1.1030
  422TMC3    C7 6303   2.621   3.858  12.701  0.1146  0.2939 -0.4896
  422TMC3    C8 6304   2.859   4.284  12.761  0.2916  0.4757 -0.5115
  422TMC3    O1 6305   2.632   3.738  12.669 -0.6809  0.5475  0.0381
  422TMC3    O2 6306   2.937   4.360  12.708 -0.2230  0.2599 -0.3685
  423MPD2     C 6307   3.568   0.567   0.237  0.4450 -0.1181 -0.0101
  423MPD2    C1 6308   3.577   0.429   0.238  0.5613 -0.0036 -0.4574
  423MPD2    C2 6309   3.589   0.362   0.117  0.4203  0.0115 -0.4839
  423MPD2    C3 6310   3.598   0.435  17.691  0.0702 -0.5887 -0.5795
  423MPD2    C4 6311   3.580   0.567  17.693 -0.0127 -0.1680 -0.3640
  423MPD2    C5 6312   3.564   0.636   0.115 -0.0110  0.0737  0.7006
  423MPD2     H 6313   3.605   0.255   0.124  1.4687  0.1393 -0.8378
  423MPD2    H1 6314   3.584   0.619  17.598 -2.2601  1.0729  0.1962
  423MPD2    H2 6315   3.553   0.626   0.326  0.4987 -1.4523  0.8862
  423MPD2    H3 6316   3.539   0.741   0.123 -1.0994 -0.0863 -0.5946
  423MPD2     N 6317   3.633   0.378  17.567 -0.0339  0.7859 -0.1743
  423MPD2    H5 6318   3.647   0.443  17.490  0.4064 -0.3799 -1.0749
  423MPD2    N1 6319   3.578   0.351   0.356 -0.2447 -0.5097 -0.7699
  423MPD2    H7 6320   3.608   0.255   0.351  0.3053 -0.5252  2.4918
  424TMC3    C1 6321   3.581   0.302   0.578  0.4948 -0.1364 -0.6294
  424TMC3    C2 6322   3.672   0.197   0.559  0.0528 -0.2973  1.0212
  424TMC3    C3 6323   3.657   0.086   0.641 -0.1348  0.2214  1.1444
  424TMC3    C4 6324   3.487   0.300   0.679 -0.5687  0.0117 -0.0422
  424TMC3    C5 6325   3.481   0.187   0.758 -0.2947 -0.4804 -0.8539
  424TMC3    C6 6326   3.568   0.079   0.740  1.0358 -1.3048  0.2579
  424TMC3     C 6327   3.563   0.407   0.485  0.3376 -0.2284  0.0785
  424TMC3     O 6328   3.488   0.495   0.524 -0.3164 -0.0799 -0.5370
  424TMC3     H 6329   3.749   0.227   0.489  1.1054 -1.4266  1.7127
  424TMC3    H1 6330   3.427   0.384   0.709  0.8918  1.2324 -0.5318
  424TMC3    H2 6331   3.533   4.709   0.782  0.4398 -0.5691  1.3961
  424TMC3    C7 6332   3.406   0.190   0.886  0.1905 -0.4079 -0.0190
  424TMC3    C8 6333   3.752   4.703   0.625  0.1263  0.3698 -0.0554
  424TMC3    O1 6334   3.319   0.272   0.892 -0.3481  0.7573 -0.2380
  424TMC3    O2 6335   3.747   4.619   0.713 -0.0002  0.1305  0.3805
  425MPD2     C 6336   2.372   4.325  17.517  0.4546 -0.5988  0.2323
  425MPD2    C1 6337   2.307   4.222  17.456  0.2478 -0.5657 -0.2979
  425MPD2    C2 6338   2.166   4.222  17.438  0.6429 -0.0641  0.5974
  425MPD2    C3 6339   2.092   4.332  17.482 -0.9656 -0.4392  0.8475
  425MPD2    C4 6340   2.161   4.441  17.542 -0.4158  0.5170 -0.0568
  425MPD2    C5 6341   2.298   4.432  17.556 -0.2215  0.1051 -0.3771
  425MPD2     H 6342   2.102   4.144  17.397 -0.8407  0.9257  1.0284
  425MPD2    H1 6343   2.110   4.530  17.577 -2.3672 -0.5000 -0.3088
  425MPD2    H2 6344   2.478   4.337  17.502  0.4235  3.3441  3.3649
  425MPD2    H3 6345   2.356   4.516  17.592 -1.2156  0.4350  0.4698
  425MPD2     N 6346   1.947   4.327  17.468  0.2228 -0.0620 -0.5496
  425MPD2    H5 6347   1.911   4.249  17.414  1.0279  0.6145 -2.0785
  425MPD2    N1 6348   2.392   4.116  17.418  0.8468 -0.4043  0.9999
  425MPD2    H7 6349   2.490   4.134  17.439  1.0106 -0.0344 -0.0419
  426TMC3    C1 6350   2.470   3.910  17.324 -0.2844  0.0149  0.2954
  426TMC3    C2 6351   2.473   3.842  17.199 -0.3500  0.4253  0.4443
  426TMC3    C3 6352   2.593   3.816  17.134 -0.9241 -0.1719  0.3217
  426TMC3    C4 6353   2.589   3.945  17.379  0.3478  0.3193  0.0817
  426TMC3    C5 6354   2.707   3.927  17.306 -0.4173  1.0631  0.5478
  426TMC3    C6 6355   2.712   3.857  17.185 -0.0503  0.0907  0.1885
  426TMC3     C 6356   2.357   4.004  17.351  0.2152 -0.0962 -0.3545
  426TMC3     O 6357   2.252   3.966  17.307 -0.3690 -0.3344 -0.5401
  426TMC3     H 6358   2.380   3.813  17.151  0.0783  1.1314 -0.8200
  426TMC3    H1 6359   2.597   3.982  17.480 -2.6977  1.0168  0.0796
  426TMC3    H2 6360   2.803   3.847  17.127 -0.2596  1.6451 -0.4116
  426TMC3    C7 6361   2.815   4.029  17.340 -0.4234 -0.4747 -0.6469
  426TMC3    C8 6362   2.611   3.742  17.007  0.0544 -0.1415  0.7807
  426TMC3    O1 6363   2.771   4.110  17.423  0.4714  0.3381 -0.0423
  426TMC3    O2 6364   2.724   3.708  16.976 -0.0984 -0.3901  0.4963
  427MPD2     C 6365   1.547   1.472  14.710  0.1750  0.0814 -0.3011
  427MPD2    C1 6366   1.522   1.475  14.848  0.5063 -0.0087  0.6252
  427MPD2    C2 6367   1.400   1.524  14.899 -0.3589  1.0806  0.6368
  427MPD2    C3 6368   1.304   1.565  14.809 -0.2049  0.2661 -0.2380
  427MPD2    C4 6369   1.332   1.557  14.677  0.4021  0.9450  1.0613
  427MPD2    C5 6370   1.451   1.507  14.628 -0.1538  0.3046 -0.5328
  427MPD2     H 6371   1.389   1.515  15.006  2.7732  2.3948  1.0627
  427MPD2    H1 6372   1.260   1.595  14.605  0.1390 -0.5778  0.5146
  427MPD2    H2 6373   1.637   1.435  14.663  0.9960  0.6529  0.8274
  427MPD2    H3 6374   1.462   1.492  14.521  0.9694 -0.4665 -0.3106
  427MPD2     N 6375   1.178   1.604  14.847  0.1725  0.4137 -0.2381
  427MPD2    H5 6376   1.116   1.626  14.770 -0.6419 -0.5795  0.1347
  427MPD2    N1 6377   1.618   1.431  14.936 -0.1479  0.5124 -0.4232
  427MPD2    H7 6378   1.598   1.426  15.035 -1.4167  0.2607 -0.6967
  428TMC3    C1 6379   1.802   1.318  15.010 -0.5605  0.2983 -0.5132
  428TMC3    C2 6380   1.730   1.252  15.103  0.1456 -0.7162 -0.5356
  428TMC3    C3 6381   1.805   1.192  15.200 -0.5784 -0.2885 -0.1628
  428TMC3    C4 6382   1.941   1.328  15.008 -0.0866 -0.8075  0.2123
  428TMC3    C5 6383   2.007   1.258  15.108 -0.2616 -0.2476 -0.4911
  428TMC3    C6 6384   1.939   1.178  15.195  0.9870  0.4051 -0.3007
  428TMC3     C 6385   1.735   1.371  14.890  0.3496  0.2767 -0.1264
  428TMC3     O 6386   1.784   1.348  14.784  0.0514  0.1037 -0.0324
  428TMC3     H 6387   1.624   1.228  15.100  0.3232 -1.5571 -0.0361
  428TMC3    H1 6388   1.984   1.387  14.928 -1.2550  0.6732  0.6761
  428TMC3    H2 6389   1.993   1.142  15.281 -0.4672 -1.1182 -0.0257
  428TMC3    C7 6390   2.132   1.316  15.161 -0.2426  0.5458 -0.0584
  428TMC3    C8 6391   1.751   1.128  15.315  0.6529  0.1294  0.3130
  428TMC3    O1 6392   2.165   1.294  15.278  0.1429  0.5092 -0.1658
  428TMC3    O2 6393   1.806   1.033  15.364  0.1571  0.1593  0.4905
  429MPD2     C 6394   1.903   1.651  17.550 -0.6648  0.9392  0.0433
  429MPD2    C1 6395   2.014   1.568  17.523 -0.5483  0.4891  1.0438
  429MPD2    C2 6396   2.128   1.626  17.465  0.5951 -0.3542 -0.6175
  429MPD2    C3 6397   2.136   1.754  17.426 -0.2833  1.0253  0.0350
  429MPD2    C4 6398   2.025   1.832  17.445 -0.2329 -0.2777 -0.4699
  429MPD2    C5 6399   1.909   1.780  17.505  0.1597 -0.3594  0.6554
  429MPD2     H 6400   2.210   1.560  17.440  1.6789  1.2799 -1.4443
  429MPD2    H1 6401   2.014   1.935  17.414 -0.4296  0.0107  0.5513
  429MPD2    H2 6402   1.806   1.609  17.572 -0.0504 -0.2654  0.4419
  429MPD2    H3 6403   1.813   1.829  17.517  0.2137 -0.8993  3.2343
  429MPD2     N 6404   2.257   1.799  17.374 -0.0184 -0.0616  0.0678
  429MPD2    H5 6405   2.333   1.732  17.378  2.4462  2.5690 -2.1547
  429MPD2    N1 6406   2.020   1.432  17.549  0.1938  0.0821  0.1358
  429MPD2    H7 6407   2.109   1.387  17.527 -1.0227 -1.6082 -1.3286
  430TMC3    C1 6408   2.403   1.951  17.245  0.0528 -0.1234  0.4625
  430TMC3    C2 6409   2.415   2.066  17.176  0.3846 -0.1650 -0.4860
  430TMC3    C3 6410   2.539   2.109  17.148  0.1287 -0.1364  0.3056
  430TMC3    C4 6411   2.511   1.873  17.270 -0.6327 -0.0457  0.0596
  430TMC3    C5 6412   2.630   1.924  17.237  0.2060 -0.4250 -0.5178
  430TMC3    C6 6413   2.652   2.044  17.177  0.6408 -0.2473  0.1436
  430TMC3     C 6414   2.268   1.918  17.304  0.0500  0.2079  0.4328
  430TMC3     O 6415   2.177   1.986  17.255  0.2974  0.2446 -0.1076
  430TMC3     H 6416   2.326   2.118  17.142 -1.1393 -2.1834  0.3792
  430TMC3    H1 6417   2.498   1.777  17.319  2.0895 -0.0548  0.7568
  430TMC3    H2 6418   2.746   2.096  17.161 -0.3060  1.2894 -0.4289
  430TMC3    C7 6419   2.757   1.854  17.259 -0.1051  0.2625 -0.3060
  430TMC3    C8 6420   2.548   2.196  17.034  0.0373 -0.3066  0.0072
  430TMC3    O1 6421   2.862   1.919  17.242 -0.1556 -0.1192 -0.3427
  430TMC3    O2 6422   2.625   2.286  17.052 -0.5018  0.3321  0.4974
  431MPD2     C 6423   4.052   1.736  12.583 -0.4459 -0.1549 -0.2303
  431MPD2    C1 6424   4.075   1.808  12.468 -0.2935  0.0079  0.2359
  431MPD2    C2 6425   4.073   1.747  12.349  0.1993 -0.0790  0.4539
  431MPD2    C3 6426   4.048   1.608  12.343  0.0712 -0.2991  0.2621
  431MPD2    C4 6427   4.034   1.538  12.461 -0.6298  0.5155  0.3085
  431MPD2    C5 6428   4.035   1.602  12.579 -0.7591  0.3355  0.0252
  431MPD2     H 6429   4.075   1.798  12.253  1.4031  0.1593  0.6111
  431MPD2    H1 6430   4.031   1.429  12.464 -0.3481  0.5259  0.8948
  431MPD2    H2 6431   4.039   1.787  12.678  0.9149 -1.1256  0.4743
  431MPD2    H3 6432   4.029   1.547  12.673  2.8949  0.8533  0.5362
  431MPD2     N 6433   4.058   1.527  12.230  0.6516  0.2216  0.0385
  431MPD2    H5 6434   4.037   1.430  12.250  1.0203  0.5092  1.8419
  431MPD2    N1 6435   4.104   1.950  12.479 -0.2553  0.0549  0.0863
  431MPD2    H7 6436   4.124   1.985  12.386  1.3089 -0.9863  0.0369
  432TMC3    C1 6437   4.148   1.450  12.027 -0.3332 -0.2430  0.5681
  432TMC3    C2 6438   4.227   1.481  11.919  0.2795  0.0258  0.6793
  432TMC3    C3 6439   4.315   1.382  11.881 -0.3958  0.8110 -0.0623
  432TMC3    C4 6440   4.149   1.328  12.088 -0.5725 -0.1049 -1.0882
  432TMC3    C5 6441   4.244   1.236  12.046  0.1493  0.5750 -0.6844
  432TMC3    C6 6442   4.333   1.256  11.943 -0.1399  0.1388  0.3019
  432TMC3     C 6443   4.103   1.566  12.105  0.0573  0.1316  0.2310
  432TMC3     O 6444   4.141   1.673  12.059 -0.5971  0.1418  0.1617
  432TMC3     H 6445   4.231   1.575  11.866  2.5776 -0.4348  0.0571
  432TMC3    H1 6446   4.069   1.303  12.157  1.7069 -0.0421  1.5565
  432TMC3    H2 6447   4.418   1.196  11.910  0.0093 -0.4862  1.7967
  432TMC3    C7 6448   4.282   1.123  12.126 -0.4571  0.2164 -0.2130
  432TMC3    C8 6449   4.426   1.433  11.801  0.1314  0.0005 -0.8105
  432TMC3    O1 6450   4.384   1.065  12.100  0.1154 -0.1124 -0.1805
  432TMC3    O2 6451   4.452   1.371  11.695 -0.6353  0.2117  0.3837
  433MPD2     C 6452   3.194   0.307  10.533 -0.1020  0.4905  0.0640
  433MPD2    C1 6453   3.187   0.182  10.583 -1.0891  0.0839  0.6741
  433MPD2    C2 6454   3.259   0.157  10.698  0.8570  0.3500  0.2421
  433MPD2    C3 6455   3.321   0.254  10.770  0.3737 -0.1635 -0.1884
  433MPD2    C4 6456   3.321   0.383  10.719 -0.7330  0.0848 -0.1820
  433MPD2    C5 6457   3.264   0.402  10.598 -0.1033 -0.2453 -0.0659
  433MPD2     H 6458   3.254   0.054  10.733 -2.6934  0.8443  1.1849
  433MPD2    H1 6459   3.382   0.460  10.766  1.1801 -1.9295  0.6637
  433MPD2    H2 6460   3.150   0.332  10.437  0.4120 -2.2012 -0.8759
  433MPD2    H3 6461   3.270   0.505  10.566 -0.1541 -0.4078 -0.5998
  433MPD2     N 6462   3.361   0.224  10.904 -0.6876  0.7239  0.4990
  433MPD2    H5 6463   3.351   0.129  10.937  0.7258  0.5974  0.5366
  433MPD2    N1 6464   3.126   0.066  10.520 -0.1883  0.1934  0.1377
  433MPD2    H7 6465   3.145   4.701  10.566  3.9428  1.6859  1.3038
  434TMC3    C1 6466   2.979   4.667  10.396  0.1001  0.1366 -0.5741
  434TMC3    C2 6467   2.991   4.571  10.489 -0.0615  0.1034  0.6153
  434TMC3    C3 6468   2.973   4.441  10.457  0.3339 -0.1448  0.0859
  434TMC3    C4 6469   2.912   4.643  10.282 -0.2224 -0.3582  0.3328
  434TMC3    C5 6470   2.894   4.514  10.251  0.5737 -0.3771 -0.8725
  434TMC3    C6 6471   2.929   4.409  10.330 -0.1835 -0.0599  0.0055
  434TMC3     C 6472   3.039   0.074  10.417 -0.5959  0.1951  0.6559
  434TMC3     O 6473   2.990   0.166  10.354  0.2229 -0.3334 -0.0576
  434TMC3     H 6474   3.034   4.577  10.588  1.8700  0.2962 -0.2236
  434TMC3    H1 6475   2.885   4.720  10.210  0.1992 -1.0892 -0.6063
  434TMC3    H2 6476   2.914   4.303  10.310 -0.2348 -0.5107  2.4183
  434TMC3    C7 6477   2.806   4.488  10.128 -0.1969  0.0869 -0.7780
  434TMC3    C8 6478   3.024   4.347  10.554 -0.1998  0.4347  0.1846
  434TMC3    O1 6479   2.776   4.575  10.047  0.0639 -0.3392  0.4377
  434TMC3    O2 6480   3.045   4.387  10.667  0.6789 -0.4099 -0.2689
  435MPD2     C 6481   4.395   0.559  15.187 -0.2518  0.0762 -0.6288
  435MPD2    C1 6482   4.351   0.525  15.313 -1.2008  0.1312  0.0444
  435MPD2    C2 6483   4.430   0.443  15.386  0.1825  0.9396 -0.4580
  435MPD2    C3 6484   4.552   0.390  15.335  0.5246  0.4462  0.0271
  435MPD2    C4 6485   4.589   0.420  15.202  0.3966 -0.2929  0.1629
  435MPD2    C5 6486   4.510   0.506  15.132 -0.3109 -0.3433 -0.4149
  435MPD2     H 6487   4.401   0.410  15.485 -1.5642 -0.2181 -1.3533
  435MPD2    H1 6488   4.678   0.380  15.155  0.3328  0.5669 -0.7009
  435MPD2    H2 6489   4.331   0.620  15.125 -1.3149  2.5751  2.9101
  435MPD2    H3 6490   4.541   0.526  15.030 -0.4478  0.1901 -0.3522
  435MPD2     N 6491   4.624   0.298  15.419  0.3837 -0.1170  0.5263
  435MPD2    H5 6492   4.597   0.295  15.517  1.8231  0.2674  0.9416
  435MPD2    N1 6493   4.231   0.576  15.377 -0.2357  0.0518  0.6105
  435MPD2    H7 6494   4.220   0.547  15.473  1.0760  1.0139  1.0529
  436TMC3    C1 6495   3.900   0.624  15.583 -0.1692 -0.8308  0.3389
  436TMC3    C2 6496   3.986   0.584  15.483  0.8879  0.1877  0.1495
  436TMC3    C3 6497   4.031   0.684  15.404 -0.2610 -0.0212  0.1111
  436TMC3    C4 6498   3.839   0.751  15.581  0.8359  0.4440  1.1103
  436TMC3    C5 6499   3.877   0.836  15.477 -0.7914 -0.4477 -0.0052
  436TMC3    C6 6500   3.977   0.810  15.397  0.1001  0.0327  0.2139
  436TMC3     C 6501   3.858   0.532  15.687 -0.7555  0.5106 -0.2491
  436TMC3     O 6502   3.889   0.415  15.670 -0.0031  0.3811 -0.2002
  436TMC3     H 6503   4.029   0.486  15.497  0.3138 -0.2394 -1.0233
  436TMC3    H1 6504   3.745   0.776  15.629  0.9497 -2.3729  2.7792
  436TMC3    H2 6505   3.994   0.863  15.304 -0.2943  1.4614  0.9518
  436TMC3    C7 6506   3.837   0.980  15.481 -0.1725 -0.1534  0.1555
  436TMC3    C8 6507   4.151   0.670  15.325 -0.0509 -0.1831  0.1997
  436TMC3    O1 6508   3.812   1.019  15.593 -0.4110 -0.4386  0.2955
  436TMC3    O2 6509   4.161   0.744  15.229 -0.7419 -0.3432  0.4967
  437TMC3    C1 6510   3.208   2.206  12.747  0.0739  1.0072 -0.6046
  437TMC3    C2 6511   3.091   2.235  12.817  0.0844  0.2092 -0.1516
  437TMC3    C3 6512   3.016   2.342  12.764 -0.3573  0.5154  0.5044
  437TMC3    C4 6513   3.252   2.277  12.635 -0.3404 -0.2215  0.0433
  437TMC3    C5 6514   3.175   2.387  12.599 -0.8215  0.2456  0.6304
  437TMC3    C6 6515   3.054   2.418  12.655 -0.4252  0.5548  0.3820
  437TMC3     C 6516   3.291   2.110  12.819 -0.5304  0.5060 -0.3200
  437TMC3     O 6517   3.240   2.042  12.906 -0.3707 -0.3251 -0.4711
  437TMC3     H 6518   3.073   2.193  12.915 -0.6593  1.0705  0.0800
  437TMC3    H1 6519   3.334   2.239  12.577 -1.2869 -0.6617 -0.9949
  437TMC3    H2 6520   3.006   2.507  12.616 -0.4554  0.1897 -0.4299
  437TMC3    C7 6521   3.229   2.478  12.504  0.1600  0.6380  0.2769
  437TMC3    C8 6522   2.883   2.363  12.821 -0.3593 -0.2298  1.1519
  437TMC3    O1 6523   3.149   2.550  12.445  0.1704  0.0716 -0.3764
  437TMC3    O2 6524   2.831   2.465  12.782 -0.2940 -0.0773 -0.2793
  438MPD2     C 6525   0.787   3.062  16.373  0.9466 -0.0827 -1.0422
  438MPD2    C1 6526   0.864   3.003  16.470  0.2975 -0.2938  0.6614
  438MPD2    C2 6527   0.805   2.961  16.590 -0.1135 -0.3042 -0.7903
  438MPD2    C3 6528   0.666   2.973  16.611  0.5631 -0.4242  0.3388
  438MPD2    C4 6529   0.596   3.030  16.509  0.3023 -0.3303 -0.1117
  438MPD2    C5 6530   0.650   3.070  16.395  0.0388  0.4490  0.1769
  438MPD2     H 6531   0.873   2.920  16.664  1.3089  1.0890 -1.3150
  438MPD2    H1 6532   0.489   3.045  16.519  0.5308  0.4467  1.2506
  438MPD2    H2 6533   0.828   3.093  16.278 -0.7299  1.3889 -1.2916
  438MPD2    H3 6534   0.591   3.124  16.321  0.7369  1.3920  0.3060
  438MPD2     N 6535   0.588   2.946  16.728 -0.3990  0.1264 -0.8225
  438MPD2    H5 6536   0.487   2.954  16.732 -0.3921  0.1854 -0.7725
  438MPD2    N1 6537   1.001   2.975  16.445 -0.0702  0.7612 -0.4796
  438MPD2    H7 6538   1.047   2.912  16.510  1.2812  3.8228  1.5391
  439TMC3    C1 6539   1.216   2.977  16.333  0.9923  0.0673 -0.0531
  439TMC3    C2 6540   1.256   2.988  16.197  0.2638 -0.0038  0.1777
  439TMC3    C3 6541   1.373   2.916  16.172  0.0865 -0.1827 -0.4123
  439TMC3    C4 6542   1.264   2.886  16.422 -0.2846 -0.0951  0.0277
  439TMC3    C5 6543   1.379   2.831  16.388 -0.4084  0.1469  0.1621
  439TMC3    C6 6544   1.437   2.845  16.268  0.5397  0.3009 -0.4836
  439TMC3     C 6545   1.085   3.038  16.355 -0.2393  0.5963 -0.6182
  439TMC3     O 6546   1.054   3.120  16.270 -0.6728 -0.3919  0.9808
  439TMC3     H 6547   1.213   3.056  16.124 -0.5006 -0.0946  0.5436
  439TMC3    H1 6548   1.237   2.884  16.527  0.3091 -2.5168  0.1431
  439TMC3    H2 6549   1.532   2.794  16.254 -0.1606 -1.6578  2.0002
  439TMC3    C7 6550   1.426   2.727  16.474  0.0647  0.5288 -0.2105
  439TMC3    C8 6551   1.392   2.857  16.041 -0.0995  0.2145 -0.6012
  439TMC3    O1 6552   1.423   2.747  16.592  0.4055 -0.2998 -0.3504
  439TMC3    O2 6553   1.495   2.789  16.034  0.1189  0.6302 -0.0341
  440MPD2     C 6554   4.717   3.632  14.829  0.2620  0.6991  0.3645
  440MPD2    C1 6555   4.616   3.569  14.900 -0.1411  0.6016  0.1575
  440MPD2    C2 6556   4.646   3.453  14.968 -0.4251 -0.5541 -0.3164
  440MPD2    C3 6557   0.052   3.410  14.980 -0.8675  0.6290  0.4228
  440MPD2    C4 6558   0.156   3.475  14.911 -0.8245  0.5485 -0.3416
  440MPD2    C5 6559   0.121   3.582  14.831  0.0976 -0.0579 -0.8740
  440MPD2     H 6560   4.561   3.398  15.006 -1.1668  0.0582 -1.0966
  440MPD2    H1 6561   0.262   3.452  14.906 -0.9898 -0.2071 -0.3532
  440MPD2    H2 6562   4.700   3.718  14.765  1.9376  1.6451  1.1793
  440MPD2    H3 6563   0.197   3.649  14.791 -0.3628 -0.1420 -1.8845
  440MPD2     N 6564   0.096   3.304  15.062  0.3751 -0.2088 -0.4142
  440MPD2    H5 6565   0.191   3.268  15.059  0.8558  1.0851 -0.7958
  440MPD2    N1 6566   4.481   3.616  14.895 -0.0655  0.2052 -0.2071
  440MPD2    H7 6567   4.414   3.549  14.932 -0.1554 -0.6907 -1.9843
  441TMC3    C1 6568   0.091   3.138  15.233 -0.0256  0.9135 -0.3416
  441TMC3    C2 6569   0.190   3.206  15.307  0.5977  1.1171  0.1979
  441TMC3    C3 6570   0.205   3.173  15.434 -0.1608  0.6089  0.2013
  441TMC3    C4 6571   0.010   3.041  15.299  0.0316  0.0576 -0.4388
  441TMC3    C5 6572   0.033   3.016  15.434  0.8020  0.5666 -0.4712
  441TMC3    C6 6573   0.136   3.071  15.502  0.0544 -0.1300 -0.1285
  441TMC3     C 6574   0.013   3.228  15.142  0.0905 -0.1540 -0.1777
  441TMC3     O 6575   4.621   3.239  15.165 -0.6346 -0.1826 -0.1071
  441TMC3     H 6576   0.238   3.293  15.261  1.6100  0.0918 -0.6917
  441TMC3    H1 6577   4.637   3.016  15.256 -1.2588  0.2711  2.3218
  441TMC3    H2 6578   0.156   3.045  15.606  0.1095  2.2914  0.4608
  441TMC3    C7 6579   4.664   2.936  15.509  0.2113  0.7957  0.1179
  441TMC3    C8 6580   0.238   3.284  15.508  0.0743  0.2883  0.1221
  441TMC3    O1 6581   4.653   2.960  15.629 -0.0653  0.0718 -0.6664
  441TMC3    O2 6582   0.342   3.281  15.573 -0.5940  0.5957 -0.4427
  442MPD2     C 6583   2.338   3.919  16.279 -0.3978  0.2452  0.5965
  442MPD2    C1 6584   2.283   3.805  16.333 -0.8483 -0.3458  0.3085
  442MPD2    C2 6585   2.319   3.686  16.269 -0.5597 -0.5934 -0.1621
  442MPD2    C3 6586   2.404   3.686  16.155 -0.2268 -1.1528 -0.3216
  442MPD2    C4 6587   2.448   3.811  16.099 -0.8197  0.2170 -0.2451
  442MPD2    C5 6588   2.426   3.920  16.177  0.8871  0.5181 -0.5970
  442MPD2     H 6589   2.276   3.594  16.306  0.4409 -1.3266 -0.8351
  442MPD2    H1 6590   2.497   3.827  16.004 -1.6474 -0.2160 -0.7380
  442MPD2    H2 6591   2.330   4.015  16.327 -0.2786 -0.9562  2.9864
  442MPD2    H3 6592   2.472   4.015  16.157  1.1677  0.5764  0.3253
  442MPD2     N 6593   2.425   3.578  16.071 -0.4095  0.3783  0.1989
  442MPD2    H5 6594   2.483   3.596  15.990 -0.8764 -0.4019 -0.3052
  442MPD2    N1 6595   2.183   3.808  16.439 -0.1133 -0.1033 -0.4242
  442MPD2    H7 6596   2.125   3.726  16.451 -2.6465  1.7594 -0.0253
  443TMC3    C1 6597   2.039   3.924  16.595  0.2631  0.3137  0.7705
  443TMC3    C2 6598   1.973   4.043  16.608 -0.1301  0.7776 -0.9319
  443TMC3    C3 6599   1.838   4.036  16.641  0.4137 -0.4029 -0.0459
  443TMC3    C4 6600   1.985   3.804  16.638  0.0308  0.8446 -0.4651
  443TMC3    C5 6601   1.857   3.803  16.681  0.4907  0.0370  0.4828
  443TMC3    C6 6602   1.777   3.914  16.670  0.7147 -0.2569  0.0388
  443TMC3     C 6603   2.159   3.918  16.510 -0.4439  0.0054  0.0619
  443TMC3     O 6604   2.220   4.027  16.514 -0.1347 -0.5027 -0.5210
  443TMC3     H 6605   2.010   4.142  16.588  0.1743  0.6140 -1.1753
  443TMC3    H1 6606   2.053   3.721  16.651 -0.9110  0.0663 -0.5806
  443TMC3    H2 6607   1.670   3.914  16.690  0.7266  3.7197  0.0111
  443TMC3    C7 6608   1.817   3.686  16.751  0.7089 -0.5507 -0.2378
  443TMC3    C8 6609   1.757   4.151  16.658 -0.1121  0.6133 -0.0525
  443TMC3    O1 6610   1.882   3.585  16.723  0.1814 -0.2732 -0.0791
  443TMC3    O2 6611   1.702   4.167  16.765  0.1449 -0.2585 -0.2683
  444MPD2     C 6612   2.592   3.423  17.131 -0.1607 -0.6075 -0.7279
  444MPD2    C1 6613   2.495   3.350  17.065 -0.6310  0.2026  0.1066
  444MPD2    C2 6614   2.543   3.251  16.978 -0.2143  0.0088  0.5909
  444MPD2    C3 6615   2.679   3.238  16.946 -0.2825 -0.3187  0.1833
  444MPD2    C4 6616   2.768   3.320  16.997 -0.1040  0.2111 -0.2616
  444MPD2    C5 6617   2.724   3.404  17.099  0.3428  0.4201 -0.0047
  444MPD2     H 6618   2.471   3.186  16.930  1.7987 -1.1640 -0.9010
  444MPD2    H1 6619   2.875   3.312  16.979  0.0966  0.9286  0.6161
  444MPD2    H2 6620   2.569   3.485  17.217  1.2044 -3.5625  1.7616
  444MPD2    H3 6621   2.800   3.463  17.150  0.3216  1.3565 -1.0305
  444MPD2     N 6622   2.712   3.139  16.842  0.4639 -0.2797 -0.0095
  444MPD2    H5 6623   2.635   3.086  16.804 -0.0914 -0.3579  1.2352
  444MPD2    N1 6624   2.358   3.346  17.100 -0.1197 -0.6513 -0.1412
  444MPD2    H7 6625   2.306   3.269  17.060  0.0558 -1.1448  0.5876
  445TMC3    C1 6626   2.835   3.016  16.682 -0.2100  0.4410  0.0589
  445TMC3    C2 6627   2.727   3.012  16.596  0.6193 -0.3182  0.1626
  445TMC3    C3 6628   2.739   2.943  16.479  0.1458  0.4792 -0.1084
  445TMC3    C4 6629   2.959   2.959  16.644  0.5101  0.8349 -0.2781
  445TMC3    C5 6630   2.965   2.899  16.520  0.3415  0.8872  0.3008
  445TMC3    C6 6631   2.855   2.886  16.436  0.1612  0.2833  0.0782
  445TMC3     C 6632   2.836   3.116  16.792 -0.6446  0.0232  0.5042
  445TMC3     O 6633   2.945   3.163  16.820  0.0193 -0.4760  0.5139
  445TMC3     H 6634   2.634   3.064  16.618  2.4412  2.9710  0.2305
  445TMC3    H1 6635   3.047   2.975  16.705 -1.2222  0.0695  2.4354
  445TMC3    H2 6636   2.857   2.821  16.349 -0.9868  2.5721 -1.6482
  445TMC3    C7 6637   3.099   2.849  16.479 -0.1011  0.2024 -0.4004
  445TMC3    C8 6638   2.610   2.901  16.431 -0.0336 -0.2841 -0.2086
  445TMC3    O1 6639   3.124   2.850  16.360 -0.6825 -0.0213  0.2436
  445TMC3    O2 6640   2.515   2.976  16.446 -0.0944  0.3667 -0.2370
  446MPD2     C 6641   2.812   4.320  11.164  0.3577 -1.1154  0.0074
  446MPD2    C1 6642   2.804   4.310  11.027 -0.2748  1.0287 -0.4279
  446MPD2    C2 6643   2.906   4.360  10.955 -0.2476 -0.6199  1.0792
  446MPD2    C3 6644   3.025   4.390  11.015 -0.3377 -0.1373  0.2676
  446MPD2    C4 6645   3.035   4.392  11.151  0.5127 -0.0817  0.0266
  446MPD2    C5 6646   2.930   4.352  11.230  0.8020 -0.9019 -0.2751
  446MPD2     H 6647   2.907   4.361  10.847 -1.7744  1.7499  1.0809
  446MPD2    H1 6648   3.127   4.420  11.201 -0.5835 -0.5964  2.3318
  446MPD2    H2 6649   2.732   4.278  11.224 -1.7657  0.8043 -1.4350
  446MPD2    H3 6650   2.941   4.359  11.337 -0.2478  0.2624 -0.2401
  446MPD2     N 6651   3.139   4.409  10.932  0.1539 -0.6631 -0.3431
  446MPD2    H5 6652   3.129   4.426  10.832 -1.6444 -0.5783 -0.1373
  446MPD2    N1 6653   2.692   4.276  10.951 -0.0318 -0.4735  0.0399
  446MPD2    H7 6654   2.694   4.285  10.850  1.6764  1.0381  0.2250
  447TMC3    C1 6655   3.362   4.387  10.870  0.5317  0.3101 -0.2295
  447TMC3    C2 6656   3.348   4.475  10.768  0.1359  0.3001 -0.2844
  447TMC3    C3 6657   3.444   4.479  10.675  0.0124  0.1293  0.6049
  447TMC3    C4 6658   3.468   4.300  10.883 -0.2761 -0.1027  0.6197
  447TMC3    C5 6659   3.563   4.312  10.783 -0.4617  0.4446 -0.7797
  447TMC3    C6 6660   3.554   4.401  10.678  0.3050  0.5877 -0.5041
  447TMC3     C 6661   3.267   4.374  10.974 -0.7600  0.1404 -1.2694
  447TMC3     O 6662   3.304   4.333  11.083 -0.6712  0.4053  0.1386
  447TMC3     H 6663   3.253   4.522  10.745 -0.8372 -0.9091  1.2485
  447TMC3    H1 6664   3.474   4.216  10.950 -0.1056  0.2762  1.0806
  447TMC3    H2 6665   3.625   4.406  10.597 -0.8860  0.4514 -1.5484
  447TMC3    C7 6666   3.682   4.220  10.787 -0.1665 -0.1217  0.2328
  447TMC3    C8 6667   3.429   4.558  10.557  0.2495 -0.4029 -0.1808
  447TMC3    O1 6668   3.734   4.192  10.684 -0.0124 -0.4126  0.2555
  447TMC3    O2 6669   3.314   4.567  10.524 -0.3287  0.2463  1.1605
  448TMC3    C1 6670   0.512   4.713  16.603  0.9429 -0.1121 -0.4981
  448TMC3    C2 6671   0.512   4.579  16.569  0.4637 -0.5149 -0.1883
  448TMC3    C3 6672   0.616   4.497  16.609 -0.7209 -0.1542  0.4180
  448TMC3    C4 6673   0.606   0.042  16.682  0.1730  0.1746 -0.2636
  448TMC3    C5 6674   0.702   4.687  16.731 -0.8208  0.5868  0.0156
  448TMC3    C6 6675   0.715   4.547  16.695 -0.2190  0.1452  0.1674
  448TMC3     C 6676   0.393   0.063  16.574 -0.2555  0.5049 -1.7687
  448TMC3     O 6677   0.292   0.006  16.527  0.0668 -0.1634  0.3397
  448TMC3     H 6678   0.423   4.544  16.517 -1.1243  0.8417  1.6476
  448TMC3    H1 6679   0.618   0.146  16.710 -1.9791  0.1754  0.6418
  448TMC3    H2 6680   0.786   4.478  16.737 -0.7689 -0.5970 -0.1245
  448TMC3    C7 6681   0.767   0.011  16.856 -0.5398  0.2301 -0.6358
  448TMC3    C8 6682   0.635   4.365  16.553  0.8480 -0.4121 -0.3544
  448TMC3    O1 6683   0.745   0.127  16.888 -0.4586 -0.0440 -0.3831
  448TMC3    O2 6684   0.720   4.293  16.606 -0.4298  1.0264  1.6498
  449MPD2     C 6685   2.301   2.570  13.894 -0.2489 -0.5313  0.5265
  449MPD2    C1 6686   2.185   2.608  13.821  0.3327 -0.1886  0.5163
  449MPD2    C2 6687   2.071   2.536  13.835 -0.6543  0.5294 -0.5720
  449MPD2    C3 6688   2.065   2.437  13.924  0.1218 -0.9397  0.6287
  449MPD2    C4 6689   2.176   2.389  13.988  0.2924 -0.4109 -0.4176
  449MPD2    C5 6690   2.296   2.454  13.973 -0.2288  0.6167 -0.5072
  449MPD2     H 6691   1.982   2.574  13.787 -0.7973  0.4868 -0.3405
  449MPD2    H1 6692   2.184   2.301  14.050 -0.4150  0.5914  1.0910
  449MPD2    H2 6693   2.392   2.628  13.884  0.4193 -1.6781 -0.0595
  449MPD2    H3 6694   2.382   2.412  14.022 -0.8349  1.0403  0.9105
  449MPD2     N 6695   1.939   2.387  13.934  0.0713 -0.1137 -0.4782
  449MPD2    H5 6696   1.868   2.411  13.865  0.1740  1.0199 -0.1787
  449MPD2    N1 6697   2.175   2.711  13.730 -0.2041  0.1313  0.5854
  449MPD2    H7 6698   2.087   2.739  13.688  0.7279 -1.6083 -2.4742
  450TMC3    C1 6699   2.226   2.896  13.600 -0.0747  0.2133 -0.3699
  450TMC3    C2 6700   2.263   2.881  13.471  0.3710  0.0059  0.4021
  450TMC3    C3 6701   2.169   2.913  13.370 -0.3007  0.0924 -0.0325
  450TMC3    C4 6702   2.098   2.936  13.628 -0.3441 -0.6182  0.1228
  450TMC3    C5 6703   2.004   2.949  13.532 -0.4109 -0.4665 -0.6064
  450TMC3    C6 6704   2.037   2.938  13.399  0.0834 -0.5445 -0.1135
  450TMC3     C 6705   2.277   2.791  13.687 -0.2805 -0.5824 -0.0485
  450TMC3     O 6706   2.392   2.768  13.694  0.6097  0.5736  0.1976
  450TMC3     H 6707   2.361   2.840  13.454  0.1564 -1.0118  1.6137
  450TMC3    H1 6708   2.069   2.936  13.733 -0.3118  3.2001  0.1051
  450TMC3    H2 6709   1.966   2.934  13.318 -0.5637  0.4209  0.4121
  450TMC3    C7 6710   1.901   2.862  13.577  0.6126  0.9344  0.4055
  450TMC3    C8 6711   2.197   2.876  13.234  1.3868 -0.1022  0.1286
  450TMC3    O1 6712   1.938   2.751  13.604 -0.0021  0.2770  0.8346
  450TMC3    O2 6713   2.106   2.866  13.154 -0.4326 -0.1146  0.3935
  451MPD2     C 6714   2.816   0.887   0.939 -0.0632  0.5074 -0.2054
  451MPD2    C1 6715   2.867   0.987   0.868  0.6235 -0.4400  0.5880
  451MPD2    C2 6716   2.989   0.961   0.809  0.2081 -0.2663  0.0823
  451MPD2    C3 6717   3.060   0.845   0.827  0.4812 -0.6137 -0.2956
  451MPD2    C4 6718   3.002   0.748   0.898 -0.1504  0.0510 -0.0816
  451MPD2    C5 6719   2.875   0.764   0.952 -0.3853  0.6180 -0.1537
  451MPD2     H 6720   3.025   1.054   0.766  3.4648 -2.0912 -1.0911
  451MPD2    H1 6721   3.056   0.657   0.921  1.4005  0.7427 -1.0309
  451MPD2    H2 6722   2.719   0.904   0.987 -0.0427  1.6925 -0.5714
  451MPD2    H3 6723   2.822   0.689   1.009  0.5183  0.9112  1.0870
  451MPD2     N 6724   3.188   0.817   0.764  0.2134 -0.5434  0.0587
  451MPD2    H5 6725   3.228   0.727   0.788 -0.4522 -0.7949  0.2075
  451MPD2    N1 6726   2.792   1.107   0.866 -0.2627  0.2116  0.4950
  451MPD2    H7 6727   2.695   1.098   0.896 -0.8577 -0.9242 -1.7206
  452TMC3    C1 6728   3.387   0.855   0.643  0.0606 -0.6288  0.7392
  452TMC3    C2 6729   3.446   0.757   0.722  0.1669 -0.2305 -0.3303
  452TMC3    C3 6730   3.576   0.727   0.697  0.5012  0.3980 -0.4006
  452TMC3    C4 6731   3.462   0.927   0.552  0.6220 -0.0010 -0.4157
  452TMC3    C5 6732   3.589   0.881   0.526  0.3265 -0.1837 -0.0251
  452TMC3    C6 6733   3.648   0.780   0.599 -0.0605  0.3345 -0.1805
  452TMC3     C 6734   3.263   0.911   0.702  0.1099  0.1983 -0.3168
  452TMC3     O 6735   3.248   1.030   0.679 -0.4459 -0.9764  0.0830
  452TMC3     H 6736   3.398   0.720   0.812  0.7274  0.5441  0.2905
  452TMC3    H1 6737   3.419   1.003   0.487 -0.5421 -0.7355 -0.4998
  452TMC3    H2 6738   3.752   0.751   0.589  0.0541  0.3682  0.9466
  452TMC3    C7 6739   3.660   0.953   0.422 -0.2379 -0.4039 -0.0314
  452TMC3    C8 6740   3.661   0.658   0.792  0.3111 -0.5188 -0.2496
  452TMC3    O1 6741   3.611   1.055   0.379 -0.3692 -0.1539 -0.0176
  452TMC3    O2 6742   3.775   0.644   0.763  0.3797 -0.3939 -0.5059
  453TMC3    C1 6743   0.366   3.327  11.556 -0.0175  0.1732 -0.1275
  453TMC3    C2 6744   0.269   3.247  11.608  0.4111 -0.0294 -0.4564
  453TMC3    C3 6745   0.172   3.201  11.525 -0.0696  0.0678 -1.2662
  453TMC3    C4 6746   0.374   3.348  11.421 -0.1561 -0.1376  0.4529
  453TMC3    C5 6747   0.266   3.318  11.346 -1.0219  0.2079 -0.5573
  453TMC3    C6 6748   0.158   3.246  11.402  0.5324  0.0433  0.3420
  453TMC3     C 6749   0.470   3.373  11.651 -0.2100  0.4427 -0.6177
  453TMC3     O 6750   0.575   3.415  11.604 -0.1244  0.4232  0.2964
  453TMC3     H 6751   0.264   3.209  11.710 -1.4645 -0.9128 -0.8706
  453TMC3    H1 6752   0.454   3.413  11.386 -0.0792 -0.8940 -0.7884
  453TMC3    H2 6753   0.083   3.207  11.334 -1.9432  1.9064  1.9944
  453TMC3    C7 6754   0.266   3.311  11.200 -0.1309 -0.3381  0.4006
  453TMC3    C8 6755   0.080   3.096  11.568  0.8143  0.5636 -0.0735
  453TMC3    O1 6756   0.173   3.255  11.143  0.1554  0.2779 -0.5490
  453TMC3    O2 6757   4.695   3.089  11.515  0.5798  1.0333 -0.1004
  454MPD2     C 6758   3.405   3.008  16.171  0.3450  0.1892 -0.2945
  454MPD2    C1 6759   3.280   2.980  16.120  0.4480  0.2876 -0.0005
  454MPD2    C2 6760   3.189   3.077  16.139  0.3723  0.0480  0.2960
  454MPD2    C3 6761   3.223   3.197  16.190 -0.5404  0.1351  0.7452
  454MPD2    C4 6762   3.352   3.230  16.224  0.7271 -0.6043  0.7316
  454MPD2    C5 6763   3.437   3.130  16.217 -0.0957 -0.4133 -0.9984
  454MPD2     H 6764   3.085   3.057  16.115  0.6953 -1.9426  0.5816
  454MPD2    H1 6765   3.377   3.325  16.270  2.0851 -0.4661 -0.2955
  454MPD2    H2 6766   3.489   2.941  16.154 -0.4422 -0.6320 -0.9004
  454MPD2    H3 6767   3.539   3.144  16.252  0.0322 -3.5982 -0.1134
  454MPD2     N 6768   3.115   3.284  16.198 -0.1182  0.3117 -0.2066
  454MPD2    H5 6769   3.032   3.252  16.149 -0.0670 -0.8900  0.4914
  454MPD2    N1 6770   3.240   2.867  16.042 -0.7440  0.4529  0.3795
  454MPD2    H7 6771   3.145   2.880  16.007 -0.4421  0.1678 -0.5413
  455TMC3    C1 6772   2.965   3.444  16.268 -0.6196  0.0713 -0.0755
  455TMC3    C2 6773   2.951   3.445  16.408  0.8465 -0.2683  0.2816
  455TMC3    C3 6774   2.858   3.354  16.458 -0.2307  0.0372 -0.2085
  455TMC3    C4 6775   2.893   3.356  16.187 -0.3346  0.1934 -0.0501
  455TMC3    C5 6776   2.802   3.269  16.234 -0.2720 -0.3865  0.4021
  455TMC3    C6 6777   2.776   3.277  16.370 -0.5198 -0.9221  0.3514
  455TMC3     C 6778   3.107   3.405  16.254  0.2080  0.4095 -0.0296
  455TMC3     O 6779   3.201   3.466  16.298 -0.0481 -0.0501  0.4730
  455TMC3     H 6780   3.003   3.519  16.467 -0.4326  0.9068 -0.0635
  455TMC3    H1 6781   2.908   3.358  16.080 -2.0402  0.9114 -0.2823
  455TMC3    H2 6782   2.701   3.212  16.413 -2.0578  1.0494  0.6209
  455TMC3    C7 6783   2.762   3.160  16.140  0.7453 -0.0527 -0.5360
  455TMC3    C8 6784   2.797   3.419  16.572 -0.1625  0.5058  0.3188
  455TMC3    O1 6785   2.850   3.137  16.060 -0.0721  0.1736  0.2173
  455TMC3    O2 6786   2.860   3.469  16.658  0.1567  0.4107 -0.2524
  456MPD2     C 6787   0.817   3.258  15.743  0.3284  0.5851 -0.3844
  456MPD2    C1 6788   0.931   3.234  15.817  0.2489 -0.0958 -0.4243
  456MPD2    C2 6789   0.932   3.254  15.954 -0.4395  0.1144  0.0591
  456MPD2    C3 6790   0.819   3.312  16.010  0.1966 -0.1138 -0.3586
  456MPD2    C4 6791   0.700   3.327  15.938 -0.0428 -0.1236  0.0268
  456MPD2    C5 6792   0.703   3.303  15.804 -0.0267  0.3984 -0.5709
  456MPD2     H 6793   1.021   3.239  16.014  0.4969  0.2715 -1.2963
  456MPD2    H1 6794   0.606   3.356  15.985  0.4466  1.0804  0.2515
  456MPD2    H2 6795   0.811   3.242  15.636 -1.7251  0.5476 -0.2504
  456MPD2    H3 6796   0.606   3.319  15.758 -0.6087  0.3042  0.6428
  456MPD2     N 6797   0.832   3.343  16.149  0.5422  0.2024 -0.6916
  456MPD2    H5 6798   0.926   3.369  16.178  1.5914 -2.4570 -1.7042
  456MPD2    N1 6799   1.044   3.184  15.745 -0.0287  0.5335 -0.0102
  456MPD2    H7 6800   1.040   3.176  15.644 -1.0092 -1.5164  0.1931
  457TMC3    C1 6801   0.776   3.473  16.338  0.0386  0.4900 -0.0422
  457TMC3    C2 6802   0.736   3.598  16.329 -1.3514 -0.2638  0.2113
  457TMC3    C3 6803   0.772   3.682  16.431  1.1933 -1.0220 -0.7832
  457TMC3    C4 6804   0.869   3.421  16.419 -0.3462 -0.3841  0.8546
  457TMC3    C5 6805   0.922   3.510  16.509 -0.5250  0.2876  0.7292
  457TMC3    C6 6806   0.872   3.639  16.524 -0.1309 -0.0740 -0.0933
  457TMC3     C 6807   0.730   3.389  16.232 -0.1038  0.4094 -0.2255
  457TMC3     O 6808   0.611   3.384  16.219  0.5139 -0.2336 -0.5560
  457TMC3     H 6809   0.672   3.627  16.246 -1.4645 -1.2458 -0.0356
  457TMC3    H1 6810   0.905   3.319  16.410  1.5691  0.4445 -1.0142
  457TMC3    H2 6811   0.921   3.707  16.592  1.1774  0.0839 -1.1896
  457TMC3    C7 6812   1.035   3.474  16.598  0.0848 -0.3931 -1.0834
  457TMC3    C8 6813   0.740   3.823  16.425 -0.2151  0.2846  0.9333
  457TMC3    O1 6814   1.035   3.526  16.708  0.2472  0.7344 -0.1060
  457TMC3    O2 6815   0.805   3.897  16.491 -0.0462 -0.2800  0.0248
  458MPD2     C 6816   3.609   2.740  12.281  0.1370 -0.1310  0.5236
  458MPD2    C1 6817   3.663   2.670  12.395  0.5476  0.1920 -0.0472
  458MPD2    C2 6818   3.577   2.586  12.454 -0.4067 -0.3023 -0.0008
  458MPD2    C3 6819   3.444   2.567  12.412 -0.1454 -0.2866 -0.0402
  458MPD2    C4 6820   3.398   2.631  12.300 -0.2363 -0.4906 -0.5706
  458MPD2    C5 6821   3.485   2.722  12.242  0.3954 -0.1954 -0.3365
  458MPD2     H 6822   3.613   2.526  12.537 -0.1715  0.3066  0.3388
  458MPD2    H1 6823   3.300   2.612  12.259 -0.7972 -2.8707  1.9025
  458MPD2    H2 6824   3.685   2.800  12.232 -1.9674  1.3764 -0.8723
  458MPD2    H3 6825   3.445   2.766  12.151 -3.0773  0.4994  1.5029
  458MPD2     N 6826   3.369   2.479  12.497  0.2161  0.1859 -0.1742
  458MPD2    H5 6827   3.418   2.423  12.565  1.8063 -1.3244 -2.6027
  458MPD2    N1 6828   3.802   2.680  12.435 -0.3352  0.0453 -0.8546
  458MPD2    H7 6829   3.850   2.755  12.387 -0.5876 -0.6265 -2.1553
  459TMC3    C1 6830   3.998   2.648  12.570  0.5155  0.0771  0.1490
  459TMC3    C2 6831   4.076   2.716  12.478  0.4428 -0.6975  0.4094
  459TMC3    C3 6832   4.205   2.738  12.500 -0.3914  0.0504  0.3699
  459TMC3    C4 6833   4.047   2.603  12.689 -0.5673  0.4158 -0.3622
  459TMC3    C5 6834   4.173   2.645  12.716  0.2613  0.4791 -0.6022
  459TMC3    C6 6835   4.256   2.701  12.621  0.0346 -0.3846  0.0747
  459TMC3     C 6836   3.859   2.617  12.543  0.0046  0.3239 -0.2738
  459TMC3     O 6837   3.814   2.530  12.616  0.6503  0.5613  0.0254
  459TMC3     H 6838   4.035   2.745  12.381  0.4740  1.3966  1.0220
  459TMC3    H1 6839   3.983   2.552  12.760 -0.4364  1.3429  0.4136
  459TMC3    H2 6840   4.356   2.728  12.653  0.0325  0.4416 -0.6314
  459TMC3    C7 6841   4.224   2.610  12.847 -0.0461  0.8414  0.7635
  459TMC3    C8 6842   4.297   2.764  12.393 -0.0255  0.1283  0.7614
  459TMC3    O1 6843   4.156   2.535  12.912  0.3847  0.3443 -0.1138
  459TMC3    O2 6844   4.399   2.697  12.389 -0.5801 -0.6094 -0.4287
  460MPD2     C 6845   3.625   0.138  10.463 -0.0542  0.2497  0.1520
  460MPD2    C1 6846   3.530   0.036  10.446 -0.4860 -0.2666 -0.9622
  460MPD2    C2 6847   3.431   0.049  10.349  0.1869  0.3835 -0.1750
  460MPD2    C3 6848   3.422   0.165  10.271  0.2648 -0.9632 -0.2877
  460MPD2    C4 6849   3.520   0.257  10.290  1.0730 -0.7916 -0.3088
  460MPD2    C5 6850   3.621   0.245  10.376 -0.3878 -0.3972  0.0057
  460MPD2     H 6851   3.345   4.708  10.341  1.4948 -1.5018  1.1206
  460MPD2    H1 6852   3.529   0.349  10.234  0.1856 -1.0331 -0.8361
  460MPD2    H2 6853   3.708   0.132  10.532 -0.7614  0.2182  1.0038
  460MPD2    H3 6854   3.698   0.322  10.373 -0.5275 -0.1836  1.8857
  460MPD2     N 6855   3.305   0.183  10.187  0.7419  0.4209  0.0137
  460MPD2    H5 6856   3.244   0.103  10.182  0.0956  0.8753  0.7284
  460MPD2    N1 6857   3.532   4.650  10.538 -0.1792 -0.7190 -0.7019
  460MPD2    H7 6858   3.604   4.650  10.610 -2.0765 -2.8171  1.2231
  461TMC3    C1 6859   3.131   0.301  10.072  0.0937 -0.0329  0.2342
  461TMC3    C2 6860   3.108   0.191   9.998  0.4324 -0.4587 -0.4261
  461TMC3    C3 6861   2.993   0.188   9.926 -0.1016 -0.1530  0.1518
  461TMC3    C4 6862   3.049   0.414  10.067 -0.2496  0.0910 -0.2836
  461TMC3    C5 6863   2.937   0.407   9.993  0.0533  0.1229 -0.2645
  461TMC3    C6 6864   2.907   0.293   9.919  0.4789 -0.0180  0.1817
  461TMC3     C 6865   3.264   0.305  10.145 -0.0698  0.2127 -0.0211
  461TMC3     O 6866   3.309   0.418  10.180 -0.0172 -0.2020 -0.1324
  461TMC3     H 6867   3.178   0.110   9.985  1.6368 -0.0922  3.8018
  461TMC3    H1 6868   3.072   0.498  10.132  1.4215  0.6089 -1.5494
  461TMC3    H2 6869   2.816   0.299   9.859  1.0178  1.7748 -0.4514
  461TMC3    C7 6870   2.867   0.527   9.957 -0.4880 -0.3179 -0.3521
  461TMC3    C8 6871   2.970   0.070   9.846 -0.3977 -1.0543 -0.2743
  461TMC3    O1 6872   2.799   0.513   9.859 -0.1166  0.0172  0.2585
  461TMC3    O2 6873   3.071   0.012   9.820 -0.0561 -0.0919  0.2844
  462TMC3    C1 6874   2.277   1.473   0.209  0.0244  0.6048  0.8859
  462TMC3    C2 6875   2.394   1.416   0.244  0.0286  0.3440 -0.5961
  462TMC3    C3 6876   2.389   1.310   0.332  0.0898 -0.4538  0.2411
  462TMC3    C4 6877   2.159   1.434   0.269  0.0494 -0.3565 -0.0222
  462TMC3    C5 6878   2.154   1.319   0.343 -0.0431  0.4708 -0.6546
  462TMC3    C6 6879   2.272   1.261   0.381 -0.1058  0.0882 -0.3780
  462TMC3     C 6880   2.279   1.584   0.116  0.2845 -0.5600  0.0663
  462TMC3     O 6881   2.370   1.602   0.037  0.2949  0.2026  0.4946
  462TMC3     H 6882   2.492   1.452   0.217  0.7681 -0.9398  0.3486
  462TMC3    H1 6883   2.065   1.465   0.227 -0.3033 -0.6355  0.5558
  462TMC3    H2 6884   2.276   1.178   0.450 -1.7466 -1.2512 -1.8879
  462TMC3    C7 6885   2.038   1.234   0.372  0.1021  0.2036  0.7649
  462TMC3    C8 6886   2.520   1.247   0.374 -0.6837  0.2244  0.2802
  462TMC3    O1 6887   2.057   1.122   0.421 -0.2994 -0.0410  0.4532
  462TMC3    O2 6888   2.617   1.317   0.395 -0.6390  0.2496 -0.2906
  463MPD2     C 6889   4.285   3.960   1.408 -0.0679  0.0428  0.5515
  463MPD2    C1 6890   4.176   4.037   1.371 -0.2192 -0.0379  0.2145
  463MPD2    C2 6891   4.194   4.134   1.277 -0.1225  0.1354 -0.2395
  463MPD2    C3 6892   4.314   4.163   1.220  0.0863 -0.8462  0.0356
  463MPD2    C4 6893   4.424   4.090   1.265 -0.1899 -0.7226 -0.5581
  463MPD2    C5 6894   4.411   3.994   1.365  0.6807 -0.0157 -0.8681
  463MPD2     H 6895   4.105   4.191   1.254  1.9863  1.6373 -4.7408
  463MPD2    H1 6896   4.526   4.107   1.233 -0.2450  0.1483 -0.2712
  463MPD2    H2 6897   4.287   3.884   1.485  0.4739 -0.8308 -0.3321
  463MPD2    H3 6898   4.505   3.952   1.400  0.2988  0.4627  0.7326
  463MPD2     N 6899   4.331   4.268   1.132 -0.6534  0.4674 -0.6080
  463MPD2    H5 6900   4.421   4.286   1.089 -0.7800  1.4638 -0.4487
  463MPD2    N1 6901   4.049   4.003   1.410  0.2560  0.1600  0.1068
  463MPD2    H7 6902   3.972   4.047   1.361  2.0801  3.1049 -0.0886
  464TMC3    C1 6903   3.866   3.903   1.528 -0.5405 -0.6847 -0.4097
  464TMC3    C2 6904   3.794   4.016   1.503  0.6906 -0.8876 -0.2844
  464TMC3    C3 6905   3.661   4.012   1.530 -0.2144 -0.4432  0.1567
  464TMC3    C4 6906   3.809   3.792   1.576 -0.4557 -0.1917 -0.1102
  464TMC3    C5 6907   3.668   3.794   1.594 -0.0894  0.0774  0.1027
  464TMC3    C6 6908   3.596   3.909   1.584  0.3195 -0.1265 -0.3568
  464TMC3     C 6909   4.011   3.907   1.504  0.0894 -0.2828  0.0994
  464TMC3     O 6910   4.068   3.815   1.564  0.6033 -0.4792 -0.7419
  464TMC3     H 6911   3.829   4.111   1.464  0.7874 -1.0512 -0.5896
  464TMC3    H1 6912   3.866   3.701   1.588  2.0389  1.7777  2.9899
  464TMC3    H2 6913   3.489   3.917   1.602  0.3412  1.4381 -0.8727
  464TMC3    C7 6914   3.597   3.674   1.578 -0.8136  0.4499 -0.0834
  464TMC3    C8 6915   3.580   4.115   1.462  1.1233 -0.4653  0.4338
  464TMC3    O1 6916   3.651   3.574   1.620 -0.3562  0.6423  0.3408
  464TMC3    O2 6917   3.624   4.155   1.356 -0.2343  0.9817 -0.0830
  465MPD2     C 6918   0.463   3.294  16.645 -0.3606  0.1883 -0.4869
  465MPD2    C1 6919   0.341   3.288  16.711 -0.3556 -0.4615 -0.5072
  465MPD2    C2 6920   0.231   3.310  16.635 -0.8083  0.0450 -0.3112
  465MPD2    C3 6921   0.237   3.354  16.502  0.2395 -0.7634  0.4241
  465MPD2    C4 6922   0.361   3.382  16.450 -0.4211  0.4359  0.4815
  465MPD2    C5 6923   0.472   3.350  16.519  0.6679 -0.1642 -0.2260
  465MPD2     H 6924   0.132   3.299  16.677 -0.2775 -0.9195  0.6944
  465MPD2    H1 6925   0.385   3.406  16.346 -0.9484  2.2249  0.7674
  465MPD2    H2 6926   0.559   3.266  16.686 -0.2710 -1.0342 -1.5599
  465MPD2    H3 6927   0.569   3.356  16.469  0.8964 -0.8253  0.1463
  465MPD2     N 6928   0.116   3.394  16.448  0.0129  0.3498 -0.4667
  465MPD2    H5 6929   0.034   3.385  16.506  0.1243 -2.0013 -0.6820
  465MPD2    N1 6930   0.329   3.242  16.841 -0.0970  0.0195  0.6322
  465MPD2    H7 6931   0.235   3.234  16.879  0.1873 -1.7490  0.9368
  466TMC3    C1 6932   4.452   3.462  16.335  0.7470  0.1252 -0.5017
  466TMC3    C2 6933   4.423   3.576  16.263 -0.1977 -0.3173  0.7448
  466TMC3    C3 6934   4.536   3.629  16.203  0.2623  0.0616 -0.3082
  466TMC3    C4 6935   4.581   3.412  16.361 -0.3097  0.1071 -0.5288
  466TMC3    C5 6936   4.682   3.485  16.299 -0.2700 -0.1177  0.4624
  466TMC3    C6 6937   4.662   3.587  16.209  0.0335 -0.9118 -0.1240
  466TMC3     C 6938   4.348   3.420  16.432 -1.3685 -0.3241 -0.2379
  466TMC3     O 6939   4.395   3.379  16.535  0.2784 -0.5009  0.2415
  466TMC3     H 6940   4.326   3.624  16.254 -0.5478 -1.4160 -1.3441
  466TMC3    H1 6941   4.593   3.318  16.414  0.8199  0.1944 -0.6203
  466TMC3    H2 6942   0.017   3.644  16.160 -1.0422  1.3770  0.8178
  466TMC3    C7 6943   0.099   3.454  16.325  1.1989  0.5653  0.2265
  466TMC3    C8 6944   4.516   3.762  16.144  0.2835  0.3248  0.4179
  466TMC3    O1 6945   0.183   3.488  16.246 -0.2068  0.1218  0.5993
  466TMC3    O2 6946   4.595   3.805  16.060  0.1024  0.1301 -0.4373
  467TMC3    C1 6947   0.925   1.523  13.583  0.3267 -0.1207 -0.2395
  467TMC3    C2 6948   0.849   1.609  13.512  0.0251  0.2401  0.1792
  467TMC3    C3 6949   0.769   1.704  13.571 -0.1130 -0.5049 -0.0052
  467TMC3    C4 6950   0.888   1.506  13.717 -0.0274  0.9000 -0.2910
  467TMC3    C5 6951   0.805   1.603  13.777 -0.4401  0.4760 -0.4665
  467TMC3    C6 6952   0.755   1.708  13.705  0.0789  0.5817 -0.5031
  467TMC3     C 6953   1.067   1.515  13.563  0.4402  0.3393  0.4416
  467TMC3     O 6954   1.123   1.450  13.653  0.3558  0.5272  0.2458
  467TMC3     H 6955   0.866   1.608  13.405  1.6748 -3.3327  0.4875
  467TMC3    H1 6956   0.934   1.427  13.776 -1.0695 -0.5660 -1.4230
  467TMC3    H2 6957   0.704   1.790  13.755 -0.6237  0.0884 -0.4074
  467TMC3    C7 6958   0.814   1.612  13.923  0.1312  0.1203 -0.1804
  467TMC3    C8 6959   0.792   1.836  13.517 -0.1202  0.3100  0.8639
  467TMC3    O1 6960   0.913   1.559  13.970 -0.0786  0.2649  0.4755
  467TMC3    O2 6961   0.834   1.920  13.593  0.3895  0.2385 -0.0706
  468MPD2     C 6962   0.131   4.467  11.092 -0.0910  0.7337 -0.5218
  468MPD2    C1 6963   0.221   4.453  10.989 -0.8470  0.3370  0.3118
  468MPD2    C2 6964   0.229   4.336  10.920 -0.1291 -0.3295  0.0820
  468MPD2    C3 6965   0.153   4.226  10.963  0.2985 -0.2117 -0.0921
  468MPD2    C4 6966   0.064   4.240  11.073  0.7318 -0.3458 -0.3666
  468MPD2    C5 6967   0.054   4.360  11.135  0.0366  0.3043  0.7561
  468MPD2     H 6968   0.286   4.327  10.829  0.3804 -0.7043  0.4345
  468MPD2    H1 6969   0.002   4.157  11.105  2.2140 -1.5159 -0.5412
  468MPD2    H2 6970   0.111   4.559  11.146 -1.1372 -0.9479  1.9592
  468MPD2    H3 6971   4.695   4.383  11.202 -0.3263  1.0466  0.0474
  468MPD2     N 6972   0.157   4.104  10.906 -0.5143  0.2298  0.1603
  468MPD2    H5 6973   0.079   4.042  10.926  0.1984 -0.0970  1.8723
  468MPD2    N1 6974   0.305   4.556  10.947 -0.0641 -0.2664  0.3627
  468MPD2    H7 6975   0.374   4.541  10.874 -0.2484 -0.5260  0.2410
  469TMC3    C1 6976   0.403   0.038  10.937 -0.6380 -0.0917  0.2565
  469TMC3    C2 6977   0.521   4.709  10.908 -0.2915 -0.7471  0.3254
  469TMC3    C3 6978   0.629   0.068  10.900 -0.8305  0.4296  0.7331
  469TMC3    C4 6979   0.376   0.171  10.958  0.5085 -0.3770  0.2708
  469TMC3    C5 6980   0.483   0.256  10.940  0.1176 -0.1152  0.3001
  469TMC3    C6 6981   0.608   0.208  10.919 -0.3103 -0.3535  0.6174
  469TMC3     C 6982   0.317   4.676  11.016  0.1186 -0.3481  0.1901
  469TMC3     O 6983   0.259   4.715  11.120 -0.8707  0.1132  0.3534
  469TMC3     H 6984   0.553   4.606  10.917 -0.5889 -0.8771 -0.0876
  469TMC3    H1 6985   0.277   0.203  10.988  0.3253 -1.0719  0.4057
  469TMC3    H2 6986   0.690   0.279  10.914 -0.0255 -0.7130  0.2566
  469TMC3    C7 6987   0.471   0.401  10.971 -0.0010  0.5413  0.3747
  469TMC3    C8 6988   0.764   0.022  10.890  0.1343  0.3344  0.1614
  469TMC3    O1 6989   0.376   0.428  11.041 -0.0002  0.1054  0.6018
  469TMC3    O2 6990   0.778   4.646  10.817 -0.1063  0.0940 -0.0591
  470TMC3    C1 6991   1.223   0.701   1.008 -0.5534 -0.5896 -0.3762
  470TMC3    C2 6992   1.270   0.825   0.990  0.0416  0.0320  0.7071
  470TMC3    C3 6993   1.309   0.898   1.100  0.4312 -0.5177  0.0537
  470TMC3    C4 6994   1.232   0.648   1.131  0.3652  0.3364 -0.1925
  470TMC3    C5 6995   1.269   0.725   1.238  0.1314  0.3028  0.2054
  470TMC3    C6 6996   1.303   0.859   1.228  0.1373  0.1461  0.0451
  470TMC3     C 6997   1.191   0.624   0.888 -0.2692 -0.2126 -0.1723
  470TMC3     O 6998   1.144   0.682   0.788  0.0127 -0.3387  0.7109
  470TMC3     H 6999   1.255   0.879   0.897 -0.3572 -0.8959  0.2336
  470TMC3    H1 7000   1.191   0.549   1.146 -2.6224  1.6277  0.2540
  470TMC3    H2 7001   1.339   0.921   1.309  2.2237  0.1450 -0.8902
  470TMC3    C7 7002   1.278   0.664   1.363 -0.0676 -0.1301 -0.4266
  470TMC3    C8 7003   1.383   1.022   1.075  0.5196  0.1868 -0.4736
  470TMC3    O1 7004   1.369   0.702   1.435  0.0291 -0.3171  0.0244
  470TMC3    O2 7005   1.396   1.098   1.171  0.2588  0.3191  0.0955
  471MPD2     C 7006   2.485   2.280  16.529 -0.0341 -0.0918 -0.5969
  471MPD2    C1 7007   2.449   2.151  16.563 -0.3340  0.3179 -0.1705
  471MPD2    C2 7008   2.442   2.122  16.698 -0.5916  0.5597 -0.0557
  471MPD2    C3 7009   2.485   2.211  16.792 -0.2405  0.3928  0.3405
  471MPD2    C4 7010   2.529   2.333  16.758  0.4595 -0.2111  0.1874
  471MPD2    C5 7011   2.524   2.372  16.631  0.7007  0.6737  0.9705
  471MPD2     H 7012   2.409   2.024  16.731  0.9698 -0.4316 -1.4622
  471MPD2    H1 7013   2.560   2.408  16.830 -2.3105  1.7108 -0.6512
  471MPD2    H2 7014   2.504   2.305  16.426  1.1674  1.3810 -0.0107
  471MPD2    H3 7015   2.561   2.470  16.601  0.9609  0.2841  0.0041
  471MPD2     N 7016   2.479   2.157  16.926 -0.1492  0.0776 -0.7294
  471MPD2    H5 7017   2.435   2.065  16.929 -0.1241  0.1767  2.4522
  471MPD2    N1 7018   2.415   2.048  16.474 -0.1342  0.2907  0.4817
  471MPD2    H7 7019   2.395   1.958  16.516 -0.9742  1.5159  2.7412
  472TMC3    C1 7020   2.419   1.929  16.266 -0.2308 -0.0801  0.4331
  472TMC3    C2 7021   2.435   1.929  16.126 -0.0308  0.3638  0.0172
  472TMC3    C3 7022   2.469   1.807  16.071  0.2001  0.6731 -0.5833
  472TMC3    C4 7023   2.457   1.821  16.340 -0.2138 -0.4593 -0.0161
  472TMC3    C5 7024   2.504   1.707  16.282 -0.6026 -0.1060 -0.2815
  472TMC3    C6 7025   2.511   1.699  16.146  0.7820 -0.9038 -0.1154
  472TMC3     C 7026   2.410   2.056  16.335  0.5278  0.0903 -0.2888
  472TMC3     O 7027   2.393   2.163  16.276  0.0228 -0.1067  0.4973
  472TMC3     H 7028   2.416   2.016  16.065  1.5495  0.2249 -0.6612
  472TMC3    H1 7029   2.435   1.819  16.446  1.6642 -2.2802  0.3450
  472TMC3    H2 7030   2.555   1.617  16.092 -0.0440 -1.6483  0.3388
  472TMC3    C7 7031   2.441   1.593  16.342  0.2800 -0.2483 -0.2014
  472TMC3    C8 7032   2.353   1.753  15.997 -0.0706  0.0552  0.7997
  472TMC3    O1 7033   2.420   1.598  16.463 -0.5741 -0.8608 -0.1267
  472TMC3    O2 7034   2.344   1.630  16.000 -0.4927  0.0826 -0.4600
  473MPD2     C 7035   2.955   4.349  13.966  0.3444 -0.5770  0.2543
  473MPD2    C1 7036   2.983   4.476  13.912  0.7497 -0.1918 -0.0744
  473MPD2    C2 7037   3.038   4.568  13.998 -1.0851 -0.6307 -0.2424
  473MPD2    C3 7038   3.059   4.544  14.136 -0.3323  0.4751 -0.0265
  473MPD2    C4 7039   3.033   4.422  14.182  0.2935 -0.0371 -0.2330
  473MPD2    C5 7040   2.980   4.323  14.106  0.6242 -0.5990 -0.5067
  473MPD2     H 7041   3.075   4.660  13.955  1.3130 -1.6370 -0.3471
  473MPD2    H1 7042   3.048   4.403  14.288  1.6572  1.5407 -0.1541
  473MPD2    H2 7043   2.928   4.265  13.904  1.8528  0.0426 -1.2210
  473MPD2    H3 7044   2.969   4.220  14.139  4.2814 -0.5173  0.9581
  473MPD2     N 7045   3.111   4.639  14.226 -0.5094 -0.3644  0.3077
  473MPD2    H5 7046   3.124   4.606  14.322  0.8783 -1.5456 -0.2900
  473MPD2    N1 7047   2.968   4.505  13.774 -0.1189  0.0790  0.6126
  473MPD2    H7 7048   3.005   4.595  13.746 -1.4050 -0.2696 -2.1244
  474TMC3    C1 7049   3.121   0.133  14.327  0.2310  0.7160  0.1783
  474TMC3    C2 7050   3.029   0.233  14.338 -0.5076 -0.0806  0.1155
  474TMC3    C3 7051   2.991   0.282  14.459 -0.0153 -0.0987 -0.1130
  474TMC3    C4 7052   3.167   0.079  14.445  0.6863  0.3871  0.0333
  474TMC3    C5 7053   3.134   0.139  14.560  0.4491 -0.3535 -0.4097
  474TMC3    C6 7054   3.056   0.247  14.570 -0.4069 -0.4751 -0.1524
  474TMC3     C 7055   3.114   0.053  14.205  0.2720 -0.0642 -0.4812
  474TMC3     O 7056   3.087   0.125  14.110 -0.3086  0.4056 -0.1023
  474TMC3     H 7057   2.988   0.271  14.245 -0.5791  0.5904  0.4187
  474TMC3    H1 7058   3.235   4.719  14.450  0.4044  0.1419 -0.3126
  474TMC3    H2 7059   3.017   0.287  14.663 -1.6295 -0.2612 -0.7656
  474TMC3    C7 7060   3.187   0.079  14.682  0.0433 -0.5688  0.2726
  474TMC3    C8 7061   2.898   0.392  14.459 -0.3740 -0.3122 -0.4609
  474TMC3    O1 7062   3.189   4.681  14.681  0.5127 -0.9622 -0.0631
  474TMC3    O2 7063   2.934   0.496  14.515 -0.1463  0.0844 -0.2991
  475MPD2     C 7064   2.030   2.675  10.134  0.2497 -0.7087 -0.3192
  475MPD2    C1 7065   1.928   2.606  10.069  0.3006  0.0938  0.3473
  475MPD2    C2 7066   1.796   2.649  10.100  0.0016 -0.0620 -0.0070
  475MPD2    C3 7067   1.767   2.752  10.186 -0.1338  0.0052 -0.1915
  475MPD2    C4 7068   1.867   2.795  10.267 -0.1107 -0.1917  0.3554
  475MPD2    C5 7069   1.999   2.760  10.239 -0.0863  0.3225 -0.2497
  475MPD2     H 7070   1.716   2.589  10.059  1.4100  0.7747 -3.9659
  475MPD2    H1 7071   1.837   2.854  10.353  1.3230 -0.0783  0.7788
  475MPD2    H2 7072   2.136   2.655  10.130  0.5053  0.6050 -0.0917
  475MPD2    H3 7073   2.089   2.790  10.292  0.4015 -0.1911 -0.7825
  475MPD2     N 7074   1.634   2.790  10.202  0.4475 -0.0663  0.0334
  475MPD2    H5 7075   1.567   2.749  10.137  2.3721 -2.1540 -0.6552
  475MPD2    N1 7076   1.936   2.506   9.971  0.3509 -0.2713  0.3116
  475MPD2    H7 7077   1.848   2.467   9.939 -0.1010  1.1501 -0.1866
  476TMC3    C1 7078   2.027   2.403   9.779 -0.8602 -0.1707 -0.0433
  476TMC3    C2 7079   1.893   2.379   9.746 -0.1942  0.0263  0.4368
  476TMC3    C3 7080   1.850   2.448   9.638  0.2954  0.1544  0.2145
  476TMC3    C4 7081   2.110   2.465   9.688 -0.3274 -0.1636  0.3927
  476TMC3    C5 7082   2.058   2.549   9.593 -0.1659 -0.5156 -0.6875
  476TMC3    C6 7083   1.926   2.533   9.567  0.2491  0.5186 -0.4757
  476TMC3     C 7084   2.053   2.478   9.908  0.0066  0.0706  0.4350
  476TMC3     O 7085   2.157   2.539   9.915 -0.2250 -0.0792  0.4233
  476TMC3     H 7086   1.827   2.308   9.795 -0.8773 -0.0415 -0.5806
  476TMC3    H1 7087   2.216   2.480   9.705 -0.6687  1.8001  0.8175
  476TMC3    H2 7088   1.889   2.607   9.497 -3.6841 -0.9796  0.0310
  476TMC3    C7 7089   2.112   2.682   9.582  0.5977 -0.2211 -0.0033
  476TMC3    C8 7090   1.709   2.482   9.650  0.7414  0.1738  0.2983
  476TMC3    O1 7091   2.093   2.744   9.475 -0.2197  0.4360  0.0572
  476TMC3    O2 7092   1.680   2.603   9.645  0.2269 -0.5682  0.2949
  477MPD2     C 7093   3.736   3.841  11.500  0.1426  0.4760 -0.1962
  477MPD2    C1 7094   3.633   3.751  11.506  0.0073  0.4558  0.1710
  477MPD2    C2 7095   3.632   3.647  11.596 -0.4694  0.4720 -1.4113
  477MPD2    C3 7096   3.738   3.628  11.680 -0.0077 -0.2372 -0.1671
  477MPD2    C4 7097   3.838   3.724  11.679 -0.4665  0.3149  0.1644
  477MPD2    C5 7098   3.834   3.832  11.588 -0.2458 -0.0397 -0.2346
  477MPD2     H 7099   3.550   3.576  11.602 -0.6053  0.6907 -0.7629
  477MPD2    H1 7100   3.909   3.725  11.760 -0.0425  0.1609 -0.2060
  477MPD2    H2 7101   3.731   3.931  11.439  1.6779  0.0726 -0.9208
  477MPD2    H3 7102   3.923   3.894  11.586 -0.1031 -0.2842 -1.2843
  477MPD2     N 7103   3.729   3.529  11.779  0.2970  0.6209 -0.0582
  477MPD2    H5 7104   3.639   3.483  11.787 -0.2567  1.9267  1.3996
  477MPD2    N1 7105   3.531   3.771  11.410  0.3492  0.4191 -0.0836
  477MPD2    H7 7106   3.540   3.855  11.354 -0.5174 -1.1469 -2.5651
  478TMC3    C1 7107   3.322   3.764  11.314 -0.1007 -0.1946 -0.5592
  478TMC3    C2 7108   3.233   3.846  11.380  1.2085  0.0654 -0.1019
  478TMC3    C3 7109   3.182   3.955  11.314  0.2266 -0.6031  0.2360
  478TMC3    C4 7110   3.364   3.806  11.186  0.2338 -0.0853 -0.4392
  478TMC3    C5 7111   3.301   3.910  11.119 -0.2263  0.7966 -0.2926
  478TMC3    C6 7112   3.216   3.993  11.190  0.1619 -0.0647  0.4567
  478TMC3     C 7113   3.413   3.695  11.404 -0.1746  0.7349  0.4758
  478TMC3     O 7114   3.376   3.597  11.460  0.2647 -0.6018 -0.0322
  478TMC3     H 7115   3.199   3.820  11.480 -0.4575 -1.7215 -1.1133
  478TMC3    H1 7116   3.448   3.754  11.142  1.0871  0.3474  0.6697
  478TMC3    H2 7117   3.173   4.078  11.139 -0.4316 -0.1557  0.8098
  478TMC3    C7 7118   3.333   3.943  10.980  0.1957  0.1307  0.6710
  478TMC3    C8 7119   3.137   4.050  11.414 -0.8319 -0.1737 -0.1592
  478TMC3    O1 7120   3.436   3.889  10.944  0.1535  0.1767  0.2198
  478TMC3    O2 7121   3.079   4.005  11.512  0.3449  0.6304  0.2335
  479MPD2     C 7122   2.338   1.595  15.038  0.2339  0.2767 -0.1469
  479MPD2    C1 7123   2.267   1.516  15.128  0.1246 -0.0895  0.2215
  479MPD2    C2 7124   2.270   1.553  15.258  0.4445  0.7249 -0.1900
  479MPD2    C3 7125   2.353   1.651  15.309  0.8166 -0.2642 -0.3611
  479MPD2    C4 7126   2.436   1.720  15.218  0.1804  0.7037 -0.5528
  479MPD2    C5 7127   2.425   1.693  15.086  0.0462 -0.2269  0.0275
  479MPD2     H 7128   2.199   1.507  15.325 -0.7134  1.4235 -0.9380
  479MPD2    H1 7129   2.506   1.797  15.249 -1.2977  0.5493  3.1814
  479MPD2    H2 7130   2.336   1.583  14.930 -0.4119  0.4134 -0.1483
  479MPD2    H3 7131   2.473   1.746  15.004  0.0130 -0.8673 -0.4083
  479MPD2     N 7132   2.354   1.699  15.444  0.2706  0.6139 -0.1012
  479MPD2    H5 7133   2.435   1.758  15.459  0.7196  0.0470 -0.2930
  479MPD2    N1 7134   2.178   1.417  15.079  0.2183  0.0581  0.1797
  479MPD2    H7 7135   2.151   1.433  14.983  1.0235  2.1827  0.3225
  480TMC3    C1 7136   1.968   1.494  15.648 -0.7888  0.2438  0.1058
  480TMC3    C2 7137   1.877   1.548  15.559 -0.2396  0.2607 -0.1033
  480TMC3    C3 7138   1.927   1.626  15.461 -0.1133  0.1233  0.5509
  480TMC3    C4 7139   2.104   1.517  15.644  0.1378  0.5945 -0.6851
  480TMC3    C5 7140   2.143   1.603  15.534  0.4986 -0.3264  0.8309
  480TMC3    C6 7141   2.057   1.665  15.455  0.1251  0.9818  0.3770
  480TMC3     C 7142   1.921   1.414  15.753 -0.2244  0.3569 -0.5085
  480TMC3     O 7143   2.008   1.352  15.810 -0.0585  0.5598  0.3101
  480TMC3     H 7144   1.774   1.520  15.541  0.0766  0.1262 -1.7329
  480TMC3    H1 7145   2.174   1.466  15.708 -1.4005 -1.6705 -0.8098
  480TMC3    H2 7146   2.095   1.735  15.380 -0.1446 -4.6844 -5.0437
  480TMC3    C7 7147   2.271   1.666  15.551 -0.1861 -0.2411 -0.5422
  480TMC3    C8 7148   1.832   1.660  15.349 -0.7479 -0.7593 -0.2959
  480TMC3    O1 7149   2.300   1.699  15.667  0.3524  0.0183 -0.3395
  480TMC3    O2 7150   1.712   1.639  15.366  0.2340 -0.4065 -0.1561
  481MPD2     C 7151   4.034   1.441  14.453  0.4840  0.6530  0.3184
  481MPD2    C1 7152   3.907   1.414  14.409  0.1188 -0.2503  0.0123
  481MPD2    C2 7153   3.806   1.433  14.498  0.0159  0.1246 -0.0891
  481MPD2    C3 7154   3.833   1.485  14.626  0.2356 -0.2554 -0.8586
  481MPD2    C4 7155   3.961   1.530  14.654 -0.2232 -0.2435  0.5164
  481MPD2    C5 7156   4.058   1.498  14.565  0.2043  0.3905  0.6003
  481MPD2     H 7157   3.702   1.417  14.471  0.1591  0.5682 -0.8992
  481MPD2    H1 7158   3.981   1.591  14.741  1.8074  1.1637 -0.9482
  481MPD2    H2 7159   4.115   1.421  14.385 -0.2282 -0.6068 -0.1517
  481MPD2    H3 7160   4.155   1.527  14.604  0.2104 -1.2766  1.8312
  481MPD2     N 7161   3.736   1.522  14.721 -0.3532 -0.1256  0.2440
  481MPD2    H5 7162   3.764   1.565  14.808  0.9237 -2.3944  0.9489
  481MPD2    N1 7163   3.885   1.359  14.279 -0.5781  0.4901 -0.3459
  481MPD2    H7 7164   3.964   1.342  14.217 -0.9541 -1.5930 -0.2528
  482TMC3    C1 7165   3.787   1.310  14.081 -0.3368  0.0482  0.0347
  482TMC3    C2 7166   3.900   1.236  14.050 -0.1245  0.5534 -0.4360
  482TMC3    C3 7167   3.939   1.234  13.919  0.7715 -0.0777  0.1662
  482TMC3    C4 7168   3.706   1.359  13.984 -0.3693  0.1445 -0.1661
  482TMC3    C5 7169   3.752   1.349  13.854  0.6329 -0.0623  0.3526
  482TMC3    C6 7170   3.872   1.296  13.818 -0.1138 -0.0830  0.3293
  482TMC3     C 7171   3.763   1.349  14.220  0.0668 -0.7680  0.5341
  482TMC3     O 7172   3.651   1.370  14.268 -0.5883  0.3543 -0.2422
  482TMC3     H 7173   3.960   1.181  14.121 -0.6214  1.8634  1.0119
  482TMC3    H1 7174   3.615   1.407  14.017 -1.4121 -1.6758 -0.4172
  482TMC3    H2 7175   3.912   1.287  13.718 -1.4567  2.2762 -0.4121
  482TMC3    C7 7176   3.670   1.404  13.743 -0.0439 -0.3770 -0.1487
  482TMC3    C8 7177   4.023   1.119  13.879 -0.4614  0.3336 -0.8099
  482TMC3    O1 7178   3.555   1.437  13.775 -0.3785  0.3789 -0.2997
  482TMC3    O2 7179   4.019   1.015  13.943 -0.3692  0.0037 -0.6673
  483TMC3    C1 7180   1.489   4.215   0.522  0.2739 -0.0526  0.3373
  483TMC3    C2 7181   1.455   4.334   0.586 -0.7551  0.2356 -0.3069
  483TMC3    C3 7182   1.518   4.376   0.701  0.1693  0.4419 -0.5250
  483TMC3    C4 7183   1.590   4.135   0.572  0.3825  0.0579 -0.0788
  483TMC3    C5 7184   1.652   4.171   0.692  0.2077  0.1538 -0.3114
  483TMC3    C6 7185   1.616   4.293   0.754 -0.5708 -0.4184  0.3504
  483TMC3     C 7186   1.462   4.220   0.381  0.8203 -0.0186 -0.1254
  483TMC3     O 7187   1.412   4.322   0.337  0.4449 -0.1683  0.3383
  483TMC3     H 7188   1.375   4.399   0.552 -3.0487 -2.5632 -0.2399
  483TMC3    H1 7189   1.625   4.048   0.517  0.5347 -0.1925  0.4120
  483TMC3    H2 7190   1.657   4.326   0.849 -1.3576 -0.9935  0.8932
  483TMC3    C7 7191   1.791   4.131   0.715 -0.5632 -0.2012  0.1494
  483TMC3    C8 7192   1.532   4.524   0.699 -0.3829 -0.2387 -1.1535
  483TMC3    O1 7193   1.859   4.205   0.782 -0.2878  0.2230 -0.0017
  483TMC3    O2 7194   1.479   4.585   0.608 -0.5414 -0.4021 -0.0558
  484MPD2     C 7195   4.307   3.032  12.152  0.3582  0.0538 -0.0127
  484MPD2    C1 7196   4.357   2.944  12.245 -0.7610  0.6947 -0.5651
  484MPD2    C2 7197   4.499   2.929  12.258  0.5830  0.2371  0.6341
  484MPD2    C3 7198   4.586   2.992  12.170  0.0451  0.5307  0.3185
  484MPD2    C4 7199   4.524   3.051  12.064  1.1079 -0.1843 -0.0136
  484MPD2    C5 7200   4.389   3.072  12.052  0.2488 -0.3034  0.9635
  484MPD2     H 7201   4.537   2.863  12.335 -0.1922 -1.7906 -0.7226
  484MPD2    H1 7202   4.591   3.097  11.993  2.1506 -0.6013  0.7053
  484MPD2    H2 7203   4.201   3.052  12.141  0.0550 -0.6359  1.6962
  484MPD2    H3 7204   4.351   3.133  11.971  0.8891 -1.0095  0.1222
  484MPD2     N 7205   0.008   2.981  12.175 -0.5550  0.0549 -0.2272
  484MPD2    H5 7206   0.052   3.020  12.092 -0.0386 -1.5456 -0.7018
  484MPD2    N1 7207   4.265   2.880  12.329  0.0160  0.3605  0.1855
  484MPD2    H7 7208   4.174   2.924  12.343 -0.9270 -1.1090 -1.3393
  485TMC3    C1 7209   0.215   2.947  12.285 -0.5808 -0.5593  0.3479
  485TMC3    C2 7210   0.282   2.933  12.405 -0.2325  0.1608  0.3672
  485TMC3    C3 7211   0.391   3.008  12.415 -0.0598 -0.2877  0.4886
  485TMC3    C4 7212   0.274   3.025  12.181  0.1177  0.0547 -0.0714
  485TMC3    C5 7213   0.399   3.080  12.186  0.2590 -0.6202  0.5643
  485TMC3    C6 7214   0.452   3.084  12.314 -0.4829 -0.1651  0.3256
  485TMC3     C 7215   0.073   2.943  12.294  0.6514 -0.1959  0.4370
  485TMC3     O 7216   0.027   2.915  12.403  0.0097 -0.2838  0.4307
  485TMC3     H 7217   0.240   2.877  12.488 -0.0519  0.7755  0.8726
  485TMC3    H1 7218   0.233   3.023  12.080 -0.2444  4.4243  0.0038
  485TMC3    H2 7219   0.542   3.139  12.337 -1.5266  1.3277  0.8186
  485TMC3    C7 7220   0.490   3.040  12.090 -0.4624  0.0493  0.0079
  485TMC3    C8 7221   0.502   2.961  12.495 -0.3428 -0.5250 -0.3169
  485TMC3    O1 7222   0.461   3.047  11.974 -0.2124 -0.0434 -0.6347
  485TMC3    O2 7223   0.604   2.961  12.430  0.2188  0.0741  0.4579
  486MPD2     C 7224   1.874   1.482  12.404  0.3413  0.3785 -0.0656
  486MPD2    C1 7225   1.958   1.533  12.314 -1.1214 -0.5139 -0.5869
  486MPD2    C2 7226   1.957   1.668  12.298  0.9453 -0.1716 -0.1693
  486MPD2    C3 7227   1.885   1.746  12.389 -0.3700  0.1228  0.0986
  486MPD2    C4 7228   1.800   1.689  12.469  0.4465  0.5386  0.2076
  486MPD2    C5 7229   1.787   1.557  12.473 -0.2329  0.2201 -0.0220
  486MPD2     H 7230   2.016   1.715  12.221 -1.6414  1.3926 -1.2081
  486MPD2    H1 7231   1.743   1.755  12.533 -1.1978 -1.6193  0.9816
  486MPD2    H2 7232   1.861   1.375  12.417 -1.3187  0.4958 -0.7131
  486MPD2    H3 7233   1.714   1.521  12.546  0.4857 -1.6975 -0.2491
  486MPD2     N 7234   1.891   1.886  12.388  0.2780 -0.5611 -0.1342
  486MPD2    H5 7235   1.933   1.922  12.304 -0.6649 -0.9128 -0.7662
  486MPD2    N1 7236   2.038   1.442  12.240  0.7090 -0.2902  0.0628
  486MPD2    H7 7237   2.008   1.346  12.253 -0.6618  0.0095 -0.9696
  487TMC3    C1 7238   2.235   1.348  12.159  0.1039 -0.2942 -0.9795
  487TMC3    C2 7239   2.176   1.242  12.114  0.5211  0.4205  0.2085
  487TMC3    C3 7240   2.215   1.119  12.159  0.5973 -0.7203  0.3488
  487TMC3    C4 7241   2.331   1.337  12.254  0.5290 -0.2427 -0.4778
  487TMC3    C5 7242   2.374   1.218  12.309  0.2626  0.0452 -0.2241
  487TMC3    C6 7243   2.319   1.106  12.249  0.4933  0.3087  0.3428
  487TMC3     C 7244   2.154   1.470  12.180 -0.5038 -0.6763 -0.1695
  487TMC3     O 7245   2.190   1.582  12.138 -0.6596 -0.0027 -0.0258
  487TMC3     H 7246   2.089   1.256  12.051  1.3312  3.5741 -0.1986
  487TMC3    H1 7247   2.381   1.425  12.292 -1.4065 -0.7184  3.2843
  487TMC3    H2 7248   2.315   1.010  12.299 -2.1293 -1.2408 -2.7720
  487TMC3    C7 7249   2.389   1.218  12.454  0.6507 -0.1334 -0.0480
  487TMC3    C8 7250   2.099   1.064  12.211 -0.3731  0.0414  0.7171
  487TMC3    O1 7251   2.357   1.320  12.511  0.4981 -0.1350  0.6559
  487TMC3    O2 7252   2.016   1.150  12.241  0.1578  0.0522 -0.2228
  488MPD2     C 7253   1.867   3.134  16.121 -0.7902  0.0272  0.7218
  488MPD2    C1 7254   1.854   3.236  16.210 -0.9130  0.5459  0.1697
  488MPD2    C2 7255   1.815   3.198  16.340 -0.4255  0.0034 -0.4713
  488MPD2    C3 7256   1.798   3.065  16.377 -0.1229  0.1259 -1.1719
  488MPD2    C4 7257   1.809   2.972  16.279 -0.6668  1.3613 -0.0580
  488MPD2    C5 7258   1.843   3.007  16.149  0.5394  0.3967 -0.1343
  488MPD2     H 7259   1.801   3.275  16.415  0.7582 -0.5515  0.3305
  488MPD2    H1 7260   1.786   2.868  16.296  0.3146  1.0122 -0.8749
  488MPD2    H2 7261   1.904   3.147  16.020 -0.5558  0.2818  0.8407
  488MPD2    H3 7262   1.852   2.934  16.069 -1.0149  0.5139 -0.4019
  488MPD2     N 7263   1.781   3.034  16.516 -0.3883  0.2926  0.0715
  488MPD2    H5 7264   1.798   3.109  16.582  1.3032 -0.2423  0.2377
  488MPD2    N1 7265   1.887   3.370  16.176  0.0285  0.1420  0.2415
  488MPD2    H7 7266   1.864   3.441  16.245 -0.2794 -1.4393  1.7683
  489TMC3    C1 7267   1.768   2.909  16.711  0.5129  0.0898 -0.1818
  489TMC3    C2 7268   1.825   3.010  16.778  0.4073 -0.0295  0.5734
  489TMC3    C3 7269   1.791   3.033  16.908 -0.2670  0.5271  0.8156
  489TMC3    C4 7270   1.679   2.829  16.767  0.7023  0.1793 -0.0352
  489TMC3    C5 7271   1.655   2.845  16.908 -0.5704 -0.4568 -0.0472
  489TMC3    C6 7272   1.712   2.948  16.977  0.3506  0.0499  0.4576
  489TMC3     C 7273   1.770   2.907  16.564 -0.5452 -0.0169 -0.2905
  489TMC3     O 7274   1.742   2.809  16.502  0.0561 -0.3096  0.1165
  489TMC3     H 7275   1.899   3.071  16.728  1.4158 -1.4924  0.2641
  489TMC3    H1 7276   1.640   2.739  16.719 -0.8415  1.3383 -0.9875
  489TMC3    H2 7277   1.667   2.968  17.074 -3.0270  0.2666 -1.1464
  489TMC3    C7 7278   1.558   2.762  16.974 -0.3706 -0.0458  0.5134
  489TMC3    C8 7279   1.791   3.177  16.937  0.1452 -0.4511 -0.2545
  489TMC3    O1 7280   1.548   2.778  17.092 -0.3795 -0.0779  0.3308
  489TMC3    O2 7281   1.892   3.230  16.890  0.0794  0.1718  0.3864
  490MPD2     C 7282   2.375   3.060  17.408 -0.1294  0.3813  0.1229
  490MPD2    C1 7283   2.419   2.952  17.333  0.4009  0.7526 -0.0186
  490MPD2    C2 7284   2.544   2.967  17.275  0.6500  0.4605 -0.2210
  490MPD2    C3 7285   2.624   3.085  17.284 -0.2956  0.3946 -0.2321
  490MPD2    C4 7286   2.567   3.189  17.357 -0.3800  0.1327 -0.3102
  490MPD2    C5 7287   2.446   3.173  17.418  0.1401  0.1149  0.0725
  490MPD2     H 7288   2.588   2.881  17.227 -1.6462  0.2549 -1.9272
  490MPD2    H1 7289   2.620   3.283  17.358  1.4210 -0.9069  1.6135
  490MPD2    H2 7290   2.277   3.063  17.455  0.9098  2.6813  2.0837
  490MPD2    H3 7291   2.400   3.255  17.473  0.1736 -0.8597  1.5490
  490MPD2     N 7292   2.750   3.100  17.235 -0.5875  0.1433  0.2649
  490MPD2    H5 7293   2.790   3.193  17.241 -0.6036  0.1095  0.9091
  490MPD2    N1 7294   2.356   2.831  17.322 -0.1363  0.6499 -0.4779
  490MPD2    H7 7295   2.401   2.762  17.264 -3.1644 -1.2031 -0.6591
  491TMC3    C1 7296   2.214   2.644  17.372 -0.3497 -0.3440 -0.0064
  491TMC3    C2 7297   2.187   2.559  17.477 -0.1536  0.2382 -0.9957
  491TMC3    C3 7298   2.175   2.423  17.453 -0.3296  0.1778  0.7486
  491TMC3    C4 7299   2.243   2.603  17.244  0.0091  0.0756  0.5263
  491TMC3    C5 7300   2.223   2.468  17.229  0.0711  0.5415  0.5430
  491TMC3    C6 7301   2.181   2.379  17.326 -0.3609  0.0993  0.0980
  491TMC3     C 7302   2.255   2.783  17.410  0.0918 -1.0008 -0.3772
  491TMC3     O 7303   2.234   2.828  17.522 -0.1934  0.2572 -0.3033
  491TMC3     H 7304   2.196   2.597  17.578 -2.6643 -2.1001  0.0978
  491TMC3    H1 7305   2.244   2.677  17.165  2.5731 -0.0206  0.4692
  491TMC3    H2 7306   2.171   2.276  17.294  1.4095  0.0834 -0.3885
  491TMC3    C7 7307   2.206   2.420  17.097 -0.6228  0.3292  0.6268
  491TMC3    C8 7308   2.088   2.364  17.545 -0.8532 -0.9760  0.2799
  491TMC3    O1 7309   2.144   2.318  17.068 -0.0335  0.1428 -0.2984
  491TMC3    O2 7310   2.092   2.409  17.658  0.2590 -0.4433  0.2618
  492MPD2     C 7311   3.559   2.726  11.436 -0.2257 -0.1247  0.2990
  492MPD2    C1 7312   3.519   2.624  11.363 -0.4357 -0.5311  0.0135
  492MPD2    C2 7313   3.410   2.550  11.410 -0.1064 -0.5204 -0.0063
  492MPD2    C3 7314   3.356   2.575  11.532 -0.3172 -0.0368  0.1603
  492MPD2    C4 7315   3.405   2.678  11.613 -0.8445  0.6102 -0.4298
  492MPD2    C5 7316   3.504   2.755  11.558  0.4020 -0.1849  0.2712
  492MPD2     H 7317   3.366   2.483  11.337 -1.5593 -1.1208  1.4285
  492MPD2    H1 7318   3.374   2.706  11.713  0.3875 -0.7693  0.3402
  492MPD2    H2 7319   3.642   2.793  11.414 -1.5599  1.1377 -0.8306
  492MPD2    H3 7320   3.544   2.838  11.615  1.0380 -1.0954  1.1546
  492MPD2     N 7321   3.229   2.517  11.575 -0.5013  0.1207  0.0218
  492MPD2    H5 7322   3.201   2.559  11.664 -0.5742 -0.3458  0.2168
  492MPD2    N1 7323   3.567   2.594  11.232  0.2461 -0.3490  0.3940
  492MPD2    H7 7324   3.522   2.517  11.185 -1.5560  0.2909  1.0903
  493TMC3    C1 7325   3.671   2.636  11.027  0.6321 -0.8847 -0.1390
  493TMC3    C2 7326   3.779   2.678  10.951  0.3896 -0.1728 -0.1506
  493TMC3    C3 7327   3.760   2.668  10.809  0.0951 -0.6586 -0.7630
  493TMC3    C4 7328   3.551   2.594  10.972  0.1810 -0.0674 -0.5352
  493TMC3    C5 7329   3.535   2.593  10.834  0.3160  0.2796 -0.0541
  493TMC3    C6 7330   3.639   2.632  10.753 -0.1643 -0.0693 -0.8094
  493TMC3     C 7331   3.666   2.660  11.169 -0.4688 -0.9812  0.0776
  493TMC3     O 7332   3.744   2.746  11.210 -0.2663  0.2898 -0.7136
  493TMC3     H 7333   3.874   2.703  10.996 -0.0606 -1.7244  1.6839
  493TMC3    H1 7334   3.466   2.567  11.034 -0.7554 -1.5154 -2.4418
  493TMC3    H2 7335   3.639   2.592  10.653  0.6355  1.3450 -1.3713
  493TMC3    C7 7336   3.422   2.541  10.767 -0.0473 -0.4010 -1.0155
  493TMC3    C8 7337   3.880   2.636  10.732 -0.5984 -0.4095 -0.2974
  493TMC3    O1 7338   3.415   2.523  10.646 -0.3172 -0.3836 -0.5824
  493TMC3    O2 7339   3.973   2.602  10.792 -0.2541  0.4830  0.3887
  494TMC3    C1 7340   3.551   4.542   0.091  0.7452  0.3641  1.1332
  494TMC3    C2 7341   3.582   4.412   0.076 -0.2161  0.2691 -0.2330
  494TMC3    C3 7342   3.577   4.359  17.647  0.1109  0.5658 -0.6537
  494TMC3    C4 7343   3.482   4.611  17.684  0.0036  0.1297 -0.4028
  494TMC3    C5 7344   3.458   4.551  17.565 -0.1176 -0.1342  0.1309
  494TMC3    C6 7345   3.506   4.427  17.543  0.6579  0.4272 -0.6670
  494TMC3     C 7346   3.536   4.598   0.223 -0.4953 -0.3599  0.9103
  494TMC3     O 7347   3.550   4.523   0.317  0.5456  0.2005 -0.4240
  494TMC3     H 7348   3.636   4.366   0.158  1.4188 -0.6552 -1.8278
  494TMC3    H1 7349   3.451   4.714  17.687  1.3679  0.5509 -0.5148
  494TMC3    H2 7350   3.474   4.374  17.454  1.9294  0.6331 -1.2493
  494TMC3    C7 7351   3.391   4.628  17.460 -0.2997  0.1516 -0.3264
  494TMC3    C8 7352   3.633   4.224  17.635  0.3244  0.1122 -0.0842
  494TMC3    O1 7353   3.416   4.598  17.346  0.1906 -0.3884  0.0622
  494TMC3    O2 7354   3.678   4.180   0.042 -0.3446 -0.0663  0.0939
  495TMC3    C1 7355   2.189   1.555  14.423  0.1042 -0.7444  0.6699
  495TMC3    C2 7356   2.178   1.663  14.340  0.0775  0.6727  0.4171
  495TMC3    C3 7357   2.110   1.772  14.393  0.0697  0.7261  0.1654
  495TMC3    C4 7358   2.166   1.557  14.557  0.0481  0.5568 -0.1867
  495TMC3    C5 7359   2.113   1.675  14.601 -1.6405  0.3647 -0.2236
  495TMC3    C6 7360   2.081   1.779  14.525 -0.1882 -0.4350 -0.3690
  495TMC3     C 7361   2.165   1.431  14.366  0.1070  0.2754 -0.4551
  495TMC3     O 7362   2.103   1.424  14.258  0.0483  0.9815  0.0261
  495TMC3     H 7363   2.159   1.639  14.236 -3.5419 -2.4289  1.8034
  495TMC3    H1 7364   2.152   1.467  14.617  1.5425  1.0830  0.9287
  495TMC3    H2 7365   2.032   1.867  14.566 -0.3022 -0.8988  0.4744
  495TMC3    C7 7366   2.071   1.669  14.745  0.5203  0.8524 -0.3311
  495TMC3    C8 7367   2.006   1.833  14.315  0.3535 -0.1532 -0.1628
  495TMC3    O1 7368   2.107   1.575  14.817 -0.4765  0.1504 -0.3922
  495TMC3    O2 7369   1.912   1.865  14.385 -0.0083 -0.6564  0.4750
  496MPD2     C 7370   4.401   1.932  15.862 -0.4418  0.0394 -0.3113
  496MPD2    C1 7371   4.276   1.890  15.809 -0.4821  0.5179  0.8347
  496MPD2    C2 7372   4.163   1.928  15.871  0.3748  0.5913  0.1404
  496MPD2    C3 7373   4.163   2.005  15.989 -0.3127  0.1038  0.4162
  496MPD2    C4 7374   4.286   2.046  16.034  0.8757 -0.4542 -0.7331
  496MPD2    C5 7375   4.405   2.006  15.977 -0.7450 -0.2051 -0.9174
  496MPD2     H 7376   4.073   1.878  15.838  1.1293  0.2132 -1.3415
  496MPD2    H1 7377   4.287   2.093  16.132 -0.9265 -0.0705 -0.8891
  496MPD2    H2 7378   4.494   1.908  15.811 -1.7295 -3.3142 -1.0729
  496MPD2    H3 7379   4.498   2.035  16.024 -1.0653  0.8813 -0.9367
  496MPD2     N 7380   4.048   2.030  16.071 -0.5358 -0.1260 -0.3963
  496MPD2    H5 7381   4.065   2.079  16.158  2.2181 -0.3881 -0.7813
  496MPD2    N1 7382   4.292   1.813  15.695  0.1088  0.0468  0.5508
  496MPD2    H7 7383   4.388   1.805  15.662  0.7662 -1.4057  2.7678
  497TMC3    C1 7384   3.844   1.972  16.174  0.4707 -0.3089 -0.4317
  497TMC3    C2 7385   3.705   1.975  16.153 -0.5575 -0.7870  0.0122
  497TMC3    C3 7386   3.634   2.006  16.265 -0.5914 -0.6781  0.5017
  497TMC3    C4 7387   3.908   1.992  16.293 -0.0123  0.3298  0.3775
  497TMC3    C5 7388   3.824   2.021  16.398 -0.6993 -0.4544  1.2260
  497TMC3    C6 7389   3.690   2.024  16.388 -0.3025 -0.1470 -0.5303
  497TMC3     C 7390   3.932   1.955  16.058 -0.2726  0.4732 -0.3747
  497TMC3     O 7391   3.891   1.909  15.952  0.4864  0.1610  0.2833
  497TMC3     H 7392   3.655   1.943  16.063 -2.2536 -0.2694  0.7666
  497TMC3    H1 7393   4.010   1.969  16.321  0.3056  1.8747  0.5093
  497TMC3    H2 7394   3.623   2.045  16.471  1.9894 -0.3408  1.3516
  497TMC3    C7 7395   3.885   2.041  16.531 -0.1445 -0.4946 -0.6634
  497TMC3    C8 7396   3.491   2.023  16.246 -0.4096 -0.4142  0.1082
  497TMC3    O1 7397   3.815   2.024  16.629  0.2100 -0.2762 -1.1175
  497TMC3    O2 7398   3.412   1.991  16.331 -0.2158  0.4231 -0.0811
  498MPD2     C 7399   1.150   1.989   9.357  0.1338 -0.3718  0.2002
  498MPD2    C1 7400   1.113   2.102   9.413  0.3704  0.2678 -0.3757
  498MPD2    C2 7401   0.996   2.106   9.486  0.1540 -0.2989 -0.2247
  498MPD2    C3 7402   0.910   1.997   9.498 -0.3194 -0.0238  0.1744
  498MPD2    C4 7403   0.950   1.885   9.425 -0.1832 -0.6018  0.2777
  498MPD2    C5 7404   1.069   1.881   9.363 -0.0292  0.7961 -0.3081
  498MPD2     H 7405   0.968   2.197   9.538 -2.1504 -0.2730 -1.5027
  498MPD2    H1 7406   0.888   1.796   9.414  0.7039 -1.2554  0.5913
  498MPD2    H2 7407   1.250   1.970   9.321  0.5325 -0.1595  1.1988
  498MPD2    H3 7408   1.109   1.792   9.315  0.5030  0.7963  0.1320
  498MPD2     N 7409   0.781   1.998   9.567  0.4520 -0.0253 -0.1996
  498MPD2    H5 7410   0.741   2.088   9.595 -1.5515 -0.4699 -1.6246
  498MPD2    N1 7411   1.190   2.220   9.416 -0.2693  0.6994 -0.1578
  498MPD2    H7 7412   1.148   2.305   9.453  2.4004  1.6767  0.6905
  499TMC3    C1 7413   1.376   2.365   9.350 -0.5297 -0.1391  0.1732
  499TMC3    C2 7414   1.513   2.376   9.352  0.0734 -0.3715 -0.0274
  499TMC3    C3 7415   1.559   2.496   9.302 -0.8563  0.2706 -0.0319
  499TMC3    C4 7416   1.293   2.479   9.329  0.3583  0.5121 -0.9854
  499TMC3    C5 7417   1.345   2.601   9.290  0.1449  0.0427 -0.6391
  499TMC3    C6 7418   1.479   2.600   9.261  0.3004  0.0762 -0.4257
  499TMC3     C 7419   1.324   2.228   9.384 -0.1145  0.5370 -0.2167
  499TMC3     O 7420   1.396   2.132   9.393 -0.5039 -0.2706 -0.2061
  499TMC3     H 7421   1.572   2.294   9.390 -0.9552 -0.2796  1.7599
  499TMC3    H1 7422   1.187   2.459   9.323  0.8888 -1.9595 -2.2780
  499TMC3    H2 7423   1.527   2.693   9.230  0.4945  0.7682  1.9058
  499TMC3    C7 7424   1.263   2.704   9.241  0.2661  0.1042  0.6709
  499TMC3    C8 7425   1.699   2.509   9.272  0.1211  0.5467  0.3120
  499TMC3    O1 7426   1.320   2.784   9.168  0.1715 -0.3670  0.1303
  499TMC3    O2 7427   1.744   2.622   9.269  0.3980  0.3765  0.2129
  500MPD2     C 7428   2.246   3.458  10.047  0.2600 -0.4715  0.0848
  500MPD2    C1 7429   2.321   3.444   9.934 -0.0614 -0.0728 -0.1090
  500MPD2    C2 7430   2.260   3.402   9.816 -0.4654  0.1646 -0.4859
  500MPD2    C3 7431   2.124   3.381   9.822 -0.0250  0.0778  0.2337
  500MPD2    C4 7432   2.049   3.395   9.942 -0.3328  0.6966 -0.5632
  500MPD2    C5 7433   2.117   3.428  10.054 -0.3374  0.0831  0.2165
  500MPD2     H 7434   2.322   3.389   9.728  1.5414  1.5203  0.7403
  500MPD2    H1 7435   1.941   3.385   9.939 -0.2173 -1.0225  1.0296
  500MPD2    H2 7436   2.289   3.500  10.137  0.4824 -1.2786  0.3506
  500MPD2    H3 7437   2.059   3.458  10.140 -0.0013  1.4189 -0.0192
  500MPD2     N 7438   2.059   3.354   9.699  0.3524  0.0517  0.8218
  500MPD2    H5 7439   1.958   3.352   9.708  0.5005  1.5095  2.7971
  500MPD2    N1 7440   2.453   3.480   9.923  0.4692 -0.0179  0.6396
  500MPD2    H7 7441   2.492   3.478   9.829 -0.8855  2.3708  0.0321
  501TMC3    C1 7442   2.665   3.556   9.999 -0.0862  1.0062  0.6900
  501TMC3    C2 7443   2.677   3.677   9.938 -0.4841  0.3143  0.5073
  501TMC3    C3 7444   2.797   3.743   9.962  0.1453  0.2196 -0.3448
  501TMC3    C4 7445   2.760   3.494  10.077 -0.4550  0.8475  0.0411
  501TMC3    C5 7446   2.872   3.565  10.091 -0.3550  0.1272 -0.6534
  501TMC3    C6 7447   2.895   3.685  10.031  0.1972  0.0661  0.0918
  501TMC3     C 7448   2.534   3.505  10.032  0.2351  0.0216 -0.4698
  501TMC3     O 7449   2.511   3.500  10.148 -0.3467  0.2718 -0.2536
  501TMC3     H 7450   2.592   3.715   9.882  1.5223  0.8874 -2.1573
  501TMC3    H1 7451   2.749   3.397  10.124  0.6242 -0.0601 -1.5458
  501TMC3    H2 7452   2.987   3.743  10.040  1.5292 -2.0394  0.0468
  501TMC3    C7 7453   2.986   3.507  10.173  0.3889  0.6614 -0.3357
  501TMC3    C8 7454   2.795   3.889   9.983  0.3195  0.5924 -0.2491
  501TMC3    O1 7455   2.953   3.405  10.241  0.6798  0.1920  0.0437
  501TMC3    O2 7456   2.867   3.926  10.074  0.3264 -0.4443 -0.3851
  502TMC3    C1 7457   1.661   2.863  14.631 -0.4339 -0.5208  0.3005
  502TMC3    C2 7458   1.668   3.000  14.663 -0.9813 -1.0606 -0.1218
  502TMC3    C3 7459   1.554   3.063  14.704 -0.8722  0.8796 -0.1634
  502TMC3    C4 7460   1.544   2.804  14.640 -0.4306  0.0183  0.4004
  502TMC3    C5 7461   1.440   2.873  14.688  0.3141 -0.6728 -0.5620
  502TMC3    C6 7462   1.438   2.999  14.730 -0.4664 -0.2860 -0.0052
  502TMC3     C 7463   1.774   2.786  14.659 -0.1618  0.3692 -0.3331
  502TMC3     O 7464   1.885   2.834  14.639  0.0104  0.2943 -0.0162
  502TMC3     H 7465   1.760   3.057  14.650 -1.3491 -0.1220  1.4364
  502TMC3    H1 7466   1.529   2.706  14.597  4.1890 -0.4908 -0.0109
  502TMC3    H2 7467   1.351   3.057  14.760 -1.1696 -1.5761  0.4480
  502TMC3    C7 7468   1.310   2.814  14.669 -0.1576  0.4739 -0.2143
  502TMC3    C8 7469   1.556   3.211  14.681  0.0162  0.1350  0.5710
  502TMC3    O1 7470   1.311   2.727  14.582  0.5005 -0.8578 -0.2428
  502TMC3    O2 7471   1.663   3.271  14.682  0.0371 -0.4655 -0.3878
  503MPD2     C 7472   3.452   3.439  16.590 -0.0988  0.9990 -0.3663
  503MPD2    C1 7473   3.483   3.496  16.712 -0.4298  0.2273 -0.3245
  503MPD2    C2 7474   3.579   3.440  16.799  0.1440  0.0429 -0.4584
  503MPD2    C3 7475   3.662   3.336  16.753 -0.4943 -0.5887  0.3830
  503MPD2    C4 7476   3.632   3.279  16.632 -0.2481  0.1991  1.5023
  503MPD2    C5 7477   3.525   3.329  16.557 -0.0760 -1.1371 -0.1582
  503MPD2     H 7478   3.587   3.487  16.897  0.4720  1.7273 -1.3045
  503MPD2    H1 7479   3.684   3.194  16.590  0.5337  1.1786  0.4713
  503MPD2    H2 7480   3.379   3.475  16.519  0.0340 -0.7936 -1.3957
  503MPD2    H3 7481   3.497   3.283  16.462  1.2782  0.7246 -1.4647
  503MPD2     N 7482   3.765   3.291  16.840 -0.0947  0.1968 -0.4347
  503MPD2    H5 7483   3.764   3.326  16.935 -0.6118  1.1676 -0.7971
  503MPD2    N1 7484   3.434   3.622  16.756  0.2224  0.0153 -0.4856
  503MPD2    H7 7485   3.465   3.667  16.841 -3.3360  1.1056  0.2599
  504TMC3    C1 7486   3.954   3.162  16.922  0.1277  0.1190  0.4384
  504TMC3    C2 7487   3.895   3.075  17.018 -0.2339  0.1144  0.0219
  504TMC3    C3 7488   3.974   2.999  17.097  0.0300 -0.6193 -0.3554
  504TMC3    C4 7489   4.090   3.146  16.894 -0.1152 -0.4546 -0.2469
  504TMC3    C5 7490   4.160   3.066  16.979  0.4006  0.1446 -0.4318
  504TMC3    C6 7491   4.108   3.002  17.091 -0.0192 -0.1249  0.6292
  504TMC3     C 7492   3.872   3.208  16.805 -0.4561  0.1434 -1.0908
  504TMC3     O 7493   3.914   3.183  16.697 -0.3315  0.4422 -0.8152
  504TMC3     H 7494   3.788   3.055  17.018 -0.5381  1.7075 -1.8894
  504TMC3    H1 7495   4.138   3.207  16.819 -0.9752  0.3946 -0.1044
  504TMC3    H2 7496   4.157   2.913  17.130  2.2957  1.1681  0.6506
  504TMC3    C7 7497   4.292   3.025  16.930 -0.0084  0.0306  0.4780
  504TMC3    C8 7498   3.914   2.873  17.138  0.5480 -1.0103  0.0466
  504TMC3    O1 7499   4.319   3.061  16.813  0.3280 -0.2334 -0.5638
  504TMC3    O2 7500   3.808   2.843  17.085  0.3405 -0.0569  0.7172
  505MPD2     C 7501   4.194   1.817  11.031  0.5056 -0.6452  0.5304
  505MPD2    C1 7502   4.250   1.791  10.910  0.2374  0.3366 -0.0523
  505MPD2    C2 7503   4.335   1.886  10.854  0.2486  0.6481 -0.1443
  505MPD2    C3 7504   4.378   1.999  10.932 -0.4164 -0.5194 -0.0025
  505MPD2    C4 7505   4.315   2.024  11.053 -0.5204 -0.6450  0.8767
  505MPD2    C5 7506   4.216   1.937  11.094 -0.4173 -0.3041 -1.1022
  505MPD2     H 7507   4.375   1.879  10.754 -1.6739  0.8165 -0.9174
  505MPD2    H1 7508   4.342   2.109  11.114  1.6681  0.1962 -1.2652
  505MPD2    H2 7509   4.117   1.749  11.065 -1.5209  2.0053  1.2808
  505MPD2    H3 7510   4.169   1.950  11.191 -1.9324 -0.7169 -1.7704
  505MPD2     N 7511   4.483   2.081  10.896 -0.1316 -0.0293 -0.4589
  505MPD2    H5 7512   4.505   2.162  10.953 -1.6568  0.3695 -0.4209
  505MPD2    N1 7513   4.217   1.669  10.849  0.4388  0.1379 -0.3415
  505MPD2    H7 7514   4.145   1.614  10.894  0.3415 -1.3160 -2.2919
  506TMC3    C1 7515   4.389   1.642  10.679  0.1908  0.5371  0.0118
  506TMC3    C2 7516   4.394   1.626  10.543 -0.4861 -0.0857  0.0578
  506TMC3    C3 7517   4.513   1.665  10.477  0.2534  0.0916 -0.3726
  506TMC3    C4 7518   4.506   1.646  10.751  0.2741 -0.0494  0.3267
  506TMC3    C5 7519   4.620   1.667  10.684 -0.4943  0.3278 -0.3052
  506TMC3    C6 7520   4.630   1.688  10.547 -0.3326  0.2051  0.9701
  506TMC3     C 7521   4.264   1.607  10.737  0.2702 -0.7954  0.1645
  506TMC3     O 7522   4.211   1.516  10.678  0.2296  0.1133  0.0002
  506TMC3     H 7523   4.307   1.590  10.489  1.6069 -0.6905 -2.9312
  506TMC3    H1 7524   4.495   1.640  10.859 -0.2783  0.9289  0.3271
  506TMC3    H2 7525   4.718   1.721  10.494 -1.2484  0.6862 -0.2585
  506TMC3    C7 7526   0.005   1.715  10.761  0.2650 -0.4556 -0.1032
  506TMC3    C8 7527   4.520   1.640  10.333  0.3008  0.1818 -0.5717
  506TMC3    O1 7528   4.701   1.767  10.869 -0.0399  0.2093 -0.4405
  506TMC3    O2 7529   4.433   1.561  10.295  0.1860  0.2753 -0.0384
  507TMC3    C1 7530   0.311   3.142  14.661 -0.5075 -0.6461  0.4328
  507TMC3    C2 7531   0.338   3.022  14.597  0.0397  0.1551  0.1390
  507TMC3    C3 7532   0.442   3.018  14.509  0.1469 -0.0730 -0.3813
  507TMC3    C4 7533   0.351   3.259  14.604 -0.4549 -1.0006  0.6105
  507TMC3    C5 7534   0.438   3.261  14.500 -0.3760 -0.5320 -0.0449
  507TMC3    C6 7535   0.491   3.135  14.459 -0.0768 -0.6447  0.3866
  507TMC3     C 7536   0.178   3.147  14.713  0.0596 -0.1520 -0.0202
  507TMC3     O 7537   0.102   3.220  14.649 -0.1836 -0.3844  0.1986
  507TMC3     H 7538   0.297   2.939  14.653  1.8604 -1.6804 -1.2362
  507TMC3    H1 7539   0.298   3.351  14.628  2.4356  0.8150  0.1440
  507TMC3    H2 7540   0.565   3.128  14.380 -1.0038 -0.2556 -0.5160
  507TMC3    C7 7541   0.399   3.337  14.380 -0.0511 -0.1917 -0.6875
  507TMC3    C8 7542   0.405   2.915  14.400 -0.2444 -0.3438  0.6982
  507TMC3    O1 7543   0.396   3.272  14.276 -0.2063  0.0790  0.3269
  507TMC3    O2 7544   0.401   2.796  14.428 -0.0959 -0.0301  0.4695
  508MPD2     C 7545   1.043   0.110  16.037 -0.2012 -0.0546 -0.0335
  508MPD2    C1 7546   1.008   0.210  16.121 -0.0175 -0.5056  0.4777
  508MPD2    C2 7547   0.951   0.327  16.076 -0.8389  0.5777 -0.7457
  508MPD2    C3 7548   0.925   0.345  15.944  0.6318  0.4426 -0.4242
  508MPD2    C4 7549   0.952   0.234  15.855 -0.1725  0.0353  0.1920
  508MPD2    C5 7550   1.003   0.118  15.904  0.1071  0.0680  0.1412
  508MPD2     H 7551   0.939   0.414  16.141 -0.3997  1.0061 -1.2436
  508MPD2    H1 7552   0.937   0.238  15.748 -0.5187  0.2113  0.2463
  508MPD2    H2 7553   1.094   0.023  16.076  1.0414  0.2329 -1.0372
  508MPD2    H3 7554   1.049   0.044  15.838 -1.1235  0.7903 -1.5175
  508MPD2     N 7555   0.877   0.470  15.888  0.3273 -0.0453 -0.1406
  508MPD2    H5 7556   0.854   0.545  15.952 -1.0201 -1.1615  0.6851
  508MPD2    N1 7557   1.061   0.199  16.254 -0.0236 -0.7957  0.2212
  508MPD2    H7 7558   1.105   0.114  16.288 -1.1348 -0.4387  2.5700
  509TMC3    C1 7559   0.702   0.811  15.612 -0.6492  0.1325 -0.5095
  509TMC3    C2 7560   0.730   0.900  15.705  0.1372 -0.3858 -0.3204
  509TMC3    C3 7561   0.803   0.865  15.818 -0.1485  0.0457 -0.2967
  509TMC3    C4 7562   0.740   0.681  15.626  0.2043  0.5230 -0.1351
  509TMC3    C5 7563   0.811   0.645  15.736 -0.0992  0.1538 -0.2773
  509TMC3    C6 7564   0.848   0.738  15.836  0.9510 -0.0993 -0.2612
  509TMC3     C 7565   0.641   0.850  15.491 -0.4834 -0.1178  0.7356
  509TMC3     O 7566   0.570   0.772  15.431  0.0872 -0.1390  0.1360
  509TMC3     H 7567   0.678   0.995  15.701 -4.6182 -2.9743 -0.1737
  509TMC3    H1 7568   0.731   0.607  15.547 -3.6761  1.4307 -0.5592
  509TMC3    H2 7569   0.907   0.709  15.923 -1.0925 -2.1676  0.4349
  509TMC3    C7 7570   0.857   0.505  15.755  0.2708  0.3628  0.0297
  509TMC3    C8 7571   0.878   0.964  15.891  0.2672 -0.1960 -0.3737
  509TMC3    O1 7572   0.870   0.432  15.658 -0.4379  0.6632 -0.1913
  509TMC3    O2 7573   0.967   0.922  15.962 -0.6865 -0.2290 -0.3349
  510MPD2     C 7574   3.631   2.171  14.141  0.2721  0.0768 -0.1499
  510MPD2    C1 7575   3.669   2.176  14.273  0.1236 -0.2302  0.1740
  510MPD2    C2 7576   3.801   2.204  14.305 -0.7385  0.0388 -0.1760
  510MPD2    C3 7577   3.900   2.207  14.206 -0.4485  0.1075 -0.2254
  510MPD2    C4 7578   3.859   2.178  14.073  0.2809 -0.1335  0.0293
  510MPD2    C5 7579   3.728   2.171  14.046  0.7851 -0.1933  0.7800
  510MPD2     H 7580   3.820   2.200  14.412 -1.3405 -1.9158 -0.1452
  510MPD2    H1 7581   3.922   2.188  13.985  2.9236 -0.1445  1.9118
  510MPD2    H2 7582   3.529   2.140  14.118  0.4399  1.2131 -2.4646
  510MPD2    H3 7583   3.696   2.177  13.942  0.5398  0.7054  0.9097
  510MPD2     N 7584   4.033   2.229  14.256 -0.5183  0.2392  0.9868
  510MPD2    H5 7585   4.045   2.268  14.349 -1.5433  1.3010  0.6879
  510MPD2    N1 7586   3.562   2.165  14.366  0.0840 -0.2896 -0.1581
  510MPD2    H7 7587   3.468   2.160  14.327 -0.9468  2.6373  1.9490
  511TMC3    C1 7588   3.434   2.160  14.556 -0.1468  0.0766  0.2802
  511TMC3    C2 7589   3.392   2.221  14.672  0.5674  0.0896  0.0429
  511TMC3    C3 7590   3.291   2.166  14.739  0.1198 -0.2965  0.1663
  511TMC3    C4 7591   3.379   2.046  14.508 -0.1373 -0.0025 -0.0948
  511TMC3    C5 7592   3.274   1.996  14.577  0.1865 -0.0491  0.6858
  511TMC3    C6 7593   3.223   2.056  14.694 -0.6303 -0.8307  0.3345
  511TMC3     C 7594   3.568   2.189  14.504  0.1775  0.5083  0.2985
  511TMC3     O 7595   3.658   2.188  14.585 -0.3751  0.0692  0.7649
  511TMC3     H 7596   3.448   2.304  14.711  1.1938  0.0301 -0.7224
  511TMC3    H1 7597   3.410   1.983  14.426  1.1239  0.2878  0.1575
  511TMC3    H2 7598   3.136   2.010  14.738 -1.2388 -0.2202 -0.2405
  511TMC3    C7 7599   3.232   1.855  14.553  0.2709 -0.2712 -0.8677
  511TMC3    C8 7600   3.245   2.232  14.855 -0.2483  0.6052 -0.0826
  511TMC3    O1 7601   3.235   1.810  14.436  0.1354  0.1952  0.2545
  511TMC3    O2 7602   3.262   2.351  14.866 -0.0667 -0.1900  0.4759
  512TMC3    C1 7603   2.669   1.402  12.684  0.6946  0.1315  0.0875
  512TMC3    C2 7604   2.710   1.410  12.811 -0.4557 -0.7335  0.3749
  512TMC3    C3 7605   2.787   1.301  12.851 -0.2257 -0.3294  0.4489
  512TMC3    C4 7606   2.699   1.302  12.590 -0.1179 -0.2642 -0.2971
  512TMC3    C5 7607   2.770   1.196  12.636  0.4096  0.9144 -0.3273
  512TMC3    C6 7608   2.807   1.195  12.767 -0.5866 -0.4036  0.4764
  512TMC3     C 7609   2.586   1.503  12.622  0.5421 -0.0548  0.1811
  512TMC3     O 7610   2.622   1.533  12.504  0.4288 -0.1594  0.5038
  512TMC3     H 7611   2.685   1.489  12.881  1.7801  1.5394 -1.3930
  512TMC3    H1 7612   2.649   1.296  12.493  0.3530  1.9291 -0.6756
  512TMC3    H2 7613   2.883   1.124  12.797 -0.4434  0.1708  1.4595
  512TMC3    C7 7614   2.809   1.085  12.546  0.6595  0.0985 -0.0892
  512TMC3    C8 7615   2.785   1.252  12.987  0.2175 -0.1795 -0.6804
  512TMC3    O1 7616   2.813   1.103  12.425  0.1107  0.0983  0.4536
  512TMC3    O2 7617   2.777   1.131  13.003 -0.0238  0.1320  0.5495
  513MPD2     C 7618   4.416   1.590  13.555  0.4935 -0.2375  0.0890
  513MPD2    C1 7619   4.473   1.504  13.468 -0.8484 -0.2426 -0.1965
  513MPD2    C2 7620   4.567   1.409  13.508 -0.1772  0.1418  0.2934
  513MPD2    C3 7621   4.620   1.418  13.633 -0.5212  0.4853  0.1957
  513MPD2    C4 7622   4.572   1.510  13.720 -0.0432 -0.4547 -0.8837
  513MPD2    C5 7623   4.472   1.592  13.685 -0.3328 -0.5870 -0.7593
  513MPD2     H 7624   4.600   1.328  13.444 -1.5469 -0.9264  0.9619
  513MPD2    H1 7625   4.596   1.499  13.825  0.3568  0.7863 -0.8422
  513MPD2    H2 7626   4.338   1.661  13.532 -0.1206 -1.8205 -2.6596
  513MPD2    H3 7627   4.430   1.653  13.763  0.8012  0.1886 -0.7516
  513MPD2     N 7628   4.721   1.331  13.674 -0.2059 -1.0378  0.0220
  513MPD2    H5 7629   0.030   1.275  13.595  0.0527 -0.0009 -0.6068
  513MPD2    N1 7630   4.419   1.483  13.337  0.0018 -0.2970  0.5996
  513MPD2    H7 7631   4.473   1.421  13.278 -0.7503 -0.2255 -0.1638
  514TMC3    C1 7632   4.329   1.523  13.125 -0.3544 -0.9872  0.1637
  514TMC3    C2 7633   4.369   1.625  13.046 -0.3191  0.2729  0.7907
  514TMC3    C3 7634   4.463   1.605  12.952 -0.8209  0.8482  0.4269
  514TMC3    C4 7635   4.376   1.400  13.094 -0.6756  0.3874 -0.6445
  514TMC3    C5 7636   4.477   1.380  13.005  0.0763 -0.0190 -0.5220
  514TMC3    C6 7637   4.522   1.486  12.930 -0.0648 -0.0775  0.2808
  514TMC3     C 7638   4.334   1.560  13.264 -0.2817  0.3534 -0.0614
  514TMC3     O 7639   4.273   1.664  13.287 -0.0058  0.1921 -0.1510
  514TMC3     H 7640   4.327   1.722  13.071 -1.1892  0.1917 -0.3757
  514TMC3    H1 7641   4.346   1.315  13.154  1.6480 -0.3031 -0.4586
  514TMC3    H2 7642   4.594   1.479  12.849 -2.6577 -2.9977 -1.7154
  514TMC3    C7 7643   4.576   1.283  13.047  0.6796 -0.0487  0.2629
  514TMC3    C8 7644   4.475   1.707  12.854 -1.3161 -0.1602 -0.1952
  514TMC3    O1 7645   4.556   1.250  13.163 -0.1373  0.1250  0.5166
  514TMC3    O2 7646   4.381   1.787  12.855 -0.3481 -0.2534 -0.0221
  515MPD2     C 7647   2.615   2.987  14.767  0.9108  0.5580  0.4805
  515MPD2    C1 7648   2.574   3.006  14.636 -0.5955  0.3976  0.3134
  515MPD2    C2 7649   2.586   3.137  14.584  0.3526 -0.5201 -0.4715
  515MPD2    C3 7650   2.641   3.243  14.655  0.2708  0.4972  0.3716
  515MPD2    C4 7651   2.664   3.225  14.785 -0.4856 -0.5714 -0.3088
  515MPD2    C5 7652   2.656   3.100  14.835 -0.4766 -0.0797  0.8409
  515MPD2     H 7653   2.557   3.151  14.480 -0.2964  0.9115 -0.1082
  515MPD2    H1 7654   2.682   3.309  14.851 -2.6520  0.8397 -1.5043
  515MPD2    H2 7655   2.614   2.894  14.821 -0.1485  0.3346  0.0732
  515MPD2    H3 7656   2.676   3.081  14.940  1.0252  0.5129  0.6687
  515MPD2     N 7657   2.666   3.371  14.601  0.3252 -1.0575  0.4637
  515MPD2    H5 7658   2.699   3.441  14.667  1.3094 -0.2606 -0.8723
  515MPD2    N1 7659   2.506   2.909  14.555  0.0113  0.1940  0.5587
  515MPD2    H7 7660   2.492   2.923  14.456 -0.2233 -0.1568  0.5433
  516TMC3    C1 7661   2.386   2.712  14.490 -0.0126  0.0128  0.3864
  516TMC3    C2 7662   2.370   2.744  14.359 -0.0397  0.3560  0.1447
  516TMC3    C3 7663   2.311   2.658  14.269 -1.0046 -0.6104  0.5069
  516TMC3    C4 7664   2.338   2.588  14.530 -0.2652 -0.0006  0.0290
  516TMC3    C5 7665   2.289   2.496  14.439 -0.2161  0.2021 -0.4657
  516TMC3    C6 7666   2.279   2.532  14.305 -0.1732  0.1499 -0.5311
  516TMC3     C 7667   2.449   2.791  14.596 -0.6997 -0.3593 -0.4799
  516TMC3     O 7668   2.435   2.749  14.713  0.4473 -0.7674  0.6755
  516TMC3     H 7669   2.398   2.842  14.320 -0.9479  0.3443 -0.5358
  516TMC3    H1 7670   2.347   2.556  14.633 -0.9391  1.6707  0.6062
  516TMC3    H2 7671   2.238   2.462  14.234  1.0270  0.3646 -1.4411
  516TMC3    C7 7672   2.170   2.417  14.480  0.4390 -0.0798  0.4527
  516TMC3    C8 7673   2.210   2.722  14.187  1.0617  0.0388  0.2174
  516TMC3    O1 7674   2.166   2.356  14.586  0.6050 -0.6016 -0.0494
  516TMC3    O2 7675   2.094   2.680  14.190 -0.3588 -0.2152 -0.0767
  517MPD2     C 7676   1.236   0.111  17.518 -0.2154  0.3985  0.5838
  517MPD2    C1 7677   1.337   0.070  17.601 -0.2191  0.4791 -0.6141
  517MPD2    C2 7678   1.371   0.149   0.009 -0.1478 -0.1650  0.2293
  517MPD2    C3 7679   1.315   0.273   0.028 -0.4493 -0.4158  0.0134
  517MPD2    C4 7680   1.214   0.315  17.637  0.2972  0.1733 -0.5705
  517MPD2    C5 7681   1.174   0.227  17.540  0.9247 -1.1181  0.1656
  517MPD2     H 7682   1.460   0.117   0.063  0.4460  1.4175  0.1899
  517MPD2    H1 7683   1.163   0.411  17.644 -1.2224 -0.5639 -1.3836
  517MPD2    H2 7684   1.217   0.056  17.426  0.8184 -0.1424  0.6885
  517MPD2    H3 7685   1.104   0.247  17.460  1.1892  0.5078  0.3349
  517MPD2     N 7686   1.368   0.368   0.121  0.4235  0.0098  0.9410
  517MPD2    H5 7687   1.328   0.461   0.129  2.4872  0.9576  0.2537
  517MPD2    N1 7688   1.416   4.682  17.581  0.2163 -0.4786  0.0587
  517MPD2    H7 7689   1.490   4.661  17.648  0.9662 -0.2691 -0.7007
  518TMC3    C1 7690   1.497   4.486  17.462 -0.3795  0.4102  0.0084
  518TMC3    C2 7691   1.462   4.386  17.374  0.4869 -0.3207  0.9309
  518TMC3    C3 7692   1.545   4.274  17.364 -0.6423 -0.2629 -0.3930
  518TMC3    C4 7693   1.633   4.497  17.498 -0.6092  0.2955  0.2868
  518TMC3    C5 7694   1.717   4.391  17.477  0.5963 -0.2394 -0.7400
  518TMC3    C6 7695   1.675   4.276  17.411 -0.6597  0.0130 -0.6606
  518TMC3     C 7696   1.407   4.598  17.473 -0.2686  0.0379  0.0880
  518TMC3     O 7697   1.327   4.608  17.380 -0.5700 -0.0133 -0.0968
  518TMC3     H 7698   1.359   4.372  17.342  0.9373  1.5622 -1.3290
  518TMC3    H1 7699   1.657   4.583  17.559  1.5307 -1.1045  1.4207
  518TMC3    H2 7700   1.747   4.195  17.400 -0.6140  0.3670 -2.9563
  518TMC3    C7 7701   1.855   4.426  17.513 -0.7352 -0.1443  0.9754
  518TMC3    C8 7702   1.500   4.147  17.302  0.3725 -0.0154 -0.0452
  518TMC3    O1 7703   1.872   4.520  17.587  0.3649 -0.8238 -0.8988
  518TMC3    O2 7704   1.387   4.149  17.251 -0.0664 -0.2653  0.0304
  519MPD2     C 7705   3.712   3.369  14.313  0.1111 -0.2274 -0.0332
  519MPD2    C1 7706   3.676   3.300  14.206  0.1886  0.6436 -0.1851
  519MPD2    C2 7707   3.677   3.163  14.216 -0.1141  0.2538 -0.7762
  519MPD2    C3 7708   3.716   3.097  14.331 -0.8925  0.3973  0.0557
  519MPD2    C4 7709   3.766   3.175  14.435 -0.3431 -0.4475 -0.1901
  519MPD2    C5 7710   3.766   3.311  14.424 -0.4407 -0.2365  0.1384
  519MPD2     H 7711   3.648   3.106  14.129  0.7243 -2.8461  0.9614
  519MPD2    H1 7712   3.791   3.137  14.534  1.3697  0.3813 -0.3103
  519MPD2    H2 7713   3.719   3.477  14.314 -0.1182 -0.2155  0.8724
  519MPD2    H3 7714   3.809   3.368  14.505 -1.7597  1.6803 -0.5249
  519MPD2     N 7715   3.734   2.956  14.335 -0.1715 -0.3310  0.2752
  519MPD2    H5 7716   3.784   2.921  14.416 -0.7161  1.4252  1.3720
  519MPD2    N1 7717   3.630   3.366  14.090  0.0494 -0.5274 -0.0799
  519MPD2    H7 7718   3.627   3.306  14.008 -3.0012 -3.9429  2.5082
  520TMC3    C1 7719   3.743   2.732  14.243  0.2559 -0.5072  0.5190
  520TMC3    C2 7720   3.690   2.644  14.148  0.0098  0.0217 -0.0233
  520TMC3    C3 7721   3.771   2.549  14.089 -0.5977 -0.4481  0.1415
  520TMC3    C4 7722   3.869   2.717  14.290  0.0934  0.2854 -0.4116
  520TMC3    C5 7723   3.947   2.611  14.243 -0.1611 -0.4630 -0.0119
  520TMC3    C6 7724   3.902   2.531  14.139  0.2849  0.3572 -0.3324
  520TMC3     C 7725   3.684   2.865  14.242 -0.2215  0.3260 -0.2563
  520TMC3     O 7726   3.609   2.893  14.153 -0.3762 -0.3251 -0.7104
  520TMC3     H 7727   3.590   2.671  14.114 -0.7516 -0.3130  1.9181
  520TMC3    H1 7728   3.918   2.773  14.369  0.6425  0.5201 -0.9233
  520TMC3    H2 7729   3.962   2.454  14.092  1.0644  0.3819  0.6112
  520TMC3    C7 7730   4.088   2.612  14.270  0.1015  0.0784 -0.3131
  520TMC3    C8 7731   3.746   2.507  13.957  1.0212 -0.2165  0.9978
  520TMC3    O1 7732   4.126   2.637  14.383 -0.0377  0.1267  0.0610
  520TMC3    O2 7733   3.833   2.445  13.894  0.6769  0.4976  0.0535
  521MPD2     C 7734   0.016   1.484  17.168  0.5384 -0.0942 -0.1703
  521MPD2    C1 7735   0.019   1.360  17.215 -0.3487  0.1644  0.3582
  521MPD2    C2 7736   0.137   1.294  17.236 -0.4702  0.5782  0.5752
  521MPD2    C3 7737   0.255   1.361  17.203  0.0077 -0.0777  0.1193
  521MPD2    C4 7738   0.254   1.488  17.158 -0.4917 -0.3271  0.1060
  521MPD2    C5 7739   0.134   1.549  17.144  0.5917  0.0891 -0.4535
  521MPD2     H 7740   0.134   1.193  17.276  0.5220  0.1746 -0.3548
  521MPD2    H1 7741   0.345   1.542  17.137 -0.6534 -0.8077 -1.8394
  521MPD2    H2 7742   4.646   1.536  17.157  0.5444 -0.6613 -2.8755
  521MPD2    H3 7743   0.133   1.652  17.110 -0.0508  0.6551  1.2634
  521MPD2     N 7744   0.375   1.285  17.198  0.0229 -0.0258 -0.1397
  521MPD2    H5 7745   0.359   1.189  17.225 -0.2184 -0.8961 -3.3277
  521MPD2    N1 7746   4.619   1.296  17.255  0.3116  0.2031 -0.6503
  521MPD2    H7 7747   4.536   1.351  17.236  2.0204  2.2590 -2.2260
  522TMC3    C1 7748   0.562   1.220  17.080  0.0450  0.7165 -0.2296
  522TMC3    C2 7749   0.627   1.123  17.156 -0.3227  0.1139 -0.3284
  522TMC3    C3 7750   0.624   0.996  17.108  0.1936  0.3709  0.4036
  522TMC3    C4 7751   0.468   1.189  16.983 -0.5508 -0.4211  0.0495
  522TMC3    C5 7752   0.455   1.057  16.946  0.7689 -0.1545 -0.3028
  522TMC3    C6 7753   0.535   0.960  17.004 -0.1436  0.5208 -0.2329
  522TMC3     C 7754   0.498   1.320  17.156  0.0229 -0.4527 -0.0406
  522TMC3     O 7755   0.528   1.427  17.107  0.1213  0.2123 -0.3874
  522TMC3     H 7756   0.677   1.153  17.248 -3.7694  1.9176  0.9693
  522TMC3    H1 7757   0.417   1.276  16.942  0.0145 -0.3544 -0.5193
  522TMC3    H2 7758   0.520   0.858  16.969 -1.3555  0.2281  1.1485
  522TMC3    C7 7759   0.337   1.007  16.890 -0.3307  0.5998  0.4736
  522TMC3    C8 7760   0.684   0.886  17.184  0.6256  0.5689 -0.3416
  522TMC3    O1 7761   0.335   0.887  16.869  0.4456  0.0686 -0.2517
  522TMC3    O2 7762   0.705   0.912  17.303  0.2080 -0.2842  0.2759
  523MPD2     C 7763   2.883   0.865  10.100  0.3779 -0.2332  0.0613
  523MPD2    C1 7764   2.855   0.766  10.005 -0.2828  0.1691 -0.1167
  523MPD2    C2 7765   2.775   0.804   9.895  0.1177  0.0177  0.2419
  523MPD2    C3 7766   2.732   0.933   9.885 -0.0214 -0.3533  0.1109
  523MPD2    C4 7767   2.759   1.026   9.984  0.6437 -0.3234  0.1653
  523MPD2    C5 7768   2.829   0.990  10.095  0.5014 -0.1373  0.2404
  523MPD2     H 7769   2.756   0.730   9.818  0.7897  1.0782 -0.9502
  523MPD2    H1 7770   2.734   1.131   9.977 -0.6220 -0.6078  0.4862
  523MPD2    H2 7771   2.940   0.835  10.187  0.8931 -1.8078 -0.8115
  523MPD2    H3 7772   2.862   1.063  10.168 -0.0378 -0.2829  0.6246
  523MPD2     N 7773   2.645   0.983   9.780 -0.7504  0.2289 -0.7840
  523MPD2    H5 7774   2.602   1.075   9.781 -2.1510 -0.4272 -1.1305
  523MPD2    N1 7775   2.904   0.636  10.030  0.0623 -0.0548 -0.4533
  523MPD2    H7 7776   2.980   0.622  10.097 -0.2871 -1.4931 -0.3609
  524TMC3    C1 7777   2.551   0.984   9.564 -0.2716  0.3087 -0.3465
  524TMC3    C2 7778   2.459   0.920   9.479 -0.8682 -0.2158 -0.1295
  524TMC3    C3 7779   2.409   0.995   9.377 -0.2873  0.2089  0.2916
  524TMC3    C4 7780   2.596   1.109   9.546  0.5483  0.0617 -0.1601
  524TMC3    C5 7781   2.518   1.186   9.462  0.4964  0.1406 -0.1750
  524TMC3    C6 7782   2.433   1.127   9.370  0.3391  0.2758  0.0846
  524TMC3     C 7783   2.609   0.911   9.670  1.2977  0.1442  0.1238
  524TMC3     O 7784   2.640   0.796   9.637  0.0947  0.4807  0.0594
  524TMC3     H 7785   2.416   0.826   9.512  1.1791 -0.7471  1.0649
  524TMC3    H1 7786   2.665   1.160   9.611  1.6651 -0.2680 -1.0845
  524TMC3    H2 7787   2.385   1.179   9.287 -1.6523 -2.1358 -0.3159
  524TMC3    C7 7788   2.561   1.329   9.443  0.0434 -0.6859 -1.1179
  524TMC3    C8 7789   2.302   0.939   9.291  0.1499  0.6106  0.1085
  524TMC3    O1 7790   2.677   1.359   9.483 -0.0241 -0.3778  0.1069
  524TMC3    O2 7791   2.209   1.006   9.248  0.3528  0.5553 -0.0900
  525MPD2     C 7792   0.500   2.410  14.503 -0.4097 -0.4440 -0.3304
  525MPD2    C1 7793   0.636   2.400  14.549 -0.0155 -0.3792  0.2684
  525MPD2    C2 7794   0.732   2.469  14.474  0.1190 -0.1746 -0.4518
  525MPD2    C3 7795   0.697   2.542  14.369 -0.1850  0.5987  0.1657
  525MPD2    C4 7796   0.560   2.553  14.330  0.4827  0.8819 -0.0887
  525MPD2    C5 7797   0.468   2.475  14.391  0.0311 -0.0829 -0.0933
  525MPD2     H 7798   0.834   2.477  14.509 -0.6756  0.8637  1.6977
  525MPD2    H1 7799   0.526   2.616  14.249 -0.4761  1.9152  1.1278
  525MPD2    H2 7800   0.412   2.365  14.549 -1.1524  1.0782 -0.2741
  525MPD2    H3 7801   0.364   2.489  14.365  0.4175  0.0156 -1.5812
  525MPD2     N 7802   0.789   2.636  14.318 -0.0345 -0.1734 -0.5213
  525MPD2    H5 7803   0.750   2.707  14.256 -2.4713 -1.0639 -0.0263
  525MPD2    N1 7804   0.672   2.328  14.670  0.4880 -0.1855  0.1403
  525MPD2    H7 7805   0.771   2.315  14.687  0.5639 -1.6658 -1.4389
  526TMC3    C1 7806   0.645   2.190  14.860 -0.0045 -0.3398  0.2583
  526TMC3    C2 7807   0.579   2.185  14.980 -0.0702  0.4367 -0.4146
  526TMC3    C3 7808   0.644   2.099  15.061 -0.4264 -0.2240 -0.1620
  526TMC3    C4 7809   0.756   2.122  14.826 -0.3162 -0.4302 -0.1281
  526TMC3    C5 7810   0.822   2.042  14.912 -0.5570  0.0618 -0.0547
  526TMC3    C6 7811   0.763   2.025  15.039 -1.1335  0.2962 -0.1033
  526TMC3     C 7812   0.578   2.274  14.759 -0.8271  0.7930  0.0978
  526TMC3     O 7813   0.461   2.307  14.782  0.3678  0.3644  0.1232
  526TMC3     H 7814   0.477   2.217  14.995 -0.5875 -0.9616 -0.9571
  526TMC3    H1 7815   0.802   2.137  14.729 -1.2389  0.6845 -0.3883
  526TMC3    H2 7816   0.819   1.977  15.119 -0.5145 -0.2289 -0.8507
  526TMC3    C7 7817   0.960   1.998  14.892  0.2878 -0.0849 -0.0567
  526TMC3    C8 7818   0.577   2.052  15.183 -0.1088  0.0151  0.0664
  526TMC3    O1 7819   1.022   1.945  14.988  0.6104 -0.2599 -0.2311
  526TMC3    O2 7820   0.609   1.940  15.231 -0.6764  0.0112 -0.0712
  527MPD2     C 7821   3.255   0.013   1.343 -0.1434 -0.1996  0.6031
  527MPD2    C1 7822   3.387   4.706   1.326 -0.4221 -0.7300  0.3251
  527MPD2    C2 7823   3.451   0.005   1.205  0.1212 -0.2493 -0.1594
  527MPD2    C3 7824   3.393   0.080   1.114  0.2209  0.1369  0.3593
  527MPD2    C4 7825   3.259   0.106   1.122  0.3581  0.0576 -0.3343
  527MPD2    C5 7826   3.192   0.073   1.238  1.0757 -0.4507 -0.1256
  527MPD2     H 7827   3.555   4.699   1.192  0.0003 -0.5990 -0.3411
  527MPD2    H1 7828   3.206   0.171   1.053 -0.2672  1.4253  1.4346
  527MPD2    H2 7829   3.191   4.708   1.426 -0.1870 -0.1426  0.5897
  527MPD2    H3 7830   3.089   0.106   1.246  1.5014  0.3099  2.3034
  527MPD2     N 7831   3.460   0.109   0.987  0.3365 -0.1600 -0.2767
  527MPD2    H5 7832   3.542   0.056   0.963 -0.2548 -0.7645 -0.9501
  527MPD2    N1 7833   3.465   4.641   1.417 -0.0325 -0.4922 -0.1931
  527MPD2    H7 7834   3.556   4.603   1.393  0.0162  0.9191 -2.1891
  528TMC3    C1 7835   3.546   4.577   1.622  0.0506 -0.1683  0.1288
  528TMC3    C2 7836   3.667   4.612   1.567  0.0988  0.7487  0.6234
  528TMC3    C3 7837   3.777   4.542   1.606 -0.0040 -0.1024 -0.7462
  528TMC3    C4 7838   3.542   4.474   1.718  0.8978  0.3059  0.4517
  528TMC3    C5 7839   3.646   4.401   1.752  0.5733  0.1641 -0.1600
  528TMC3    C6 7840   3.774   4.433   1.690  0.2389  0.2467  0.7155
  528TMC3     C 7841   3.431   4.620   1.548  0.0016 -0.4164  0.0016
  528TMC3     O 7842   3.325   4.634   1.612  0.6962  0.2470  0.4368
  528TMC3     H 7843   3.669   4.705   1.512 -0.3180 -0.3839 -1.3120
  528TMC3    H1 7844   3.447   4.433   1.748  1.0036 -1.6722 -2.0001
  528TMC3    H2 7845   3.864   4.376   1.710 -0.1453 -0.3090  0.8871
  528TMC3    C7 7846   3.628   4.288   1.842  0.8421 -0.1504 -0.2891
  528TMC3    C8 7847   3.905   4.591   1.553 -0.3329 -0.5425  0.0521
  528TMC3    O1 7848   3.517   4.238   1.845  0.4562 -0.3772  0.0779
  528TMC3    O2 7849   3.895   4.702   1.502  0.2025 -0.8930 -0.9481
  529MPD2     C 7850   1.023   4.100   0.529 -0.0346 -0.2711 -0.5707
  529MPD2    C1 7851   0.998   3.984   0.461  0.1435  0.1686 -0.6470
  529MPD2    C2 7852   0.995   3.982   0.324 -0.6986 -0.0448  1.8012
  529MPD2    C3 7853   1.030   4.102   0.259 -0.4597  0.4315 -0.1570
  529MPD2    C4 7854   1.070   4.207   0.329 -0.1905 -0.0903 -1.5451
  529MPD2    C5 7855   1.059   4.211   0.461  0.2522 -0.5605  0.8631
  529MPD2     H 7856   0.999   3.888   0.269  0.0556  1.4602 -0.7256
  529MPD2    H1 7857   1.109   4.298   0.286  2.1208 -0.1970  0.2854
  529MPD2    H2 7858   1.036   4.100   0.637  0.5355 -0.2397 -0.6400
  529MPD2    H3 7859   1.088   4.304   0.507 -0.4033 -0.3807  0.9137
  529MPD2     N 7860   1.055   4.124   0.122 -0.1238  0.2042  0.2820
  529MPD2    H5 7861   1.093   4.215   0.096 -3.8207  2.2444  1.9121
  529MPD2    N1 7862   0.986   3.865   0.539  0.3771 -0.5723  0.2181
  529MPD2    H7 7863   0.995   3.865   0.640 -1.3937 -0.8769  0.3738
  530TMC3    C1 7864   1.011   3.641   0.602 -0.3986 -0.1206  0.4845
  530TMC3    C2 7865   1.055   3.687   0.729  0.3362 -0.1397 -0.6730
  530TMC3    C3 7866   1.117   3.585   0.802  0.0039 -0.6041 -0.4809
  530TMC3    C4 7867   1.025   3.514   0.564 -0.0372 -0.0384  0.8079
  530TMC3    C5 7868   1.082   3.418   0.638 -0.4001 -1.2343  0.3122
  530TMC3    C6 7869   1.121   3.448   0.764  0.5591  1.0322  0.2046
  530TMC3     C 7870   0.970   3.736   0.498  0.2078 -0.4230 -0.0724
  530TMC3     O 7871   0.954   3.701   0.384  0.3483  0.1594 -0.0878
  530TMC3     H 7872   1.027   3.777   0.781  1.1419  0.2998 -1.0021
  530TMC3    H1 7873   1.016   3.489   0.459 -2.0679  2.2801  0.4214
  530TMC3    H2 7874   1.172   3.380   0.831  0.1753  0.2182 -0.3275
  530TMC3    C7 7875   1.073   3.276   0.596  0.6218  0.0372  0.8019
  530TMC3    C8 7876   1.206   3.630   0.908  0.2031 -0.1476 -0.2154
  530TMC3    O1 7877   1.071   3.239   0.478  0.8813  0.2683 -0.2813
  530TMC3    O2 7878   1.186   3.742   0.949 -0.4851 -0.4481 -0.0660
  531MPD2     C 7879   0.319   1.080  13.100  0.3723  0.3076  0.4028
  531MPD2    C1 7880   0.233   1.126  13.198  0.0326 -0.7216  0.0873
  531MPD2    C2 7881   0.111   1.176  13.148  0.6336 -0.0390  0.5200
  531MPD2    C3 7882   0.087   1.209  13.021 -0.0764 -0.4795  0.1575
  531MPD2    C4 7883   0.184   1.175  12.931  0.0089  0.0350 -0.4716
  531MPD2    C5 7884   0.296   1.116  12.971 -0.8646 -0.1127 -0.0349
  531MPD2     H 7885   0.039   1.201  13.225  1.5904  2.0553  0.7250
  531MPD2    H1 7886   0.165   1.194  12.826 -2.1249 -2.5984 -0.5339
  531MPD2    H2 7887   0.405   1.019  13.126  0.0493 -0.3266  0.0136
  531MPD2    H3 7888   0.356   1.086  12.886  1.9199  1.5439  1.3460
  531MPD2     N 7889   4.692   1.273  12.976 -0.6070 -0.4926 -0.6628
  531MPD2    H5 7890   4.687   1.298  12.877  0.8826 -2.3677 -1.2111
  531MPD2    N1 7891   0.258   1.095  13.337 -0.1255  0.1269 -0.2840
  531MPD2    H7 7892   0.347   1.054  13.363 -0.8298 -3.2866 -3.3198
  532TMC3    C1 7893   0.237   1.120  13.571 -0.9984 -0.8228 -0.3254
  532TMC3    C2 7894   0.137   1.137  13.660 -0.6393  0.2827  0.6128
  532TMC3    C3 7895   0.157   1.218  13.769 -0.0953 -0.2201  0.1056
  532TMC3    C4 7896   0.359   1.179  13.583 -0.4803  0.7641 -0.4575
  532TMC3    C5 7897   0.379   1.254  13.698 -0.2301 -0.3377  0.6056
  532TMC3    C6 7898   0.285   1.265  13.795  0.3471  0.1026  0.3200
  532TMC3     C 7899   0.172   1.122  13.438 -0.0632  0.2439 -0.4621
  532TMC3     O 7900   0.048   1.131  13.435  0.5483 -0.4363 -0.3459
  532TMC3     H 7901   0.038   1.095  13.643  0.0846  0.0283 -3.0025
  532TMC3    H1 7902   0.432   1.162  13.504  0.4946  0.5258  0.4973
  532TMC3    H2 7903   0.309   1.327  13.880 -1.1535  0.6092  0.3654
  532TMC3    C7 7904   0.516   1.280  13.736 -1.1875  0.4878 -0.0977
  532TMC3    C8 7905   0.052   1.304  13.796 -1.1266 -0.7446 -0.5179
  532TMC3    O1 7906   0.530   1.320  13.851  0.1041  0.0249 -0.1692
  532TMC3    O2 7907   0.040   1.360  13.906  0.5573 -0.0267 -0.0470
  533TMC3    C1 7908   0.968   2.778  14.318  0.2555  0.3041 -0.0735
  533TMC3    C2 7909   1.101   2.804  14.334  0.0372 -0.1922 -0.2410
  533TMC3    C3 7910   1.129   2.923  14.379 -0.2040  0.0622 -0.1698
  533TMC3    C4 7911   0.876   2.874  14.358  0.1242  0.9415  0.0843
  533TMC3    C5 7912   0.912   2.983  14.427  0.2761  0.1074 -0.1139
  533TMC3    C6 7913   1.042   3.004  14.443  0.2318  0.0078 -0.1209
  533TMC3     C 7914   0.924   2.640  14.333  0.1207  0.0252  0.2309
  533TMC3     O 7915   0.997   2.553  14.377 -0.3300  0.1660 -0.0996
  533TMC3     H 7916   1.169   2.721  14.322  1.2822  0.5089  1.9033
  533TMC3    H1 7917   0.769   2.860  14.346  0.4127 -1.5886  0.4020
  533TMC3    H2 7918   1.072   3.094  14.496  0.8114  1.0704 -2.2394
  533TMC3    C7 7919   0.827   3.016  14.541 -0.2165  0.8185  0.0191
  533TMC3    C8 7920   1.263   2.974  14.380  0.4177  0.0334  0.6678
  533TMC3    O1 7921   0.760   2.922  14.587 -0.0237  0.3539 -0.8594
  533TMC3    O2 7922   1.286   3.049  14.473 -0.4753 -0.4898 -0.2575
  534MPD2     C 7923   3.331   3.511   1.546  0.0550  0.0233 -0.0310
  534MPD2    C1 7924   3.360   3.627   1.475 -0.8383  1.0817  0.3771
  534MPD2    C2 7925   3.279   3.669   1.375  0.0951  0.2896 -0.2709
  534MPD2    C3 7926   3.156   3.612   1.352  0.3973  0.1789 -0.3747
  534MPD2    C4 7927   3.130   3.502   1.433 -0.3258  0.3167 -0.6220
  534MPD2    C5 7928   3.215   3.449   1.524 -0.6026 -0.3060 -0.3755
  534MPD2     H 7929   3.314   3.761   1.330  2.6113 -0.7343 -0.4332
  534MPD2    H1 7930   3.031   3.458   1.432 -0.2437  0.1540 -1.5006
  534MPD2    H2 7931   3.393   3.481   1.630  0.0679  0.2924  0.0550
  534MPD2    H3 7932   3.178   3.360   1.573 -1.2877  0.5508  0.6588
  534MPD2     N 7933   3.060   3.652   1.257  0.1686 -0.0327 -0.0931
  534MPD2    H5 7934   2.973   3.600   1.248  0.5295 -1.1213  2.4817
  534MPD2    N1 7935   3.481   3.705   1.507 -0.1178  0.4925  0.6856
  534MPD2    H7 7936   3.495   3.793   1.458  1.8229 -0.5675 -0.6482
  535TMC3    C1 7937   2.985   3.771   1.062 -0.3387  0.4966  0.2645
  535TMC3    C2 7938   2.850   3.761   1.091 -0.2132  0.6051  0.5649
  535TMC3    C3 7939   2.769   3.764   0.978  0.6944  0.1319  1.1088
  535TMC3    C4 7940   3.027   3.815   0.938 -0.3059  0.2335  0.0635
  535TMC3    C5 7941   2.940   3.825   0.837 -0.4193 -0.4491 -0.0841
  535TMC3    C6 7942   2.807   3.785   0.852 -0.0857  0.2294 -0.4358
  535TMC3     C 7943   3.084   3.758   1.171 -0.5295  0.4225  0.2632
  535TMC3     O 7944   3.181   3.834   1.168 -0.1251 -0.2987 -0.6155
  535TMC3     H 7945   2.820   3.751   1.194 -2.3204 -2.1355 -0.3020
  535TMC3    H1 7946   3.132   3.841   0.928  0.4287 -2.3105  1.3027
  535TMC3    H2 7947   2.737   3.795   0.770 -2.9974  1.1486  2.1925
  535TMC3    C7 7948   2.992   3.858   0.708 -0.6561 -0.0340  0.2296
  535TMC3    C8 7949   2.626   3.729   1.002 -0.1911 -0.0326 -0.0117
  535TMC3    O1 7950   3.107   3.824   0.691  0.2192 -0.1457  0.0223
  535TMC3    O2 7951   2.567   3.690   0.900  0.7019  0.5444 -0.2135
  536MPD2     C 7952   2.311   2.302  15.963 -0.1839 -0.7399  0.0298
  536MPD2    C1 7953   2.189   2.242  15.974 -0.3416 -0.2863  0.6659
  536MPD2    C2 7954   2.097   2.246  15.868 -0.6194  0.3889  0.0825
  536MPD2    C3 7955   2.123   2.320  15.749  0.4609 -0.4880 -0.0654
  536MPD2    C4 7956   2.240   2.398  15.755 -0.3283 -0.3882 -0.3428
  536MPD2    C5 7957   2.328   2.395  15.865 -1.1279 -0.1812  0.1344
  536MPD2     H 7958   2.003   2.190  15.874 -1.6059  2.0985  0.6177
  536MPD2    H1 7959   2.266   2.465  15.674  0.0121 -0.7641 -0.5420
  536MPD2    H2 7960   2.385   2.297  16.042  2.4885 -0.7552 -2.4735
  536MPD2    H3 7961   2.420   2.453  15.867 -1.0206 -0.3107 -1.0609
  536MPD2     N 7962   2.040   2.326  15.638  0.5671 -0.5997 -0.8975
  536MPD2    H5 7963   2.067   2.400  15.573 -0.2069 -1.1691 -1.8688
  536MPD2    N1 7964   2.159   2.176  16.101 -0.2355  0.2811  0.0556
  536MPD2    H7 7965   2.231   2.166  16.171  0.2749  0.1627 -0.4849
  537TMC3    C1 7966   2.038   2.055  16.264  0.5473  0.1035  0.3214
  537TMC3    C2 7967   2.082   2.139  16.369  0.0332 -0.3982 -0.0134
  537TMC3    C3 7968   2.011   2.136  16.488 -0.2964  0.1723  0.0026
  537TMC3    C4 7969   1.929   1.970  16.285  0.8124 -0.3561 -0.0903
  537TMC3    C5 7970   1.882   1.956  16.410 -0.0037  0.4742  0.2784
  537TMC3    C6 7971   1.911   2.042  16.511  0.1649  0.1793 -0.1369
  537TMC3     C 7972   2.038   2.113  16.133 -0.2530  0.0853 -0.7056
  537TMC3     O 7973   1.933   2.101  16.066 -0.1048  0.3101  0.3692
  537TMC3     H 7974   2.167   2.203  16.349  1.3380 -2.0613  0.2423
  537TMC3    H1 7975   1.904   1.901  16.205 -0.7087  1.4480 -1.1766
  537TMC3    H2 7976   1.866   2.044  16.609 -0.5523 -0.7621 -0.4521
  537TMC3    C7 7977   1.767   1.881  16.413 -0.8650 -0.5417  0.4208
  537TMC3    C8 7978   2.060   2.213  16.601 -0.1566  0.7103  0.2031
  537TMC3    O1 7979   1.709   1.849  16.307 -0.3944  0.0552  0.2646
  537TMC3    O2 7980   2.026   2.182  16.715 -0.3591 -0.1201 -0.1806
  538TMC3    C1 7981   3.762   0.522  10.992 -0.4985  0.3056 -0.4942
  538TMC3    C2 7982   3.778   0.402  10.925 -0.6776 -0.1764 -0.4466
  538TMC3    C3 7983   3.742   0.405  10.793  0.1930  0.8301 -0.2807
  538TMC3    C4 7984   3.713   0.638  10.937 -0.6219 -0.2420 -0.4468
  538TMC3    C5 7985   3.666   0.632  10.816  0.4463 -1.0114  0.0841
  538TMC3    C6 7986   3.690   0.522  10.738 -0.1854 -0.1155  0.0794
  538TMC3     C 7987   3.784   0.524  11.137 -0.2181 -0.2786  0.7542
  538TMC3     O 7988   3.777   0.632  11.193 -0.4666  0.4195 -0.5847
  538TMC3     H 7989   3.813   0.306  10.963  2.4933  1.0399 -0.3257
  538TMC3    H1 7990   3.708   0.729  10.995  3.8038 -0.8437  0.8539
  538TMC3    H2 7991   3.655   0.515  10.636  0.6127  1.8594 -0.3320
  538TMC3    C7 7992   3.547   0.705  10.778 -0.4090  0.6518  0.4688
  538TMC3    C8 7993   3.831   0.331  10.714  0.0470 -0.0910 -0.0553
  538TMC3    O1 7994   3.479   0.667  10.685  0.0432  0.3369 -0.1110
  538TMC3    O2 7995   3.839   0.211  10.740 -0.1011  0.4758  1.0313
  539MPD2     C 7996   3.103   4.296  11.579 -0.2241  0.0188 -0.5096
  539MPD2    C1 7997   3.171   4.295  11.455  0.5559  0.1826  0.2037
  539MPD2    C2 7998   3.233   4.412  11.415  0.2881  0.1840 -0.5163
  539MPD2    C3 7999   3.210   4.535  11.483 -0.2040  0.3759 -0.5967
  539MPD2    C4 8000   3.135   4.531  11.595 -0.6535 -0.3066 -0.6105
  539MPD2    C5 8001   3.079   4.413  11.639  0.2377 -0.1731  0.2870
  539MPD2     H 8002   3.305   4.421  11.334 -1.2139 -0.8307 -1.9503
  539MPD2    H1 8003   3.118   4.618  11.659 -1.0749  0.2194 -1.4330
  539MPD2    H2 8004   3.057   4.207  11.619 -0.6835  0.1262 -0.8041
  539MPD2    H3 8005   3.017   4.420  11.728 -0.1101  1.4209 -0.0786
  539MPD2     N 8006   3.262   4.659  11.450  0.5121  0.2948 -0.2258
  539MPD2    H5 8007   3.241   0.017  11.507  0.0012 -0.0705  0.1077
  539MPD2    N1 8008   3.191   4.176  11.386  0.0148 -0.5218 -0.5859
  539MPD2    H7 8009   3.250   4.184  11.304 -0.7264 -1.0245 -1.1608
  540TMC3    C1 8010   3.351   0.104  11.289 -0.8613  0.0935  0.0442
  540TMC3    C2 8011   3.390   0.126  11.156  0.3026 -0.4518 -0.1862
  540TMC3    C3 8012   3.431   0.255  11.125 -0.3458 -0.2932 -1.0124
  540TMC3    C4 8013   3.364   0.193  11.392 -0.3933  0.8586 -0.5041
  540TMC3    C5 8014   3.425   0.310  11.358  0.0954  0.1529  0.0115
  540TMC3    C6 8015   3.449   0.343  11.226  0.0835  0.1056 -0.5689
  540TMC3     C 8016   3.313   4.689  11.321  0.1573  0.4536 -0.1733
  540TMC3     O 8017   3.307   4.616  11.222 -0.1656 -0.4403 -0.3009
  540TMC3     H 8018   3.369   0.052  11.080  0.6663  0.5759 -1.2887
  540TMC3    H1 8019   3.345   0.168  11.496  0.0274 -1.8111 -1.0798
  540TMC3    H2 8020   3.490   0.441  11.206 -0.0006  0.5247  1.3317
  540TMC3    C7 8021   3.382   0.432  11.435 -0.3489  0.2775  0.2999
  540TMC3    C8 8022   3.410   0.316  10.995  0.3430  0.6741  0.2305
  540TMC3    O1 8023   3.467   0.497  11.489 -0.5011  0.3208 -0.5988
  540TMC3    O2 8024   3.438   0.432  10.982 -0.0352  0.3527  0.1684
  541MPD2     C 8025   1.577   1.636  13.038 -0.4029  0.4441 -0.2445
  541MPD2    C1 8026   1.618   1.572  12.922  0.3229  0.2148  0.1177
  541MPD2    C2 8027   1.572   1.630  12.802  0.0875 -0.0654  0.8893
  541MPD2    C3 8028   1.500   1.746  12.800 -0.4327 -0.2572  0.5346
  541MPD2    C4 8029   1.473   1.808  12.913  0.6575 -0.4637  0.0408
  541MPD2    C5 8030   1.505   1.754  13.034  0.1874 -0.1412 -0.0731
  541MPD2     H 8031   1.598   1.583  12.708 -1.8870 -2.8696  1.7519
  541MPD2    H1 8032   1.420   1.902  12.905 -0.4651 -1.2548 -1.8007
  541MPD2    H2 8033   1.599   1.590  13.134 -0.2248  0.3457 -0.3337
  541MPD2    H3 8034   1.485   1.806  13.126  3.1027  1.1922 -0.2028
  541MPD2     N 8035   1.462   1.807  12.675  0.3539 -0.6663 -0.4094
  541MPD2    H5 8036   1.437   1.906  12.682  0.5475 -0.5665 -1.1601
  541MPD2    N1 8037   1.691   1.452  12.918 -0.3935 -0.5307  0.2641
  541MPD2    H7 8038   1.720   1.423  13.011 -1.0802  1.6916  1.1843
  542TMC3    C1 8039   1.476   1.840  12.442 -0.2373 -0.2743  0.6206
  542TMC3    C2 8040   1.486   1.775  12.320 -0.2779 -0.3233 -0.2862
  542TMC3    C3 8041   1.517   1.862  12.214 -0.5113 -0.1262  0.5821
  542TMC3    C4 8042   1.497   1.977  12.459  0.5653  0.0911 -1.0916
  542TMC3    C5 8043   1.512   2.049  12.349  0.7840  0.5683 -0.1043
  542TMC3    C6 8044   1.531   1.997  12.223 -0.5651  0.3457  0.1946
  542TMC3     C 8045   1.472   1.747  12.556  0.0749 -0.6992 -0.1792
  542TMC3     O 8046   1.452   1.631  12.534 -0.1558 -0.2504  0.2454
  542TMC3     H 8047   1.450   1.675  12.299 -2.4506  0.6864 -1.4426
  542TMC3    H1 8048   1.502   2.033  12.552  3.8399  0.2228 -1.3425
  542TMC3    H2 8049   1.530   2.058  12.133  2.0065  0.4606  0.2395
  542TMC3    C7 8050   1.513   2.192  12.370 -0.4352 -0.5687  0.8548
  542TMC3    C8 8051   1.571   1.807  12.089  0.7514 -0.1477 -0.4495
  542TMC3    O1 8052   1.541   2.231  12.484  0.2235  0.2906 -0.8064
  542TMC3    O2 8053   1.602   1.885  11.998  0.4014  0.5483 -0.2443
  543TMC3    C1 8054   0.555   2.883  16.949  0.1034 -0.2462  0.0535
  543TMC3    C2 8055   0.494   2.770  16.910  0.2605  0.1019 -0.4566
  543TMC3    C3 8056   0.455   2.680  17.004 -0.4862  0.0472  0.3227
  543TMC3    C4 8057   0.584   2.910  17.078  0.3868  0.2713 -0.2272
  543TMC3    C5 8058   0.541   2.815  17.171  0.2997  0.0125  0.1324
  543TMC3    C6 8059   0.475   2.701  17.139  0.0261 -0.2378 -0.5150
  543TMC3     C 8060   0.645   2.936  16.852  0.4924  0.8637  0.0948
  543TMC3     O 8061   0.760   2.961  16.887 -0.0215  0.0229 -0.0342
  543TMC3     H 8062   0.482   2.755  16.803  1.3861 -1.6759 -0.3434
  543TMC3    H1 8063   0.640   2.998  17.108  2.4849 -0.5263 -1.8471
  543TMC3    H2 8064   0.440   2.626  17.208 -2.2644  0.6311 -0.7422
  543TMC3    C7 8065   0.573   2.845  17.307 -0.2078  0.5324 -0.7028
  543TMC3    C8 8066   0.454   2.544  16.954 -0.3818  0.2293  0.6410
  543TMC3    O1 8067   0.608   2.958  17.331 -0.2206 -0.3846  0.4957
  543TMC3    O2 8068   0.547   2.521  16.873 -0.1269 -0.5112 -0.0947
  544MPD2     C 8069   0.238   2.077  16.874  0.0666  0.0274 -0.0832
  544MPD2    C1 8070   0.359   2.127  16.825 -0.8911  0.6371  0.6311
  544MPD2    C2 8071   0.408   2.251  16.873  0.1881  0.6110  0.0882
  544MPD2    C3 8072   0.326   2.332  16.960  1.0072 -0.2339 -0.1611
  544MPD2    C4 8073   0.214   2.270  17.010 -0.7716 -0.7670  0.1181
  544MPD2    C5 8074   0.169   2.148  16.968  0.2339  0.4027  0.3701
  544MPD2     H 8075   0.499   2.293  16.834  0.1530  0.9378  0.3559
  544MPD2    H1 8076   0.159   2.314  17.092 -1.6305 -1.3852 -0.1295
  544MPD2    H2 8077   0.199   1.984  16.834  0.8979  0.1149 -1.0947
  544MPD2    H3 8078   0.072   2.111  16.998  0.1421  0.6334  0.3587
  544MPD2     N 8079   0.358   2.463  17.009 -0.0280 -0.6089 -0.0316
  544MPD2    H5 8080   0.281   2.509  17.057 -0.5341  1.8977 -3.2134
  544MPD2    N1 8081   0.430   2.046  16.736 -0.6110  0.1012  0.1576
  544MPD2    H7 8082   0.406   1.947  16.737  0.0091 -0.0400  0.9700
  545TMC3    C1 8083   0.612   1.949  16.615  0.1213 -0.0250  0.0357
  545TMC3    C2 8084   0.710   1.973  16.529 -0.1965 -0.2733  0.5123
  545TMC3    C3 8085   0.784   1.870  16.471  0.2941  0.4243  0.7410
  545TMC3    C4 8086   0.571   1.820  16.642 -0.6931  0.1652 -0.0582
  545TMC3    C5 8087   0.649   1.717  16.592  0.5776 -0.3545 -0.2741
  545TMC3    C6 8088   0.763   1.745  16.513 -0.2274  0.3608 -0.2542
  545TMC3     C 8089   0.551   2.075  16.671  0.0213 -0.2384 -0.4132
  545TMC3     O 8090   0.619   2.177  16.669  0.1273 -0.1133  0.0115
  545TMC3     H 8091   0.737   2.075  16.507 -0.1343 -0.1216  1.3026
  545TMC3    H1 8092   0.487   1.797  16.707  0.1717 -0.1163  0.9733
  545TMC3    H2 8093   0.823   1.662  16.478 -0.8280  0.8028 -2.2882
  545TMC3    C7 8094   0.620   1.579  16.632  0.1897  0.7589  0.5869
  545TMC3    C8 8095   0.913   1.891  16.412 -0.2215 -1.5236 -0.9315
  545TMC3    O1 8096   0.522   1.518  16.585 -0.1386  0.2847 -0.5698
  545TMC3    O2 8097   0.988   1.793  16.405  0.0954 -0.2927  0.3841
  546MPD2     C 8098   1.816   2.670  17.557 -0.2020  0.2390  0.5089
  546MPD2    C1 8099   1.844   2.684  17.422 -0.9684  0.3642 -0.0460
  546MPD2    C2 8100   1.873   2.813  17.382 -0.1929 -0.2407  0.4633
  546MPD2    C3 8101   1.892   2.918  17.468 -0.2110  0.1194  0.0012
  546MPD2    C4 8102   1.856   2.897  17.600 -0.2347  0.4339 -0.0670
  546MPD2    C5 8103   1.830   2.772  17.645  0.6736 -0.4597 -0.5320
  546MPD2     H 8104   1.892   2.835  17.278 -1.8577  1.8174  0.5756
  546MPD2    H1 8105   1.859   2.969  17.680  1.8472 -1.6575  1.7361
  546MPD2    H2 8106   1.800   2.570  17.595  0.3795 -0.4415 -1.0574
  546MPD2    H3 8107   1.802   2.769   0.053 -1.1670 -0.5622 -1.0147
  546MPD2     N 8108   1.935   3.044  17.418 -0.4052  0.4663  0.0120
  546MPD2    H5 8109   1.908   3.122  17.477  0.2762  0.8674 -0.2005
  546MPD2    N1 8110   1.823   2.567  17.341 -0.1368 -0.2341  0.4470
  546MPD2    H7 8111   1.774   2.493  17.389  0.5852 -0.6237  0.5747
  547TMC3    C1 8112   1.810   2.442  17.142  0.0574 -0.2257  0.3572
  547TMC3    C2 8113   1.810   2.456  17.006  1.0283  0.5218 -0.2436
  547TMC3    C3 8114   1.722   2.377  16.935 -0.2882  0.4245 -0.3968
  547TMC3    C4 8115   1.741   2.344  17.208 -0.0039  0.2434  0.3072
  547TMC3    C5 8116   1.656   2.264  17.132 -0.0127  0.0855 -0.2837
  547TMC3    C6 8117   1.645   2.281  16.997 -0.8997  0.0475  0.3937
  547TMC3     C 8118   1.855   2.563  17.210 -0.0855  0.8356 -0.3195
  547TMC3     O 8119   1.910   2.647  17.138 -0.0401  0.1940  0.2834
  547TMC3     H 8120   1.868   2.532  16.954  1.0954  2.4742  2.6808
  547TMC3    H1 8121   1.752   2.334  17.315  1.0334  0.7599  0.2508
  547TMC3    H2 8122   1.563   2.235  16.942 -0.2718 -0.4929 -0.1074
  547TMC3    C7 8123   1.557   2.182  17.193 -1.1715  0.3097  0.2873
  547TMC3    C8 8124   1.716   2.396  16.795 -0.1705  0.2245 -0.6111
  547TMC3    O1 8125   1.508   2.243  17.284  0.3869 -0.7325 -0.2210
  547TMC3    O2 8126   1.766   2.497  16.752  0.0625 -0.4182  0.2375
  548MPD2     C 8127   2.113   3.373  12.192  0.0818 -0.0002 -0.2362
  548MPD2    C1 8128   2.073   3.267  12.282  0.2022  0.1006  0.5895
  548MPD2    C2 8129   2.154   3.155  12.279  1.0298  0.5383 -0.0677
  548MPD2    C3 8130   2.252   3.135  12.177 -0.1158  0.5743  0.5257
  548MPD2    C4 8131   2.282   3.241  12.096  0.5266 -0.7744  0.1794
  548MPD2    C5 8132   2.214   3.359  12.104 -0.2063 -0.0939 -0.5202
  548MPD2     H 8133   2.146   3.066  12.340 -1.0547  0.1487 -0.8962
  548MPD2    H1 8134   2.368   3.245  12.030 -0.8388 -4.6116 -1.8815
  548MPD2    H2 8135   2.059   3.467  12.187  3.8665  2.1967  0.5148
  548MPD2    H3 8136   2.258   3.439  12.045 -0.1947  0.3040  0.0303
  548MPD2     N 8137   2.347   3.034  12.191 -0.2749  0.2998 -0.0878
  548MPD2    H5 8138   2.342   2.980  12.277 -2.9242  1.2401  0.3752
  548MPD2    N1 8139   1.959   3.277  12.363  0.3715  0.1558  0.2747
  548MPD2    H7 8140   1.896   3.351  12.332  1.1608 -0.0570 -1.8028
  549TMC3    C1 8141   1.786   3.210  12.499 -0.0955  0.4266 -0.2263
  549TMC3    C2 8142   1.712   3.306  12.439  0.2537 -0.1525  0.9454
  549TMC3    C3 8143   1.580   3.308  12.479  0.2541 -0.2882 -0.3100
  549TMC3    C4 8144   1.728   3.118  12.588  0.4658  0.7793  0.2813
  549TMC3    C5 8145   1.595   3.122  12.609 -0.4509 -0.1312  0.0437
  549TMC3    C6 8146   1.515   3.219  12.558 -0.6485 -0.0652 -0.2621
  549TMC3     C 8147   1.924   3.186  12.456 -0.5875  0.1941  0.6013
  549TMC3     O 8148   1.994   3.105  12.519 -0.0120  0.3628 -0.5090
  549TMC3     H 8149   1.738   3.373  12.358  0.6791  0.4213  1.5519
  549TMC3    H1 8150   1.795   3.045  12.633  0.9795  0.2798 -1.3079
  549TMC3    H2 8151   1.409   3.201  12.568 -0.3343 -1.1071  1.2698
  549TMC3    C7 8152   1.539   3.009  12.692  0.2403 -0.5097  0.1520
  549TMC3    C8 8153   1.508   3.427  12.457 -0.0015  0.4113  0.1760
  549TMC3    O1 8154   1.434   3.029  12.756 -0.0825 -1.0530 -0.0813
  549TMC3    O2 8155   1.387   3.428  12.481 -0.1773  0.4750  0.6782
  550TMC3    C1 8156   1.251   1.482  12.912 -0.2583 -0.2830 -0.5692
  550TMC3    C2 8157   1.187   1.495  13.033 -0.3290 -0.9140 -0.1364
  550TMC3    C3 8158   1.087   1.590  13.030  0.8007 -0.3910 -0.1047
  550TMC3    C4 8159   1.231   1.563  12.799  0.8078 -0.4384  0.1990
  550TMC3    C5 8160   1.146   1.667  12.817  0.2847 -0.1261  0.3663
  550TMC3    C6 8161   1.074   1.675  12.931  0.0755 -0.2517  0.1131
  550TMC3     C 8162   1.323   1.354  12.894  0.0090  0.4397 -0.1502
  550TMC3     O 8163   1.367   1.298  12.992  0.1856  0.0863 -0.8737
  550TMC3     H 8164   1.203   1.426  13.115 -3.2214 -0.0088  1.2000
  550TMC3    H1 8165   1.302   1.559  12.717  1.8015 -0.4041  1.0622
  550TMC3    H2 8166   0.991   1.743  12.944 -0.2585 -0.4380 -1.0641
  550TMC3    C7 8167   1.090   1.737  12.699 -0.3008  0.5843  0.5725
  550TMC3    C8 8168   0.973   1.552  13.094 -0.2242 -0.1727 -0.6176
  550TMC3    O1 8169   0.996   1.813  12.716 -0.0024  0.3020  0.3627
  550TMC3    O2 8170   0.947   1.594  13.206  0.4733 -0.2843 -0.1478
  551TMC3    C1 8171   3.175   3.727  13.141 -0.6783  0.9347  0.1953
  551TMC3    C2 8172   3.297   3.721  13.085  0.8407 -0.4381  0.1918
  551TMC3    C3 8173   3.379   3.826  13.100 -0.2191  0.5353  0.1959
  551TMC3    C4 8174   3.142   3.829  13.217  0.3302  0.1692 -0.4833
  551TMC3    C5 8175   3.227   3.935  13.232  0.6791  0.1536 -0.4218
  551TMC3    C6 8176   3.354   3.932  13.177 -0.4103 -0.6940  0.2032
  551TMC3     C 8177   3.089   3.629  13.094 -0.3492  0.6803  0.5103
  551TMC3     O 8178   3.109   3.576  12.988  0.1734  0.0127  0.6388
  551TMC3     H 8179   3.313   3.648  13.006  2.3442 -1.4331  1.4338
  551TMC3    H1 8180   3.047   3.839  13.268  2.0889  2.8719  2.2504
  551TMC3    H2 8181   3.414   4.022  13.180 -1.3169 -0.1062  0.7301
  551TMC3    C7 8182   3.195   4.028  13.330 -0.3975 -0.2219  0.0664
  551TMC3    C8 8183   3.495   3.820  13.006 -0.4625  0.3335 -0.0708
  551TMC3    O1 8184   3.129   3.992  13.430  0.3793  0.8361 -0.1346
  551TMC3    O2 8185   3.546   3.712  12.967  0.3411  0.2752  0.2874
  552MPD2     C 8186   4.703   0.809  13.619  1.0555  0.9076 -0.5463
  552MPD2    C1 8187   0.117   0.789  13.622  0.8761 -0.0634  0.4163
  552MPD2    C2 8188   0.186   0.828  13.735  0.3546 -0.9536 -0.0165
  552MPD2    C3 8189   0.120   0.880  13.845 -0.3884 -0.2051 -0.7276
  552MPD2    C4 8190   4.709   0.902  13.840 -0.4192 -0.3784 -0.4423
  552MPD2    C5 8191   4.651   0.874  13.720 -0.0054  0.1280 -0.4695
  552MPD2     H 8192   0.292   0.811  13.724  1.0864  2.1880  2.0915
  552MPD2    H1 8193   4.656   0.957  13.917  0.8881 -1.4025  1.1815
  552MPD2    H2 8194   4.642   0.785  13.532  0.0639  1.7958 -0.0982
  552MPD2    H3 8195   4.545   0.893  13.722 -0.1860 -1.0441  1.0879
  552MPD2     N 8196   0.197   0.921  13.958 -0.0340  0.3112 -0.1160
  552MPD2    H5 8197   0.143   0.951  14.039  0.3072  1.3592 -0.2797
  552MPD2    N1 8198   0.199   0.729  13.514  0.1947  0.3628  0.1887
  552MPD2    H7 8199   0.298   0.709  13.524  0.2503  0.8616  0.6222
  553TMC3    C1 8200   0.272   0.644  13.315  0.0287  0.0767  0.6523
  553TMC3    C2 8201   0.283   0.685  13.188  0.5225 -0.4325 -0.8161
  553TMC3    C3 8202   0.377   0.624  13.113 -0.0164  0.3633 -0.2653
  553TMC3    C4 8203   0.350   0.551  13.374 -0.2742  0.4100  0.0839
  553TMC3    C5 8204   0.446   0.491  13.296 -0.3150  0.0878  0.6835
  553TMC3    C6 8205   0.451   0.528  13.165 -0.2954  0.1005 -0.7369
  553TMC3     C 8206   0.159   0.700  13.392 -0.6337 -0.1869 -0.1365
  553TMC3     O 8207   0.055   0.731  13.339 -0.7581  0.7887 -0.5084
  553TMC3     H 8208   0.223   0.771  13.162  1.8321  1.6926  3.1738
  553TMC3    H1 8209   0.339   0.521  13.478  1.3720  0.2276  0.2119
  553TMC3    H2 8210   0.535   0.487  13.109  0.1113  2.0620 -1.5610
  553TMC3    C7 8211   0.536   0.385  13.332  0.0460  0.0908  0.5437
  553TMC3    C8 8212   0.467   0.730  13.080 -0.3353 -0.8252 -0.5675
  553TMC3    O1 8213   0.552   0.287  13.261 -0.3794  0.5107  0.2416
  553TMC3    O2 8214   0.547   0.752  13.170  0.1352 -0.2694  0.2226
  554TMC3    C1 8215   2.018   4.533  11.301 -0.2335 -0.0154 -0.0413
  554TMC3    C2 8216   1.926   4.566  11.211 -0.1468 -0.2662 -0.8922
  554TMC3    C3 8217   1.915   4.694  11.164 -0.2910 -0.2270 -0.7710
  554TMC3    C4 8218   2.118   4.616  11.336 -0.2973  0.3777  0.2796
  554TMC3    C5 8219   2.111   0.020  11.288  0.0799 -0.4161 -0.4085
  554TMC3    C6 8220   2.009   0.059  11.205 -0.0212 -0.0972  0.8191
  554TMC3     C 8221   1.997   4.419  11.381  0.2502  0.4832 -0.0146
  554TMC3     O 8222   1.923   4.337  11.330 -0.3427 -0.1604  0.9985
  554TMC3     H 8223   1.864   4.488  11.167 -2.6302  0.4825  1.3196
  554TMC3    H1 8224   2.210   4.574  11.373  0.2478  2.7996  1.6479
  554TMC3    H2 8225   2.013   0.160  11.165  0.7938 -0.8367 -0.9810
  554TMC3    C7 8226   2.231   0.106  11.273  0.1208  0.0552  0.1446
  554TMC3    C8 8227   1.861   4.721  11.032  0.3192 -0.6073 -0.3015
  554TMC3    O1 8228   2.229   0.175  11.176  0.4501  0.3026 -0.6551
  554TMC3    O2 8229   1.912   0.093  10.975  0.2906 -0.1012  0.2133
  555TMC3    C1 8230   1.035   4.348  14.676  0.2151 -0.4377 -0.2742
  555TMC3    C2 8231   1.017   4.450  14.766 -0.2430 -0.1450 -1.0871
  555TMC3    C3 8232   0.961   4.415  14.888 -0.1546  0.6178  0.5026
  555TMC3    C4 8233   1.001   4.219  14.700  0.6050  0.0469 -0.0407
  555TMC3    C5 8234   0.948   4.197  14.821  0.0702 -0.1655  0.4955
  555TMC3    C6 8235   0.922   4.288  14.916  0.1104 -0.3383 -0.2533
  555TMC3     C 8236   1.127   4.376  14.568  0.0748  0.1795  0.0489
  555TMC3     O 8237   1.190   4.281  14.523 -0.1681 -0.2495  0.2087
  555TMC3     H 8238   1.057   4.550  14.750 -1.5507  0.6366  0.4748
  555TMC3    H1 8239   1.009   4.142  14.624  1.5839  1.1269 -1.0332
  555TMC3    H2 8240   0.884   4.254  15.012 -0.5019  1.1302  0.0355
  555TMC3    C7 8241   0.906   4.062  14.847  0.2732 -0.0488  0.2664
  555TMC3    C8 8242   0.953   4.515  14.990  0.4189 -0.3839  0.5512
  555TMC3    O1 8243   0.820   4.044  14.934  0.6561 -0.0773  0.5902
  555TMC3    O2 8244   0.927   4.628  14.954  0.0013  0.4286  0.2807
  556MPD2     C 8245   4.619   1.371  10.808  0.4233  0.8497  0.1555
  556MPD2    C1 8246   4.502   1.302  10.822  0.1797 -0.9480  0.5454
  556MPD2    C2 8247   4.454   1.210  10.721 -0.0052  0.0124 -0.0572
  556MPD2    C3 8248   4.527   1.193  10.605 -0.1952 -0.9300 -0.4103
  556MPD2    C4 8249   4.638   1.272  10.587  0.0934 -0.0630  0.0760
  556MPD2    C5 8250   4.682   1.354  10.684 -0.4520  0.4014 -0.3170
  556MPD2     H 8251   4.365   1.149  10.736 -0.4268  0.1668 -1.9941
  556MPD2    H1 8252   4.695   1.277  10.495  0.6021  1.5389  0.4799
  556MPD2    H2 8253   4.675   1.433  10.877 -0.1285  2.4286 -0.8270
  556MPD2    H3 8254   0.051   1.408  10.672 -0.1710 -0.1769 -0.7313
  556MPD2     N 8255   4.486   1.100  10.508  0.2223 -1.0183  0.5525
  556MPD2    H5 8256   4.398   1.055  10.534 -0.4367 -0.5314 -0.8435
  556MPD2    N1 8257   4.423   1.310  10.941  0.3773 -0.2119 -0.0039
  556MPD2    H7 8258   4.336   1.258  10.949  0.8004 -0.4684  2.7009
  557TMC3    C1 8259   4.496   0.957  10.326  0.9007 -0.2224  0.0625
  557TMC3    C2 8260   4.560   0.920  10.208 -0.3395 -0.1996  0.1431
  557TMC3    C3 8261   4.506   0.809  10.141  0.0635 -0.9803 -0.2723
  557TMC3    C4 8262   4.423   0.867  10.393 -0.1524  1.0129  0.6549
  557TMC3    C5 8263   4.376   0.757  10.324 -0.0546 -0.5759  0.6631
  557TMC3    C6 8264   4.410   0.729  10.195 -0.2045 -0.2472 -0.4337
  557TMC3     C 8265   4.559   1.064  10.396 -0.4717  0.2115 -0.1892
  557TMC3     O 8266   4.647   1.121  10.340 -0.0307  0.0223  0.2871
  557TMC3     H 8267   4.628   0.991  10.161 -0.8896 -0.0268 -0.3864
  557TMC3    H1 8268   4.407   0.886  10.499  1.6389  2.3831  0.6744
  557TMC3    H2 8269   4.362   0.649  10.140 -1.3026  0.3886 -0.3994
  557TMC3    C7 8270   4.280   0.674  10.400 -0.0909 -0.3128 -0.0871
  557TMC3    C8 8271   4.533   0.791  10.000  0.5674  0.8790 -0.0140
  557TMC3    O1 8272   4.235   0.716  10.506  0.4016  0.2628  0.1657
  557TMC3    O2 8273   4.645   0.815   9.956 -0.3368  0.9380  0.4220
  558TMC3    C1 8274   1.999   3.310   9.478 -0.0433 -0.0587  0.0254
  558TMC3    C2 8275   1.928   3.207   9.527 -0.0509 -0.2958  0.5909
  558TMC3    C3 8276   1.798   3.201   9.475  0.3782  0.8530 -0.9101
  558TMC3    C4 8277   1.962   3.397   9.376 -0.6104  0.2124 -0.2207
  558TMC3    C5 8278   1.834   3.384   9.326  0.3527  0.4415 -0.0792
  558TMC3    C6 8279   1.744   3.292   9.385 -0.3861 -0.4107 -0.2765
  558TMC3     C 8280   2.105   3.354   9.567  1.0267 -0.0467  0.0577
  558TMC3     O 8281   2.215   3.381   9.520 -0.4113 -0.5766 -0.2907
  558TMC3     H 8282   1.990   3.128   9.569  2.5580  1.0276 -0.7452
  558TMC3    H1 8283   2.028   3.479   9.352  0.6952 -0.8448 -0.2426
  558TMC3    H2 8284   1.641   3.279   9.356 -0.3227 -0.5864 -0.4251
  558TMC3    C7 8285   1.799   3.471   9.213  0.2958  0.7299  0.0284
  558TMC3    C8 8286   1.701   3.166   9.574 -0.0918 -0.7858  0.4231
  558TMC3    O1 8287   1.878   3.560   9.184 -0.5966  0.0375 -0.4145
  558TMC3    O2 8288   1.583   3.195   9.558 -0.2005 -0.2470 -0.0472
  559MPD2     C 8289   1.837   4.456  10.417  0.0715 -0.0522  0.0155
  559MPD2    C1 8290   1.801   4.352  10.498 -0.0279 -0.5536 -0.3297
  559MPD2    C2 8291   1.894   4.288  10.574  0.2029  0.1149  0.1833
  559MPD2    C3 8292   2.027   4.329  10.590  0.3747  0.6158 -0.0311
  559MPD2    C4 8293   2.063   4.435  10.497 -0.4301 -0.0394  0.2866
  559MPD2    C5 8294   1.966   4.496  10.414  0.4666  0.5256 -0.8513
  559MPD2     H 8295   1.872   4.198  10.630 -1.6858 -0.2476 -1.1705
  559MPD2    H1 8296   2.166   4.468  10.486  0.1316 -2.2060 -0.8405
  559MPD2    H2 8297   1.759   4.497  10.354  1.2049  2.8845  0.5403
  559MPD2    H3 8298   1.993   4.568  10.338  0.7545 -1.2283 -2.4355
  559MPD2     N 8299   2.110   4.269  10.684  0.0868  0.5886 -0.0023
  559MPD2    H5 8300   2.074   4.191  10.738  2.1575  0.4803  1.2208
  559MPD2    N1 8301   1.662   4.312  10.489  0.4460  0.6228  0.1169
  559MPD2    H7 8302   1.601   4.368  10.430  0.1429  1.2936  1.0694
  560TMC3    C1 8303   2.316   4.189  10.783 -0.6669 -0.3364  0.4451
  560TMC3    C2 8304   2.272   4.061  10.784 -0.1442 -0.1231  0.6210
  560TMC3    C3 8305   2.357   3.976  10.843 -0.2257 -0.2399 -0.4607
  560TMC3    C4 8306   2.435   4.233  10.834  0.3246 -0.4297 -0.5289
  560TMC3    C5 8307   2.509   4.141  10.896 -0.3004 -0.6094  0.2814
  560TMC3    C6 8308   2.471   4.007  10.909  0.0414  0.0992 -0.2103
  560TMC3     C 8309   2.245   4.291  10.704 -0.2017  0.0721  0.1241
  560TMC3     O 8310   2.312   4.385  10.662  0.2858  0.1877 -0.3052
  560TMC3     H 8311   2.177   4.029  10.742 -0.5458 -1.4944  2.6030
  560TMC3    H1 8312   2.460   4.338  10.841  0.2620 -0.4671  0.2016
  560TMC3    H2 8313   2.538   3.936  10.957  0.4340  1.6876  1.5821
  560TMC3    C7 8314   2.601   4.189  10.999  0.1908  1.0954 -0.2419
  560TMC3    C8 8315   2.355   3.847  10.773 -0.5969 -0.0966 -0.2192
  560TMC3    O1 8316   2.618   4.112  11.094 -0.5042  0.3640 -0.0361
  560TMC3    O2 8317   2.241   3.805  10.743  1.0166 -0.2089 -0.2189
  561TMC3    C1 8318   4.697   2.876  11.266 -0.2926 -0.0604 -0.5866
  561TMC3    C2 8319   4.614   2.814  11.359 -0.1695  0.2973  0.7391
  561TMC3    C3 8320   4.487   2.867  11.377  0.1975  1.1916 -0.3079
  561TMC3    C4 8321   4.655   2.992  11.198 -0.3535  0.9659 -0.0740
  561TMC3    C5 8322   4.524   3.028  11.214 -0.1917  0.5311  0.6661
  561TMC3    C6 8323   4.439   2.966  11.303  0.1977  0.7356 -0.8391
  561TMC3     C 8324   0.112   2.858  11.292 -0.7381 -0.2074 -0.5439
  561TMC3     O 8325   0.141   2.805  11.396 -0.2917  0.4766 -0.4677
  561TMC3     H 8326   4.652   2.724  11.407  0.9346  0.1457 -0.4300
  561TMC3    H1 8327   4.709   3.050  11.124  2.2148 -0.7615  0.4474
  561TMC3    H2 8328   4.333   2.985  11.316  0.6668  1.6863  1.5942
  561TMC3    C7 8329   4.472   3.142  11.141  0.3616  0.1051 -0.0949
  561TMC3    C8 8330   4.418   2.813  11.495  0.3686  0.5267  0.3054
  561TMC3    O1 8331   4.350   3.151  11.148  0.4824  0.1207  0.7188
  561TMC3    O2 8332   4.448   2.697  11.519 -0.1775  0.6900 -0.0877
  562TMC3    C1 8333   0.847   4.492  15.724  0.2478 -0.6300  0.0600
  562TMC3    C2 8334   0.786   4.603  15.694 -0.1430  0.4474 -0.9388
  562TMC3    C3 8335   0.716   4.612  15.576  0.0093 -0.3184 -0.1091
  562TMC3    C4 8336   0.858   4.387  15.633 -0.5996  0.3146 -0.3550
  562TMC3    C5 8337   0.785   4.405  15.518  0.4702  0.8530 -0.3006
  562TMC3    C6 8338   0.713   4.516  15.479  0.0397  0.0105  0.2485
  562TMC3     C 8339   0.878   4.465  15.860  0.7463 -0.3293 -0.4380
  562TMC3     O 8340   0.964   4.382  15.881 -0.4442  0.2834  0.1737
  562TMC3     H 8341   0.793   4.684  15.765  2.4902 -1.8438  1.4213
  562TMC3    H1 8342   0.930   4.308  15.650  0.8024  1.8543  0.9082
  562TMC3    H2 8343   0.657   4.514  15.386  0.5518  1.3401 -0.0752
  562TMC3    C7 8344   0.788   4.294  15.428 -0.7155 -0.2146  0.4532
  562TMC3    C8 8345   0.673   0.026  15.543 -0.3217 -0.5853  1.0410
  562TMC3    O1 8346   0.755   4.319  15.317  0.0578  0.0962  0.4525
  562TMC3    O2 8347   0.670   0.109  15.632  0.3078 -0.1024 -0.4900
  563MPD2     C 8348   3.038   1.714  15.770  0.5272 -0.1876  0.0197
  563MPD2    C1 8349   3.031   1.584  15.806 -0.1945 -0.2294  0.4577
  563MPD2    C2 8350   3.146   1.504  15.800 -0.3720 -0.2009  0.0269
  563MPD2    C3 8351   3.272   1.545  15.769 -0.1776  0.3075  0.1676
  563MPD2    C4 8352   3.281   1.676  15.728  0.4126 -0.3534 -0.8196
  563MPD2    C5 8353   3.168   1.756  15.736  0.1239 -0.3407 -0.1047
  563MPD2     H 8354   3.128   1.403  15.835  1.4706  0.0376  1.6567
  563MPD2    H1 8355   3.380   1.718  15.716  0.4419  0.3880  2.0976
  563MPD2    H2 8356   2.959   1.785  15.790 -0.0368 -1.6955  3.1134
  563MPD2    H3 8357   3.186   1.860  15.712 -0.9028 -0.1428 -0.0454
  563MPD2     N 8358   3.378   1.464  15.811  0.3359 -0.2556  0.0287
  563MPD2    H5 8359   3.351   1.382  15.863 -0.8458 -0.5471 -1.0648
  563MPD2    N1 8360   2.898   1.522  15.835 -0.1074  0.1129  0.0624
  563MPD2    H7 8361   2.818   1.582  15.849 -1.7755 -1.6449 -1.9428
  564TMC3    C1 8362   2.741   1.368  15.914  0.0810 -0.0452 -0.1894
  564TMC3    C2 8363   2.693   1.246  15.887 -0.3994  0.1210 -0.0807
  564TMC3    C3 8364   2.651   1.180  15.998  0.2363 -0.2309  1.1184
  564TMC3    C4 8365   2.747   1.429  16.039  0.0189 -0.0377 -0.1026
  564TMC3    C5 8366   2.716   1.353  16.139  0.0839  1.0423  0.3175
  564TMC3    C6 8367   2.660   1.227  16.125 -0.0478 -0.0662 -0.4078
  564TMC3     C 8368   2.871   1.389  15.853 -0.3159  0.7351 -0.2337
  564TMC3     O 8369   2.928   1.289  15.820  0.1018 -0.5437  0.5460
  564TMC3     H 8370   2.686   1.202  15.788  1.7902  1.3736 -0.7943
  564TMC3    H1 8371   2.807   1.516  16.058  0.6016 -0.0610 -1.8290
  564TMC3    H2 8372   2.629   1.166  16.209 -0.3810  2.4748  1.2784
  564TMC3    C7 8373   2.763   1.398  16.265 -0.2934  0.2126 -0.1555
  564TMC3    C8 8374   2.615   1.035  16.001 -0.4440 -0.3311  0.0229
  564TMC3    O1 8375   2.745   1.510  16.304 -0.1981  0.0423  0.7330
  564TMC3    O2 8376   2.553   0.997  16.099  0.5300  0.5711 -0.5478
  565TMC3    C1 8377   4.074   2.840   9.832 -0.6579 -0.1268  0.8273
  565TMC3    C2 8378   4.133   2.735   9.888  0.7046  0.4753  0.6305
  565TMC3    C3 8379   4.056   2.651   9.962  1.1030  0.2499  0.4840
  565TMC3    C4 8380   3.938   2.842   9.825 -0.1785  0.3091 -0.2040
  565TMC3    C5 8381   3.861   2.760   9.901 -0.5909  0.1982  0.3861
  565TMC3    C6 8382   3.921   2.666   9.978  0.1786  0.2782 -0.9304
  565TMC3     C 8383   4.147   2.923   9.741  0.4491  0.6227  0.0572
  565TMC3     O 8384   4.079   2.986   9.658 -0.6310  0.3843 -0.0855
  565TMC3     H 8385   4.240   2.721   9.887  0.5212 -0.6722 -1.5021
  565TMC3    H1 8386   3.892   2.927   9.775  3.1438  1.8344 -0.6386
  565TMC3    H2 8387   3.855   2.581   9.992 -1.3898  1.7630  0.7748
  565TMC3    C7 8388   3.716   2.767   9.886 -0.6015  0.4737  0.3955
  565TMC3    C8 8389   4.115   2.524   9.990  0.6948  0.3009 -0.2539
  565TMC3    O1 8390   3.679   2.844   9.798  0.5078 -0.1437  0.8916
  565TMC3    O2 8391   4.220   2.492   9.929 -0.0151 -0.1234  0.2354
  566MPD2     C 8392   0.419   0.107  13.967  0.7554 -0.2391  0.0213
  566MPD2    C1 8393   0.496   4.718  13.978 -0.3849 -0.4980 -0.4485
  566MPD2    C2 8394   0.442   4.594  13.943  0.1721 -0.3605 -0.7521
  566MPD2    C3 8395   0.311   4.588  13.907  0.2928 -0.6194 -0.5155
  566MPD2    C4 8396   0.235   4.696  13.891 -0.2346 -0.6656 -0.5110
  566MPD2    C5 8397   0.289   0.095  13.924 -0.2555 -0.0987  0.5540
  566MPD2     H 8398   0.503   4.507  13.923  0.9513  0.1171 -0.4477
  566MPD2    H1 8399   0.130   4.692  13.867  0.0249 -1.4771 -1.5168
  566MPD2    H2 8400   0.449   0.203  14.009 -1.2559 -0.3555  1.6897
  566MPD2    H3 8401   0.214   0.173  13.923 -0.5008 -0.3310  1.0246
  566MPD2     N 8402   0.249   4.466  13.863 -0.2114 -0.0263  0.2137
  566MPD2    H5 8403   0.162   4.478  13.813 -0.5709  0.1994  0.8877
  566MPD2    N1 8404   0.632   0.003  14.009  0.0100 -0.8127 -0.4600
  566MPD2    H7 8405   0.673   0.092  13.984  1.8184 -1.3818  0.5059
  567TMC3    C1 8406   0.846   4.661  14.066 -0.3382  0.0756  0.1615
  567TMC3    C2 8407   0.900   4.685  13.943  0.1280  0.6457  0.9344
  567TMC3    C3 8408   1.020   4.631  13.912 -0.2097  0.3695 -0.0922
  567TMC3    C4 8409   0.916   4.576  14.153 -1.0235  0.3299 -0.5282
  567TMC3    C5 8410   1.024   4.506  14.109 -0.3171  0.2653 -0.0030
  567TMC3    C6 8411   1.089   4.542  13.991 -0.5073  0.8120  0.0025
  567TMC3     C 8412   0.704   4.627  14.064  1.0360 -0.1364 -0.2653
  567TMC3     O 8413   0.675   4.520  14.109 -0.0583 -0.0157 -0.1152
  567TMC3     H 8414   0.851   0.020  13.865  2.2098  1.3327  0.1565
  567TMC3    H1 8415   0.869   4.570  14.250  0.1336  2.9491  0.1907
  567TMC3    H2 8416   1.168   4.482  13.947  0.8516  1.9627  0.8553
  567TMC3    C7 8417   1.042   4.373  14.160 -0.1683 -0.3400  0.0290
  567TMC3    C8 8418   1.053   4.634  13.771 -0.5219  0.9659 -0.5648
  567TMC3    O1 8419   1.119   4.304  14.100  0.4792  0.2176  0.2822
  567TMC3    O2 8420   0.957   4.634  13.694 -0.0528 -0.8574 -0.9253
  568MPD2     C 8421   2.762   4.663  16.907 -0.9378  0.2556  0.5067
  568MPD2    C1 8422   2.628   4.701  16.917 -0.1764 -0.8896  0.0668
  568MPD2    C2 8423   2.569   0.054  16.820 -0.4151 -0.3023  0.1734
  568MPD2    C3 8424   2.646   0.086  16.710 -0.1132  0.3241  0.0689
  568MPD2    C4 8425   2.781   0.055  16.698 -0.3211  0.1282 -0.4775
  568MPD2    C5 8426   2.837   4.704  16.799 -0.3323 -0.2020 -0.4615
  568MPD2     H 8427   2.464   0.080  16.827 -0.6531 -0.3370 -3.2141
  568MPD2    H1 8428   2.838   0.077  16.609  0.2349 -0.1960 -0.1999
  568MPD2    H2 8429   2.814   4.622  16.992  1.4039  1.6975 -0.2199
  568MPD2    H3 8430   2.940   4.674  16.784 -0.9955 -3.6614  1.9213
  568MPD2     N 8431   2.587   0.151  16.602  0.5484 -0.8235  0.4038
  568MPD2    H5 8432   2.496   0.190  16.624  0.0280 -2.2750  0.8605
  568MPD2    N1 8433   2.561   4.646  17.024 -0.3897 -0.4195  0.6062
  568MPD2    H7 8434   2.611   4.584  17.086  1.1927 -0.3576 -0.6051
  569TMC3    C1 8435   2.564   0.289  16.425  0.4689 -0.3016 -0.7780
  569TMC3    C2 8436   2.507   0.382  16.507 -0.2513 -0.1315 -0.0025
  569TMC3    C3 8437   2.437   0.482  16.442 -0.0506  0.6710 -0.1998
  569TMC3    C4 8438   2.548   0.285  16.291  0.8418  0.2548 -0.0770
  569TMC3    C5 8439   2.475   0.385  16.229  0.6851 -0.3244  0.9034
  569TMC3    C6 8440   2.415   0.478  16.307 -0.1999 -0.2308  0.4189
  569TMC3     C 8441   2.641   0.179  16.483  0.2386  0.2320 -0.5393
  569TMC3     O 8442   2.729   0.122  16.422 -0.2214  0.3275 -0.0693
  569TMC3     H 8443   2.523   0.379  16.614 -1.7647  2.4330  0.3211
  569TMC3    H1 8444   2.602   0.206  16.239  0.9123  1.5282 -1.9567
  569TMC3    H2 8445   2.349   0.550  16.262 -0.9370 -0.2898  1.3979
  569TMC3    C7 8446   2.517   0.423  16.096 -0.6424  0.3259 -0.0966
  569TMC3    C8 8447   2.402   0.604  16.517  0.1196  0.4206 -0.7915
  569TMC3    O1 8448   2.587   0.344  16.034 -0.0765 -0.5297 -0.6576
  569TMC3    O2 8449   2.354   0.687  16.439 -0.1275  0.2003 -0.1464
  570TMC3    C1 8450   1.974   3.548  16.052  0.0892  0.3865 -0.5518
  570TMC3    C2 8451   2.066   3.589  15.958 -0.5508 -0.2317  0.3453
  570TMC3    C3 8452   2.092   3.721  15.945  0.2744  0.6463 -0.5981
  570TMC3    C4 8453   1.890   3.644  16.108 -0.1189  0.9086 -0.3920
  570TMC3    C5 8454   1.918   3.778  16.089 -0.2822 -0.1833 -0.0666
  570TMC3    C6 8455   2.021   3.823  16.008  0.0687 -0.6932 -0.2569
  570TMC3     C 8456   1.951   3.414  16.062  0.4642 -0.3727  0.2031
  570TMC3     O 8457   1.998   3.343  15.972 -0.4444  0.0828 -0.1118
  570TMC3     H 8458   2.127   3.512  15.912  0.1286  0.0790  0.7300
  570TMC3    H1 8459   1.817   3.620  16.184 -0.2101 -0.7604 -1.0215
  570TMC3    H2 8460   2.042   3.926  15.982 -1.6803  0.5431  3.2598
  570TMC3    C7 8461   1.864   3.866  16.186 -0.0980 -0.2285 -0.2247
  570TMC3    C8 8462   2.207   3.755  15.862  0.9721  0.1514 -0.4023
  570TMC3    O1 8463   1.802   3.827  16.282 -0.5973 -0.3357 -0.1072
  570TMC3    O2 8464   2.241   3.874  15.879 -0.3777 -0.6195 -0.0001
  571MPD2     C 8465   4.603   0.150  17.283  0.6101  0.7157 -0.6257
  571MPD2    C1 8466   4.577   0.282  17.296  0.0909 -0.8291  0.5081
  571MPD2    C2 8467   4.684   0.371  17.305  0.6324 -0.0684 -0.3285
  571MPD2    C3 8468   0.085   0.327  17.281 -0.3025  0.3659  0.1502
  571MPD2    C4 8469   0.104   0.200  17.229 -0.7498  0.4978 -0.0288
  571MPD2    C5 8470   4.723   0.107  17.239  0.0466 -0.2111  0.6748
  571MPD2     H 8471   4.659   0.473  17.332  0.1022 -0.1543 -0.5070
  571MPD2    H1 8472   0.204   0.174  17.197 -2.1724 -2.6248 -1.8895
  571MPD2    H2 8473   4.517   0.084  17.289 -0.4618  2.1871  0.0993
  571MPD2    H3 8474   0.016   0.010  17.192 -3.6656 -0.4120 -0.3086
  571MPD2     N 8475   0.192   0.421  17.277 -0.3964  0.1372 -0.9470
  571MPD2    H5 8476   0.287   0.388  17.266 -1.1060 -1.7747 -1.5183
  571MPD2    N1 8477   4.438   0.327  17.320 -0.1015  0.4285  0.2368
  571MPD2    H7 8478   4.362   0.260  17.321  0.3897 -0.1423 -0.3125
  572TMC3    C1 8479   0.303   0.625  17.333  0.3390 -0.0097 -0.2077
  572TMC3    C2 8480   0.372   0.557  17.434  0.0376  0.0531  0.2209
  572TMC3    C3 8481   0.437   0.626  17.530  0.3975 -0.3422 -0.5767
  572TMC3    C4 8482   0.310   0.757  17.329  0.1305 -0.3626 -0.8564
  572TMC3    C5 8483   0.383   0.821  17.425  0.2988 -0.3000  0.5168
  572TMC3    C6 8484   0.437   0.761  17.529 -0.1930 -0.1589  0.2609
  572TMC3     C 8485   0.181   0.561  17.273  0.6037  0.6336  0.0903
  572TMC3     O 8486   0.091   0.638  17.236 -0.1834  0.1233  0.2351
  572TMC3     H 8487   0.344   0.455  17.458  0.6317 -0.0333  0.5654
  572TMC3    H1 8488   0.257   0.803  17.247  0.2753  0.9583 -0.2177
  572TMC3    H2 8489   0.485   0.815  17.610  1.3660 -1.7348  0.3999
  572TMC3    C7 8490   0.392   0.973  17.412  0.2516  0.2940  0.5584
  572TMC3    C8 8491   0.422   0.566  17.659  0.6523  0.1784 -0.9285
  572TMC3    O1 8492   0.312   1.026  17.339 -0.1414  0.2092  0.3300
  572TMC3    O2 8493   0.480   0.462  17.674  0.2073 -0.5077  0.1313
  573MPD2     C 8494   0.728   0.759   0.165  0.2178  0.2795  0.4927
  573MPD2    C1 8495   0.781   0.878   0.189 -0.0872 -0.1355  0.1185
  573MPD2    C2 8496   0.843   0.947   0.088  0.2287 -0.1914 -0.1098
  573MPD2    C3 8497   0.851   0.898  17.657  0.2401 -0.6958 -0.2902
  573MPD2    C4 8498   0.780   0.786  17.630 -0.6366  0.1241 -0.7225
  573MPD2    C5 8499   0.727   0.714   0.036 -0.2024 -0.3973  0.0585
  573MPD2     H 8500   0.886   1.043   0.113  0.2076 -1.0807  3.4487
  573MPD2    H1 8501   0.772   0.744  17.530 -0.1380  1.7641 -1.4705
  573MPD2    H2 8502   0.675   0.705   0.243  0.7917  0.2890  0.8974
  573MPD2    H3 8503   0.678   0.618   0.026 -2.2724  0.8696 -1.6653
  573MPD2     N 8504   0.920   0.960  17.543 -0.0599 -0.3938 -0.1961
  573MPD2    H5 8505   0.923   0.909  17.455 -4.0190  0.0727 -0.6332
  573MPD2    N1 8506   0.782   0.924   0.327  0.1671  0.0137 -0.0488
  573MPD2    H7 8507   0.734   0.861   0.391 -0.1774  2.0333  1.6787
  574TMC3    C1 8508   1.046   1.111  17.427 -0.2793 -0.2089  0.8566
  574TMC3    C2 8509   0.995   1.069  17.307  1.2033 -0.5450 -0.4618
  574TMC3    C3 8510   1.019   1.140  17.194  0.3886  0.1582  0.1566
  574TMC3    C4 8511   1.135   1.218  17.434 -0.5533 -0.8174  0.3882
  574TMC3    C5 8512   1.167   1.273  17.316  0.1868  0.3333 -0.2003
  574TMC3    C6 8513   1.106   1.246  17.201 -0.0959 -0.0025 -0.7061
  574TMC3     C 8514   0.990   1.074  17.557 -0.3813 -0.2224 -0.8748
  574TMC3     O 8515   1.010   1.147  17.651  0.1925 -0.0955 -0.2513
  574TMC3     H 8516   0.933   0.984  17.281  0.6741 -0.0517 -0.8154
  574TMC3    H1 8517   1.187   1.242  17.526  1.1260  1.0166 -1.0322
  574TMC3    H2 8518   1.126   1.308  17.115 -1.7019  2.5366  0.7395
  574TMC3    C7 8519   1.250   1.391  17.319  0.1264  0.2815 -0.0501
  574TMC3    C8 8520   0.959   1.105  17.062  0.0460  0.2864 -0.0940
  574TMC3    O1 8521   1.319   1.414  17.222  0.3842 -0.1835 -0.1635
  574TMC3    O2 8522   0.920   0.990  17.045  0.2150  0.4668 -0.4154
  575TMC3    C1 8523   4.626   1.892   9.774 -0.0462  0.3271  0.2929
  575TMC3    C2 8524   4.546   1.798   9.714  0.4288  0.3042  0.2596
  575TMC3    C3 8525   4.422   1.776   9.757 -0.4571 -0.1121  0.3808
  575TMC3    C4 8526   4.573   1.968   9.870  0.1738  0.1746  0.7820
  575TMC3    C5 8527   4.446   1.934   9.913  0.4518  0.9849 -0.4501
  575TMC3    C6 8528   4.360   1.850   9.850 -0.1661 -0.0061  0.2720
  575TMC3     C 8529   0.017   1.942   9.687  0.3604 -0.3801 -0.0197
  575TMC3     O 8530   0.047   1.882   9.586 -0.0134 -0.5856  0.6977
  575TMC3     H 8531   4.577   1.744   9.625  0.2457 -2.4585  1.8836
  575TMC3    H1 8532   4.629   2.028   9.940  1.2366 -1.4661  1.3425
  575TMC3    H2 8533   4.261   1.834   9.892 -0.2062  0.0650  0.2042
  575TMC3    C7 8534   4.383   2.044   9.981 -0.3182 -0.4737 -0.1913
  575TMC3    C8 8535   4.351   1.660   9.699  0.5582  0.7561 -0.5075
  575TMC3    O1 8536   4.433   2.152   9.954  0.2194  0.2307 -0.3615
  575TMC3    O2 8537   4.378   1.616   9.590  0.3588 -0.0721  0.3436
  576MPD2     C 8538   3.474   3.403  12.487  0.1724 -0.6088 -0.2840
  576MPD2    C1 8539   3.527   3.491  12.402  0.0874 -0.1948  0.2215
  576MPD2    C2 8540   3.517   3.625  12.433  0.0540  0.0409  0.0649
  576MPD2    C3 8541   3.441   3.661  12.547 -0.0737  0.4154 -0.5642
  576MPD2    C4 8542   3.373   3.566  12.620  0.3689  0.6719  0.0726
  576MPD2    C5 8543   3.398   3.438  12.596 -0.3938 -0.0475 -0.5744
  576MPD2     H 8544   3.554   3.698  12.363  1.0144 -1.5074 -1.0591
  576MPD2    H1 8545   3.308   3.583  12.706 -0.8804 -2.0721 -0.3593
  576MPD2    H2 8546   3.488   3.298  12.466 -1.0499 -0.5694 -1.2594
  576MPD2    H3 8547   3.355   3.364  12.663  2.5571 -2.7142 -1.6601
  576MPD2     N 8548   3.433   3.800  12.572 -0.2946 -0.3191 -0.1925
  576MPD2    H5 8549   3.487   3.856  12.507  0.7396 -1.0117  0.0806
  576MPD2    N1 8550   3.619   3.459  12.296  0.1304 -0.2633  0.7104
  576MPD2    H7 8551   3.663   3.538  12.248 -1.5785 -0.3739 -1.0709
  577TMC3    C1 8552   3.765   3.332  12.168 -0.4005 -0.0566 -0.4938
  577TMC3    C2 8553   3.840   3.217  12.163 -0.0120 -0.0464  0.3088
  577TMC3    C3 8554   3.899   3.189  12.039 -0.0806 -0.4151 -0.7793
  577TMC3    C4 8555   3.735   3.404  12.064 -0.0843 -0.1985 -0.2181
  577TMC3    C5 8556   3.792   3.370  11.941  0.3289 -0.1144  0.6951
  577TMC3    C6 8557   3.886   3.269  11.928 -0.2318  0.0263 -0.8354
  577TMC3     C 8558   3.669   3.332  12.276  0.1015  0.2117  0.6183
  577TMC3     O 8559   3.646   3.229  12.335 -0.2028 -0.2622  0.2734
  577TMC3     H 8560   3.851   3.149  12.247 -2.4296  0.1178  0.7340
  577TMC3    H1 8561   3.693   3.504  12.069  2.5820  0.8172  1.9173
  577TMC3    H2 8562   3.913   3.256  11.824  0.4365 -1.2094 -0.5045
  577TMC3    C7 8563   3.831   3.483  11.850 -0.0248 -0.3053 -1.1714
  577TMC3    C8 8564   3.970   3.067  12.018 -0.6364  0.0484  0.3447
  577TMC3    O1 8565   3.949   3.486  11.819 -0.3155  0.0549  0.1191
  577TMC3    O2 8566   3.966   2.989  12.113  0.2064 -0.7143  0.0735
  578MPD2     C 8567   1.292   3.740   0.313 -0.7788  0.2925 -0.2433
  578MPD2    C1 8568   1.327   3.607   0.310 -0.5305 -0.0712 -0.2544
  578MPD2    C2 8569   1.425   3.558   0.405  0.0279  0.6986 -0.8528
  578MPD2    C3 8570   1.466   3.639   0.513  0.6342 -0.6947  0.7433
  578MPD2    C4 8571   1.401   3.764   0.527  0.5285 -0.2374  0.4384
  578MPD2    C5 8572   1.323   3.811   0.429 -0.7708 -0.5159 -0.3072
  578MPD2     H 8573   1.469   3.459   0.394 -0.7773  0.3705 -1.1552
  578MPD2    H1 8574   1.424   3.829   0.610  0.4806 -1.7416  1.6224
  578MPD2    H2 8575   1.239   3.797   0.238 -1.8151  0.2101  0.4273
  578MPD2    H3 8576   1.279   3.910   0.434  1.8788  0.5760  1.0987
  578MPD2     N 8577   1.567   3.597   0.604 -0.2794 -0.1574 -0.1705
  578MPD2    H5 8578   1.607   3.504   0.594  0.2777 -0.0229  0.7963
  578MPD2    N1 8579   1.290   3.542   0.196  0.5691  0.6697  0.2563
  578MPD2    H7 8580   1.220   3.589   0.139  1.7813  1.5845 -0.4635
  579TMC3    C1 8581   1.754   3.619   0.745  0.1594 -0.8509  0.6451
  579TMC3    C2 8582   1.813   3.675   0.858 -0.0604 -0.1891  0.2377
  579TMC3    C3 8583   1.934   3.623   0.908 -0.0840 -0.9484  0.1444
  579TMC3    C4 8584   1.813   3.509   0.685  0.3743 -0.0933  0.3365
  579TMC3    C5 8585   1.925   3.463   0.748 -0.3974  0.2504 -0.1008
  579TMC3    C6 8586   1.995   3.508   0.856 -0.3799  0.3273 -0.2249
  579TMC3     C 8587   1.627   3.675   0.700 -0.0877  0.3546  0.1737
  579TMC3     O 8588   1.583   3.779   0.745  0.7302  0.1002 -0.3818
  579TMC3     H 8589   1.761   3.757   0.906 -0.3702 -0.7392  0.8499
  579TMC3    H1 8590   1.790   3.487   0.582 -0.7239  1.4514  0.2511
  579TMC3    H2 8591   2.092   3.466   0.881 -0.6617 -0.3720 -0.3015
  579TMC3    C7 8592   1.974   3.343   0.695  0.0698 -0.0310 -0.2126
  579TMC3    C8 8593   1.995   3.695   1.028  0.6803 -0.4780 -0.2295
  579TMC3    O1 8594   2.094   3.333   0.687  0.6499 -0.6391  0.3478
  579TMC3    O2 8595   1.917   3.765   1.087 -0.3792 -1.0403  0.2478
  580TMC3    C1 8596   1.787   3.317  11.830 -0.7833 -0.4612  0.2762
  580TMC3    C2 8597   1.924   3.292  11.848 -0.1111  0.3508  0.3854
  580TMC3    C3 8598   1.961   3.165  11.856  0.9517 -0.5251  0.2153
  580TMC3    C4 8599   1.694   3.211  11.826  0.0634  0.0962  0.4801
  580TMC3    C5 8600   1.740   3.094  11.867 -0.4568 -0.0772 -0.2751
  580TMC3    C6 8601   1.874   3.067  11.884 -0.2359 -0.5944  0.3921
  580TMC3     C 8602   1.755   3.449  11.766 -0.1679  0.2625  0.8065
  580TMC3     O 8603   1.837   3.534  11.791 -0.2755 -0.5749 -0.0180
  580TMC3     H 8604   1.996   3.370  11.829  0.1788  0.4556  1.9038
  580TMC3    H1 8605   1.588   3.231  11.816 -0.6239 -3.6127  0.3864
  580TMC3    H2 8606   1.914   2.966  11.881  1.3904 -0.0069  1.8418
  580TMC3    C7 8607   1.646   2.983  11.861 -0.6320  0.1451 -0.3784
  580TMC3    C8 8608   2.068   3.129  11.769  0.3704  0.1431  0.4384
  580TMC3    O1 8609   1.539   2.984  11.799 -0.3405 -0.5020 -0.1668
  580TMC3    O2 8610   2.054   3.013  11.725  0.0003 -0.6663  0.6669
  581MPD2     C 8611   3.706   2.806  15.113  0.6852  0.0942 -0.7122
  581MPD2    C1 8612   3.684   2.713  15.014  0.4877  0.1515  0.3288
  581MPD2    C2 8613   3.622   2.751  14.893  0.1124 -0.0965  0.2456
  581MPD2    C3 8614   3.594   2.882  14.874  0.4724  0.1233 -0.4430
  581MPD2    C4 8615   3.637   2.977  14.967  0.5298  0.1058  0.6612
  581MPD2    C5 8616   3.699   2.938  15.085 -0.1433 -0.8206  0.7267
  581MPD2     H 8617   3.582   2.672  14.830 -0.2571  0.6750 -0.4831
  581MPD2    H1 8618   3.637   3.085  14.951 -0.4372 -0.1622 -1.2376
  581MPD2    H2 8619   3.739   2.774  15.211  0.2581 -0.0666 -0.6207
  581MPD2    H3 8620   3.724   3.010  15.162 -0.0808  1.9195 -1.8668
  581MPD2     N 8621   3.530   2.936  14.755 -0.8306 -0.2668 -0.1113
  581MPD2    H5 8622   3.533   3.037  14.745 -3.6052 -0.3191 -1.5845
  581MPD2    N1 8623   3.723   2.580  15.040 -0.9335 -0.1025 -0.2792
  581MPD2    H7 8624   3.772   2.556  15.126 -2.0985  0.7249  0.6229
  582TMC3    C1 8625   3.798   2.371  14.997  0.5183 -0.2320  0.3650
  582TMC3    C2 8626   3.887   2.403  15.093 -0.1112  0.0029  0.3630
  582TMC3    C3 8627   3.904   2.317  15.197 -0.3714  0.3526 -0.5078
  582TMC3    C4 8628   3.720   2.256  15.003 -0.0994 -0.5766 -0.1230
  582TMC3    C5 8629   3.734   2.182  15.119 -0.4197  0.3144  0.0283
  582TMC3    C6 8630   3.826   2.209  15.216  0.0383  0.7272 -0.4390
  582TMC3     C 8631   3.739   2.485  14.940 -1.0400  0.1068 -0.2245
  582TMC3     O 8632   3.661   2.450  14.856 -0.2096 -0.4894  0.0328
  582TMC3     H 8633   3.944   2.495  15.091 -1.6796  0.9738  0.3087
  582TMC3    H1 8634   3.647   2.244  14.924 -0.3232  2.9711 -0.4612
  582TMC3    H2 8635   3.822   2.155  15.310 -0.4739 -0.0635 -0.9174
  582TMC3    C7 8636   3.602   2.170  15.185 -0.1482 -0.3985  0.5379
  582TMC3    C8 8637   3.933   2.385  15.317  0.4609 -0.4273 -0.1866
  582TMC3    O1 8638   3.589   2.087  15.276 -0.7998 -0.4728  0.0979
  582TMC3    O2 8639   3.909   2.505  15.325  0.0245  0.4505 -1.0569
  583MPD2     C 8640   3.894   4.443  16.674  0.1600  0.3672  0.2917
  583MPD2    C1 8641   3.890   4.536  16.571 -0.0564 -0.5418  0.4193
  583MPD2    C2 8642   3.840   4.658  16.596 -0.3871  0.3498  0.0456
  583MPD2    C3 8643   3.795   4.692  16.721 -0.1189 -0.0817  0.2879
  583MPD2    C4 8644   3.809   4.609  16.829  0.2913  0.0475  0.0831
  583MPD2    C5 8645   3.852   4.482  16.801  0.2874  0.3863  0.2499
  583MPD2     H 8646   3.825   0.006  16.516  0.2288 -1.0013 -1.2771
  583MPD2    H1 8647   3.797   4.635  16.934 -1.2815  0.2189 -0.1418
  583MPD2    H2 8648   3.925   4.342  16.648 -2.2533 -0.4248  0.5094
  583MPD2    H3 8649   3.852   4.409  16.881 -1.4252  0.7696  0.5871
  583MPD2     N 8650   3.735   0.098  16.736  0.2253 -0.0165 -0.0296
  583MPD2    H5 8651   3.745   0.170  16.665 -0.7385  0.4401  0.2998
  583MPD2    N1 8652   3.933   4.510  16.439 -0.4003  0.2821  0.4905
  583MPD2    H7 8653   3.924   4.589  16.376 -2.9346  1.7548  2.7454
  584TMC3    C1 8654   3.592   0.266  16.816 -0.5555  0.2105  0.0526
  584TMC3    C2 8655   3.674   0.366  16.777 -0.9742 -0.9596  1.0091
  584TMC3    C3 8656   3.648   0.497  16.823 -0.3572 -0.0092  0.8134
  584TMC3    C4 8657   3.492   0.293  16.905  0.3703  0.2077  0.0808
  584TMC3    C5 8658   3.477   0.416  16.955 -0.5259  0.3080  0.6441
  584TMC3    C6 8659   3.560   0.522  16.924 -0.0795  0.4225  0.7517
  584TMC3     C 8660   3.644   0.130  16.835 -0.0710 -0.3251  0.1878
  584TMC3     O 8661   3.601   0.053  16.920 -0.2043 -0.0028 -0.0924
  584TMC3     H 8662   3.757   0.342  16.711 -1.4888 -1.2588  0.4674
  584TMC3    H1 8663   3.416   0.218  16.922 -1.0546  1.0012 -2.7633
  584TMC3    H2 8664   3.532   0.621  16.960 -0.6954 -0.0325  1.5212
  584TMC3    C7 8665   3.392   0.430  17.070 -0.3311  0.4214  0.3723
  584TMC3    C8 8666   3.739   0.597  16.776  0.2883 -0.7551 -0.2341
  584TMC3    O1 8667   3.364   0.543  17.107 -0.0700  0.2026 -0.3205
  584TMC3    O2 8668   3.764   0.593  16.658 -0.3344 -0.9613 -0.2162
  585MPD2     C 8669   3.510   3.260   0.079  0.6920 -0.2903 -0.4807
  585MPD2    C1 8670   3.438   3.351   0.006  0.5408 -0.3167  0.8160
  585MPD2    C2 8671   3.363   3.304  17.605 -0.6570 -0.1259 -0.0959
  585MPD2    C3 8672   3.351   3.170  17.571 -0.5499  1.0496 -0.0276
  585MPD2    C4 8673   3.425   3.076  17.639  0.2040  0.3854 -0.2735
  585MPD2    C5 8674   3.504   3.124   0.043 -0.0307 -0.2263  0.1098
  585MPD2     H 8675   3.299   3.374  17.552 -1.6638 -2.1461 -1.5863
  585MPD2    H1 8676   3.417   2.969  17.624  2.4702 -0.0231  1.3120
  585MPD2    H2 8677   3.567   3.290   0.166  1.7061 -1.8044 -0.6103
  585MPD2    H3 8678   3.561   3.059   0.107 -0.9859 -2.3151 -1.1655
  585MPD2     N 8679   3.280   3.134  17.451 -0.2334 -0.5603  0.2839
  585MPD2    H5 8680   3.305   3.041  17.422  0.3623  0.3760 -2.1930
  585MPD2    N1 8681   3.426   3.492   0.039 -0.1724  0.2759  0.3280
  585MPD2    H7 8682   3.362   3.542  17.675 -2.2219 -0.2428  2.0546
  586TMC3    C1 8683   3.143   3.170  17.261  1.0408 -0.0465  0.5342
  586TMC3    C2 8684   3.235   3.106  17.182 -0.0096  0.3277 -0.2979
  586TMC3    C3 8685   3.185   3.006  17.101 -0.3649  0.1494  0.3013
  586TMC3    C4 8686   3.008   3.152  17.239 -0.3400 -1.2584  0.6754
  586TMC3    C5 8687   2.960   3.054  17.153  0.8230 -0.9888 -0.9458
  586TMC3    C6 8688   3.050   2.977  17.082 -0.0928  0.4646  0.4929
  586TMC3     C 8689   3.189   3.219  17.393 -0.2824 -0.3508 -0.1526
  586TMC3     O 8690   3.121   3.302  17.451  0.1597  0.2246  0.0325
  586TMC3     H 8691   3.338   3.109  17.217 -0.3107  2.2131  0.4572
  586TMC3    H1 8692   2.945   3.204  17.310  0.3207 -0.5271  0.7279
  586TMC3    H2 8693   3.013   2.909  17.006 -0.3850 -0.7641  1.7538
  586TMC3    C7 8694   2.826   3.007  17.167 -0.1468 -0.4067  0.1691
  586TMC3    C8 8695   3.292   2.901  17.078  0.9463  0.4146 -0.3380
  586TMC3    O1 8696   2.806   2.886  17.153 -0.3332  0.1536  0.0537
  586TMC3    O2 8697   3.409   2.929  17.090  0.3845  0.6304 -0.0592
  587TMC3    C1 8698   0.832   2.179  15.971  0.3837 -0.0553  0.2493
  587TMC3    C2 8699   0.803   2.312  15.972 -0.2539  0.4782  0.2357
  587TMC3    C3 8700   0.887   2.401  15.906  0.0342  0.0901 -0.1176
  587TMC3    C4 8701   0.926   2.132  15.889 -0.3293 -0.1768 -0.0023
  587TMC3    C5 8702   0.991   2.221  15.808 -0.2507 -0.3522  0.2827
  587TMC3    C6 8703   0.980   2.358  15.825  0.1700 -0.0552 -0.4346
  587TMC3     C 8704   0.752   2.075  16.038 -0.4159 -0.3898 -0.0360
  587TMC3     O 8705   0.782   1.957  16.020  0.3390  0.2799 -0.5346
  587TMC3     H 8706   0.714   2.351  16.020 -1.8106 -3.0127  0.1938
  587TMC3    H1 8707   0.945   2.026  15.879  0.6886 -0.1154  1.1990
  587TMC3    H2 8708   1.053   2.430  15.790  0.5753 -0.6893 -0.9094
  587TMC3    C7 8709   1.058   2.167  15.693 -0.9179  0.2414 -0.2092
  587TMC3    C8 8710   0.844   2.536  15.881  0.2124  0.4457  0.1344
  587TMC3    O1 8711   1.079   2.044  15.698  0.1810  0.3842 -0.2786
  587TMC3    O2 8712   0.877   2.593  15.779  0.5127  0.4685  0.2669
  588TMC3    C1 8713   3.578   4.248   9.870 -0.1289  0.7946  0.0800
  588TMC3    C2 8714   3.532   4.127   9.828 -0.7369  0.2088  0.6217
  588TMC3    C3 8715   3.627   4.030   9.834  0.2138  0.7501  0.5068
  588TMC3    C4 8716   3.711   4.278   9.893 -0.1723 -0.8946  0.7736
  588TMC3    C5 8717   3.804   4.181   9.875 -0.5724 -1.0016 -0.0751
  588TMC3    C6 8718   3.768   4.054   9.842 -0.2440  0.2930  0.0020
  588TMC3     C 8719   3.492   4.366   9.864  0.3224  0.3878  0.0411
  588TMC3     O 8720   3.391   4.355   9.799  0.3771  0.3597 -0.2308
  588TMC3     H 8721   3.427   4.115   9.802 -0.6773  1.7043 -0.3489
  588TMC3    H1 8722   3.742   4.382   9.890 -0.2302 -0.8878  0.3298
  588TMC3    H2 8723   3.839   3.978   9.811 -1.9636 -1.4922  0.4237
  588TMC3    C7 8724   3.947   4.209   9.898  0.0341  0.6424  0.0111
  588TMC3    C8 8725   3.577   3.909   9.791  0.3627  0.8843 -0.4072
  588TMC3    O1 8726   4.024   4.124   9.860  0.4520  0.4039  0.0464
  588TMC3    O2 8727   3.460   3.899   9.770  0.3118  0.4828 -0.2635
  589TMC3    C1 8728   1.521   1.821   1.221  0.0903  0.6801 -0.7715
  589TMC3    C2 8729   1.654   1.823   1.261 -0.6416  0.2236  0.1669
  589TMC3    C3 8730   1.731   1.717   1.224  0.1171  0.1092 -0.7297
  589TMC3    C4 8731   1.467   1.735   1.132  0.3681  0.0732  0.3963
  589TMC3    C5 8732   1.557   1.636   1.098 -0.1268 -0.4271 -0.2409
  589TMC3    C6 8733   1.684   1.620   1.138 -0.1335  0.2651 -0.2475
  589TMC3     C 8734   1.429   1.902   1.292  0.6386  0.2689  0.1502
  589TMC3     O 8735   1.314   1.883   1.273  0.3574 -0.5385 -0.1465
  589TMC3     H 8736   1.686   1.883   1.346 -0.5540 -0.0233  0.3083
  589TMC3    H1 8737   1.368   1.735   1.088  0.9960  1.1638 -1.0095
  589TMC3    H2 8738   1.737   1.534   1.100 -0.5259  0.1730 -0.5896
  589TMC3    C7 8739   1.503   1.523   1.023  0.0556 -0.1220  0.1410
  589TMC3    C8 8740   1.855   1.702   1.287  0.5272  0.3378 -1.0061
  589TMC3    O1 8741   1.383   1.497   1.038  0.1883  0.6231  0.0333
  589TMC3    O2 8742   1.883   1.766   1.382 -0.6266  0.5830 -0.4256
  590MPD2     C 8743   1.642   0.404  16.846  0.3258 -0.1104 -0.5387
  590MPD2    C1 8744   1.580   0.423  16.721  0.4142 -0.3339 -0.4920
  590MPD2    C2 8745   1.631   0.495  16.622  0.4378 -0.1212 -0.8581
  590MPD2    C3 8746   1.764   0.550  16.640 -0.3979 -0.4287 -0.0053
  590MPD2    C4 8747   1.838   0.522  16.757  0.0194  0.0562 -0.3726
  590MPD2    C5 8748   1.771   0.451  16.858  0.0647  0.2875  0.2014
  590MPD2     H 8749   1.571   0.509  16.533  1.1332  1.3046 -1.1039
  590MPD2    H1 8750   1.939   0.557  16.777 -0.0810  1.5856 -2.5147
  590MPD2    H2 8751   1.584   0.355  16.924 -0.2311 -0.7614 -1.3518
  590MPD2    H3 8752   1.824   0.438  16.952 -0.0269  0.4154  0.2716
  590MPD2     N 8753   1.811   0.624  16.531 -0.2923 -0.3256 -0.6082
  590MPD2    H5 8754   1.746   0.640  16.455 -1.2070  0.0749  0.2661
  590MPD2    N1 8755   1.452   0.365  16.706  0.1916 -0.0224  0.1509
  590MPD2    H7 8756   1.394   0.332  16.782 -1.5571  0.0199 -1.1681
  591TMC3    C1 8757   1.949   0.753  16.399 -0.3962  0.1775  0.0703
  591TMC3    C2 8758   2.043   0.707  16.307 -0.2737 -0.6597  0.1842
  591TMC3    C3 8759   2.038   0.767  16.185  0.2295 -0.1161  0.4922
  591TMC3    C4 8760   1.846   0.839  16.374 -0.3357 -0.9738  0.4132
  591TMC3    C5 8761   1.852   0.902  16.254  0.1079 -0.0742 -0.4848
  591TMC3    C6 8762   1.941   0.862  16.160 -0.1692  0.1744 -0.2819
  591TMC3     C 8763   1.941   0.683  16.526  0.8984  0.5637  0.8644
  591TMC3     O 8764   2.050   0.659  16.579 -0.7741  0.2026  0.2022
  591TMC3     H 8765   2.115   0.636  16.346  0.0419 -0.3102  0.2354
  591TMC3    H1 8766   1.766   0.866  16.443  2.0380 -2.1409  3.5982
  591TMC3    H2 8767   1.930   0.900  16.059  3.0055 -1.5517 -1.2655
  591TMC3    C7 8768   1.742   0.988  16.208  0.4820 -0.5811 -0.0904
  591TMC3    C8 8769   2.106   0.701  16.081 -0.1409 -0.3192  0.5015
  591TMC3    O1 8770   1.636   0.997  16.271  0.9707 -0.1678  0.5295
  591TMC3    O2 8771   2.176   0.605  16.110 -0.3660 -0.1583 -0.1391
  592MPD2     C 8772   2.486   2.092  11.277 -0.4845  0.0750  0.5439
  592MPD2    C1 8773   2.470   2.170  11.389  0.7985 -0.6848 -0.3570
  592MPD2    C2 8774   2.384   2.121  11.488 -0.4491  0.2891  0.2239
  592MPD2    C3 8775   2.344   1.980  11.487 -0.5401  0.4298  0.4802
  592MPD2    C4 8776   2.378   1.906  11.377  0.6370 -0.1617 -0.2070
  592MPD2    C5 8777   2.442   1.965  11.270  0.1928  0.1494  0.3861
  592MPD2     H 8778   2.355   2.185  11.570  1.5972  0.6206  0.6786
  592MPD2    H1 8779   2.348   1.802  11.368  2.2886 -0.6406 -0.1949
  592MPD2    H2 8780   2.536   2.133  11.190 -0.8228 -1.0463 -0.1849
  592MPD2    H3 8781   2.465   1.897  11.188 -1.5919  0.0113 -0.0091
  592MPD2     N 8782   2.263   1.940  11.601  0.3416  0.0879  0.3283
  592MPD2    H5 8783   2.256   2.002  11.681 -2.1850 -1.8312  1.5846
  592MPD2    N1 8784   2.518   2.306  11.387 -0.0958  0.5788  0.3748
  592MPD2    H7 8785   2.563   2.346  11.305  0.2364 -0.9147 -0.1737
  593TMC3    C1 8786   2.581   2.508  11.460  0.1497  0.6988  0.1936
  593TMC3    C2 8787   2.579   2.600  11.562  0.2059  0.6521  0.6557
  593TMC3    C3 8788   2.654   2.715  11.545 -0.3833  0.1940  0.9477
  593TMC3    C4 8789   2.653   2.532  11.348  0.4124  0.0807 -0.1146
  593TMC3    C5 8790   2.712   2.653  11.329  0.3308 -0.3254 -0.2814
  593TMC3    C6 8791   2.713   2.742  11.429  0.4705 -0.7389  0.2035
  593TMC3     C 8792   2.512   2.389  11.492 -0.1526 -0.3910 -0.1150
  593TMC3     O 8793   2.477   2.363  11.606  0.3911 -0.4611 -0.2373
  593TMC3     H 8794   2.525   2.583  11.654 -0.6777  1.9855  0.3821
  593TMC3    H1 8795   2.674   2.455  11.275  3.7135  1.7328 -0.9297
  593TMC3    H2 8796   2.759   2.839  11.414 -0.7469  0.0752  1.8239
  593TMC3    C7 8797   2.789   2.684  11.211  0.2596 -0.4570 -0.1095
  593TMC3    C8 8798   2.660   2.808  11.650  0.0043 -0.1197 -0.5875
  593TMC3    O1 8799   2.874   2.772  11.217 -0.3424  0.2011  0.1080
  593TMC3    O2 8800   2.562   2.801  11.728 -0.6898  0.1662  0.0384
  594MPD2     C 8801   1.052   1.007  14.158 -0.1133 -0.4758 -0.4221
  594MPD2    C1 8802   0.948   1.094  14.167 -0.4962  0.7225 -0.5088
  594MPD2    C2 8803   0.978   1.229  14.139  0.5647 -0.6405 -0.0641
  594MPD2    C3 8804   1.099   1.264  14.075  0.1870  0.6587  0.0279
  594MPD2    C4 8805   1.194   1.171  14.058 -0.4072  0.0644 -0.4619
  594MPD2    C5 8806   1.174   1.044  14.101 -0.4032  0.3493  0.5860
  594MPD2     H 8807   0.900   1.305  14.139  0.0569 -1.1586 -1.4183
  594MPD2    H1 8808   1.281   1.186  13.995 -2.1625  1.3130 -2.5671
  594MPD2    H2 8809   1.040   0.905  14.194  2.0328 -0.8772 -0.8041
  594MPD2    H3 8810   1.255   0.974  14.085  0.3170  1.8636 -2.2049
  594MPD2     N 8811   1.119   1.396  14.041 -0.6714  0.0995 -0.5875
  594MPD2    H5 8812   1.037   1.456  14.054  0.1373  1.0515  0.2091
  594MPD2    N1 8813   0.820   1.045  14.186 -0.1393 -0.3036 -0.7076
  594MPD2    H7 8814   0.812   0.947  14.211  1.1812 -0.7275 -1.9746
  595TMC3    C1 8815   1.370   1.767  14.011  0.1447 -0.3877 -0.3093
  595TMC3    C2 8816   1.314   1.658  13.951  0.3711 -0.0117  0.2657
  595TMC3    C3 8817   1.217   1.602  14.013  0.0525 -0.2020 -0.9490
  595TMC3    C4 8818   1.328   1.825  14.132 -0.3981  0.6977 -0.2465
  595TMC3    C5 8819   1.224   1.762  14.187  0.0676  0.0806  0.1281
  595TMC3    C6 8820   1.164   1.651  14.134 -0.2325 -0.4388 -0.4570
  595TMC3     C 8821   1.485   1.826  13.949  1.1147 -0.5108  0.1192
  595TMC3     O 8822   1.464   1.851  13.832 -0.4384  0.2959  0.3306
  595TMC3     H 8823   1.362   1.624  13.860 -0.0174  1.1628 -0.3729
  595TMC3    H1 8824   1.384   1.906  14.176  0.7909  0.5010 -1.3870
  595TMC3    H2 8825   1.077   1.607  14.180  0.1711  0.5228  1.2316
  595TMC3    C7 8826   1.184   1.784  14.328 -0.4778  0.0048  0.0247
  595TMC3    C8 8827   1.226   1.458  13.995  0.2234  0.6714 -0.0795
  595TMC3    O1 8828   1.085   1.726  14.377 -0.5689  0.3061 -0.5159
  595TMC3    O2 8829   1.336   1.414  13.957  0.1632 -0.1617 -0.1192
  596MPD2     C 8830   4.696   4.236  16.547 -0.4990  0.2309  0.1900
  596MPD2    C1 8831   4.718   4.367  16.503 -0.0001  0.3887 -0.4675
  596MPD2    C2 8832   0.020   4.387  16.371 -0.5064 -0.4845 -0.4879
  596MPD2    C3 8833   0.024   4.280  16.276 -0.5812  0.3036 -0.6052
  596MPD2    C4 8834   0.020   4.155  16.326  0.3418 -0.1617  0.2972
  596MPD2    C5 8835   4.721   4.130  16.460 -0.1340  0.4846  0.4562
  596MPD2     H 8836   0.041   4.487  16.333  0.2282  0.6290  2.8300
  596MPD2    H1 8837   0.040   4.065  16.269  1.9445 -1.1345  2.3898
  596MPD2    H2 8838   4.666   4.206  16.646  1.7804  1.6045  1.2891
  596MPD2    H3 8839   4.712   4.033  16.507  3.1864 -0.5180 -1.0167
  596MPD2     N 8840   0.032   4.289  16.138  0.2018 -0.3237 -0.2374
  596MPD2    H5 8841   0.043   4.205  16.082 -0.7917 -0.0882 -0.7927
  596MPD2    N1 8842   4.719   4.476  16.589  0.7167 -0.1818  0.4948
  596MPD2    H7 8843   4.715   4.564  16.538  1.1634 -0.0419  0.7019
  597TMC3    C1 8844   4.674   4.619  16.763  0.1449  0.2497 -0.2174
  597TMC3    C2 8845   0.070   4.681  16.770  0.0865  0.2101 -1.5723
  597TMC3    C3 8846   0.070   0.086  16.828  0.4604 -0.2487 -0.2000
  597TMC3    C4 8847   4.567   4.669  16.833 -0.4689  0.5153 -0.2403
  597TMC3    C5 8848   4.569   0.069  16.883  0.1053 -0.0889  0.4625
  597TMC3    C6 8849   4.684   0.142  16.888  0.0572 -0.0122  0.6782
  597TMC3     C 8850   4.660   4.477  16.715 -0.6430 -0.5123 -1.0635
  597TMC3     O 8851   4.622   4.386  16.789 -0.2623  0.1030  0.0276
  597TMC3     H 8852   0.160   4.645  16.720 -0.2886  0.9903 -2.8210
  597TMC3    H1 8853   4.471   4.619  16.826 -0.0596 -0.2836 -0.2077
  597TMC3    H2 8854   4.679   0.228  16.954  0.8777 -0.2693  1.0755
  597TMC3    C7 8855   4.440   0.133  16.919  0.5861  0.1560 -0.0077
  597TMC3    C8 8856   0.201   0.132  16.870  0.2327  0.7847  0.5682
  597TMC3    O1 8857   4.342   0.063  16.905 -0.0580 -0.8130  0.1917
  597TMC3    O2 8858   0.281   0.044  16.889 -0.1174 -0.3267 -0.0817
  598TMC3    C1 8859   3.024   1.479  15.397 -0.0696 -0.2506 -0.7714
  598TMC3    C2 8860   2.956   1.374  15.456 -0.7419  0.0601 -0.4632
  598TMC3    C3 8861   2.956   1.257  15.383  0.4961 -0.2667  0.0261
  598TMC3    C4 8862   3.082   1.485  15.269 -0.2489  0.1411  0.2015
  598TMC3    C5 8863   3.073   1.358  15.205 -0.6628 -0.3335  0.0419
  598TMC3    C6 8864   3.011   1.247  15.261  0.1852  0.2690 -0.1965
  598TMC3     C 8865   3.003   1.614  15.443 -0.0205  0.8038 -0.0334
  598TMC3     O 8866   3.095   1.694  15.425 -0.0908  0.2960 -0.6978
  598TMC3     H 8867   2.900   1.381  15.548  1.6065 -0.5591  0.9979
  598TMC3    H1 8868   3.090   1.584  15.224 -2.8716 -0.2233 -1.0438
  598TMC3    H2 8869   3.022   1.150  15.215  0.2268  0.1634  0.0341
  598TMC3    C7 8870   3.091   1.351  15.063 -0.4672 -0.3008 -0.1584
  598TMC3    C8 8871   2.882   1.141  15.433  0.0314 -0.5450  0.3143
  598TMC3    O1 8872   3.051   1.252  15.001  0.5431  0.4434 -1.0437
  598TMC3    O2 8873   2.796   1.171  15.519 -0.2401  0.0959 -0.3417
  599MPD2     C 8874   3.176   3.238  15.824 -0.4229  0.1180  0.2360
  599MPD2    C1 8875   3.090   3.151  15.776  0.5616 -0.0684 -0.6845
  599MPD2    C2 8876   2.958   3.189  15.752  0.4646 -0.3415 -0.3406
  599MPD2    C3 8877   2.915   3.314  15.794 -0.6586 -0.3301 -0.0971
  599MPD2    C4 8878   3.007   3.401  15.844  0.5824 -0.1721 -0.3515
  599MPD2    C5 8879   3.135   3.364  15.857  0.6719  0.0026  0.2752
  599MPD2     H 8880   2.886   3.117  15.714 -2.5231 -0.0032  4.6141
  599MPD2    H1 8881   2.980   3.503  15.869  0.2692 -0.3776  0.1440
  599MPD2    H2 8882   3.282   3.222  15.838 -0.1260  1.9387  0.1796
  599MPD2    H3 8883   3.213   3.418  15.909 -0.2962 -0.6902  2.4496
  599MPD2     N 8884   2.784   3.363  15.788 -1.1217  0.0027 -0.0331
  599MPD2    H5 8885   2.749   3.444  15.838 -0.1504  1.4440 -1.7104
  599MPD2    N1 8886   3.146   3.024  15.751  0.0532  0.5051 -0.5796
  599MPD2    H7 8887   3.234   2.998  15.793 -0.8653  1.5989  2.0509
  600TMC3    C1 8888   2.551   3.312  15.801  0.5036 -0.1636 -0.7004
  600TMC3    C2 8889   2.449   3.232  15.752 -0.4101 -0.3850 -0.4846
  600TMC3    C3 8890   2.337   3.209  15.824 -0.0819  0.2734  0.3046
  600TMC3    C4 8891   2.530   3.387  15.914 -0.2567  0.2188 -0.1603
  600TMC3    C5 8892   2.411   3.360  15.980  0.0313 -0.4790 -0.6366
  600TMC3    C6 8893   2.326   3.261  15.954  0.0986  0.7117 -0.3713
  600TMC3     C 8894   2.683   3.287  15.742  0.2775 -0.2038 -0.0318
  600TMC3     O 8895   2.699   3.210  15.650 -0.4881  0.4871 -0.4081
  600TMC3     H 8896   2.466   3.171  15.665 -1.4421 -1.4171  0.0387
  600TMC3    H1 8897   2.605   3.451  15.960 -0.9137 -0.0454  1.2627
  600TMC3    H2 8898   2.238   3.235  16.011 -1.2835 -0.3521 -3.0087
  600TMC3    C7 8899   2.366   3.455  16.083 -0.1770 -0.2772 -0.4181
  600TMC3    C8 8900   2.266   3.091  15.788 -0.6735 -0.2449  1.2181
  600TMC3    O1 8901   2.295   3.418  16.177  0.1409 -0.0967 -0.1471
  600TMC3    O2 8902   2.313   3.026  15.698  0.0497  0.1088  0.3100
  601MPD2     C 8903   0.536   1.429  17.557 -0.1747  1.0226 -0.1030
  601MPD2    C1 8904   0.411   1.388  17.526 -0.0691  0.1166  0.0664
  601MPD2    C2 8905   0.390   1.254  17.509 -0.0229 -0.2309  0.0144
  601MPD2    C3 8906   0.500   1.168  17.516 -0.4606  0.5857 -0.3123
  601MPD2    C4 8907   0.622   1.207  17.549 -0.0999 -0.4277 -0.0224
  601MPD2    C5 8908   0.643   1.340  17.566  0.0137  0.0625 -0.5028
  601MPD2     H 8909   0.292   1.218  17.481  0.0303  0.0663 -0.5555
  601MPD2    H1 8910   0.706   1.138  17.555  0.4686  0.2731  0.0802
  601MPD2    H2 8911   0.558   1.532  17.585 -1.2699  1.3996 -0.6612
  601MPD2    H3 8912   0.744   1.378  17.579 -0.7363  1.3893  1.3896
  601MPD2     N 8913   0.495   1.031  17.483 -0.3652  0.2978 -0.2103
  601MPD2    H5 8914   0.568   0.968  17.514  1.9243  1.4172 -3.4692
  601MPD2    N1 8915   0.302   1.477  17.516  0.2089 -0.3435  0.4644
  601MPD2    H7 8916   0.215   1.425  17.510 -0.0111 -0.0188  0.8053
  602TMC3    C1 8917   0.184   1.683  17.503  0.3500 -0.2599 -0.4727
  602TMC3    C2 8918   0.191   1.818  17.496  0.4495 -0.0003 -0.3105
  602TMC3    C3 8919   0.078   1.887  17.473 -0.3882 -0.8258 -0.1114
  602TMC3    C4 8920   0.066   1.614  17.484 -0.2431  0.4858 -0.1087
  602TMC3    C5 8921   4.676   1.693  17.471  0.7279  0.2141 -0.2207
  602TMC3    C6 8922   4.679   1.831  17.462 -0.4990  0.7566  1.0910
  602TMC3     C 8923   0.311   1.614  17.501 -0.4410  0.0885  0.4156
  602TMC3     O 8924   0.408   1.685  17.494  0.0167 -0.1139 -0.2635
  602TMC3     H 8925   0.283   1.875  17.491  1.4459 -1.6963 -0.9429
  602TMC3    H1 8926   0.056   1.507  17.493  1.4159  0.2660 -0.8598
  602TMC3    H2 8927   4.593   1.895  17.482 -1.4004 -0.0677 -0.2083
  602TMC3    C7 8928   4.549   1.631  17.448  0.5530 -0.2090 -0.4519
  602TMC3    C8 8929   0.082   2.025  17.474 -0.9819 -0.3478 -0.2722
  602TMC3    O1 8930   4.533   1.517  17.484  0.5178  0.2715  0.4509
  602TMC3    O2 8931   0.154   2.077  17.561  0.3807 -0.2143 -0.0505
  603TMC3    C1 8932   3.100   2.040  11.192  0.1360  0.2688 -0.3824
  603TMC3    C2 8933   3.121   2.052  11.327  0.2739 -0.0626 -0.2882
  603TMC3    C3 8934   3.233   2.115  11.375  0.1524 -0.7431 -0.4698
  603TMC3    C4 8935   3.183   2.093  11.096  0.5008  0.1754 -0.0458
  603TMC3    C5 8936   3.293   2.151  11.147  0.5007 -0.0789 -0.5985
  603TMC3    C6 8937   3.326   2.159  11.283 -0.1048  0.2942  0.3168
  603TMC3     C 8938   2.979   1.969  11.151 -1.2715 -0.6725  0.6613
  603TMC3     O 8939   2.949   1.987  11.034  0.3164 -0.2048 -0.8075
  603TMC3     H 8940   3.054   2.011  11.402  1.5592 -1.7885 -0.1075
  603TMC3    H1 8941   3.156   2.083  10.991 -1.3608  0.6677  0.3730
  603TMC3    H2 8942   3.412   2.219  11.310 -0.4866  0.1331  1.8615
  603TMC3    C7 8943   3.394   2.210  11.057  0.3312 -0.0782 -0.2840
  603TMC3    C8 8944   3.278   2.089  11.503  0.7890 -0.1343 -0.3777
  603TMC3    O1 8945   3.483   2.278  11.103  0.2513 -0.1074 -0.1347
  603TMC3    O2 8946   3.276   1.974  11.543  0.1580 -0.4574  0.5196
  604MPD2     C 8947   3.717   0.434  16.161  0.4685 -0.0244 -0.2537
  604MPD2    C1 8948   3.687   0.566  16.136  0.1224 -0.1878  0.1497
  604MPD2    C2 8949   3.705   0.616  16.006  0.5581 -0.4948  0.0026
  604MPD2    C3 8950   3.753   0.534  15.907 -0.3626 -0.0076  0.1030
  604MPD2    C4 8951   3.764   0.401  15.934  0.5475  0.1671 -0.1269
  604MPD2    C5 8952   3.754   0.352  16.059  0.5297  0.4658  0.2440
  604MPD2     H 8953   3.702   0.722  15.982  0.1400 -0.3614  0.6434
  604MPD2    H1 8954   3.798   0.330  15.859 -1.6363 -2.9587  1.8976
  604MPD2    H2 8955   3.709   0.395  16.262 -1.6221 -0.4454 -0.5877
  604MPD2    H3 8956   3.771   0.248  16.084  0.1792  0.1222 -0.9764
  604MPD2     N 8957   3.792   0.595  15.787 -0.3821  0.0667  0.7361
  604MPD2    H5 8958   3.784   0.696  15.792 -1.7889  0.0376 -0.8138
  604MPD2    N1 8959   3.653   0.653  16.248 -0.4320 -0.6540 -0.2105
  604MPD2    H7 8960   3.629   0.589  16.323 -0.1163  0.5302  0.8816
  605TMC3    C1 8961   3.534   0.817  16.355  0.0181 -0.1008 -0.6776
  605TMC3    C2 8962   3.607   0.806  16.472 -0.0161 -0.4901  0.0805
  605TMC3    C3 8963   3.572   0.883  16.581  0.2970 -0.4479  0.1228
  605TMC3    C4 8964   3.412   0.873  16.351  0.6521 -0.2000 -0.0868
  605TMC3    C5 8965   3.380   0.936  16.464  0.0249 -0.0791  0.5450
  605TMC3    C6 8966   3.454   0.953  16.580  0.1567 -0.4486  0.1296
  605TMC3     C 8967   3.596   0.779  16.231 -0.9652  0.1880 -0.6371
  605TMC3     O 8968   3.589   0.838  16.125 -0.0921 -0.4477 -0.0421
  605TMC3     H 8969   3.710   0.775  16.470  0.7373  2.1230 -1.5816
  605TMC3    H1 8970   3.360   0.877  16.256  0.8703  3.3188 -0.0703
  605TMC3    H2 8971   3.437   1.016  16.666 -0.7987 -1.1826  0.4846
  605TMC3    C7 8972   3.252   1.004  16.448 -0.1603  0.1965  0.0829
  605TMC3    C8 8973   3.681   0.952  16.650 -0.1023  0.2235  0.2978
  605TMC3    O1 8974   3.196   0.980  16.341  0.3647 -0.0549 -0.0864
  605TMC3    O2 8975   3.776   0.984  16.574  0.2953  0.1487 -0.0308
  606TMC3    C1 8976   0.468   3.780  16.726  0.7642 -0.3555  0.9093
  606TMC3    C2 8977   0.608   3.768  16.741 -0.2844 -0.3058 -0.4659
  606TMC3    C3 8978   0.648   3.652  16.803 -0.9959  0.6498  0.3392
  606TMC3    C4 8979   0.386   3.697  16.791  0.3356  0.5380 -0.2565
  606TMC3    C5 8980   0.428   3.587  16.861 -0.3685  0.4912 -0.4618
  606TMC3    C6 8981   0.563   3.561  16.862 -0.2184 -0.4437 -0.2897
  606TMC3     C 8982   0.410   3.909  16.704  0.3372  0.0991  0.4006
  606TMC3     O 8983   0.306   3.915  16.645  0.5483 -0.0360 -0.4142
  606TMC3     H 8984   0.686   3.822  16.689  0.3223  0.8333  1.6178
  606TMC3    H1 8985   0.286   3.733  16.808  0.1786  0.1406 -0.3348
  606TMC3    H2 8986   0.603   3.474  16.913  0.9813 -0.4304 -1.2136
  606TMC3    C7 8987   0.381   3.564  16.996  0.0335 -1.1693 -0.6328
  606TMC3    C8 8988   0.752   3.686  16.896 -0.0752  0.0522  0.0679
  606TMC3    O1 8989   0.466   3.537  17.082 -0.3326 -0.5060 -0.4412
  606TMC3    O2 8990   0.750   3.802  16.936  0.1456 -0.3854 -0.3457
  607MPD2     C 8991   2.639   1.901  11.609  0.4412  0.5440  0.9943
  607MPD2    C1 8992   2.640   1.998  11.700 -0.7230  0.6535 -0.2292
  607MPD2    C2 8993   2.582   1.969  11.825 -0.1273 -0.0751  0.4591
  607MPD2    C3 8994   2.562   1.845  11.866  0.2073  1.2487  0.2661
  607MPD2    C4 8995   2.571   1.744  11.775 -0.5293 -0.4124  0.4872
  607MPD2    C5 8996   2.597   1.777  11.641  0.4322  0.8018  0.0875
  607MPD2     H 8997   2.575   2.042  11.905 -0.9089  0.5938 -0.2186
  607MPD2    H1 8998   2.550   1.640  11.798  1.2191 -1.0234 -0.6821
  607MPD2    H2 8999   2.663   1.925  11.506 -1.3868 -0.6098  0.3187
  607MPD2    H3 9000   2.584   1.702  11.563  0.7396  0.2897  0.5355
  607MPD2     N 9001   2.527   1.827  11.995 -0.7878  0.2588  0.0913
  607MPD2    H5 9002   2.528   1.911  12.052 -0.1302  1.7173 -2.0905
  607MPD2    N1 9003   2.684   2.131  11.677 -0.5971  0.0921 -0.6403
  607MPD2    H7 9004   2.656   2.198  11.748 -1.7935  0.4398 -1.4464
  608TMC3    C1 9005   2.824   2.303  11.587 -0.0027  0.4142 -0.9192
  608TMC3    C2 9006   2.788   2.386  11.697  0.0660 -0.0598 -0.6312
  608TMC3    C3 9007   2.872   2.491  11.728 -0.2967  0.4157  0.8213
  608TMC3    C4 9008   2.942   2.327  11.515 -0.2846 -0.1339  0.0819
  608TMC3    C5 9009   3.016   2.435  11.547  0.3583 -0.5508  0.1159
  608TMC3    C6 9010   2.981   2.520  11.647  0.0324 -0.1067 -0.1622
  608TMC3     C 9011   2.775   2.166  11.578  0.1522 -0.1242  0.3226
  608TMC3     O 9012   2.828   2.093  11.491 -0.4626  0.5642 -0.0823
  608TMC3     H 9013   2.699   2.368  11.756 -0.5386  1.1372 -1.1925
  608TMC3    H1 9014   2.974   2.250  11.445 -1.3323 -0.7409  0.2752
  608TMC3    H2 9015   3.024   2.618  11.663 -1.8485  0.8266 -0.7619
  608TMC3    C7 9016   3.148   2.439  11.488 -0.1432  0.5404  0.0608
  608TMC3    C8 9017   2.884   2.521  11.869  0.0139 -0.9037 -0.4168
  608TMC3    O1 9018   3.165   2.402  11.375 -0.2800 -0.7325  0.1096
  608TMC3    O2 9019   2.950   2.612  11.907 -0.2584  0.0294 -0.3523
  609TMC3    C1 9020   1.316   0.654   9.044 -0.3162 -0.4089 -0.1621
  609TMC3    C2 9021   1.214   0.579   8.982  0.2362 -0.4702 -0.4612
  609TMC3    C3 9022   1.248   0.489   8.885  0.4324 -0.2246  0.2269
  609TMC3    C4 9023   1.442   0.633   9.014  0.0236 -0.6161  0.1804
  609TMC3    C5 9024   1.475   0.535   8.927 -1.1935  0.4530 -0.5422
  609TMC3    C6 9025   1.380   0.455   8.865  0.2706 -0.0438 -0.0622
  609TMC3     C 9026   1.269   0.740   9.150  0.2243  0.1225  0.2645
  609TMC3     O 9027   1.151   0.775   9.153 -0.2681 -0.1440  0.4448
  609TMC3     H 9028   1.113   0.615   8.999  0.4984  0.5932 -1.1414
  609TMC3    H1 9029   1.518   0.707   9.037 -0.1262  0.3768 -2.4203
  609TMC3    H2 9030   1.407   0.390   8.783  1.2706 -0.8594  0.9198
  609TMC3    C7 9031   1.602   0.478   8.950 -0.5981  0.2729 -0.2924
  609TMC3    C8 9032   1.152   0.428   8.791  0.3780 -0.0348  0.7780
  609TMC3    O1 9033   1.693   0.551   8.984 -0.0936 -0.3215  0.5672
  609TMC3    O2 9034   1.200   0.376   8.691 -1.0240  0.1548  0.4831
  610TMC3    C1 9035   2.938   1.920  12.704  0.0599 -0.0915 -0.0662
  610TMC3    C2 9036   2.946   1.994  12.592  0.6699  0.7166  0.6232
  610TMC3    C3 9037   3.052   1.976  12.507  0.1498 -0.0001 -0.3450
  610TMC3    C4 9038   3.047   1.849  12.741  0.0917  0.0583 -0.3409
  610TMC3    C5 9039   3.155   1.831  12.654 -0.5588 -0.1024 -0.1033
  610TMC3    C6 9040   3.162   1.894  12.529  0.8046 -0.6807 -0.3160
  610TMC3     C 9041   2.810   1.895  12.762 -0.4269 -0.3499  0.2686
  610TMC3     O 9042   2.705   1.918  12.699 -0.1340  0.3035  0.2637
  610TMC3     H 9043   2.868   2.062  12.558  0.8127  1.6158  2.1185
  610TMC3    H1 9044   3.040   1.809  12.841  0.0900 -0.6944 -0.6402
  610TMC3    H2 9045   3.233   1.868  12.452  1.3888 -0.1799  0.0514
  610TMC3    C7 9046   3.269   1.743  12.689 -0.2149  0.7470  0.2000
  610TMC3    C8 9047   3.062   2.080  12.402  0.3279  0.2813  0.7895
  610TMC3    O1 9048   3.250   1.648  12.767 -0.1608  0.2907  0.1924
  610TMC3    O2 9049   2.996   2.178  12.426  0.2020  0.2847 -0.5140
  611MPD2     C 9050   2.829   1.752  10.227  0.0679  0.1470 -1.0012
  611MPD2    C1 9051   2.808   1.855  10.138 -0.2351  0.8604 -0.0533
  611MPD2    C2 9052   2.911   1.939  10.113  0.2657  0.1522 -0.0783
  611MPD2    C3 9053   3.037   1.920  10.180  0.2314 -0.0748 -0.1244
  611MPD2    C4 9054   3.053   1.819  10.276  0.0920  0.0494 -0.1307
  611MPD2    C5 9055   2.950   1.733  10.283  0.2810 -0.2071 -0.0598
  611MPD2     H 9056   2.905   2.015  10.036  0.9755  0.9357  0.6392
  611MPD2    H1 9057   3.142   1.796  10.332 -1.3754 -0.5745  1.9237
  611MPD2    H2 9058   2.741   1.696  10.257  0.4200  0.0599 -0.1490
  611MPD2    H3 9059   2.966   1.660  10.361  0.1308 -1.5979 -1.3497
  611MPD2     N 9060   3.149   2.005  10.165  0.0372  0.3781  0.6022
  611MPD2    H5 9061   3.238   1.976  10.203  0.2541  1.2686  0.7787
  611MPD2    N1 9062   2.680   1.872  10.074 -0.1379  0.2506  1.0349
  611MPD2    H7 9063   2.610   1.798  10.077 -2.9825  2.8621 -0.4811
  612TMC3    C1 9064   3.275   2.186  10.099 -0.5215 -0.3208  0.0268
  612TMC3    C2 9065   3.337   2.198  10.220  0.2238  0.1465  0.0663
  612TMC3    C3 9066   3.463   2.249  10.218 -0.0303  0.4145  0.4988
  612TMC3    C4 9067   3.330   2.239   9.987 -0.2195  0.6589  0.7720
  612TMC3    C5 9068   3.456   2.287   9.986 -1.0599 -0.0141  0.3357
  612TMC3    C6 9069   3.524   2.295  10.099  0.1818 -0.1214 -0.1650
  612TMC3     C 9070   3.147   2.125  10.091  0.1696 -0.1270 -0.3867
  612TMC3     O 9071   3.076   2.179  10.004  0.2999  0.4737  0.0343
  612TMC3     H 9072   3.291   2.153  10.308 -2.7409  1.2277 -0.9519
  612TMC3    H1 9073   3.277   2.244   9.893  1.8784 -0.4611 -0.4760
  612TMC3    H2 9074   3.614   2.356  10.103  0.8112 -0.8985 -2.5467
  612TMC3    C7 9075   3.509   2.342   9.865  0.2048  0.0649  0.1331
  612TMC3    C8 9076   3.548   2.254  10.337 -0.3879 -0.0905 -0.2463
  612TMC3    O1 9077   3.423   2.380   9.786  0.4593 -0.8844  0.5248
  612TMC3    O2 9078   3.661   2.297  10.319 -0.3601 -0.0657 -0.0342
  613MPD2     C 9079   0.999   4.161  16.142 -0.3736  0.4055  0.0405
  613MPD2    C1 9080   1.099   4.119  16.067  0.4862 -0.8518  0.7488
  613MPD2    C2 9081   1.111   3.987  16.031  0.0480 -0.4307  0.3302
  613MPD2    C3 9082   1.013   3.899  16.065  0.2353 -0.1238  0.0885
  613MPD2    C4 9083   0.897   3.943  16.127 -0.2765 -0.5087  0.5941
  613MPD2    C5 9084   0.897   4.075  16.164 -0.9560  0.1345 -0.5010
  613MPD2     H 9085   1.194   3.950  15.972 -0.5141  0.4698 -1.0061
  613MPD2    H1 9086   0.805   3.886  16.138  0.3149 -1.1182  2.3239
  613MPD2    H2 9087   0.990   4.256  16.194 -1.8745  0.5023 -0.3813
  613MPD2    H3 9088   0.805   4.108  16.211 -0.7862 -2.7453  1.8497
  613MPD2     N 9089   1.027   3.776  15.993  0.2126  0.2068  0.2265
  613MPD2    H5 9090   1.116   3.755  15.949 -0.0129  1.5955 -0.8923
  613MPD2    N1 9091   1.191   4.218  16.027 -0.2133 -0.7637 -0.6584
  613MPD2    H7 9092   1.192   4.307  16.076  0.5119 -0.3388 -1.4353
  614TMC3    C1 9093   1.369   4.311  15.910  0.3737 -0.0377 -0.0667
  614TMC3    C2 9094   1.486   4.270  15.853 -0.3159  0.0027  0.2729
  614TMC3    C3 9095   1.529   4.329  15.738  0.2502  0.0725  0.2190
  614TMC3    C4 9096   1.302   4.418  15.851 -0.0887  0.4191  0.1533
  614TMC3    C5 9097   1.350   4.479  15.735 -0.5864  0.5954 -1.0933
  614TMC3    C6 9098   1.459   4.429  15.675  0.8463 -0.0526  0.5821
  614TMC3     C 9099   1.295   4.197  15.943  1.0206 -0.7326  0.5014
  614TMC3     O 9100   1.340   4.096  15.892 -0.5794 -0.1276  0.0122
  614TMC3     H 9101   1.552   4.200  15.903 -0.4065 -0.1237  0.2160
  614TMC3    H1 9102   1.202   4.451  15.877 -1.5794 -4.4143  0.4704
  614TMC3    H2 9103   1.497   4.456  15.577 -1.0003  1.0193  0.1599
  614TMC3    C7 9104   1.251   4.560  15.664 -0.1144 -0.1367 -0.4788
  614TMC3    C8 9105   1.583   4.229  15.651  0.1433 -0.6503 -0.4130
  614TMC3    O1 9106   1.216   4.666  15.716  0.3229  0.1871  0.1464
  614TMC3    O2 9107   1.657   4.258  15.559  0.0161 -0.4142 -0.9032
  615MPD2     C 9108   0.595   0.643  15.996 -0.4777 -0.4864 -0.1152
  615MPD2    C1 9109   0.533   0.764  15.969  0.0750 -0.2386 -0.6919
  615MPD2    C2 9110   0.442   0.765  15.866  0.3373 -0.1675  0.2561
  615MPD2    C3 9111   0.415   0.660  15.784  0.4771  0.1597  0.3323
  615MPD2    C4 9112   0.475   0.544  15.812  0.6787 -0.5210  0.5992
  615MPD2    C5 9113   0.559   0.534  15.922  0.1198 -0.9504 -0.0511
  615MPD2     H 9114   0.389   0.860  15.861  0.0976 -0.2263  1.5806
  615MPD2    H1 9115   0.469   0.458  15.746 -1.4857  0.7879 -0.9140
  615MPD2    H2 9116   0.659   0.620  16.080  1.8078  1.0380 -1.4514
  615MPD2    H3 9117   0.603   0.439  15.951 -0.3070 -1.4786 -1.1250
  615MPD2     N 9118   0.326   0.659  15.671  0.6184 -0.2041 -0.5429
  615MPD2    H5 9119   0.305   0.577  15.616  2.2352  0.1497 -1.7089
  615MPD2    N1 9120   0.547   0.871  16.053 -0.6748 -0.8347 -0.3085
  615MPD2    H7 9121   0.488   0.953  16.040  0.7257  0.4342  1.2161
  616TMC3    C1 9122   0.646   0.996  16.238 -0.6576 -0.5312 -0.9267
  616TMC3    C2 9123   0.747   1.086  16.236 -0.0456 -0.8775 -0.7125
  616TMC3    C3 9124   0.730   1.206  16.295 -0.4913 -0.2715  0.6823
  616TMC3    C4 9125   0.521   1.028  16.283  0.2295 -0.2550 -0.2635
  616TMC3    C5 9126   0.505   1.160  16.317 -0.0342 -0.2040 -0.8061
  616TMC3    C6 9127   0.604   1.249  16.328 -0.0017 -0.0928 -0.4115
  616TMC3     C 9128   0.654   0.888  16.141 -0.2134 -0.1947 -0.2389
  616TMC3     O 9129   0.762   0.828  16.138 -0.0453  0.3264 -0.4607
  616TMC3     H 9130   0.845   1.061  16.196  0.7222  0.7955  0.1528
  616TMC3    H1 9131   0.433   0.964  16.282 -0.6957  1.0053  0.0729
  616TMC3    H2 9132   0.582   1.345  16.373  1.5267 -0.2453  0.6723
  616TMC3    C7 9133   0.370   1.206  16.353 -0.6721 -0.4642 -0.8418
  616TMC3    C8 9134   0.831   1.310  16.280 -0.3899 -0.7016 -0.2164
  616TMC3    O1 9135   0.340   1.323  16.323  0.6822 -0.0675  0.4300
  616TMC3    O2 9136   0.791   1.416  16.321 -0.2753  0.1407 -0.2259
  617MPD2     C 9137   3.835   4.210  13.805 -0.3384  0.3666  0.3728
  617MPD2    C1 9138   3.844   4.081  13.872  0.3953 -0.8165  0.1965
  617MPD2    C2 9139   3.728   4.005  13.858  0.1145 -0.8365  0.6855
  617MPD2    C3 9140   3.617   4.054  13.795  0.2146  0.1511  0.2295
  617MPD2    C4 9141   3.618   4.178  13.732 -0.6420  0.2351 -0.5598
  617MPD2    C5 9142   3.725   4.253  13.732 -0.1649 -0.4549 -0.8700
  617MPD2     H 9143   3.722   3.909  13.909  1.1253 -0.7022  1.0515
  617MPD2    H1 9144   3.531   4.214  13.678  0.1702  1.2240 -1.2406
  617MPD2    H2 9145   3.912   4.286  13.803  0.4863 -0.4478  1.0057
  617MPD2    H3 9146   3.711   4.343  13.674 -0.5142  0.5766  0.8089
  617MPD2     N 9147   3.504   3.969  13.784 -0.0699  0.0756  0.0405
  617MPD2    H5 9148   3.505   3.893  13.852 -0.8057 -1.6367 -1.8640
  617MPD2    N1 9149   3.969   4.027  13.930 -0.9245 -0.3956 -0.0087
  617MPD2    H7 9150   4.057   4.076  13.917 -1.8081  0.7540 -1.7615
  618TMC3    C1 9151   4.109   3.839  13.984 -0.3199  0.4441 -0.2207
  618TMC3    C2 9152   4.182   3.832  13.867  0.6314 -0.4566  0.4061
  618TMC3    C3 9153   4.317   3.804  13.881  0.3820  0.2345  0.3594
  618TMC3    C4 9154   4.161   3.826  14.110 -0.5991 -0.6739  0.2935
  618TMC3    C5 9155   4.298   3.806  14.115 -0.0342  0.2728  0.0311
  618TMC3    C6 9156   4.371   3.773  14.004  0.6645  0.7796  0.9696
  618TMC3     C 9157   3.980   3.900  13.988  0.3581 -0.0802 -0.5290
  618TMC3     O 9158   3.885   3.830  14.026 -0.9240 -0.9349  0.2854
  618TMC3     H 9159   4.129   3.846  13.774 -0.8354 -2.7922  0.8836
  618TMC3    H1 9160   4.101   3.842  14.199  0.8201  0.1592  1.1019
  618TMC3    H2 9161   4.472   3.745  14.030 -0.2422 -2.2077  1.3569
  618TMC3    C7 9162   4.347   3.836  14.241  0.1316  0.0435 -0.1484
  618TMC3    C8 9163   4.393   3.840  13.767  0.1342 -0.4657  0.3164
  618TMC3    O1 9164   4.287   3.781  14.330 -0.4211 -0.0374 -0.0744
  618TMC3    O2 9165   4.323   3.876  13.670 -0.2196 -0.3485 -0.7805
  619MPD2     C 9166   1.051   0.508  13.252  0.3391 -0.0193 -0.6582
  619MPD2    C1 9167   1.017   0.567  13.132 -0.4025 -0.5369 -0.6492
  619MPD2    C2 9168   0.928   0.501  13.049 -0.3345 -0.1206  0.6020
  619MPD2    C3 9169   0.856   0.390  13.091 -0.5310 -0.7585 -0.0908
  619MPD2    C4 9170   0.882   0.330  13.207 -0.3392 -0.2459 -0.9292
  619MPD2    C5 9171   0.991   0.384  13.284 -0.0010 -0.2437 -0.6631
  619MPD2     H 9172   0.887   0.565  12.971 -0.4206 -0.8320  0.0623
  619MPD2    H1 9173   0.838   0.240  13.249  0.0010  0.4866  1.0048
  619MPD2    H2 9174   1.122   0.550  13.323 -0.8467  0.5256  0.2155
  619MPD2    H3 9175   1.024   0.335  13.375 -2.5555 -0.7301 -0.0194
  619MPD2     N 9176   0.747   0.342  13.011  0.0030 -0.4544  0.3577
  619MPD2    H5 9177   0.690   0.272  13.057  1.6726 -1.9156  0.2041
  619MPD2    N1 9178   1.055   0.698  13.097  0.4839  0.1730  0.0956
  619MPD2    H7 9179   1.021   0.740  13.011 -1.3852  0.2244  0.8535
  620TMC3    C1 9180   1.138   0.921  13.144  0.0088 -1.0653 -0.0567
  620TMC3    C2 9181   1.112   0.948  13.012  0.1780 -0.4713  0.2462
  620TMC3    C3 9182   1.086   1.078  12.978  0.3398  0.5774  0.4143
  620TMC3    C4 9183   1.120   1.008  13.244  0.5660 -0.1587 -0.0468
  620TMC3    C5 9184   1.089   1.135  13.209 -0.1248  0.2524  0.1728
  620TMC3    C6 9185   1.060   1.169  13.083 -0.1140  0.2324  0.0626
  620TMC3     C 9186   1.132   0.780  13.181 -0.7129  0.1048  0.1396
  620TMC3     O 9187   1.201   0.752  13.280  0.3916 -0.5674 -0.1287
  620TMC3     H 9188   1.134   0.878  12.932 -0.4992 -0.9646  0.4875
  620TMC3    H1 9189   1.141   0.978  13.346  2.2345 -0.3411 -0.4361
  620TMC3    H2 9190   1.029   1.270  13.059 -0.7317 -0.0322 -0.2484
  620TMC3    C7 9191   1.002   1.201  13.304  0.4855 -0.2908 -0.1237
  620TMC3    C8 9192   0.982   1.067  12.883  0.1356 -0.3090 -0.2151
  620TMC3    O1 9193   0.907   1.258  13.251  0.1234  0.2653  0.6124
  620TMC3    O2 9194   1.003   1.089  12.769 -0.7156 -0.0682 -0.1462
  621MPD2     C 9195   0.606   0.961  10.678  0.1817 -0.5673 -0.0408
  621MPD2    C1 9196   0.645   0.899  10.555  0.0934 -0.0818 -0.2450
  621MPD2    C2 9197   0.730   0.960  10.465 -0.1782  0.1370  0.3514
  621MPD2    C3 9198   0.780   1.088  10.498  0.1797  0.5940  0.3600
  621MPD2    C4 9199   0.746   1.145  10.623  0.5602  0.6245 -0.0536
  621MPD2    C5 9200   0.659   1.080  10.709  0.6884  0.4349 -0.1275
  621MPD2     H 9201   0.757   0.915  10.370  1.0640  2.0700 -0.2099
  621MPD2    H1 9202   0.779   1.241  10.662  0.9520  1.2086 -1.8656
  621MPD2    H2 9203   0.532   0.928  10.750 -1.8885  3.1400 -0.4424
  621MPD2    H3 9204   0.622   1.134  10.796 -2.1726 -0.5471 -0.7153
  621MPD2     N 9205   0.872   1.151  10.408 -0.0547 -0.0303  0.2932
  621MPD2    H5 9206   0.872   1.100  10.320 -0.0966  1.1111 -0.3670
  621MPD2    N1 9207   0.581   0.776  10.517 -0.1357  0.1640  0.0728
  621MPD2    H7 9208   0.621   0.731  10.435  0.8912 -1.9340  1.7506
  622TMC3    C1 9209   0.449   0.578  10.539  0.4979 -0.9170  0.0685
  622TMC3    C2 9210   0.316   0.546  10.553  0.4468  0.5140  0.3967
  622TMC3    C3 9211   0.280   0.425  10.606  0.7014 -0.6995 -0.1228
  622TMC3    C4 9212   0.532   0.474  10.548  0.1730 -0.5125 -0.2549
  622TMC3    C5 9213   0.495   0.344  10.573  0.0911  0.8651  0.2649
  622TMC3    C6 9214   0.365   0.320  10.617 -0.1813  0.0259  0.4668
  622TMC3     C 9215   0.484   0.714  10.593 -0.1218  0.0239 -0.8621
  622TMC3     O 9216   0.400   0.757  10.667 -0.2588 -0.7606  0.1245
  622TMC3     H 9217   0.241   0.623  10.537 -0.4400 -0.6002 -0.7627
  622TMC3    H1 9218   0.639   0.488  10.556  0.1788 -0.4405 -0.4519
  622TMC3    H2 9219   0.337   0.221  10.649 -2.6668  0.6621  0.2162
  622TMC3    C7 9220   0.571   0.231  10.525  0.4682 -0.3332  0.6914
  622TMC3    C8 9221   0.208   0.446  10.731 -0.0492 -0.6388  0.0648
  622TMC3    O1 9222   0.522   0.125  10.555 -0.0079  0.3786 -0.2862
  622TMC3    O2 9223   0.156   0.345  10.776  0.1237  0.5053 -0.7834
  623MPD2     C 9224   4.176   1.472  15.940 -0.7590 -0.1788  0.1876
  623MPD2    C1 9225   4.114   1.372  16.016 -0.4692 -0.0009  0.2584
  623MPD2    C2 9226   4.149   1.361  16.154  0.1433  0.8961  0.5702
  623MPD2    C3 9227   4.243   1.447  16.210 -0.1142 -0.0365 -0.1344
  623MPD2    C4 9228   4.307   1.542  16.130  0.1203  0.1458 -0.0443
  623MPD2    C5 9229   4.268   1.555  15.996  0.6690 -0.2153 -0.5476
  623MPD2     H 9230   4.098   1.289  16.217  2.2715  0.0805  1.3528
  623MPD2    H1 9231   4.378   1.614  16.169 -1.2400  1.1528  0.5916
  623MPD2    H2 9232   4.160   1.490  15.834 -1.2682  0.1153  0.3150
  623MPD2    H3 9233   4.330   1.617  15.932  0.5953  0.0725 -0.3406
  623MPD2     N 9234   4.250   1.450  16.348 -0.2739 -0.5736  0.2375
  623MPD2    H5 9235   4.197   1.381  16.400 -2.7793  1.5192  0.4248
  623MPD2    N1 9236   4.015   1.284  15.965 -0.5344  0.2218 -0.2752
  623MPD2    H7 9237   3.985   1.220  16.038  0.1490 -0.4850 -0.6146
  624TMC3    C1 9238   4.395   1.433  16.779 -0.3561  0.4254  0.2521
  624TMC3    C2 9239   4.274   1.382  16.822 -0.5831  0.5048  0.3688
  624TMC3    C3 9240   4.169   1.391  16.730  0.3901  0.6603 -0.2888
  624TMC3    C4 9241   4.411   1.494  16.656  0.0572 -0.3868 -0.8984
  624TMC3    C5 9242   4.307   1.501  16.571  0.3470  0.2321 -0.4391
  624TMC3    C6 9243   4.187   1.443  16.603 -0.7500  0.3086  0.4290
  624TMC3     C 9244   4.514   1.374  16.829  0.2896  0.1980  0.1439
  624TMC3     O 9245   4.621   1.430  16.798 -0.2339 -0.5826  0.2159
  624TMC3     H 9246   4.273   1.356  16.928 -3.5234 -0.3949  0.1317
  624TMC3    H1 9247   4.503   1.548  16.639  0.2492 -0.6558 -0.7081
  624TMC3    H2 9248   4.100   1.458  16.540 -1.0171  1.3907  1.0582
  624TMC3    C7 9249   4.332   1.530  16.429  0.6425 -0.0739 -0.7982
  624TMC3    C8 9250   4.040   1.340  16.766 -0.6871 -0.0575  0.2736
  624TMC3    O1 9251   4.405   1.625  16.396 -0.1006 -0.4558 -0.4505
  624TMC3    O2 9252   3.959   1.334  16.673 -0.6852 -0.2595  0.0472
  625MPD2     C 9253   4.393   2.622   0.760 -0.3866  0.2389  0.5174
  625MPD2    C1 9254   4.443   2.630   0.633 -0.1318 -0.1202  0.5937
  625MPD2    C2 9255   4.579   2.631   0.607  0.0825 -0.0888  0.0118
  625MPD2    C3 9256   4.663   2.626   0.716 -0.3304 -0.0413  0.7572
  625MPD2    C4 9257   4.621   2.635   0.844 -0.2511 -0.4467  0.5111
  625MPD2    C5 9258   4.482   2.638   0.865 -0.1909  0.1487 -0.4667
  625MPD2     H 9259   4.626   2.638   0.510 -0.0011  1.6411  0.0948
  625MPD2    H1 9260   4.692   2.656   0.923  0.0207  2.3677 -0.4822
  625MPD2    H2 9261   4.292   2.602   0.793  0.0673 -0.3301  1.5779
  625MPD2    H3 9262   4.452   2.641   0.969 -0.2006  0.7349 -0.4874
  625MPD2     N 9263   0.079   2.614   0.694  0.5297 -0.0763 -0.1646
  625MPD2    H5 9264   0.108   2.624   0.597  1.8688 -1.6084  0.0765
  625MPD2    N1 9265   4.354   2.602   0.527  0.4923 -0.3553 -0.0524
  625MPD2    H7 9266   4.260   2.573   0.553  0.4436  0.7817  1.0743
  626TMC3    C1 9267   4.262   2.540   0.328  0.2445 -0.1369 -0.2159
  626TMC3    C2 9268   4.240   2.579   0.203  0.4572 -0.1138 -1.0424
  626TMC3    C3 9269   4.132   2.537   0.135  0.2707  0.0986  0.1971
  626TMC3    C4 9270   4.173   2.466   0.397 -0.1860 -0.1506 -0.0065
  626TMC3    C5 9271   4.056   2.433   0.338  0.0835  0.4185 -0.3341
  626TMC3    C6 9272   4.032   2.467   0.207  0.5473  0.1438  0.0747
  626TMC3     C 9273   4.376   2.600   0.394 -0.6960  0.1079 -0.5505
  626TMC3     O 9274   4.470   2.633   0.322 -0.3461  0.3004 -0.2701
  626TMC3     H 9275   4.303   2.652   0.153  2.3262 -1.5462 -0.7829
  626TMC3    H1 9276   4.191   2.428   0.497 -0.6351  1.0836  0.5388
  626TMC3    H2 9277   3.946   2.427   0.154  1.4082  1.7530 -2.5914
  626TMC3    C7 9278   3.962   2.365   0.426 -0.5499  1.2805 -0.5899
  626TMC3    C8 9279   4.095   2.599   0.004 -0.2253 -0.4077  0.2652
  626TMC3    O1 9280   3.994   2.349   0.544  0.1769 -0.2747  0.4149
  626TMC3    O2 9281   4.148   2.704  17.683  0.0176  0.6230 -0.5260
  627MPD2     C 9282   2.955   2.775  14.124 -0.3581 -0.3284 -0.4553
  627MPD2    C1 9283   2.991   2.737  14.252 -0.0670  0.3110 -0.6127
  627MPD2    C2 9284   2.922   2.638  14.308 -0.0396 -0.1600  0.3390
  627MPD2    C3 9285   2.815   2.575  14.248 -0.1992 -1.1557 -0.1579
  627MPD2    C4 9286   2.782   2.613  14.121  0.4690  0.3472 -0.0013
  627MPD2    C5 9287   2.850   2.714  14.057 -0.0147  0.8442 -0.5511
  627MPD2     H 9288   2.961   2.597  14.400  1.1785  3.8438  1.5835
  627MPD2    H1 9289   2.699   2.574  14.063  1.5887 -0.0093 -1.3489
  627MPD2    H2 9290   3.012   2.852  14.074 -2.0278  1.5150  0.4905
  627MPD2    H3 9291   2.822   2.748  13.957  0.3170  0.0078 -0.9336
  627MPD2     N 9292   2.752   2.459  14.308  0.2363  0.3182 -0.1305
  627MPD2    H5 9293   2.781   2.432  14.402  1.6122  1.5020 -0.2149
  627MPD2    N1 9294   3.096   2.801  14.325  0.4172 -0.5270  0.3591
  627MPD2    H7 9295   3.108   2.763  14.418 -3.9772 -1.9857  0.3324
  628TMC3    C1 9296   3.269   2.960  14.389  0.5521 -0.0634  0.9405
  628TMC3    C2 9297   3.326   2.885  14.480  0.3962  0.6449 -0.1807
  628TMC3    C3 9298   3.411   2.947  14.568 -1.0483  0.3131 -0.0169
  628TMC3    C4 9299   3.300   3.091  14.369 -0.0826 -0.3854 -0.4294
  628TMC3    C5 9300   3.392   3.149  14.453 -0.0748  0.1150 -0.9157
  628TMC3    C6 9301   3.441   3.083  14.566  0.0352  0.0201 -0.4256
  628TMC3     C 9302   3.171   2.911  14.288  0.1919 -0.5063 -0.5364
  628TMC3     O 9303   3.157   2.986  14.193 -0.2814 -0.7361  0.1946
  628TMC3     H 9304   3.318   2.777  14.476  1.8687  0.5916 -1.7510
  628TMC3    H1 9305   3.241   3.146  14.297  1.8849  1.8832 -0.3140
  628TMC3    H2 9306   3.534   3.124  14.603  0.6100 -0.0708 -1.7690
  628TMC3    C7 9307   3.408   3.292  14.464 -0.5729 -0.2531  0.2377
  628TMC3    C8 9308   3.475   2.856  14.659 -0.7779 -0.0064  0.7119
  628TMC3    O1 9309   3.472   3.335  14.560  0.4927 -0.1065 -0.3387
  628TMC3    O2 9310   3.451   2.735  14.649  0.3266  0.3970 -0.2584
  629MPD2     C 9311   1.247   1.586  16.179  0.0840  0.4225  1.6212
  629MPD2    C1 9312   1.288   1.456  16.215 -0.4380  0.2039 -0.1409
  629MPD2    C2 9313   1.200   1.353  16.236 -0.4712 -0.2376  0.1458
  629MPD2    C3 9314   1.062   1.369  16.221 -0.6633 -0.6061 -0.2763
  629MPD2    C4 9315   1.027   1.496  16.175  0.1168  0.7935  0.3027
  629MPD2    C5 9316   1.111   1.604  16.155  0.2152 -0.0970  0.1663
  629MPD2     H 9317   1.236   1.257  16.270 -0.3353 -0.5146 -0.7794
  629MPD2    H1 9318   0.925   1.523  16.150  0.1634  1.7889  1.2143
  629MPD2    H2 9319   1.324   1.661  16.164 -0.3312  0.6629  0.6908
  629MPD2    H3 9320   1.071   1.696  16.115  1.3934 -0.9930 -3.0364
  629MPD2     N 9321   0.960   1.269  16.250  0.2332 -0.1502  0.2844
  629MPD2    H5 9322   0.989   1.173  16.232 -0.3653 -0.7106  2.3272
  629MPD2    N1 9323   1.422   1.451  16.254  0.3383 -0.2007  0.2038
  629MPD2    H7 9324   1.476   1.525  16.211  2.5082 -1.4956  0.6618
  630TMC3    C1 9325   1.617   1.384  16.373  0.4661 -0.7339 -0.2366
  630TMC3    C2 9326   1.706   1.440  16.277 -0.0082  0.2451 -0.7487
  630TMC3    C3 9327   1.828   1.479  16.321  1.1881  0.1558  0.7878
  630TMC3    C4 9328   1.652   1.360  16.501  0.0713  0.1823  0.6820
  630TMC3    C5 9329   1.782   1.394  16.535  0.6747  0.2563 -0.3387
  630TMC3    C6 9330   1.867   1.460  16.450  0.0235  0.3058  0.1682
  630TMC3     C 9331   1.474   1.359  16.342  0.2575  0.2784  0.1395
  630TMC3     O 9332   1.415   1.281  16.413  0.3743 -0.4078  0.7962
  630TMC3     H 9333   1.673   1.467  16.177 -0.3235  2.1812 -0.1102
  630TMC3    H1 9334   1.574   1.351  16.577 -0.4734 -0.5674  0.0333
  630TMC3    H2 9335   1.965   1.482  16.490  0.1287  0.1400  0.0025
  630TMC3    C7 9336   1.812   1.390  16.680 -0.3851 -0.6210  0.2213
  630TMC3    C8 9337   1.917   1.571  16.241 -0.2013  0.3364  0.6117
  630TMC3    O1 9338   1.755   1.303  16.740  0.3219 -0.1488  0.2531
  630TMC3    O2 9339   2.007   1.629  16.294  0.6992 -0.4872  0.5133
  631MPD2     C 9340   4.130   1.050  15.644  0.6445  0.0126  0.6954
  631MPD2    C1 9341   4.207   1.108  15.545  0.4118  0.1244 -0.2184
  631MPD2    C2 9342   4.299   1.032  15.482 -0.3554  0.2056 -0.4594
  631MPD2    C3 9343   4.335   0.901  15.532  0.1265 -0.4954 -0.2606
  631MPD2    C4 9344   4.251   0.844  15.631 -0.4218 -0.9193 -0.3281
  631MPD2    C5 9345   4.149   0.919  15.666 -0.3283  0.1910  0.2581
  631MPD2     H 9346   4.362   1.060  15.398  1.7641  2.8626  2.0050
  631MPD2    H1 9347   4.263   0.749  15.682  2.4336 -1.1259 -1.3374
  631MPD2    H2 9348   4.047   1.104  15.688 -0.3858 -0.0999 -1.0855
  631MPD2    H3 9349   4.087   0.870  15.741  0.2532 -0.7542  0.1237
  631MPD2     N 9350   4.448   0.839  15.485 -0.3438 -0.3632  0.2667
  631MPD2    H5 9351   4.492   0.882  15.405  0.9611 -0.1214  1.1153
  631MPD2    N1 9352   4.179   1.246  15.513 -0.2482  0.0482 -0.6570
  631MPD2    H7 9353   4.114   1.293  15.575  2.2243  1.5372  0.7871
  632TMC3    C1 9354   4.224   1.461  15.408  0.6014  0.8793  0.5465
  632TMC3    C2 9355   4.196   1.522  15.523  0.0501  0.9022 -0.2588
  632TMC3    C3 9356   4.260   1.636  15.548 -0.7177  0.2601 -0.6095
  632TMC3    C4 9357   4.298   1.515  15.307  0.0181 -0.4391  0.2533
  632TMC3    C5 9358   4.367   1.631  15.330  0.4042 -0.3379  0.1271
  632TMC3    C6 9359   4.346   1.688  15.454 -0.3641  0.2945  0.2012
  632TMC3     C 9360   4.240   1.316  15.412  0.8174 -0.4296  0.1699
  632TMC3     O 9361   4.326   1.275  15.331  0.3780 -0.2764  0.2922
  632TMC3     H 9362   4.120   1.481  15.588  0.6127  0.6777  0.2538
  632TMC3    H1 9363   4.318   1.457  15.218 -0.8500  1.2735 -1.0546
  632TMC3    H2 9364   4.383   1.788  15.475 -0.3740 -0.1071  2.1452
  632TMC3    C7 9365   4.444   1.681  15.217 -0.6740 -0.3847 -0.3302
  632TMC3    C8 9366   4.197   1.731  15.643 -0.2119  0.8006  0.6673
  632TMC3    O1 9367   4.410   1.631  15.110 -0.3939 -0.5119  0.0638
  632TMC3    O2 9368   4.087   1.707  15.696 -0.1492 -0.6840 -0.0593
  633MPD2     C 9369   4.221   4.329  17.255  0.4050 -0.3137 -0.2812
  633MPD2    C1 9370   4.195   4.250  17.142  0.8383 -0.1755  0.3662
  633MPD2    C2 9371   4.166   4.111  17.160  0.9858  0.5425  0.3928
  633MPD2    C3 9372   4.156   4.058  17.283  0.3657 -0.6308  1.1531
  633MPD2    C4 9373   4.171   4.136  17.393  0.3636 -0.4100 -0.0200
  633MPD2    C5 9374   4.207   4.269  17.378  0.2153 -0.4095  0.2586
  633MPD2     H 9375   4.152   4.054  17.069  0.4971  1.4379 -0.0998
  633MPD2    H1 9376   4.158   4.093  17.491  0.3485 -0.3910 -0.0138
  633MPD2    H2 9377   4.267   4.426  17.259  0.1237 -0.2860  2.1397
  633MPD2    H3 9378   4.216   4.327  17.469 -1.6803  3.7475 -2.1929
  633MPD2     N 9379   4.127   3.923  17.300 -0.2452  0.3107  0.3016
  633MPD2    H5 9380   4.128   3.892  17.397  1.0014  0.8391  0.4626
  633MPD2    N1 9381   4.195   4.292  17.009  0.2754 -0.5524  0.4022
  633MPD2    H7 9382   4.165   4.220  16.945 -0.0265 -0.8134  0.8341
  634TMC3    C1 9383   4.223   4.436  16.825 -0.5632 -0.4759  0.7718
  634TMC3    C2 9384   4.295   4.342  16.753 -0.4627  0.3338  0.2678
  634TMC3    C3 9385   4.313   4.362  16.616  0.2623 -0.9951 -0.0015
  634TMC3    C4 9386   4.188   4.553  16.766  0.5241  0.4767 -0.2814
  634TMC3    C5 9387   4.221   4.572  16.634  0.1833 -0.6894  0.1173
  634TMC3    C6 9388   4.280   4.479  16.553 -0.5100 -0.4253  0.9986
  634TMC3     C 9389   4.215   4.420  16.969 -0.8064 -0.4417  0.0617
  634TMC3     O 9390   4.208   4.525  17.030 -0.4274  0.3196 -0.1462
  634TMC3     H 9391   4.310   4.245  16.799 -0.5636 -0.6496 -1.7942
  634TMC3    H1 9392   4.146   4.632  16.826 -0.7658  0.3723 -1.0455
  634TMC3    H2 9393   4.282   4.499  16.447  0.0042 -0.4591  1.0016
  634TMC3    C7 9394   4.197   4.699  16.567  0.0361 -0.2271  0.3361
  634TMC3    C8 9395   4.341   4.243  16.534 -0.1599 -0.6148 -0.5831
  634TMC3    O1 9396   4.238   4.713  16.453  0.4702 -0.0041 -0.0774
  634TMC3    O2 9397   4.329   4.132  16.583 -0.7570 -0.4688  0.1838
  635TMC3    C1 9398   4.251   0.459  17.374  0.2158  1.1273 -0.5379
  635TMC3    C2 9399   4.214   0.368  17.467 -0.2026 -0.0071 -0.3755
  635TMC3    C3 9400   4.090   0.382  17.520  1.0647 -0.2506 -0.1000
  635TMC3    C4 9401   4.186   0.575  17.363  0.5311 -0.0253 -0.7763
  635TMC3    C5 9402   4.063   0.579  17.420  0.2092  0.4678 -0.2256
  635TMC3    C6 9403   4.007   0.484  17.500 -0.3815  0.6175 -0.3480
  635TMC3     C 9404   4.389   0.456  17.327 -0.0048 -0.0592  0.5650
  635TMC3     O 9405   4.443   0.562  17.300 -0.4951  0.1039 -0.2645
  635TMC3     H 9406   4.281   0.286  17.490  0.2537  0.8611  1.3954
  635TMC3    H1 9407   4.231   0.646  17.294 -1.2799 -0.3597 -2.3333
  635TMC3    H2 9408   3.909   0.494  17.546  0.3224 -0.7492  1.4468
  635TMC3    C7 9409   3.985   0.695  17.399  0.4700  0.2439 -0.3450
  635TMC3    C8 9410   4.028   0.270  17.588  0.0355 -0.1866  0.0005
  635TMC3    O1 9411   4.014   0.739  17.290  0.5122  0.4250 -0.1662
  635TMC3    O2 9412   3.941   0.299  17.669  0.3190  0.5188  0.6916
  636MPD2     C 9413   0.846   4.032  15.307 -0.0737 -0.3051 -0.0933
  636MPD2    C1 9414   0.831   4.053  15.442 -0.3721  0.0526 -0.5005
  636MPD2    C2 9415   0.844   3.951  15.529 -0.0724  0.2964 -0.1934
  636MPD2    C3 9416   0.871   3.819  15.485  0.1921  0.1619 -0.3275
  636MPD2    C4 9417   0.877   3.803  15.349 -0.0692  0.2831  0.0501
  636MPD2    C5 9418   0.870   3.907  15.259 -0.2903  0.0332 -0.2162
  636MPD2     H 9419   0.832   3.980  15.633  0.8517  0.6014 -0.1758
  636MPD2    H1 9420   0.900   3.714  15.293  2.3337  0.7294  0.3304
  636MPD2    H2 9421   0.844   4.115  15.237  1.7454  1.3283  1.8140
  636MPD2    H3 9422   0.878   3.885  15.153 -0.3723  2.7617 -0.7895
  636MPD2     N 9423   0.894   3.715  15.573 -0.4814  0.1916  0.2374
  636MPD2    H5 9424   0.889   3.737  15.672 -0.2573  2.3189 -0.2216
  636MPD2    N1 9425   0.816   4.182  15.499  0.1208 -0.1492 -0.3967
  636MPD2    H7 9426   0.808   4.189  15.600 -0.4770  0.2113 -0.4683
  637TMC3    C1 9427   0.987   3.533  15.665 -0.1313 -0.4433 -0.1495
  637TMC3    C2 9428   0.915   3.571  15.774  0.3227  0.0124 -0.0034
  637TMC3    C3 9429   0.988   3.580  15.892  0.2114 -0.0996  0.2787
  637TMC3    C4 9430   1.120   3.509  15.663 -0.3794 -0.3041 -0.0888
  637TMC3    C5 9431   1.194   3.552  15.776  0.2583  0.3129 -0.3822
  637TMC3    C6 9432   1.127   3.574  15.894  0.8309 -0.5736 -0.7314
  637TMC3     C 9433   0.937   3.583  15.542  0.0583 -0.2222  0.5305
  637TMC3     O 9434   0.971   3.530  15.439 -0.0351 -0.3082  0.3162
  637TMC3     H 9435   0.808   3.588  15.775  0.6806  2.3080 -1.0992
  637TMC3    H1 9436   1.164   3.501  15.564  2.3363 -0.4307  1.1080
  637TMC3    H2 9437   1.187   3.581  15.984  0.4879 -2.9082 -0.3379
  637TMC3    C7 9438   1.279   3.662  15.757  0.8878  0.7015  0.4045
  637TMC3    C8 9439   0.934   3.687  15.973 -0.5719 -0.4107 -0.2386
  637TMC3    O1 9440   1.264   3.753  15.842  0.3041  0.4372 -0.1608
  637TMC3    O2 9441   0.814   3.687  15.987 -0.5450 -0.4282 -0.0304
  638MPD2     C 9442   0.722   3.341  14.663 -0.1578 -0.0400  0.0579
  638MPD2    C1 9443   0.745   3.211  14.663  0.9057 -0.3142  0.3475
  638MPD2    C2 9444   0.706   3.141  14.774  0.4068  0.4234  0.3939
  638MPD2    C3 9445   0.632   3.198  14.874  0.7814 -0.1045 -0.7145
  638MPD2    C4 9446   0.587   3.330  14.865  0.9112  0.9430  0.2686
  638MPD2    C5 9447   0.642   3.402  14.757  0.4304 -0.4689 -0.5570
  638MPD2     H 9448   0.747   3.043  14.796 -0.0846  0.0599 -0.3087
  638MPD2    H1 9449   0.520   3.374  14.939 -1.0268  1.3380 -1.7339
  638MPD2    H2 9450   0.758   3.401  14.581  1.3206  2.1092  2.2723
  638MPD2    H3 9451   0.619   3.507  14.742 -1.6576 -0.8201  0.2819
  638MPD2     N 9452   0.591   3.110  14.977 -0.5418  0.0173 -0.3672
  638MPD2    H5 9453   0.635   3.019  14.987 -1.5072 -0.3900  0.1538
  638MPD2    N1 9454   0.818   3.152  14.555  0.6552 -0.5720 -0.0563
  638MPD2    H7 9455   0.846   3.208  14.476 -0.5686  0.8517  0.5436
  639TMC3    C1 9456   0.513   3.026  15.182 -0.3820 -0.5039  0.8433
  639TMC3    C2 9457   0.398   2.960  15.211  0.1640 -0.0753 -0.5259
  639TMC3    C3 9458   0.404   2.826  15.243  0.6263  0.3569  0.0830
  639TMC3    C4 9459   0.637   2.959  15.180 -0.2251  0.5263 -0.2523
  639TMC3    C5 9460   0.640   2.825  15.200  0.0428  0.8255  0.3026
  639TMC3    C6 9461   0.525   2.757  15.239 -0.0688 -0.1295  0.3228
  639TMC3     C 9462   0.497   3.137  15.076  0.1643  0.4324 -0.3334
  639TMC3     O 9463   0.400   3.216  15.076  0.2340  0.3961  0.1248
  639TMC3     H 9464   0.300   2.999  15.185 -0.8640 -0.4460  2.9199
  639TMC3    H1 9465   0.725   3.021  15.166 -0.2182  0.1918 -1.6966
  639TMC3    H2 9466   0.526   2.650  15.254 -2.1556 -0.2328 -0.2691
  639TMC3    C7 9467   0.709   2.750  15.097 -0.2621  0.1404  0.1602
  639TMC3    C8 9468   0.283   2.743  15.251 -0.2355 -0.0305  0.3861
  639TMC3    O1 9469   0.661   2.639  15.063 -0.0936 -0.6849  0.3398
  639TMC3    O2 9470   0.185   2.786  15.311 -0.0675 -0.4606 -0.1686
  640MPD2     C 9471   0.931   1.258   9.321 -0.3661 -0.6713  0.6167
  640MPD2    C1 9472   1.060   1.306   9.351  0.3339  0.5552  0.1862
  640MPD2    C2 9473   1.082   1.399   9.453 -0.0672  0.1847 -0.4921
  640MPD2    C3 9474   0.970   1.450   9.519  0.1717  0.3117 -0.0526
  640MPD2    C4 9475   0.840   1.407   9.488  0.6136  0.1620 -0.1004
  640MPD2    C5 9476   0.817   1.309   9.392 -0.0750  0.4880  0.8804
  640MPD2     H 9477   1.181   1.436   9.478 -0.0925 -1.0504  1.5172
  640MPD2    H1 9478   0.762   1.457   9.544 -0.3375 -0.2763 -1.0320
  640MPD2    H2 9479   0.910   1.184   9.245  0.8130 -0.1837 -0.1833
  640MPD2    H3 9480   0.715   1.281   9.370  0.0097  1.1656 -0.3832
  640MPD2     N 9481   0.971   1.556   9.616 -0.2498  0.4208  1.1894
  640MPD2    H5 9482   0.883   1.592   9.653 -0.2149  1.2141  0.4959
  640MPD2    N1 9483   1.175   1.254   9.277 -0.2420  1.0982  0.3091
  640MPD2    H7 9484   1.151   1.202   9.193  2.6379  2.7141 -1.5175
  641TMC3    C1 9485   1.395   1.194   9.202 -0.2807 -0.7039  0.3390
  641TMC3    C2 9486   1.522   1.167   9.245  0.0447  0.5438  0.0606
  641TMC3    C3 9487   1.583   1.059   9.182  0.5578  0.5125 -1.0370
  641TMC3    C4 9488   1.330   1.135   9.095  0.1097 -0.0760 -0.2419
  641TMC3    C5 9489   1.408   1.053   9.020  0.7497 -0.0789  0.2865
  641TMC3    C6 9490   1.523   0.996   9.072 -0.9286  0.5627 -1.0911
  641TMC3     C 9491   1.310   1.271   9.298 -0.3730  0.0797  0.5644
  641TMC3     O 9492   1.371   1.337   9.382 -0.1416 -0.3788  0.0721
  641TMC3     H 9493   1.549   1.213   9.339  0.6888 -0.6325  0.4446
  641TMC3    H1 9494   1.238   1.177   9.056  1.1555  0.9025 -1.6590
  641TMC3    H2 9495   1.585   0.918   9.030 -0.6751  0.8345 -1.2220
  641TMC3    C7 9496   1.368   0.997   8.892 -0.4508  0.3568 -0.7598
  641TMC3    C8 9497   1.700   0.993   9.240  0.5157  0.2601  0.2855
  641TMC3    O1 9498   1.456   0.942   8.830  0.0465  0.1591  0.2643
  641TMC3    O2 9499   1.724   0.882   9.199 -0.5576  0.0635  0.0691
  642TMC3    C1 9500   2.518   2.886  12.131  0.1122 -0.2534  0.0130
  642TMC3    C2 9501   2.604   2.898  12.236  0.0999  0.1827 -0.2305
  642TMC3    C3 9502   2.621   2.790  12.323  0.0589  0.3833 -0.4610
  642TMC3    C4 9503   2.454   2.764  12.108  0.1615 -0.0071 -0.7328
  642TMC3    C5 9504   2.485   2.657  12.185  0.3217  0.0095  0.2693
  642TMC3    C6 9505   2.554   2.674  12.302  0.1871 -1.0557 -0.5969
  642TMC3     C 9506   2.443   3.002  12.090 -0.5150 -0.2236  0.2652
  642TMC3     O 9507   2.417   3.025  11.974 -0.6697  0.5136  0.4049
  642TMC3     H 9508   2.633   3.000  12.259 -1.1507  0.5161 -0.1170
  642TMC3    H1 9509   2.398   2.749  12.016 -0.9858  0.2182 -0.0663
  642TMC3    H2 9510   2.586   2.592  12.365 -0.0585  0.3733  1.3802
  642TMC3    C7 9511   2.415   2.533  12.155 -0.1451  0.3153 -0.1255
  642TMC3    C8 9512   2.675   2.811  12.460  0.4920  0.5679  0.6723
  642TMC3    O1 9513   2.423   2.496  12.040 -0.5146 -0.3378  0.6582
  642TMC3    O2 9514   2.654   2.739  12.559 -0.3821  0.0332 -0.3994
  643TMC3    C1 9515   1.020   2.137   0.104  0.8789  0.1403  0.6397
  643TMC3    C2 9516   0.900   2.161   0.039  0.8855 -0.2550  0.1602
  643TMC3    C3 9517   0.876   2.071  17.635 -0.3039 -0.4618  0.6480
  643TMC3    C4 9518   1.120   2.042   0.064  0.2089 -0.2925  0.2518
  643TMC3    C5 9519   1.090   1.966  17.650  0.2026 -0.3340  0.5997
  643TMC3    C6 9520   0.964   1.972  17.598 -0.3894  0.6694 -0.3485
  643TMC3     C 9521   1.039   2.199   0.236 -0.3861  0.4117  0.3359
  643TMC3     O 9522   0.973   2.300   0.247 -0.0924  0.2221 -0.1353
  643TMC3     H 9523   0.829   2.235   0.072 -1.0173 -1.7083 -0.6837
  643TMC3    H1 9524   1.217   2.035   0.112  0.0169 -0.5093  0.6128
  643TMC3    H2 9525   0.945   1.907  17.513 -0.1058 -1.7585  1.4350
  643TMC3    C7 9526   1.195   1.980  17.550  0.4792 -0.2410 -0.1284
  643TMC3    C8 9527   0.811   2.124  17.517 -0.5879 -0.6508 -0.0122
  643TMC3    O1 9528   1.271   2.075  17.565 -0.0963 -0.2037 -0.2593
  643TMC3    O2 9529   0.747   2.041  17.450  0.3605 -0.0137 -0.3748
  644MPD2     C 9530   1.896   2.449   8.814 -0.2352  0.0168  0.0838
  644MPD2    C1 9531   1.823   2.347   8.859 -0.5087 -0.0932 -0.3991
  644MPD2    C2 9532   1.689   2.362   8.874  0.1158  0.3298  0.3185
  644MPD2    C3 9533   1.626   2.482   8.848  0.0394  0.3228  0.5509
  644MPD2    C4 9534   1.706   2.587   8.803  0.7143  0.3654  0.1422
  644MPD2    C5 9535   1.839   2.563   8.792  0.4396  0.2581 -0.0820
  644MPD2     H 9536   1.620   2.285   8.908 -0.1736  1.3550  2.0295
  644MPD2    H1 9537   1.668   2.686   8.780 -2.2476 -0.1239  2.9604
  644MPD2    H2 9538   2.003   2.449   8.796 -0.7942  1.4267 -3.2251
  644MPD2    H3 9539   1.899   2.650   8.766  1.1875 -0.6041 -1.2131
  644MPD2     N 9540   1.485   2.493   8.891  0.2802 -0.0673  0.3744
  644MPD2    H5 9541   1.439   2.406   8.916  0.0248 -0.5577 -1.7297
  644MPD2    N1 9542   1.890   2.224   8.889  0.0180  0.3984  0.4697
  644MPD2    H7 9543   1.991   2.219   8.874  0.3420 -0.5089  2.9911
  645TMC3    C1 9544   1.269   2.599   8.896  0.4098  0.7342  0.1346
  645TMC3    C2 9545   1.200   2.695   8.823 -0.5651  0.4628  0.4416
  645TMC3    C3 9546   1.063   2.692   8.821 -0.3374  0.2636 -0.1423
  645TMC3    C4 9547   1.212   2.501   8.969  0.6081  0.1050  0.4632
  645TMC3    C5 9548   1.074   2.510   8.966 -0.2468  0.0555 -0.6753
  645TMC3    C6 9549   0.996   2.601   8.894 -0.3506  0.2304  0.5865
  645TMC3     C 9550   1.414   2.617   8.893  0.0847  0.3213 -0.3838
  645TMC3     O 9551   1.458   2.727   8.852 -0.2497  0.0427  0.4002
  645TMC3     H 9552   1.261   2.764   8.766  0.1356  0.0094  0.6453
  645TMC3    H1 9553   1.277   2.445   9.035 -0.5541 -1.2811  0.4286
  645TMC3    H2 9554   0.889   2.588   8.891 -0.7224  3.3236  0.9936
  645TMC3    C7 9555   1.008   2.411   9.052  0.0199  0.4412  0.2513
  645TMC3    C8 9556   0.988   2.781   8.729 -0.3667 -0.4898 -0.5479
  645TMC3    O1 9557   1.084   2.358   9.134  0.3296  0.2146  0.2736
  645TMC3    O2 9558   0.879   2.740   8.690  0.4984  0.2315  0.1889
  646MPD2     C 9559   0.760   1.854  14.475  0.3976 -0.2676 -0.0282
  646MPD2    C1 9560   0.689   1.839  14.589  0.1249  0.4554 -0.0714
  646MPD2    C2 9561   0.569   1.903  14.606 -0.3683 -1.1691 -0.4038
  646MPD2    C3 9562   0.512   1.983  14.505  0.1201 -0.2231 -0.4331
  646MPD2    C4 9563   0.586   1.986  14.387  0.1287  0.0101  0.0326
  646MPD2    C5 9564   0.707   1.926  14.367 -0.5866  0.0926 -0.1184
  646MPD2     H 9565   0.509   1.893  14.696 -0.1639  0.3014 -0.1160
  646MPD2    H1 9566   0.560   2.047  14.301  1.8862 -3.4514 -2.9085
  646MPD2    H2 9567   0.853   1.800  14.463  1.0645  0.3593  2.2119
  646MPD2    H3 9568   0.754   1.941  14.271  1.0788 -1.1346  0.5036
  646MPD2     N 9569   0.391   2.053  14.525  0.8512  0.0377  0.0682
  646MPD2    H5 9570   0.349   2.038  14.616 -1.4660 -0.7261 -1.1249
  646MPD2    N1 9571   0.745   1.755  14.686 -0.0636 -1.1719 -0.1307
  646MPD2    H7 9572   0.841   1.730  14.663  1.1981  1.8884  1.7411
  647TMC3    C1 9573   0.784   1.641  14.891 -0.4554  0.0012 -0.1863
  647TMC3    C2 9574   0.732   1.565  14.988  0.3037  0.0973 -0.1687
  647TMC3    C3 9575   0.813   1.500  15.071  0.0005 -0.1198 -0.0296
  647TMC3    C4 9576   0.919   1.665  14.873  0.1826  0.2256  0.7623
  647TMC3    C5 9577   0.992   1.617  14.976 -0.3824 -0.0568  0.5581
  647TMC3    C6 9578   0.946   1.530  15.077 -0.2344 -0.0594 -0.7603
  647TMC3     C 9579   0.692   1.716  14.801  0.0073 -0.7304  0.3029
  647TMC3     O 9580   0.576   1.716  14.837 -0.0721 -0.0200 -0.7068
  647TMC3     H 9581   0.624   1.552  14.996  0.1370  0.6930 -1.4383
  647TMC3    H1 9582   0.963   1.728  14.796  2.3278 -2.0337  0.1358
  647TMC3    H2 9583   1.006   1.495  15.160  2.1770  1.7971 -1.7554
  647TMC3    C7 9584   1.132   1.634  14.975  0.4553  0.5387  0.4167
  647TMC3    C8 9585   0.762   1.415  15.175  0.0510 -0.3903  0.6053
  647TMC3    O1 9586   1.186   1.612  15.078  0.0304  0.6142  0.3148
  647TMC3    O2 9587   0.833   1.401  15.272 -0.1079  0.0945 -0.1827
  648TMC3    C1 9588   0.003   4.373  15.923 -0.0608 -0.0811  0.4079
  648TMC3    C2 9589   0.101   4.290  15.884 -0.1987 -0.4883 -0.1755
  648TMC3    C3 9590   0.109   4.282  15.746 -0.0344  0.6699  0.3778
  648TMC3    C4 9591   4.630   4.432  15.843 -0.2992 -0.1143  0.0068
  648TMC3    C5 9592   4.640   4.406  15.710 -0.5371  1.1128  0.6867
  648TMC3    C6 9593   0.018   4.333  15.656  0.5211  0.0162 -0.0749
  648TMC3     C 9594   4.710   4.394  16.067 -0.7014  0.2034  0.7004
  648TMC3     O 9595   4.645   4.491  16.103  0.2157 -0.0765 -0.4574
  648TMC3     H 9596   0.167   4.240  15.955  0.1398  0.9749  0.5534
  648TMC3    H1 9597   4.559   4.498  15.893  1.0077  3.1472 -2.4939
  648TMC3    H2 9598   0.026   4.311  15.550  2.6529 -0.6472  0.2255
  648TMC3    C7 9599   4.574   4.497  15.618  0.0357  1.0398 -0.3363
  648TMC3    C8 9600   0.207   4.192  15.694 -0.6206  0.7144 -0.0886
  648TMC3    O1 9601   4.620   4.490  15.505  0.3345 -0.0425 -0.1487
  648TMC3    O2 9602   0.165   4.139  15.591 -0.2308  0.2045  0.2546
  649TMC3    C1 9603   4.504   0.237  12.430 -0.0320 -0.5422  0.0391
  649TMC3    C2 9604   4.633   0.201  12.451  0.1492  0.5295 -0.3790
  649TMC3    C3 9605   4.660   0.160  12.574 -0.4342  0.3806 -1.1506
  649TMC3    C4 9606   4.410   0.242  12.523  0.1565 -0.6717  0.3737
  649TMC3    C5 9607   4.457   0.220  12.651  0.3096  0.5596  0.4260
  649TMC3    C6 9608   4.578   0.180  12.682  0.1367  0.3442 -0.0634
  649TMC3     C 9609   4.459   0.270  12.298  0.3919  0.4958 -0.0528
  649TMC3     O 9610   4.362   0.344  12.283 -0.0856  0.0437 -0.1309
  649TMC3     H 9611   4.701   0.200  12.366 -0.3577 -1.3118 -0.7518
  649TMC3    H1 9612   4.305   0.264  12.505  0.0929 -0.0831  1.4246
  649TMC3    H2 9613   4.596   0.135  12.779 -1.5176 -2.5655 -1.1108
  649TMC3    C7 9614   4.361   0.204  12.758 -0.8424  0.0922 -0.6407
  649TMC3    C8 9615   0.070   0.105  12.605  0.3002  0.2969  0.7615
  649TMC3    O1 9616   4.412   0.205  12.871  0.3953  0.4418 -0.3510
  649TMC3    O2 9617   0.085   0.051  12.712  0.4008  0.2272  0.1369
  650TMC3    C1 9618   1.859   2.104  12.455 -0.2293 -1.0862  0.1797
  650TMC3    C2 9619   1.842   2.192  12.561 -0.1958  0.0903 -0.3993
  650TMC3    C3 9620   1.841   2.322  12.530 -0.4411  0.1953  0.1374
  650TMC3    C4 9621   1.843   2.150  12.324 -0.0605  0.1779 -0.3896
  650TMC3    C5 9622   1.857   2.283  12.299 -0.1494  0.2159 -0.6445
  650TMC3    C6 9623   1.858   2.371  12.402  0.3271 -0.0452  0.0242
  650TMC3     C 9624   1.859   1.968  12.491  0.3842  0.0754  0.5148
  650TMC3     O 9625   1.866   1.940  12.608  0.5354  0.1871 -0.4343
  650TMC3     H 9626   1.849   2.158  12.664 -1.3454  1.0214 -0.0247
  650TMC3    H1 9627   1.832   2.067  12.255 -1.8693  1.1943 -1.3349
  650TMC3    H2 9628   1.854   2.477  12.381 -4.6083  0.0411  1.3743
  650TMC3    C7 9629   1.813   2.324  12.164 -0.2635  0.4092  0.0100
  650TMC3    C8 9630   1.822   2.422  12.628  0.1547 -0.2246 -0.8809
  650TMC3    O1 9631   1.773   2.230  12.091 -0.1062 -0.3168  0.1161
  650TMC3    O2 9632   1.891   2.522  12.625 -0.2823 -0.5385  0.8981
  651MPD2     C 9633   0.756   3.714  10.418 -0.1168 -0.9974 -0.5889
  651MPD2    C1 9634   0.724   3.795  10.528  0.0902 -0.8022  0.1906
  651MPD2    C2 9635   0.830   3.871  10.580 -0.9720 -0.0012 -0.6563
  651MPD2    C3 9636   0.953   3.881  10.516 -0.4681  0.1056  0.5150
  651MPD2    C4 9637   0.974   3.810  10.400  0.7135 -0.1089  1.3747
  651MPD2    C5 9638   0.884   3.714  10.359  0.8523 -0.1422 -0.3538
  651MPD2     H 9639   0.814   3.943  10.660  1.8553  1.9716 -1.8929
  651MPD2    H1 9640   1.063   3.818  10.339  0.5631 -1.2748  1.0005
  651MPD2    H2 9641   0.686   3.639  10.383 -2.6795  1.2572 -0.2204
  651MPD2    H3 9642   0.906   3.652  10.273  0.9122 -0.7430  0.0970
  651MPD2     N 9643   1.043   3.978  10.564 -0.2468  0.3414  0.7506
  651MPD2    H5 9644   1.009   4.042  10.635  0.3183 -1.0553  2.2767
  651MPD2    N1 9645   0.595   3.803  10.587  0.0206 -0.3582  0.6423
  651MPD2    H7 9646   0.583   3.857  10.672  1.0560  0.2128  0.4253
  652TMC3    C1 9647   1.470   4.198  10.546  0.4887 -0.1936 -0.0108
  652TMC3    C2 9648   1.397   4.080  10.556 -0.0668  0.0681 -0.1409
  652TMC3    C3 9649   1.258   4.087  10.579 -0.6995  0.3440  0.7428
  652TMC3    C4 9650   1.408   4.319  10.551  0.1214 -0.8556 -1.0826
  652TMC3    C5 9651   1.272   4.318  10.554  0.4076  0.6990  0.6042
  652TMC3    C6 9652   1.198   4.208  10.577 -0.1669 -0.4071 -0.1437
  652TMC3     C 9653   1.613   4.201  10.551 -0.0971 -0.2569 -0.0856
  652TMC3     O 9654   1.667   4.095  10.583  0.0906 -0.8007 -0.2778
  652TMC3     H 9655   1.452   3.987  10.558 -0.3324 -0.0616  1.1928
  652TMC3    H1 9656   1.455   4.416  10.550  1.7754 -1.6208  1.4133
  652TMC3    H2 9657   1.091   4.222  10.591  0.1111  0.9881  0.6575
  652TMC3    C7 9658   1.208   4.444  10.560 -0.2979  0.1626  0.0492
  652TMC3    C8 9659   1.179   3.974  10.533 -0.1501  0.5952 -0.4320
  652TMC3    O1 9660   1.118   4.455  10.638 -0.2049 -0.0110  0.2690
  652TMC3    O2 9661   1.230   3.878  10.474  0.0551 -0.1502 -0.4433
  653MPD2     C 9662   3.817   4.359  17.145  0.6170  0.8977 -0.2302
  653MPD2    C1 9663   3.693   4.411  17.176 -0.0366  0.7834  0.0119
  653MPD2    C2 9664   3.578   4.338  17.135 -0.1482  0.0896  0.3933
  653MPD2    C3 9665   3.587   4.218  17.064  0.1238 -0.4340 -0.1768
  653MPD2    C4 9666   3.716   4.168  17.038  0.4888  0.1971 -0.2313
  653MPD2    C5 9667   3.832   4.230  17.088  0.2341  0.8970 -0.2678
  653MPD2     H 9668   3.478   4.365  17.168  1.4105  2.3049  3.3346
  653MPD2    H1 9669   3.731   4.071  16.992 -1.2214  0.8708 -2.1905
  653MPD2    H2 9670   3.903   4.409  17.186  0.3152  2.9541 -2.1360
  653MPD2    H3 9671   3.930   4.187  17.077 -0.9782 -1.7955 -0.5567
  653MPD2     N 9672   3.467   4.154  17.026  0.7182 -0.1838  0.0446
  653MPD2    H5 9673   3.386   4.214  17.010 -0.5642 -1.9551 -0.1303
  653MPD2    N1 9674   3.674   4.542  17.235  0.2380 -0.1692  0.3292
  653MPD2    H7 9675   3.579   4.576  17.245  0.6082  1.1664 -0.6752
  654TMC3    C1 9676   3.363   4.002  16.876 -0.1581  0.0358  0.4834
  654TMC3    C2 9677   3.233   4.029  16.907 -0.1115  0.6379  0.6304
  654TMC3    C3 9678   3.134   3.956  16.854  0.2675  0.4536  0.4620
  654TMC3    C4 9679   3.394   3.889  16.807  0.0484  0.2691  0.7037
  654TMC3    C5 9680   3.296   3.816  16.752 -0.1699 -0.1594 -0.4491
  654TMC3    C6 9681   3.166   3.852  16.766  0.1788  0.2998 -0.1648
  654TMC3     C 9682   3.462   4.025  16.984 -0.4308  0.3982  0.3307
  654TMC3     O 9683   3.540   3.938  17.014 -0.3746  0.3926 -0.0559
  654TMC3     H 9684   3.206   4.112  16.972  0.4936  0.7926  0.6856
  654TMC3    H1 9685   3.499   3.864  16.806  0.1499  0.7658 -1.8364
  654TMC3    H2 9686   3.088   3.792  16.720  0.1605 -0.9130  1.4518
  654TMC3    C7 9687   3.322   3.683  16.702 -0.5850  0.1151  0.8410
  654TMC3    C8 9688   3.002   3.995  16.888  0.0297 -0.1249 -0.1635
  654TMC3    O1 9689   3.234   3.633  16.635  0.8791 -0.1401  0.1577
  654TMC3    O2 9690   2.985   4.071  16.982  0.3461  0.2279 -0.2555
  655MPD2     C 9691   0.412   4.323  15.445  0.5513  0.2548 -0.0378
  655MPD2    C1 9692   0.344   4.410  15.358 -0.2379  0.1847 -0.9460
  655MPD2    C2 9693   0.325   4.365  15.224  0.0548  0.5758  0.7011
  655MPD2    C3 9694   0.377   4.248  15.177  0.1475 -0.5051  0.2620
  655MPD2    C4 9695   0.460   4.172  15.261 -0.5065 -0.1197  0.2588
  655MPD2    C5 9696   0.457   4.204  15.395 -0.2258  0.6161  0.3624
  655MPD2     H 9697   0.265   4.427  15.158  0.0005  0.6251  0.7978
  655MPD2    H1 9698   0.515   4.080  15.242  1.4720  1.4583 -1.7336
  655MPD2    H2 9699   0.427   4.342  15.550  2.9319  1.2239 -0.5551
  655MPD2    H3 9700   0.515   4.142  15.462 -0.7210 -0.4644 -0.2226
  655MPD2     N 9701   0.382   4.213  15.043  0.4974 -0.0416 -0.1721
  655MPD2    H5 9702   0.446   4.139  15.018  1.3177  0.2080  1.1872
  655MPD2    N1 9703   0.275   4.522  15.408  0.1958  0.0834  0.4590
  655MPD2    H7 9704   0.235   4.584  15.339 -1.0113 -2.3135 -1.0265
  656TMC3    C1 9705   0.182   4.668  15.567 -0.9159  0.5062  0.4010
  656TMC3    C2 9706   0.162   4.706  15.695  0.2529  0.1959  0.0011
  656TMC3    C3 9707   0.067   0.085  15.710 -0.5719  0.1042 -0.3601
  656TMC3    C4 9708   0.109   0.005  15.463  0.2730  0.6538  0.6904
  656TMC3    C5 9709   0.027   0.109  15.489 -0.1535 -0.0112  0.3409
  656TMC3    C6 9710   0.004   0.145  15.613  0.0131 -0.7023  0.8333
  656TMC3     C 9711   0.269   4.558  15.543 -0.1171  0.0828  0.4702
  656TMC3     O 9712   0.304   4.494  15.640  0.3375  0.3206  0.6035
  656TMC3     H 9713   0.213   4.662  15.780  0.8578  0.9913  0.0460
  656TMC3    H1 9714   0.120   4.700  15.359  1.1087 -0.9117  1.2002
  656TMC3    H2 9715   4.656   0.221  15.641 -1.5265 -2.0105  0.4174
  656TMC3    C7 9716   4.703   0.197  15.379 -0.5177 -0.1618 -0.2694
  656TMC3    C8 9717   0.005   0.079  15.841  0.2243  0.8380 -0.0511
  656TMC3    O1 9718   4.723   0.166  15.264 -0.5217  0.7193  0.2645
  656TMC3    O2 9719   0.029   4.705  15.913  0.4511  0.4545 -0.1718
  657TMC3    C1 9720   4.289   3.732  14.804 -0.3185 -0.1273  0.3533
  657TMC3    C2 9721   4.230   3.739  14.927 -0.2534 -0.0631 -0.1926
  657TMC3    C3 9722   4.129   3.820  14.942  0.2067 -0.0989 -0.0412
  657TMC3    C4 9723   4.251   3.808  14.701 -0.4469  0.1621 -0.5732
  657TMC3    C5 9724   4.155   3.900  14.731 -0.2653  0.0948  0.6579
  657TMC3    C6 9725   4.088   3.906  14.853  0.3136 -0.1246 -0.2454
  657TMC3     C 9726   4.431   3.699  14.801 -0.1024 -0.4028  0.2305
  657TMC3     O 9727   4.491   3.736  14.703 -0.5248 -0.1533 -0.3989
  657TMC3     H 9728   4.275   3.681  15.007  2.0091  1.4100 -0.4194
  657TMC3    H1 9729   4.308   3.803  14.609  0.0068  2.4036 -0.4295
  657TMC3    H2 9730   4.006   3.977  14.865 -0.5987 -1.0632 -0.9332
  657TMC3    C7 9731   4.110   3.991  14.629 -0.3631 -1.0722  0.2070
  657TMC3    C8 9732   4.105   3.879  15.073  0.5366 -0.2012  0.1171
  657TMC3    O1 9733   4.010   4.050  14.662 -0.4351 -0.2749  0.1923
  657TMC3    O2 9734   4.091   4.002  15.090 -0.2188 -1.1167  0.1096
  658MPD2     C 9735   0.768   3.975  14.297 -0.1981 -0.0972  0.3976
  658MPD2    C1 9736   0.738   4.077  14.389  0.8976 -0.3658 -0.3659
  658MPD2    C2 9737   0.805   4.201  14.384 -0.2764 -0.5173  0.3083
  658MPD2    C3 9738   0.900   4.217  14.284  0.5048  0.3736 -0.1022
  658MPD2    C4 9739   0.935   4.110  14.200 -0.0077  0.7427 -0.8621
  658MPD2    C5 9740   0.876   3.991  14.211  0.5654 -0.2884 -0.0629
  658MPD2     H 9741   0.782   4.283  14.451 -0.1830  0.2761 -0.6280
  658MPD2    H1 9742   1.022   4.110  14.135  1.9912 -1.1794  1.8091
  658MPD2    H2 9743   0.711   3.883  14.300 -2.3375  1.2750  2.1613
  658MPD2    H3 9744   0.902   3.903  14.153  1.4343 -1.2315  1.7633
  658MPD2     N 9745   0.960   4.344  14.260 -0.9213  0.0716 -0.3685
  658MPD2    H5 9746   0.923   4.427  14.306 -0.7399 -0.5998  0.9814
  658MPD2    N1 9747   0.627   4.053  14.470 -0.1293 -0.1045 -0.4130
  658MPD2    H7 9748   0.567   3.976  14.444  0.6631 -0.7429 -0.3157
  659TMC3    C1 9749   0.470   4.104  14.653 -0.2123 -0.1392  0.0514
  659TMC3    C2 9750   0.462   4.174  14.774  0.0457  0.2269 -0.0772
  659TMC3    C3 9751   0.340   4.226  14.807 -0.1877  0.5819 -0.6862
  659TMC3    C4 9752   0.362   4.070  14.581 -0.6663 -0.8465  0.0786
  659TMC3    C5 9753   0.241   4.127  14.614 -0.4728  0.8387 -0.8893
  659TMC3    C6 9754   0.237   4.206  14.722 -0.8396  0.2112  0.3963
  659TMC3     C 9755   0.603   4.125  14.586 -0.1471  0.3322  0.1159
  659TMC3     O 9756   0.682   4.194  14.655 -0.3931 -0.1220 -0.0301
  659TMC3     H 9757   0.541   4.182  14.848  0.3229 -1.1828 -0.2192
  659TMC3    H1 9758   0.362   4.017  14.487  1.1694 -1.4529  0.4273
  659TMC3    H2 9759   0.141   4.251  14.744 -0.5499  0.2033  1.6907
  659TMC3    C7 9760   0.119   4.069  14.574 -0.6436  0.8507 -0.1426
  659TMC3    C8 9761   0.307   4.266  14.940  0.0374  0.1771 -0.0865
  659TMC3    O1 9762   0.092   3.949  14.583 -0.0295  0.8496  0.0430
  659TMC3    O2 9763   0.217   4.347  14.936  0.2544 -0.0077  0.5797
  660MPD2     C 9764   3.652   2.907  12.631 -0.3859  0.1632 -0.7639
  660MPD2    C1 9765   3.531   2.919  12.578  0.4441  0.6159 -0.4077
  660MPD2    C2 9766   3.427   2.846  12.641  0.6810  0.7387 -0.9251
  660MPD2    C3 9767   3.457   2.769  12.749 -1.0148 -0.0361 -0.3446
  660MPD2    C4 9768   3.592   2.767  12.799  0.3629  0.1619 -0.3559
  660MPD2    C5 9769   3.692   2.830  12.732  0.4437 -0.7549  0.5144
  660MPD2     H 9770   3.327   2.849  12.600  0.6062 -0.2057 -0.8098
  660MPD2    H1 9771   3.619   2.715  12.890 -0.3573  0.7834  0.2077
  660MPD2    H2 9772   3.731   2.951  12.571 -1.7621  3.3425 -0.2239
  660MPD2    H3 9773   3.796   2.821  12.762 -0.1207 -2.0836  2.0626
  660MPD2     N 9774   3.354   2.705  12.827  0.0366 -0.3151 -0.6591
  660MPD2    H5 9775   3.387   2.647  12.903  2.2222  0.7689 -0.8109
  660MPD2    N1 9776   3.518   3.004  12.459 -0.2835  0.1636 -0.5457
  660MPD2    H7 9777   3.598   3.051  12.416  0.8092 -3.3974 -2.4363
  661TMC3    C1 9778   3.398   3.090  12.273 -0.4173 -0.4206 -0.3157
  661TMC3    C2 9779   3.493   3.049  12.183 -0.9188 -0.3803 -0.6794
  661TMC3    C3 9780   3.472   3.082  12.054  0.1929  0.1794  0.7166
  661TMC3    C4 9781   3.276   3.149  12.223 -0.0482  0.3963  0.6492
  661TMC3    C5 9782   3.261   3.175  12.090 -0.3030  1.0641 -0.0143
  661TMC3    C6 9783   3.359   3.136  12.002  0.4640 -0.1786 -0.5879
  661TMC3     C 9784   3.396   3.029  12.405 -0.5675 -0.6184 -0.6697
  661TMC3     O 9785   3.286   3.008  12.462  0.3805  0.0908  0.0242
  661TMC3     H 9786   3.586   3.005  12.215 -1.8424 -0.8570  1.3363
  661TMC3    H1 9787   3.183   3.140  12.277 -0.0025  0.2023  0.6968
  661TMC3    H2 9788   3.351   3.156  11.896  0.3828 -0.0690 -0.5620
  661TMC3    C7 9789   3.126   3.193  12.054  0.4772 -0.0511  0.0192
  661TMC3    C8 9790   3.561   3.017  11.957  0.6447  0.1966 -0.7835
  661TMC3    O1 9791   3.057   3.260  12.135  0.4286 -0.2630 -0.2898
  661TMC3    O2 9792   3.620   2.915  11.996  0.2124 -0.0338 -0.4406
  662MPD2     C 9793   3.469   2.414  17.095 -0.2428 -0.6590 -1.1323
  662MPD2    C1 9794   3.326   2.420  17.119  0.2229  0.2067 -0.1412
  662MPD2    C2 9795   3.255   2.537  17.106 -0.3678  0.0031  0.6646
  662MPD2    C3 9796   3.321   2.655  17.076 -0.2840  0.1398  0.6528
  662MPD2    C4 9797   3.458   2.653  17.054  0.2348  0.6978  0.5192
  662MPD2    C5 9798   3.533   2.535  17.067 -0.4060 -0.1975  0.4075
  662MPD2     H 9799   3.152   2.536  17.141  1.0934 -2.0098  4.7495
  662MPD2    H1 9800   3.514   2.738  17.016  0.4466  1.0140  1.5325
  662MPD2    H2 9801   3.532   2.326  17.094 -1.4996 -1.5624 -1.1643
  662MPD2    H3 9802   3.634   2.533  17.027 -0.8330 -0.3489 -0.6686
  662MPD2     N 9803   3.238   2.772  17.055  0.1515  0.0474  0.7220
  662MPD2    H5 9804   3.139   2.758  17.034 -0.2664  2.7385  0.9773
  662MPD2    N1 9805   3.254   2.310  17.164  0.4092 -0.2903  0.4460
  662MPD2    H7 9806   3.153   2.322  17.166  0.3869 -0.6818  1.9441
  663TMC3    C1 9807   3.181   2.108  17.234  0.1213 -1.0736  0.1516
  663TMC3    C2 9808   3.062   2.175  17.229 -0.3868  0.6038  0.1642
  663TMC3    C3 9809   2.966   2.162  17.327 -0.8584  0.0126  0.0873
  663TMC3    C4 9810   3.213   2.044  17.350  0.1553  0.7046 -0.2573
  663TMC3    C5 9811   3.124   2.042  17.458 -0.0959 -0.3576 -0.0083
  663TMC3    C6 9812   2.996   2.088  17.444  0.0302 -0.0817 -0.0020
  663TMC3     C 9813   3.293   2.183  17.183  0.0131 -1.4419  0.4132
  663TMC3     O 9814   3.405   2.138  17.179  0.1714  0.3596  0.3057
  663TMC3     H 9815   3.035   2.217  17.133 -1.8877 -0.3493  0.1807
  663TMC3    H1 9816   3.315   2.012  17.367  0.0481  0.3315 -0.3194
  663TMC3    H2 9817   2.930   2.094  17.530  1.3181  0.5360  0.9455
  663TMC3    C7 9818   3.166   1.968  17.584 -0.2967  0.3119 -0.0342
  663TMC3    C8 9819   2.893   2.289  17.334  0.6796 -0.1543  0.1868
  663TMC3    O1 9820   3.285   1.954  17.603  0.3209  0.1192 -0.0670
  663TMC3    O2 9821   2.926   2.374  17.257  0.4756 -0.1575  0.4624
  664MPD2     C 9822   1.248   0.894  17.154  0.0588  0.0963 -0.9551
  664MPD2    C1 9823   1.333   0.957  17.250  0.6341 -0.1676 -0.3967
  664MPD2    C2 9824   1.324   0.925  17.382  0.1820 -0.8658 -0.1995
  664MPD2    C3 9825   1.229   0.832  17.421 -0.1118 -0.3879  0.4529
  664MPD2    C4 9826   1.149   0.776  17.327 -0.2049  0.4320  0.5521
  664MPD2    C5 9827   1.155   0.809  17.197  0.6393 -0.0870  0.3777
  664MPD2     H 9828   1.384   0.968  17.462  0.4977  0.0068 -0.9076
  664MPD2    H1 9829   1.078   0.698  17.355  0.5492 -0.8749 -1.1694
  664MPD2    H2 9830   1.249   0.915  17.048  1.3643 -0.4459 -1.0487
  664MPD2    H3 9831   1.083   0.768  17.128  1.4540 -0.7665 -0.0693
  664MPD2     N 9832   1.220   0.796  17.558  0.3471 -0.1158  0.4802
  664MPD2    H5 9833   1.293   0.838  17.615  0.3894 -0.2403  0.5186
  664MPD2    N1 9834   1.428   1.052  17.199  0.3039 -0.1315 -0.0208
  664MPD2    H7 9835   1.499   1.089  17.261  0.1797  5.4694 -3.1306
  665TMC3    C1 9836   1.131   0.731   0.072 -0.7137 -0.0521 -0.2296
  665TMC3    C2 9837   1.064   0.642   0.139  0.2306 -0.3744 -0.9603
  665TMC3    C3 9838   1.043   0.655   0.273  0.6017  0.5366 -0.1839
  665TMC3    C4 9839   1.161   0.855   0.129  0.7481  0.5003 -0.5616
  665TMC3    C5 9840   1.147   0.864   0.264  0.7086 -0.7920  0.3990
  665TMC3    C6 9841   1.093   0.764   0.336 -0.3795 -0.2915  0.2100
  665TMC3     C 9842   1.124   0.714  17.623  0.1552 -0.0732 -0.3360
  665TMC3     O 9843   1.031   0.656  17.568  0.3168  0.1405 -0.1748
  665TMC3     H 9844   1.029   0.558   0.079  0.9868 -1.9612  0.8173
  665TMC3    H1 9845   1.200   0.937   0.069  1.6600  0.5805  0.1421
  665TMC3    H2 9846   1.085   0.781   0.443 -3.2163  2.5530 -0.4655
  665TMC3    C7 9847   1.181   0.993   0.317  0.4974 -0.0914  0.4592
  665TMC3    C8 9848   0.927   0.586   0.343  0.0947 -0.2758 -0.2225
  665TMC3    O1 9849   1.174   1.090   0.241 -0.0296  0.0159 -0.5593
  665TMC3    O2 9850   0.897   0.643   0.448 -0.4540 -0.1315  0.1517
  666TMC3    C1 9851   0.972   1.331  10.298 -0.2094  0.5845  0.2955
  666TMC3    C2 9852   1.067   1.255  10.240 -0.4337  0.2105 -0.4970
  666TMC3    C3 9853   1.171   1.301  10.160  0.3572  1.0215  0.3217
  666TMC3    C4 9854   0.982   1.464  10.282  0.5509 -0.6666  0.6481
  666TMC3    C5 9855   1.079   1.515  10.194  0.3384  0.1620  0.2334
  666TMC3    C6 9856   1.176   1.435  10.138  0.4531 -0.3608  0.2910
  666TMC3     C 9857   0.905   1.283  10.414 -0.1643  0.5674 -0.7696
  666TMC3     O 9858   0.889   1.362  10.507  0.0220  0.4052 -0.6273
  666TMC3     H 9859   1.066   1.148  10.255  0.7559  0.2743  0.0309
  666TMC3    H1 9860   0.919   1.530  10.339  0.3208 -0.3910  0.0760
  666TMC3    H2 9861   1.251   1.481  10.076 -2.1898  2.4930 -0.7879
  666TMC3    C7 9862   1.087   1.661  10.203  0.2466 -0.4590 -0.2177
  666TMC3    C8 9863   1.286   1.206  10.142  0.2930  0.0595 -0.3638
  666TMC3    O1 9864   0.984   1.707  10.249  0.0842  0.6040  0.3502
  666TMC3    O2 9865   1.286   1.108  10.214 -0.1220  0.0214  1.1081
  667MPD2     C 9866   2.249   1.098  14.805 -0.3169 -0.2033 -0.1168
  667MPD2    C1 9867   2.311   1.060  14.922 -0.1726  0.2939 -0.3714
  667MPD2    C2 9868   2.298   0.929  14.966 -0.2032  0.1743 -0.6006
  667MPD2    C3 9869   2.223   0.840  14.904  0.0155  1.0900 -0.1758
  667MPD2    C4 9870   2.163   0.883  14.788 -0.2889 -0.2845 -0.9245
  667MPD2    C5 9871   2.170   1.010  14.737  0.1035  0.4883  0.6614
  667MPD2     H 9872   2.350   0.893  15.054  2.0436  0.7820 -1.6803
  667MPD2    H1 9873   2.100   0.816  14.729 -1.8998  1.0732 -0.7517
  667MPD2    H2 9874   2.266   1.199  14.769 -0.3019 -0.5987 -1.2071
  667MPD2    H3 9875   2.138   1.046  14.640  3.2459 -1.1573 -0.9824
  667MPD2     N 9876   2.200   0.705  14.944 -0.5511 -0.5641 -0.4205
  667MPD2    H5 9877   2.141   0.656  14.878  1.0151 -2.1462 -0.6597
  667MPD2    N1 9878   2.383   1.151  15.002  0.3741 -0.4206 -0.0143
  667MPD2    H7 9879   2.422   1.108  15.086 -0.2556 -1.1025 -0.0716
  668TMC3    C1 9880   2.544   1.313  15.030 -0.0280  0.4303  0.2179
  668TMC3    C2 9881   2.639   1.386  14.966 -0.6965 -0.4708 -0.1114
  668TMC3    C3 9882   2.719   1.451  15.060  0.0897 -0.4625  0.4010
  668TMC3    C4 9883   2.535   1.288  15.161  0.2279 -0.2264 -0.2101
  668TMC3    C5 9884   2.615   1.356  15.246  0.4337  0.0514  0.6586
  668TMC3    C6 9885   2.709   1.437  15.200 -0.3837 -0.1119 -0.0175
  668TMC3     C 9886   2.441   1.262  14.946 -0.4651 -0.3326  0.0295
  668TMC3     O 9887   2.457   1.302  14.831 -0.3450  0.4548 -0.2218
  668TMC3     H 9888   2.654   1.391  14.859  0.2086 -1.3127 -0.0190
  668TMC3    H1 9889   2.462   1.220  15.203 -0.0208  0.8099  1.0167
  668TMC3    H2 9890   2.765   1.504  15.266  0.7974  0.2001 -1.3243
  668TMC3    C7 9891   2.578   1.375  15.385  0.3070  0.2053  0.1043
  668TMC3    C8 9892   2.775   1.588  15.023 -0.0383  0.0868 -0.0567
  668TMC3    O1 9893   2.613   1.479  15.438  0.3278  0.3025  0.6518
  668TMC3    O2 9894   2.813   1.653  15.117  0.3318  0.3402  0.3921
  669TMC3    C1 9895   0.486   0.843  14.262 -0.1791 -0.4740 -0.6125
  669TMC3    C2 9896   0.382   0.859  14.172 -0.2433  0.0509  0.5927
  669TMC3    C3 9897   0.390   0.964  14.088 -1.0459  0.3099 -0.0750
  669TMC3    C4 9898   0.591   0.929  14.270  0.2534 -0.1527 -0.1874
  669TMC3    C5 9899   0.590   1.032  14.178 -0.5773 -0.5006 -0.3763
  669TMC3    C6 9900   0.498   1.047  14.080  0.7271 -0.5209  0.1108
  669TMC3     C 9901   0.474   0.731  14.345  0.6427 -0.1176  1.1436
  669TMC3     O 9902   0.368   0.670  14.350  0.1228  0.3383  0.2251
  669TMC3     H 9903   0.304   0.786  14.153  1.1971 -0.8392 -1.9523
  669TMC3    H1 9904   0.667   0.926  14.347  0.0849 -0.0556 -0.0157
  669TMC3    H2 9905   0.494   1.134  14.015 -0.8038 -2.3310 -2.2115
  669TMC3    C7 9906   0.709   1.123  14.175 -0.6427 -0.6901 -0.6929
  669TMC3    C8 9907   0.334   0.942  13.959  0.3091 -0.8976 -0.2334
  669TMC3    O1 9908   0.689   1.220  14.103 -0.2697 -1.1085 -0.2766
  669TMC3    O2 9909   0.415   0.936  13.867 -0.4183 -0.1342 -0.4758
  670MPD2     C 9910   3.915   3.985  13.308  0.6095 -0.1234  0.8021
  670MPD2    C1 9911   3.937   4.009  13.441  0.6642  0.2314 -0.3804
  670MPD2    C2 9912   3.873   3.933  13.537 -0.1066  0.5810  0.0254
  670MPD2    C3 9913   3.789   3.833  13.502  0.5041 -0.7583 -0.0760
  670MPD2    C4 9914   3.789   3.801  13.372  0.0216  0.2041  0.3198
  670MPD2    C5 9915   3.841   3.875  13.273  0.1968  0.1955  0.5396
  670MPD2     H 9916   3.885   3.962  13.641  2.9174  1.0588 -0.4566
  670MPD2    H1 9917   3.747   3.711  13.328 -0.2015  0.5241 -0.1252
  670MPD2    H2 9918   3.959   4.046  13.229  1.3893 -1.4018  0.2540
  670MPD2    H3 9919   3.836   3.846  13.169 -0.3941  1.9857  0.0704
  670MPD2     N 9920   3.739   3.747  13.610  0.7150 -0.5180  0.6483
  670MPD2    H5 9921   3.778   3.765  13.702  3.0839 -3.2547  0.1565
  670MPD2    N1 9922   4.018   4.109  13.493 -0.5719 -0.8343  0.4988
  670MPD2    H7 9923   4.038   4.110  13.592 -1.1638 -1.3896  0.6282
  671TMC3    C1 9924   3.611   3.563  13.704  0.5740 -0.5521 -0.3646
  671TMC3    C2 9925   3.639   3.588  13.837  1.0223 -0.1842 -0.8441
  671TMC3    C3 9926   3.564   3.516  13.932 -0.2143  0.1507  0.0380
  671TMC3    C4 9927   3.534   3.462  13.663  0.6838  0.9296 -0.6098
  671TMC3    C5 9928   3.458   3.396  13.754  0.3646 -0.9317  0.6704
  671TMC3    C6 9929   3.473   3.420  13.888 -0.4881 -0.3417 -0.2037
  671TMC3     C 9930   3.652   3.648  13.587 -0.3121 -0.0008 -0.1170
  671TMC3     O 9931   3.594   3.629  13.484 -0.5659  0.0749  0.1510
  671TMC3     H 9932   3.694   3.676  13.865  0.2804 -0.1549  0.4866
  671TMC3    H1 9933   3.526   3.434  13.558 -2.4881 -1.9217  0.3615
  671TMC3    H2 9934   3.410   3.385  13.969 -1.0053  0.6890 -0.1627
  671TMC3    C7 9935   3.350   3.308  13.709  0.6089  0.0497 -0.3087
  671TMC3    C8 9936   3.615   3.500  14.064  0.3596  0.2224 -0.4742
  671TMC3    O1 9937   3.370   3.270  13.594 -0.7338  0.3373 -0.0125
  671TMC3    O2 9938   3.640   3.597  14.131 -0.1243 -0.1200 -0.3510
  672MPD2     C 9939   3.937   3.353   0.691 -0.2710 -0.4117 -0.5641
  672MPD2    C1 9940   3.933   3.460   0.609 -0.2402 -0.2603 -0.1641
  672MPD2    C2 9941   3.961   3.586   0.659  0.7493 -0.0678 -0.0749
  672MPD2    C3 9942   4.001   3.601   0.787  0.2879  0.4250  0.3509
  672MPD2    C4 9943   4.022   3.488   0.865  0.9223  0.1250 -0.4042
  672MPD2    C5 9944   3.990   3.370   0.814 -0.6965  0.0159 -0.1738
  672MPD2     H 9945   3.949   3.675   0.599  1.0662 -0.2248 -0.3731
  672MPD2    H1 9946   4.066   3.505   0.962 -1.0456  0.5467  0.4175
  672MPD2    H2 9947   3.914   3.255   0.653  0.5390  0.2009 -2.6565
  672MPD2    H3 9948   4.026   3.281   0.865 -0.3447 -0.8107 -1.8567
  672MPD2     N 9949   4.039   3.725   0.845 -0.1916 -0.2016 -0.3604
  672MPD2    H5 9950   4.079   3.730   0.938 -0.2465  0.9391 -0.3962
  672MPD2    N1 9951   3.883   3.435   0.482  0.1607 -0.1497 -0.3697
  672MPD2    H7 9952   3.852   3.339   0.472  1.2889 -0.3622 -1.6545
  673TMC3    C1 9953   3.878   3.469   0.243  0.1528  0.7334  0.6576
  673TMC3    C2 9954   3.955   3.354   0.226  0.4955  0.2433  0.3325
  673TMC3    C3 9955   4.012   3.340   0.106  0.8687 -0.2350  0.4694
  673TMC3    C4 9956   3.848   3.557   0.144  0.1295 -0.0322  0.4881
  673TMC3    C5 9957   3.908   3.532   0.018 -0.3667  0.1951  0.0330
  673TMC3    C6 9958   3.985   3.423   0.001  0.0922  0.1616  0.4891
  673TMC3     C 9959   3.878   3.526   0.377  0.1647  0.5560  0.8520
  673TMC3     O 9960   3.889   3.649   0.385  0.2231  0.7277 -0.7644
  673TMC3     H 9961   3.977   3.277   0.299  1.0075 -0.3894 -0.4861
  673TMC3    H1 9962   3.787   3.645   0.161 -0.7088 -0.0360 -2.6040
  673TMC3    H2 9963   4.039   3.403  17.606  1.3318  0.1340  1.2222
  673TMC3    C7 9964   3.888   3.608  17.599  0.8069 -0.3618  0.3243
  673TMC3    C8 9965   4.115   3.237   0.083  0.4992  0.0257  0.1950
  673TMC3    O1 9966   3.881   3.538  17.498  0.4247  0.1095 -0.3864
  673TMC3    O2 9967   4.100   3.168  17.681 -0.7881  1.0011 -0.1435
  674MPD2     C 9968   3.500   3.278  17.128  0.0826  0.6411 -0.1133
  674MPD2    C1 9969   3.574   3.256  17.245 -0.5804  0.2022 -0.3478
  674MPD2    C2 9970   3.585   3.366  17.332  0.3861 -0.0672  0.8707
  674MPD2    C3 9971   3.511   3.487  17.319 -0.8672 -0.0087 -0.6610
  674MPD2    C4 9972   3.428   3.496  17.205 -0.1813 -0.5770  0.6145
  674MPD2    C5 9973   3.433   3.392  17.107  0.3539  0.5706 -0.1878
  674MPD2     H 9974   3.660   3.365  17.411  0.2839  3.5789  1.0253
  674MPD2    H1 9975   3.367   3.584  17.188 -0.4573 -0.5623  1.6925
  674MPD2    H2 9976   3.470   3.196  17.063 -0.4861 -0.6047  1.7267
  674MPD2    H3 9977   3.378   3.409  17.015 -1.5652 -0.2519  0.8214
  674MPD2     N 9978   3.505   3.577  17.434 -0.1828 -0.5190  0.6860
  674MPD2    H5 9979   3.555   3.548  17.517 -0.8090  2.1177  2.0084
  674MPD2    N1 9980   3.631   3.129  17.269 -0.3257 -0.3996  0.0877
  674MPD2    H7 9981   3.611   3.049  17.211 -1.6739  1.4037 -1.9372
  675TMC3    C1 9982   3.702   2.954  17.414  0.7434  0.4262  0.7892
  675TMC3    C2 9983   3.617   2.870  17.343 -0.5682 -0.3582  0.1981
  675TMC3    C3 9984   3.566   2.758  17.402 -0.4505  0.5290  0.1192
  675TMC3    C4 9985   3.755   2.926  17.532  0.7394  1.0345 -0.1498
  675TMC3    C5 9986   3.697   2.816  17.585 -0.0459  0.9480  0.5436
  675TMC3    C6 9987   3.602   2.740  17.529 -0.6025  0.1709  0.3763
  675TMC3     C 9988   3.692   3.096  17.386 -1.0167  0.2316  0.3183
  675TMC3     O 9989   3.753   3.171  17.465  0.2872  0.8827  0.7286
  675TMC3     H 9990   3.586   2.888  17.241 -0.0211  0.1248  0.1172
  675TMC3    H1 9991   3.828   2.988  17.581  2.1179 -0.2573 -0.5505
  675TMC3    H2 9992   3.551   2.660  17.581  0.1940  1.7396  3.6134
  675TMC3    C7 9993   3.724   2.773   0.020  0.9874  0.4836  0.2162
  675TMC3    C8 9994   3.423   2.773  17.388 -0.3347 -0.5947 -0.1672
  675TMC3    O1 9995   3.658   2.677   0.063  0.2795  0.3093  0.5732
  675TMC3    O2 9996   3.387   2.891  17.386 -0.3659 -0.0710  0.1190
  676MPD2     C 9997   1.906   2.194  10.688 -0.8672  0.6188 -0.5615
  676MPD2    C1 9998   1.836   2.119  10.779  0.1712 -0.0546 -0.2672
  676MPD2    C2 9999   1.887   1.986  10.804  0.2722 -0.2835  0.5808
  676MPD2    C310000   1.989   1.932  10.731 -0.2280  0.8212  0.3495
  676MPD2    C410001   2.058   2.013  10.644  0.1001 -0.6022 -0.0256
  676MPD2    C510002   2.018   2.139  10.621  0.2251 -0.6617  0.3434
  676MPD2     H10003   1.830   1.926  10.874  2.2025  0.1033  2.4706
  676MPD2    H110004   2.141   1.975  10.585  0.2597  0.7536 -0.6895
  676MPD2    H210005   1.877   2.297  10.669 -2.5548  0.0350 -1.1749
  676MPD2    H310006   2.066   2.190  10.538 -1.6198 -1.2727 -1.0950
  676MPD2     N10007   2.018   1.789  10.737 -0.1077 -0.0231  0.2153
  676MPD2    H510008   2.103   1.757  10.692 -1.2598 -1.2405 -1.1006
  676MPD2    N110009   1.718   2.171  10.843  0.0138 -0.4753 -0.2642
  676MPD2    H710010   1.684   2.111  10.918 -0.3118  0.7812  0.5960
  677TMC3    C110011   1.570   2.316  10.935 -0.5558 -0.1814 -0.1666
  677TMC3    C210012   1.588   2.239  11.046 -0.1702 -0.1047  0.6626
  677TMC3    C310013   1.543   2.300  11.160 -0.2380  0.6038 -0.1125
  677TMC3    C410014   1.532   2.449  10.937 -0.0058 -0.0860  0.3730
  677TMC3    C510015   1.511   2.515  11.058 -0.3699 -0.0945  0.1153
  677TMC3    C610016   1.510   2.436  11.170 -0.0514  0.8482  0.1518
  677TMC3     C10017   1.654   2.286  10.819 -0.2379  0.4300 -0.1505
  677TMC3     O10018   1.651   2.361  10.726  0.5481 -0.7625 -0.2703
  677TMC3     H10019   1.618   2.135  11.057 -0.1742 -0.3937 -2.0060
  677TMC3    H110020   1.539   2.511  10.848 -0.9413  0.5517  0.7428
  677TMC3    H210021   1.500   2.480  11.269  1.2970 -0.2389  0.7802
  677TMC3    C710022   1.547   2.654  11.068  0.3850 -0.3451  0.5038
  677TMC3    C810023   1.561   2.219  11.279 -0.2315  0.0195  0.4513
  677TMC3    O110024   1.483   2.721  11.151 -0.1896 -0.2459 -0.5782
  677TMC3    O210025   1.640   2.126  11.277  0.9780  0.1305  0.9227
  678MPD2     C10026   2.307   1.482   1.285  0.2612 -0.4321 -0.1488
  678MPD2    C110027   2.260   1.486   1.156 -1.2633 -0.3494 -0.2998
  678MPD2    C210028   2.134   1.536   1.134 -0.1085 -0.0966  0.1004
  678MPD2    C310029   2.060   1.580   1.234  0.3632 -0.6231  0.5617
  678MPD2    C410030   2.099   1.577   1.369 -0.0853  0.2745 -0.4765
  678MPD2    C510031   2.225   1.518   1.396  0.0742  0.4334  0.6010
  678MPD2     H10032   2.093   1.558   1.035 -2.2286 -0.8158  0.8150
  678MPD2    H110033   2.038   1.619   1.448  1.7698  0.0187  1.0828
  678MPD2    H210034   2.402   1.433   1.303  1.0659  0.6952 -1.3013
  678MPD2    H310035   2.259   1.513   1.499 -0.3207  0.6160  0.7385
  678MPD2     N10036   1.936   1.633   1.201 -0.0796 -0.2553 -0.3444
  678MPD2    H510037   1.900   1.621   1.106  1.1730 -2.4313 -0.5440
  678MPD2    N110038   2.333   1.445   1.043  0.2273 -0.0809  0.0848
  678MPD2    H710039   2.286   1.458   0.954  1.2155  0.7987 -0.3133
  679TMC3    C110040   2.705   1.307   0.801  0.5483  0.6384  0.5920
  679TMC3    C210041   2.612   1.283   0.903  0.3979  0.5500 -0.3821
  679TMC3    C310042   2.516   1.380   0.916  0.0763  0.5098  0.0465
  679TMC3    C410043   2.685   1.405   0.704 -0.1876  0.1479 -0.4337
  679TMC3    C510044   2.581   1.493   0.725  0.2064 -0.9056 -0.1576
  679TMC3    C610045   2.502   1.484   0.831 -0.1102  0.1863 -0.2583
  679TMC3     C10046   2.815   1.216   0.788 -0.8896 -0.4599 -0.1694
  679TMC3     O10047   2.903   1.243   0.706 -0.0424  0.4044 -0.2892
  679TMC3     H10048   2.623   1.203   0.976 -1.6314 -0.2032 -0.9121
  679TMC3    H110049   2.756   1.426   0.625 -0.8051 -0.5094 -1.1591
  679TMC3    H210050   2.419   1.551   0.847 -0.3558 -0.2700  0.3649
  679TMC3    C710051   2.560   1.616   0.647 -0.3991  0.6433  0.2990
  679TMC3    C810052   2.458   1.390   1.051 -0.4168 -0.7501  0.1536
  679TMC3    O110053   2.501   1.706   0.704  0.1096 -0.0471 -0.3247
  679TMC3    O210054   2.516   1.337   1.143 -0.1363 -0.5635  0.1491
  680MPD2     C10055   4.301   0.850  13.560  0.2077  0.2303 -0.3479
  680MPD2    C110056   4.180   0.823  13.610 -0.6495 -0.2364 -0.4479
  680MPD2    C210057   4.109   0.917  13.685  0.0060  0.7916 -0.2781
  680MPD2    C310058   4.165   1.044  13.698  0.0257 -0.8906  0.1654
  680MPD2    C410059   4.287   1.077  13.637  0.3233  0.3425 -0.0117
  680MPD2    C510060   4.355   0.977  13.572 -0.5216 -0.5218  0.0404
  680MPD2     H10061   4.021   0.886  13.741 -0.3500  2.1586 -0.1015
  680MPD2    H110062   4.329   1.176  13.648  1.2091  0.0424 -0.7407
  680MPD2    H210063   4.357   0.779  13.500  0.7183  2.1735 -2.1593
  680MPD2    H310064   4.449   0.992  13.520  0.7898 -1.4443  2.1581
  680MPD2     N10065   4.097   1.142  13.769 -0.3583 -0.2766  0.0646
  680MPD2    H510066   4.106   1.240  13.746  1.3738 -0.8303 -1.5566
  680MPD2    N110067   4.105   0.697  13.589  0.3615 -0.7917  0.3314
  680MPD2    H710068   4.006   0.692  13.609  0.5259 -0.1563  1.2963
  681TMC3    C110069   4.066   0.466  13.505 -0.2190  1.0887  0.0986
  681TMC3    C210070   3.989   0.441  13.614 -0.3214 -0.5870 -0.3422
  681TMC3    C310071   3.897   0.334  13.598  0.1783 -0.8839 -1.5824
  681TMC3    C410072   4.063   0.390  13.387  0.0116  0.3993  0.3587
  681TMC3    C510073   3.975   0.285  13.382  0.8701  0.1542 -0.4921
  681TMC3    C610074   3.891   0.253  13.487 -0.0290 -0.5464 -0.4699
  681TMC3     C10075   4.155   0.587  13.510 -0.0872 -0.0630  0.3402
  681TMC3     O10076   4.251   0.586  13.436  0.3388  0.2337 -0.5118
  681TMC3     H10077   4.006   0.499  13.703  0.6666  0.1684 -1.0200
  681TMC3    H110078   4.126   0.424  13.306  0.9511  1.7208  1.6626
  681TMC3    H210079   3.822   0.169  13.490 -2.0996  1.1501 -1.3199
  681TMC3    C710080   3.939   0.221  13.253  0.1440 -0.4323 -0.2848
  681TMC3    C810081   3.795   0.302  13.697  0.4378 -0.3280  0.2962
  681TMC3    O110082   3.826   0.168  13.250  0.3590  0.1174 -0.6524
  681TMC3    O210083   3.718   0.211  13.681 -0.4373  0.0692 -0.2627
  682MPD2     C10084   1.133   2.574  10.981  0.1935  0.4477 -0.2203
  682MPD2    C110085   1.087   2.451  10.952 -0.1311  0.1045 -0.1127
  682MPD2    C210086   1.063   2.349  11.048 -1.0219  0.7923  0.3218
  682MPD2    C310087   1.088   2.392  11.179 -0.0644 -0.0699  0.4312
  682MPD2    C410088   1.143   2.517  11.205 -0.4056 -1.0341  0.9815
  682MPD2    C510089   1.176   2.604  11.104  0.6195 -0.8021 -0.8943
  682MPD2     H10090   1.032   2.247  11.027  2.3274  0.0231 -0.9823
  682MPD2    H110091   1.169   2.545  11.307 -0.0813 -0.0564  0.6306
  682MPD2    H210092   1.156   2.654  10.912 -0.4302 -0.6713 -1.7282
  682MPD2    H310093   1.227   2.695  11.133  0.1330 -0.9117  0.3200
  682MPD2     N10094   1.070   2.303  11.291 -0.0029 -0.9550 -0.2283
  682MPD2    H510095   1.105   2.321  11.385  2.9109 -0.9301 -1.3220
  682MPD2    N110096   1.045   2.415  10.825  0.6432  0.1491 -0.1668
  682MPD2    H710097   0.985   2.334  10.828  0.8331  0.0588  1.4769
  683TMC3    C110098   1.064   2.051  11.618 -0.2972 -0.6928  0.2169
  683TMC3    C210099   1.055   1.910  11.588 -0.4281 -0.0447 -0.5942
  683TMC3    C310100   1.040   1.874  11.455 -0.1542  0.3922 -0.3156
  683TMC3    C410101   1.041   2.144  11.523 -0.0042  0.0592 -0.1967
  683TMC3    C510102   1.003   2.100  11.399  0.6721 -0.0871 -0.7086
  683TMC3    C610103   1.006   1.968  11.365  0.0122  1.0795 -0.1188
  683TMC3     C10104   1.073   2.098  11.753  0.7645 -0.4236 -1.1939
  683TMC3     O10105   1.068   2.219  11.767 -0.2284  0.2479  0.0414
  683TMC3     H10106   1.044   1.843  11.673  1.7148 -0.4674 -0.6613
  683TMC3    H110107   1.043   2.250  11.546 -0.0909  0.4304 -1.9390
  683TMC3    H210108   0.996   1.925  11.267 -1.2228  0.9357  0.0670
  683TMC3    C710109   0.987   2.193  11.290 -0.0161 -0.4787  0.3705
  683TMC3    C810110   1.070   1.738  11.406 -0.0715 -0.2370  0.2345
  683TMC3    O110111   0.927   2.152  11.191 -0.3374 -0.3087  0.2911
  683TMC3    O210112   1.036   1.708  11.293  0.0781 -0.2337  0.2626
  684MPD2     C10113   3.558   1.280  16.472 -0.1735 -0.2212 -0.5116
  684MPD2    C110114   3.486   1.347  16.370 -0.4133  1.0957  0.2546
  684MPD2    C210115   3.397   1.444  16.400  0.2444 -0.0327 -0.1733
  684MPD2    C310116   3.380   1.482  16.535 -1.0018  0.1801 -0.3430
  684MPD2    C410117   3.435   1.402  16.633 -0.0405 -0.1584 -0.1026
  684MPD2    C510118   3.519   1.295  16.601  0.4726 -1.2608 -0.4200
  684MPD2     H10119   3.364   1.507  16.318  0.2538 -1.5502 -1.3547
  684MPD2    H110120   3.397   1.414  16.734 -0.4422 -1.2223 -0.1287
  684MPD2    H210121   3.639   1.213  16.446 -0.4998  0.5774 -3.5948
  684MPD2    H310122   3.553   1.231  16.682 -1.3809 -0.4811  0.9745
  684MPD2     N10123   3.298   1.591  16.576 -0.0811  0.3252  0.3562
  684MPD2    H510124   3.296   1.610  16.676  0.0670  1.2278  0.1899
  684MPD2    N110125   3.521   1.325  16.234  0.4807 -0.4688  0.6559
  684MPD2    H710126   3.480   1.392  16.170 -1.2270 -2.6953 -0.5775
  685TMC3    C110127   3.647   1.266  16.042  0.3715  0.4471  0.2312
  685TMC3    C210128   3.557   1.332  15.962  0.0279 -0.1980  0.2991
  685TMC3    C310129   3.589   1.373  15.838 -0.8451  0.4975  0.2171
  685TMC3    C410130   3.774   1.239  15.991  0.0229 -0.0680  0.6662
  685TMC3    C510131   3.806   1.283  15.862  0.3738  0.4186 -0.4976
  685TMC3    C610132   3.715   1.360  15.789 -0.4229 -0.6671  0.6256
  685TMC3     C10133   3.624   1.247  16.185  0.3624 -0.0243 -1.0814
  685TMC3     O10134   3.713   1.190  16.245  0.1889 -0.2485  0.0637
  685TMC3     H10135   3.457   1.340  16.003 -0.1988 -0.7048 -0.1456
  685TMC3    H110136   3.828   1.155  16.033 -0.7407 -1.1750 -0.5948
  685TMC3    H210137   3.739   1.408  15.695  0.7423 -1.7577  0.3691
  685TMC3    C710138   3.948   1.305  15.847 -0.0238  0.0752 -0.2567
  685TMC3    C810139   3.503   1.474  15.768 -0.3354 -0.2175 -0.2475
  685TMC3    O110140   3.992   1.348  15.740  0.6762  0.1982  0.0176
  685TMC3    O210141   3.555   1.571  15.710  0.3381  0.5285  0.2618
  686MPD2     C10142   4.466   1.044  15.093 -0.4124  0.6852 -0.1968
  686MPD2    C110143   4.576   1.057  15.174 -0.1923 -0.1205  0.1348
  686MPD2    C210144   4.679   0.970  15.158 -0.1196  0.1431  0.0843
  686MPD2    C310145   4.659   0.862  15.076 -0.6434  0.8488  1.1654
  686MPD2    C410146   4.555   0.851  14.990  0.0453  0.2270  0.0997
  686MPD2    C510147   4.458   0.945  15.000  0.4874 -0.1365  0.0934
  686MPD2     H10148   0.043   0.967  15.222 -1.0271  0.3500  1.3458
  686MPD2    H110149   4.544   0.768  14.922 -1.2874  0.8390 -0.4290
  686MPD2    H210150   4.373   1.099  15.103  0.5356  2.4255 -0.9340
  686MPD2    H310151   4.374   0.952  14.932  0.7355  0.8764 -0.0986
  686MPD2     N10152   0.031   0.758  15.072  0.5122 -0.0046  0.4951
  686MPD2    H510153   0.032   0.707  14.984 -1.1002 -0.4735  0.7534
  686MPD2    N110154   4.583   1.153  15.272  0.1738  0.5130  0.0964
  686MPD2    H710155   4.493   1.200  15.276  0.0775  0.4506 -1.0895
  687TMC3    C110156   0.073   0.725  15.318  0.0998  0.3732  0.0865
  687TMC3    C210157   4.668   0.724  15.365 -0.0858  0.2152  0.1632
  687TMC3    C310158   4.646   0.717  15.497  0.1950  0.5762  0.3199
  687TMC3    C410159   0.173   0.732  15.410 -0.0593  0.3347  0.9695
  687TMC3    C510160   0.145   0.734  15.542 -0.0732 -0.4335 -0.2023
  687TMC3    C610161   0.019   0.731  15.589 -0.5013 -0.0118 -0.1460
  687TMC3     C10162   0.113   0.715  15.173  0.1528 -0.0460 -0.9180
  687TMC3     O10163   0.215   0.643  15.157  0.3424  0.0342 -0.6117
  687TMC3     H10164   4.582   0.725  15.299 -0.8519 -0.7200  1.1394
  687TMC3    H110165   0.277   0.738  15.380 -0.4734  0.6111 -0.4195
  687TMC3    H210166   4.721   0.731  15.695 -1.1692 -1.5790 -0.2884
  687TMC3    C710167   0.243   0.773  15.634  0.0681  0.2024  0.2668
  687TMC3    C810168   4.517   0.737  15.552 -0.6780  0.6433 -0.0718
  687TMC3    O110169   0.234   0.884  15.689 -0.6924  0.5751 -0.4422
  687TMC3    O210170   4.496   0.698  15.665  0.0935 -0.0267 -0.0442
  688MPD2     C10171   4.117   0.519  17.030  0.3120 -0.5629  0.1329
  688MPD2    C110172   4.106   0.383  17.048  0.2179 -0.4056  0.7155
  688MPD2    C210173   4.208   0.303  17.011 -0.0558  0.1091 -0.8960
  688MPD2    C310174   4.323   0.356  16.954 -0.0363 -0.1902  0.2496
  688MPD2    C410175   4.329   0.490  16.939  0.3884 -0.3454 -0.3725
  688MPD2    C510176   4.229   0.577  16.983 -0.3319 -0.0304  0.5063
  688MPD2     H10177   4.205   0.196  17.029  1.8355  0.4689  1.6852
  688MPD2    H110178   4.410   0.537  16.883 -0.4006  0.9436 -0.4423
  688MPD2    H210179   4.038   0.582  17.069  0.6373 -0.4399  0.6015
  688MPD2    H310180   4.234   0.685  16.971  1.3264 -0.0319  1.1042
  688MPD2     N10181   4.438   0.271  16.924  0.4280 -0.2022 -0.5341
  688MPD2    H510182   4.524   0.321  16.903  0.3089 -0.5595 -1.8914
  688MPD2    N110183   3.996   0.318  17.102 -0.2038  0.5079  0.2070
  688MPD2    H710184   4.003   0.217  17.110  1.7483  0.6682  0.5362
  689TMC3    C110185   3.786   0.281  17.199 -0.0379  0.3829  0.0517
  689TMC3    C210186   3.725   0.326  17.313  0.1973 -1.1605 -0.7066
  689TMC3    C310187   3.670   0.227  17.391 -0.6150 -0.5142 -0.0157
  689TMC3    C410188   3.796   0.146  17.168 -0.5297  0.2104 -0.7822
  689TMC3    C510189   3.726   0.055  17.244 -0.0920 -0.7075  0.0611
  689TMC3    C610190   3.669   0.090  17.359  0.0669 -0.1522  0.6309
  689TMC3     C10191   3.883   0.379  17.156 -0.2622 -0.0778  0.9190
  689TMC3     O10192   3.857   0.497  17.157  0.0677  0.2411  0.2820
  689TMC3     H10193   3.717   0.431  17.340 -0.5332 -1.0994 -1.1683
  689TMC3    H110194   3.846   0.110  17.079  2.1177 -1.3008  1.3144
  689TMC3    H210195   3.622   0.011  17.414 -1.0324  0.8758  1.1560
  689TMC3    C710196   3.776   4.636  17.249  0.3700 -0.5310  0.4707
  689TMC3    C810197   3.643   0.243  17.535  0.2581  0.3005  0.4426
  689TMC3    O110198   3.895   4.620  17.234 -0.6279 -0.0576  0.0408
  689TMC3    O210199   3.608   0.144  17.599 -0.2432  0.4173  0.0781
  690MPD2     C10200   0.815   2.285  15.301 -0.6046  0.3149 -0.4804
  690MPD2    C110201   0.876   2.168  15.335  0.7433  0.1169  0.3845
  690MPD2    C210202   0.992   2.126  15.265  0.6129 -0.7942 -1.1113
  690MPD2    C310203   1.058   2.208  15.181 -0.7552 -0.0490 -0.4276
  690MPD2    C410204   0.997   2.336  15.153  0.5228  0.1980  0.0336
  690MPD2    C510205   0.881   2.366  15.213  0.3797 -0.5978  0.1484
  690MPD2     H10206   1.031   2.028  15.291 -0.1743 -1.3408 -1.9856
  690MPD2    H110207   1.037   2.407  15.081 -1.6198  0.8267 -0.5385
  690MPD2    H210208   0.718   2.315  15.338  1.2297  4.2883  1.1020
  690MPD2    H310209   0.825   2.447  15.168 -0.4758 -0.5184  1.3574
  690MPD2     N10210   1.179   2.161  15.115  0.0843 -0.0455 -0.1353
  690MPD2    H510211   1.229   2.078  15.145 -0.5582 -1.0464 -1.8617
  690MPD2    N110212   0.823   2.075  15.431  0.4663 -0.2491 -0.0156
  690MPD2    H710213   0.862   1.982  15.421 -1.8006 -1.0079 -1.7735
  691TMC3    C110214   0.693   1.970  15.602  0.2051 -0.7907  0.2400
  691TMC3    C210215   0.581   1.980  15.679  0.9414 -0.7365  0.2375
  691TMC3    C310216   0.552   1.880  15.772 -0.4624  0.3478 -0.1454
  691TMC3    C410217   0.780   1.869  15.617  0.2135  0.3162 -0.7845
  691TMC3    C510218   0.745   1.772  15.713 -0.6912  0.0622 -0.1807
  691TMC3    C610219   0.622   1.765  15.778 -0.0165  0.3645  0.3502
  691TMC3     C10220   0.723   2.092  15.526 -0.4766  0.5221 -0.0778
  691TMC3     O10221   0.651   2.191  15.551  0.2680 -0.4654  0.0224
  691TMC3     H10222   0.506   2.058  15.669  1.2240 -0.3589  1.0620
  691TMC3    H110223   0.875   1.864  15.567  0.9917  1.4882  0.5651
  691TMC3    H210224   0.596   1.690  15.852 -0.4396  2.5652  2.4657
  691TMC3    C710225   0.848   1.671  15.738  0.4958  0.4287 -0.1578
  691TMC3    C810226   0.439   1.891  15.862 -0.2205 -0.2620  0.0926
  691TMC3    O110227   0.964   1.717  15.736  0.2285  0.3766 -0.1112
  691TMC3    O210228   0.402   1.787  15.916 -0.1304  0.0848  0.1972
  692TMC3    C110229   3.128   2.788  15.734  0.4835  0.3711 -0.0763
  692TMC3    C210230   3.251   2.788  15.793 -0.2816 -0.3557  0.5946
  692TMC3    C310231   3.274   2.699  15.895 -0.8198 -0.3013 -0.5871
  692TMC3    C410232   3.044   2.678  15.738 -0.0525  0.1281  0.2093
  692TMC3    C510233   3.062   2.592  15.842  0.6038 -0.3671  0.1152
  692TMC3    C610234   3.179   2.603  15.917 -0.2045  0.9197  0.1084
  692TMC3     C10235   3.067   2.918  15.704  0.9784 -0.0783  0.3791
  692TMC3     O10236   2.956   2.918  15.648  0.3198 -0.1634  0.5144
  692TMC3     H10237   3.322   2.870  15.781 -1.5191  0.8153  1.2308
  692TMC3    H110238   2.961   2.678  15.668  0.1750  0.6945 -0.0604
  692TMC3    H210239   3.193   2.545  16.008 -0.9088 -1.7379 -1.4765
  692TMC3    C710240   2.954   2.497  15.858  0.1892 -0.3802  0.1994
  692TMC3    C810241   3.320   2.759  16.017 -0.9990  0.0110  0.0032
  692TMC3    O110242   2.871   2.484  15.772 -0.2144  0.9538 -0.6448
  692TMC3    O210243   3.424   2.729  16.073  0.7891 -0.2745  0.2679
  693MPD2     C10244   3.152   0.938  11.011  0.2605  0.1465  0.1218
  693MPD2    C110245   3.149   0.847  10.912  0.3622 -0.4395 -0.1154
  693MPD2    C210246   3.268   0.791  10.862  0.0529  0.0455  0.5081
  693MPD2    C310247   3.390   0.844  10.904 -0.2911 -0.4124  0.6136
  693MPD2    C410248   3.392   0.950  10.990  0.0436 -0.8536 -0.3136
  693MPD2    C510249   3.272   0.995  11.041 -0.6705  0.1685  0.3772
  693MPD2     H10250   3.269   0.709  10.792 -0.4379 -0.8337  1.5215
  693MPD2    H110251   3.482   0.999  11.025 -0.8651  1.0688 -0.7073
  693MPD2    H210252   3.062   0.986  11.048 -1.0915 -1.3880 -1.1934
  693MPD2    H310253   3.274   1.071  11.119  1.4407 -0.3171  0.7757
  693MPD2     N10254   3.520   0.801  10.868 -0.1792  0.6339  0.3291
  693MPD2    H510255   3.594   0.841  10.925 -0.2892 -0.1989  1.0618
  693MPD2    N110256   3.023   0.791  10.878 -0.4878 -0.3029 -0.1299
  693MPD2    H710257   2.939   0.815  10.929 -1.0545 -0.8241 -0.8264
  694TMC3    C110258   2.883   0.612  10.814 -0.5059 -0.3751  0.4249
  694TMC3    C210259   2.806   0.571  10.711 -0.1242 -0.2184 -0.4457
  694TMC3    C310260   2.686   0.504  10.740  0.3650 -0.2319 -0.0398
  694TMC3    C410261   2.849   0.584  10.944  0.2991 -0.2475 -0.4123
  694TMC3    C510262   2.728   0.527  10.969 -0.3267  0.0774 -0.0142
  694TMC3    C610263   2.649   0.473  10.873  0.0824  1.1315 -0.7187
  694TMC3     C10264   3.002   0.695  10.785  0.1693 -0.1766  0.3156
  694TMC3     O10265   3.070   0.676  10.686  0.1066 -0.0420  0.0023
  694TMC3     H10266   2.841   0.598  10.612 -0.0123  3.3738  0.6001
  694TMC3    H110267   2.905   0.618  11.030 -0.4916  0.4805 -0.1784
  694TMC3    H210268   2.555   0.421  10.888  0.3623  1.0446  0.6974
  694TMC3    C710269   2.724   0.474  11.102  0.3086 -1.0860  0.1187
  694TMC3    C810270   2.606   0.451  10.629 -0.0519  0.1738 -0.2986
  694TMC3    O110271   2.776   0.538  11.189 -0.9596  0.1708  0.3188
  694TMC3    O210272   2.531   0.356  10.648 -0.0066  0.1645 -0.0091
  695MPD2     C10273   3.631   2.390  13.699  0.7171  0.1919 -0.5007
  695MPD2    C110274   3.588   2.507  13.764  0.1639 -1.0444  0.1512
  695MPD2    C210275   3.497   2.593  13.694 -0.1812 -0.5988  0.3907
  695MPD2    C310276   3.465   2.573  13.558  0.1786 -1.1149 -0.4410
  695MPD2    C410277   3.530   2.463  13.497 -0.2129 -0.1250 -0.2725
  695MPD2    C510278   3.602   2.368  13.569 -0.1952  0.3343 -0.5593
  695MPD2     H10279   3.436   2.663  13.750 -0.6232 -0.3613 -0.3865
  695MPD2    H110280   3.509   2.434  13.394  1.1972  1.8964 -1.1227
  695MPD2    H210281   3.675   2.313  13.761 -2.4759  0.4787  2.1351
  695MPD2    H310282   3.637   2.282  13.513  1.5188 -0.6356  2.0051
  695MPD2     N10283   3.379   2.673  13.492  0.1070  0.5690 -0.6138
  695MPD2    H510284   3.340   2.743  13.554  0.6811 -0.1846  0.5967
  695MPD2    N110285   3.624   2.542  13.898  0.0413  0.1336 -0.2856
  695MPD2    H710286   3.569   2.613  13.945  0.4709  0.2155  0.1024
  696TMC3    C110287   3.247   2.765  13.317  0.5522  0.3142 -0.0541
  696TMC3    C210288   3.132   2.786  13.385  0.0741 -0.0027 -0.1208
  696TMC3    C310289   3.055   2.887  13.338 -0.0656  0.4445  0.0780
  696TMC3    C410290   3.280   2.826  13.198  0.5719  0.3063  0.1333
  696TMC3    C510291   3.193   2.917  13.150 -0.4516  0.4026  0.3747
  696TMC3    C610292   3.077   2.948  13.218  0.5897 -0.0830  0.2813
  696TMC3     C10293   3.345   2.667  13.360 -0.1795  0.9850 -0.0631
  696TMC3     O10294   3.403   2.604  13.273  0.2718 -0.9847 -0.5041
  696TMC3     H10295   3.128   2.743  13.485 -0.4497  2.7302  1.0179
  696TMC3    H110296   3.365   2.797  13.137  1.7539  1.5996  1.1492
  696TMC3    H210297   3.010   3.020  13.173  2.3959  2.1450  1.1288
  696TMC3    C710298   3.250   3.037  13.100  1.1164 -0.3322  0.5166
  696TMC3    C810299   3.026   2.992  13.438 -0.8469 -0.1876 -0.2659
  696TMC3    O110300   3.326   3.028  13.003 -0.1393  0.1347 -0.2805
  696TMC3    O210301   3.028   3.108  13.396  0.0461 -0.5074  0.7139
  697MPD2     C10302   2.839   4.708  15.916  0.7968  0.2990 -0.1266
  697MPD2    C110303   2.901   4.662  15.799 -0.3689  0.7387  0.1515
  697MPD2    C210304   2.963   0.038  15.723 -0.8528  0.2589  0.0060
  697MPD2    C310305   2.964   0.170  15.762 -0.2307  0.8340 -0.2352
  697MPD2    C410306   2.902   0.214  15.877  0.5949 -0.2264  0.0541
  697MPD2    C510307   2.835   0.118  15.944 -0.3215  0.6215 -0.2607
  697MPD2     H10308   3.004   0.016  15.625 -1.1647 -0.2557 -0.0135
  697MPD2    H110309   2.899   0.321  15.897  2.8063 -0.2927  0.7106
  697MPD2    H210310   2.789   4.649  15.991  0.5436  0.7867  0.0860
  697MPD2    H310311   2.779   0.144  16.034  0.1283 -2.6115  0.9453
  697MPD2     N10312   3.025   0.258  15.668  0.5293 -0.3434 -0.0100
  697MPD2    H510313   3.072   0.214  15.589  1.2294  3.0662 -1.5122
  697MPD2    N110314   2.895   4.527  15.746 -0.4330 -0.3005  0.4757
  697MPD2    H710315   2.929   4.516  15.651 -1.3157 -1.0614  0.2395
  698TMC3    C110316   3.124   0.461  15.578  0.1567  1.0561 -0.8684
  698TMC3    C210317   3.155   0.592  15.589 -0.7613 -1.1615 -0.2536
  698TMC3    C310318   3.198   0.664  15.479 -0.6997 -0.3819  0.5541
  698TMC3    C410319   3.124   0.406  15.453 -0.3903  0.2431 -0.0610
  698TMC3    C510320   3.167   0.478  15.345  0.4218  0.0979 -0.3669
  698TMC3    C610321   3.215   0.609  15.354 -0.7924  0.3770 -0.0154
  698TMC3     C10322   3.046   0.393  15.678 -0.1379 -0.2560  0.1135
  698TMC3     O10323   3.020   0.460  15.779 -0.4477  0.0681  0.2165
  698TMC3     H10324   3.135   0.642  15.683 -0.3663 -1.2961 -0.1001
  698TMC3    H110325   3.084   0.306  15.441 -1.0461  0.4769  0.1969
  698TMC3    H210326   3.240   0.668  15.267  0.2171  0.2718  0.1954
  698TMC3    C710327   3.181   0.416  15.217  0.4738  1.0612 -0.2468
  698TMC3    C810328   3.230   0.798  15.515 -0.7601  0.7213  0.1464
  698TMC3    O110329   3.154   0.478  15.115  0.2132 -0.5447 -0.1996
  698TMC3    O210330   3.243   0.825  15.636  0.6965 -0.4622 -0.0019
  699TMC3    C110331   3.135   2.657  12.918 -0.1800  0.1150  0.0116
  699TMC3    C210332   3.189   2.549  12.985  0.2536 -0.3508  0.3955
  699TMC3    C310333   3.116   2.513  13.099  0.4848 -0.4718 -0.0362
  699TMC3    C410334   3.018   2.721  12.956  0.8585 -0.2112  0.0860
  699TMC3    C510335   2.951   2.675  13.065  0.5291  0.1316  0.5160
  699TMC3    C610336   3.002   2.574  13.142  0.4310 -0.1326 -0.0857
  699TMC3     C10337   3.217   2.721  12.813  0.7588  0.6719  0.4231
  699TMC3     O10338   3.149   2.802  12.747  0.0570  0.0903 -0.4485
  699TMC3     H10339   3.272   2.492  12.945 -0.7143 -0.5249 -1.3287
  699TMC3    H110340   2.974   2.799  12.895 -0.4384 -1.2389 -0.2929
  699TMC3    H210341   2.947   2.521  13.219  1.0205  1.3807  1.3806
  699TMC3    C710342   2.814   2.717  13.096  0.1070  0.2132  0.7700
  699TMC3    C810343   3.134   2.375  13.148 -0.2286 -0.6735 -0.2315
  699TMC3    O110344   2.784   2.729  13.212  0.6639  0.1930  0.3667
  699TMC3    O210345   3.033   2.324  13.194  0.4307 -0.3622  0.0028
  700TMC3    C110346   1.386   0.399  17.231  0.4879  0.0218  0.2253
  700TMC3    C210347   1.437   0.275  17.216  0.0334  0.5225  0.2587
  700TMC3    C310348   1.533   0.225  17.300 -0.5191 -0.0969  0.3403
  700TMC3    C410349   1.418   0.473  17.342 -0.3773 -0.5466  0.1584
  700TMC3    C510350   1.499   0.415  17.436  0.5381 -0.1365  0.3546
  700TMC3    C610351   1.563   0.297  17.412 -0.0893 -0.0166  0.2022
  700TMC3     C10352   1.339   0.471  17.121  0.1692  0.0206  0.0002
  700TMC3     O10353   1.283   0.403  17.037  0.0279  0.2853 -0.3631
  700TMC3     H10354   1.408   0.226  17.123  2.3528  2.0394 -1.2476
  700TMC3    H110355   1.365   0.567  17.352 -0.9770 -0.6040 -2.4037
  700TMC3    H210356   1.628   0.251  17.486 -0.3006 -1.5432 -0.5749
  700TMC3    C710357   1.561   0.502  17.539  0.2564  0.5119  0.1349
  700TMC3    C810358   1.615   0.108  17.264  0.8709 -0.6263  0.3797
  700TMC3    O110359   1.519   0.619  17.542 -0.2685 -0.7468 -0.0834
  700TMC3    O210360   1.704   0.087  17.348  0.4271  0.4588  0.5128
  701TMC3    C110361   2.105   3.867  15.538 -0.1747  0.1689 -0.6357
  701TMC3    C210362   2.163   3.776  15.445 -0.1194  0.3718  0.7371
  701TMC3    C310363   2.295   3.790  15.404  0.3173  0.5890 -0.7641
  701TMC3    C410364   2.175   3.968  15.585 -0.4914  0.2250  0.3787
  701TMC3    C510365   2.305   3.981  15.537  0.2030  0.2206 -0.0582
  701TMC3    C610366   2.362   3.903  15.443 -0.5665 -0.4162  0.3026
  701TMC3     C10367   1.977   3.845  15.591 -0.3396  0.1355 -0.2745
  701TMC3     O10368   1.935   3.940  15.658 -0.2811  0.0591  0.4986
  701TMC3     H10369   2.111   3.684  15.421 -0.9594  1.0844 -0.2117
  701TMC3    H110370   2.127   4.036  15.655 -0.6164  0.2045  0.3116
  701TMC3    H210371   2.466   3.910  15.414 -0.7948 -0.8006 -0.6472
  701TMC3    C710372   2.373   4.094  15.597  0.3905 -0.4099  0.3787
  701TMC3    C810373   2.354   3.728  15.286 -0.4560 -0.0577 -0.2089
  701TMC3    O110374   2.465   4.141  15.530 -0.1104 -0.7992 -0.3852
  701TMC3    O210375   2.469   3.769  15.255 -0.3851 -0.0779 -0.0304
  702MPD2     C10376   2.264   1.288  10.273  0.3788 -0.3068  0.0594
  702MPD2    C110377   2.190   1.399  10.311 -0.5062  0.2615  0.0858
  702MPD2    C210378   2.200   1.507  10.228 -0.1577 -0.2968  0.2682
  702MPD2    C310379   2.260   1.509  10.110 -0.1757 -0.2907 -0.3157
  702MPD2    C410380   2.335   1.398  10.077 -0.0335  0.0455  0.3364
  702MPD2    C510381   2.334   1.289  10.153  0.1214 -0.6220 -0.3169
  702MPD2     H10382   2.142   1.593  10.259  2.2667  1.6671 -0.6447
  702MPD2    H110383   2.392   1.398   9.985  0.8314 -3.4108  0.8723
  702MPD2    H210384   2.250   1.194  10.324 -1.4106 -0.6008 -0.9707
  702MPD2    H310385   2.374   1.198  10.109 -0.5944 -0.3471 -1.5114
  702MPD2     N10386   2.277   1.626  10.032  0.5872  0.0918 -0.3826
  702MPD2    H510387   2.337   1.622   9.951 -0.8127  0.4220 -1.4412
  702MPD2    N110388   2.112   1.419  10.427 -0.0903  0.2770 -0.6197
  702MPD2    H710389   2.083   1.516  10.436  1.4812  0.5935  0.8768
  703TMC3    C110390   2.285   1.860  10.000  0.0631 -0.8665 -0.3746
  703TMC3    C210391   2.219   1.984   9.994 -0.0885  0.1873 -0.4252
  703TMC3    C310392   2.289   2.100  10.002 -0.5755 -0.3714  0.8109
  703TMC3    C410393   2.423   1.861  10.001 -0.2881  0.4615  0.4772
  703TMC3    C510394   2.492   1.978   9.987 -0.0407 -0.6152  0.3747
  703TMC3    C610395   2.428   2.099   9.990 -0.7668 -0.0718 -0.2057
  703TMC3     C10396   2.217   1.748  10.054  0.1592 -0.3098 -0.3229
  703TMC3     O10397   2.106   1.778  10.107 -0.1561  0.0436 -0.2670
  703TMC3     H10398   2.110   1.984   9.994 -0.0912 -1.0054 -1.0201
  703TMC3    H110399   2.469   1.763  10.008  0.0680  0.5109 -1.1422
  703TMC3    H210400   2.479   2.194   9.975  0.1077 -0.5741 -0.4098
  703TMC3    C710401   2.633   1.982  10.001 -0.8375  0.0857  0.1965
  703TMC3    C810402   2.243   2.207  10.094  0.1539  0.3167  0.1521
  703TMC3    O110403   2.690   2.092  10.007 -0.4598  0.6700 -0.0250
  703TMC3    O210404   2.327   2.288  10.131  0.1268  0.3848 -0.1693
  704TMC3    C110405   4.511   4.234  12.435 -0.3371  0.1281  0.6914
  704TMC3    C210406   4.622   4.222  12.356  0.7279 -0.1001 -0.0580
  704TMC3    C310407   0.005   4.145  12.405  0.3483 -0.8702  0.0584
  704TMC3    C410408   4.490   4.186  12.564 -0.3356  0.2944  0.0035
  704TMC3    C510409   4.588   4.094  12.597  0.1392  0.6611  0.1289
  704TMC3    C610410   4.707   4.076  12.521 -0.4319  0.3257  0.3418
  704TMC3     C10411   4.390   4.249  12.355 -0.2109 -0.2119 -0.1816
  704TMC3     O10412   4.281   4.277  12.409  0.1187  0.6710  0.2491
  704TMC3     H10413   4.626   4.275  12.261 -1.0743  1.5988  0.8150
  704TMC3    H110414   4.396   4.200  12.616  0.0341 -0.3121  0.8321
  704TMC3    H210415   0.061   4.002  12.537 -1.1214 -0.9305 -2.0955
  704TMC3    C710416   4.540   3.966  12.615  0.4721 -0.5023  0.0146
  704TMC3    C810417   0.086   4.083  12.306 -0.1479  0.3448  0.2573
  704TMC3    O110418   4.610   3.877  12.569 -0.2228  0.3945 -0.0406
  704TMC3    O210419   0.033   4.076  12.194 -0.0132 -0.3102  0.6109
  705MPD2     C10420   3.566   2.669  16.566  0.2317 -0.0252  0.3335
  705MPD2    C110421   3.511   2.707  16.448 -0.0829  0.7526  0.2989
  705MPD2    C210422   3.384   2.761  16.450  0.8834  0.4123 -0.4924
  705MPD2    C310423   3.315   2.764  16.576 -0.3597  1.2954 -0.0287
  705MPD2    C410424   3.374   2.719  16.692 -0.1746 -0.1401 -0.7265
  705MPD2    C510425   3.503   2.679  16.686 -0.2324 -0.1124 -0.4600
  705MPD2     H10426   3.337   2.795  16.358 -1.3095 -0.3308  0.3455
  705MPD2    H110427   3.311   2.721  16.780  0.8416 -1.3152  0.0407
  705MPD2    H210428   3.666   2.628  16.570  0.2335  0.2372  3.1152
  705MPD2    H310429   3.544   2.631  16.774  0.6383 -1.7040 -1.7303
  705MPD2     N10430   3.181   2.812  16.587 -0.4555 -0.4651 -0.3161
  705MPD2    H510431   3.134   2.784  16.673  0.5593  1.4343  0.8448
  705MPD2    N110432   3.590   2.732  16.333 -0.4673 -0.1613  0.7064
  705MPD2    H710433   3.539   2.769  16.253 -1.3363  2.2390  2.3724
  706TMC3    C110434   3.907   2.699  15.994 -0.6513 -0.3431  0.0284
  706TMC3    C210435   3.866   2.811  15.934 -0.4415  0.2146  0.3582
  706TMC3    C310436   3.777   2.890  16.003  0.8039  0.0543 -0.0834
  706TMC3    C410437   3.872   2.657  16.113  0.3153 -0.5827 -0.2992
  706TMC3    C510438   3.777   2.731  16.178 -0.1926 -0.2074 -0.5637
  706TMC3    C610439   3.731   2.853  16.124  0.0437 -0.5282 -0.2371
  706TMC3     C10440   4.011   2.625  15.931 -0.0558  0.3432  0.5939
  706TMC3     O10441   4.098   2.583  16.005  0.4255 -0.4401 -0.6682
  706TMC3     H10442   3.896   2.837  15.833 -0.9186 -1.6126 -0.2544
  706TMC3    H110443   3.905   2.564  16.158  1.4135  0.8959  1.9422
  706TMC3    H210444   3.675   2.925  16.183  0.0133 -1.1856  0.5371
  706TMC3    C710445   3.725   2.698  16.313 -0.4409  0.2619  0.9041
  706TMC3    C810446   3.736   3.026  15.953  0.1390 -0.6529 -0.7860
  706TMC3    O110447   3.800   2.626  16.381  0.5422  0.0459 -0.4193
  706TMC3    O210448   3.714   3.038  15.836  0.2997  0.1891  0.6452
  707TMC3    C110449   0.048   1.554   0.654 -0.3986  0.9740  0.8086
  707TMC3    C210450   4.713   1.438   0.699  0.2649 -0.3062  0.7960
  707TMC3    C310451   4.570   1.425   0.680 -0.0113 -0.0362  0.3818
  707TMC3    C410452   4.696   1.659   0.609  0.9391  0.1217 -0.5652
  707TMC3    C510453   4.562   1.644   0.594  0.3987  0.4574  0.1738
  707TMC3    C610454   4.495   1.531   0.631  0.2792  0.2416 -0.3061
  707TMC3     C10455   0.198   1.545   0.650 -0.1681 -0.5706  0.1361
  707TMC3     O10456   0.234   1.432   0.639  0.3610  0.2595 -0.2918
  707TMC3     H10457   0.047   1.358   0.745  2.9387  1.3940  0.3589
  707TMC3    H110458   0.033   1.738   0.567  0.8524  0.5081  0.0436
  707TMC3    H210459   4.389   1.518   0.612 -0.0164  1.2741  0.6334
  707TMC3    C710460   4.497   1.753   0.536 -0.0383 -0.1488 -0.4762
  707TMC3    C810461   4.501   1.300   0.718 -0.7680 -0.2056  1.1221
  707TMC3    O110462   4.564   1.837   0.475 -0.5042  0.2136  0.5321
  707TMC3    O210463   4.388   1.324   0.763  0.3711  0.7203  0.0070
  708MPD2     C10464   2.658   1.020  13.650  0.5760  0.6607  0.0256
  708MPD2    C110465   2.539   1.075  13.601 -0.0455 -0.0540 -0.2855
  708MPD2    C210466   2.415   1.015  13.646 -0.0063  0.2085  0.0654
  708MPD2    C310467   2.417   0.905  13.734 -0.4986 -0.3769 -0.2679
  708MPD2    C410468   2.539   0.861  13.792  0.1721 -0.6950  0.5003
  708MPD2    C510469   2.650   0.929  13.752 -0.2732  0.1381 -0.1809
  708MPD2     H10470   2.322   1.044  13.599  1.0720  0.4206 -1.9519
  708MPD2    H110471   2.544   0.770  13.850  1.9865 -0.0080  1.4292
  708MPD2    H210472   2.758   1.059  13.631 -1.2635  5.3289  0.0645
  708MPD2    H310473   2.741   0.889  13.795 -0.4868  0.7793  0.8736
  708MPD2     N10474   2.303   0.836  13.780 -0.2131  0.3491 -0.1592
  708MPD2    H510475   2.321   0.761  13.846 -0.1714  0.9249  0.4831
  708MPD2    N110476   2.544   1.176  13.507  0.0754  0.4374 -0.3190
  708MPD2    H710477   2.636   1.198  13.469  0.8562  0.5755  1.6490
  709TMC3    C110478   2.449   1.350  13.361 -0.1855  0.1302 -0.7471
  709TMC3    C210479   2.452   1.292  13.234 -0.1621  0.1270  0.2690
  709TMC3    C310480   2.379   1.339  13.132 -0.4207  0.5987  0.0372
  709TMC3    C410481   2.354   1.448  13.378  0.0455 -0.4668 -0.3255
  709TMC3    C510482   2.276   1.492  13.276  0.2831 -0.7081  0.7239
  709TMC3    C610483   2.287   1.434  13.151  0.2859 -0.0703  0.1675
  709TMC3     C10484   2.436   1.253  13.469  0.2974  0.1695  0.1644
  709TMC3     O10485   2.328   1.265  13.527 -0.1209 -0.1054 -0.3448
  709TMC3     H10486   2.528   1.217  13.213 -0.7711  0.1299 -1.9229
  709TMC3    H110487   2.347   1.501  13.473  4.4358 -0.7703  0.1671
  709TMC3    H210488   2.214   1.463  13.076  1.5857 -1.2773 -1.5638
  709TMC3    C710489   2.138   1.480  13.313  0.7769  0.7863  0.5137
  709TMC3    C810490   2.400   1.300  12.996  0.8770  0.2424  0.0337
  709TMC3    O110491   2.060   1.543  13.238 -0.0579  0.5844 -0.5835
  709TMC3    O210492   2.359   1.381  12.917  0.3328  0.2461 -0.1579
  710TMC3    C110493   2.177   2.376   0.316  1.0707  0.6419  0.8592
  710TMC3    C210494   2.273   2.421   0.232 -0.5375  0.2039  0.1496
  710TMC3    C310495   2.398   2.358   0.242 -0.2769  0.2445  0.7569
  710TMC3    C410496   2.197   2.267   0.401 -0.3154  1.1481  0.4861
  710TMC3    C510497   2.322   2.206   0.398  0.4662 -0.7737  0.5576
  710TMC3    C610498   2.426   2.259   0.328 -0.2313 -0.0319  0.2056
  710TMC3     C10499   2.048   2.444   0.319 -0.6949  1.0620  0.9723
  710TMC3     O10500   1.945   2.378   0.319  0.1877 -0.1774 -0.7790
  710TMC3     H10501   2.260   2.500   0.159  0.7197 -2.0050 -2.4460
  710TMC3    H110502   2.117   2.219   0.456 -0.1733  1.7549  1.2101
  710TMC3    H210503   2.529   2.232   0.348  0.3756  0.7396 -1.9198
  710TMC3    C710504   2.341   2.072   0.425  0.1212 -0.2855 -0.5307
  710TMC3    C810505   2.496   2.350   0.137  0.5765  0.4923  0.0193
  710TMC3    O110506   2.287   2.015   0.521 -0.0904 -0.1940  0.4729
  710TMC3    O210507   2.581   2.262   0.143  0.2286  0.7016  0.2735
  711TMC3    C110508   2.766   3.531  14.478 -0.5740 -0.3789  0.8634
  711TMC3    C210509   2.755   3.605  14.594  0.4213  0.4396 -0.9844
  711TMC3    C310510   2.862   3.653  14.662  0.1016 -0.9073  0.4378
  711TMC3    C410511   2.888   3.508  14.430 -0.4717 -0.2312 -0.2122
  711TMC3    C510512   2.999   3.531  14.515  0.1403  0.6289 -0.7174
  711TMC3    C610513   2.986   3.612  14.629  0.6932 -0.4228  0.6173
  711TMC3     C10514   2.693   3.403  14.470  0.2793  0.2948  0.4609
  711TMC3     O10515   2.701   3.327  14.379  0.2633 -0.1490  0.5372
  711TMC3     H10516   2.662   3.659  14.611  1.0659  0.2781  2.9891
  711TMC3    H110517   2.910   3.443  14.346  0.2815  0.5813 -0.6428
  711TMC3    H210518   3.076   3.633  14.685  3.2000  0.3544 -3.7169
  711TMC3    C710519   3.079   3.411  14.548  0.1297 -0.1949  0.5255
  711TMC3    C810520   2.833   3.725  14.781  0.8698 -0.2782 -0.7420
  711TMC3    O110521   3.154   3.427  14.644 -0.0105 -0.0328  0.2164
  711TMC3    O210522   2.715   3.754  14.802 -0.4207 -0.0911 -0.4760
  712MPD2     C10523   0.159   4.691  13.504 -0.7199 -0.3273  0.3731
  712MPD2    C110524   0.077   0.008  13.395 -0.2674 -0.1777  0.5376
  712MPD2    C210525   0.135   0.045  13.278 -0.1413 -0.1402 -0.4860
  712MPD2    C310526   0.270   0.065  13.272  0.0902  0.1902  0.4249
  712MPD2    C410527   0.349   0.023  13.372 -0.3378 -0.0043  0.2162
  712MPD2    C510528   0.297   4.706  13.490  0.1394 -0.1820 -0.2841
  712MPD2     H10529   0.068   0.090  13.206 -0.3904  0.4092  0.0949
  712MPD2    H110530   0.454   0.046  13.366  0.2617 -2.2667  2.0023
  712MPD2    H210531   0.127   4.647  13.598  1.3414 -1.1512  0.6877
  712MPD2    H310532   0.366   4.684  13.571  2.2503 -0.8063 -2.2355
  712MPD2     N10533   0.336   0.133  13.168  0.2167  0.3092  0.8666
  712MPD2    H510534   0.436   0.139  13.182  0.6639 -0.9272 -1.7962
  712MPD2    N110535   4.664   4.721  13.395 -0.4719 -0.1824 -0.0363
  712MPD2    H710536   4.614   0.014  13.308 -0.2673 -1.5849 -0.4289
  713TMC3    C110537   0.354   0.250  12.951  0.4465 -0.5091  0.9061
  713TMC3    C210538   0.496   0.261  12.957  0.7685 -1.1076 -1.0073
  713TMC3    C310539   0.563   0.346  12.870  0.2191 -0.0825  0.3960
  713TMC3    C410540   0.281   0.321  12.862  0.4017  0.1321 -0.1141
  713TMC3    C510541   0.359   0.409  12.780  0.2122 -0.4036  0.3201
  713TMC3    C610542   0.492   0.432  12.786  0.3511  0.1905  0.6424
  713TMC3     C10543   0.276   0.182  13.053 -0.1877 -0.4747  0.3067
  713TMC3     O10544   0.158   0.171  13.020  0.3495 -0.6742 -1.0056
  713TMC3     H10545   0.552   0.186  13.011 -0.1686 -1.6275 -0.7619
  713TMC3    H110546   0.176   0.305  12.838  0.9906 -0.5385 -2.2553
  713TMC3    H210547   0.542   0.500  12.718 -0.7999 -0.2885 -0.6951
  713TMC3    C710548   0.295   0.492  12.677  0.0901  0.3740 -0.4187
  713TMC3    C810549   0.708   0.375  12.882 -0.0102 -1.2023 -0.5577
  713TMC3    O110550   0.368   0.536  12.587  0.0117  0.3758 -0.4059
  713TMC3    O210551   0.763   0.453  12.807  0.2826 -0.1373 -0.0526
  714MPD2     C10552   1.645   3.586   1.168 -0.5926 -0.0876  0.1536
  714MPD2    C110553   1.619   3.464   1.112  0.2837 -0.2219  0.1396
  714MPD2    C210554   1.508   3.451   1.034  0.2826  0.0324 -0.1567
  714MPD2    C310555   1.428   3.560   1.008  0.2911  0.3566 -0.1259
  714MPD2    C410556   1.459   3.684   1.059 -0.3456  0.0939 -0.0908
  714MPD2    C510557   1.570   3.690   1.135  0.5934 -0.5064  0.1388
  714MPD2     H10558   1.481   3.355   0.993 -0.5078  0.8839 -1.6212
  714MPD2    H110559   1.399   3.768   1.029 -0.8959  0.6192  2.4784
  714MPD2    H210560   1.731   3.600   1.233 -1.4909 -0.6881  1.4874
  714MPD2    H310561   1.598   3.781   1.187  0.6096 -1.1413  1.2499
  714MPD2     N10562   1.312   3.541   0.927 -0.2451  0.0936 -0.3081
  714MPD2    H510563   1.306   3.450   0.881 -0.8224  1.4491 -2.9096
  714MPD2    N110564   1.713   3.361   1.130 -0.3442  0.0427 -0.0948
  714MPD2    H710565   1.798   3.385   1.179 -0.2726 -0.9325  0.2503
  715TMC3    C110566   1.820   3.152   1.090 -0.4992  0.6917  0.2609
  715TMC3    C210567   1.816   3.015   1.097 -0.0272  0.6157  0.5343
  715TMC3    C310568   1.937   2.945   1.073  0.4461 -0.0777 -0.0316
  715TMC3    C410569   1.936   3.220   1.069 -0.3561  0.1330  0.6333
  715TMC3    C510570   2.058   3.149   1.059  0.2670  0.4966  0.3668
  715TMC3    C610571   2.051   3.011   1.050  0.2590 -0.3272 -0.2642
  715TMC3     C10572   1.697   3.230   1.089 -0.0740 -0.2429  0.4489
  715TMC3     O10573   1.594   3.170   1.065  0.3788  0.4923 -0.2443
  715TMC3     H10574   1.720   2.963   1.099 -0.1740  0.9250  2.0970
  715TMC3    H110575   1.935   3.328   1.056  2.4260 -0.0216 -1.0097
  715TMC3    H210576   2.147   2.961   1.052  0.9158  1.0336  2.2817
  715TMC3    C710577   2.183   3.218   1.059  0.1586 -0.3201 -0.3616
  715TMC3    C810578   1.933   2.795   1.086 -0.0339 -0.6074  0.6477
  715TMC3    O110579   2.274   3.166   0.997  0.1721  0.3558 -0.4724
  715TMC3    O210580   2.027   2.732   1.041 -0.3287  0.3957 -0.4342
  716MPD2     C10581   1.902   1.113   9.532  0.5302 -0.2372 -0.0252
  716MPD2    C110582   1.855   1.024   9.432  0.0683  0.6720  0.7294
  716MPD2    C210583   1.900   0.892   9.438 -0.3248  0.7684 -0.3208
  716MPD2    C310584   2.004   0.856   9.521  0.2911 -0.0289  0.3216
  716MPD2    C410585   2.062   0.952   9.596  0.2031  0.7704 -0.9080
  716MPD2    C510586   2.005   1.075   9.611 -0.3319 -0.5631 -0.4895
  716MPD2     H10587   1.867   0.810   9.375  0.8808  1.0152 -1.2669
  716MPD2    H110588   2.136   0.936   9.674  1.4940  1.9986 -1.8728
  716MPD2    H210589   1.859   1.211   9.548 -0.9045 -0.8698  0.0146
  716MPD2    H310590   2.044   1.136   9.692 -1.0967 -0.3526 -0.2814
  716MPD2     N10591   2.055   0.721   9.509 -0.3982 -0.0182  0.1533
  716MPD2    H510592   2.005   0.656   9.449  0.3441 -0.5570  0.1132
  716MPD2    N110593   1.760   1.072   9.340  0.5454  0.6483  0.4294
  716MPD2    H710594   1.741   1.172   9.340  0.3167  0.6020  0.1985
  717TMC3    C110595   2.169   0.527   9.535  0.4922  0.1369 -0.0658
  717TMC3    C210596   2.056   0.480   9.478  0.0797  0.8038  0.6245
  717TMC3    C310597   2.079   0.375   9.395 -0.3253  0.2467 -0.9962
  717TMC3    C410598   2.295   0.494   9.505 -0.0468  0.0971 -0.4472
  717TMC3    C510599   2.314   0.391   9.420 -0.2490  0.6143 -0.6199
  717TMC3    C610600   2.200   0.324   9.372  0.1271 -0.7180 -0.6192
  717TMC3     C10601   2.149   0.656   9.595 -0.7967  0.4623  0.4675
  717TMC3     O10602   2.233   0.704   9.669  0.6163  0.3787 -0.4461
  717TMC3     H10603   1.955   0.512   9.501 -0.4027 -0.9274  0.9453
  717TMC3    H110604   2.374   0.555   9.547 -1.2221  1.2447  0.0927
  717TMC3    H210605   2.212   0.249   9.294  2.9264  0.0812 -0.9735
  717TMC3    C710606   2.451   0.351   9.392  0.9273 -0.3817 -0.0712
  717TMC3    C810607   1.963   0.358   9.306 -0.1901 -0.4146 -0.5975
  717TMC3    O110608   2.542   0.419   9.442 -0.4653 -0.2846 -0.0816
  717TMC3    O210609   1.880   0.450   9.310 -0.1241 -0.3319  0.3806
  718MPD2     C10610   1.808   4.229  12.388 -0.1024 -0.0660 -0.8209
  718MPD2    C110611   1.735   4.286  12.285  0.5247  0.4206 -0.1408
  718MPD2    C210612   1.611   4.345  12.305 -0.0699  0.1320 -0.6385
  718MPD2    C310613   1.559   4.350  12.433  0.1276  0.4311 -0.1265
  718MPD2    C410614   1.627   4.290  12.530 -0.8591  0.1629 -0.1900
  718MPD2    C510615   1.749   4.231  12.512  0.5302 -0.0362  0.1971
  718MPD2     H10616   1.562   4.401  12.226 -2.3242 -1.1624 -0.1446
  718MPD2    H110617   1.593   4.306  12.631  0.2378 -2.5852  0.6386
  718MPD2    H210618   1.907   4.188  12.375  0.6594  2.0972 -1.8531
  718MPD2    H310619   1.791   4.173  12.594 -0.1631  0.6858  1.0710
  718MPD2     N10620   1.441   4.415  12.457 -0.1678 -0.0291 -0.4777
  718MPD2    H510621   1.390   4.443  12.373  0.8619 -1.4008 -1.5360
  718MPD2    N110622   1.794   4.292  12.160  0.0305  0.6272 -0.1224
  718MPD2    H710623   1.890   4.257  12.152 -0.6649 -1.3840  0.1747
  719TMC3    C110624   1.801   4.343  11.930  0.2784 -0.3098  0.0020
  719TMC3    C210625   1.718   4.358  11.824 -0.3600  0.0054 -0.2411
  719TMC3    C310626   1.737   4.465  11.738  0.3050 -0.6171  0.2794
  719TMC3    C410627   1.916   4.410  11.940 -0.5615  0.8850  0.2550
  719TMC3    C510628   1.932   4.517  11.853 -0.1131 -0.3745  0.4282
  719TMC3    C610629   1.841   4.546  11.756 -0.7252 -0.1204 -0.7990
  719TMC3     C10630   1.722   4.326  12.048 -0.4160  0.2885 -0.2969
  719TMC3     O10631   1.599   4.333  12.026 -1.0024  0.0344  0.4170
  719TMC3     H10632   1.633   4.293  11.812  1.2814 -2.1521 -0.2627
  719TMC3    H110633   1.998   4.396  12.009 -0.4371 -0.5939 -0.2027
  719TMC3    H210634   1.842   4.637  11.697 -1.6200  0.5537  0.2350
  719TMC3    C710635   2.028   4.620  11.886 -0.0369  0.5033 -0.2334
  719TMC3    C810636   1.621   4.539  11.717  0.6390  0.1939 -0.3608
  719TMC3    O110637   2.070   4.684  11.791  0.4928  0.3375  0.4387
  719TMC3    O210638   1.619   4.619  11.628  0.2036 -0.3523  0.5547
  720MPD2     C10639   4.218   1.943  13.952 -0.8486 -0.3754  0.4540
  720MPD2    C110640   4.347   1.929  13.910 -0.7952  0.3020 -0.1041
  720MPD2    C210641   4.443   1.874  13.988  0.0254 -0.2291 -0.6286
  720MPD2    C310642   4.411   1.830  14.119  1.2461 -0.4925 -1.0879
  720MPD2    C410643   4.284   1.856  14.163 -0.4557 -0.2228 -0.3097
  720MPD2    C510644   4.190   1.910  14.085  0.0383 -0.0901  0.5184
  720MPD2     H10645   4.540   1.857  13.943  0.6760 -0.4234  0.8298
  720MPD2    H110646   4.250   1.850  14.266  0.4966  0.8411  0.0608
  720MPD2    H210647   4.140   1.995  13.897 -2.0039 -2.1355  0.4180
  720MPD2    H310648   4.092   1.930  14.128  0.0849 -1.7784  1.3865
  720MPD2     N10649   4.517   1.804  14.209 -0.3403 -0.3169 -0.6085
  720MPD2    H510650   4.607   1.792  14.164  1.0983 -0.6840  2.3745
  720MPD2    N110651   4.391   1.976  13.785 -0.3064  0.8287  0.3247
  720MPD2    H710652   4.484   1.941  13.762 -0.0355  0.6768  1.6039
  721TMC3    C110653   4.645   1.783  14.398 -0.4780  0.0756  0.3955
  721TMC3    C210654   4.660   1.820  14.527  0.4156  0.4784 -0.2699
  721TMC3    C310655   0.065   1.810  14.585  0.3590 -0.1174 -0.1145
  721TMC3    C410656   0.034   1.761  14.322 -0.3710 -0.6696 -0.5426
  721TMC3    C510657   0.156   1.775  14.369  0.0291  0.2383  0.2908
  721TMC3    C610658   0.178   1.801  14.502 -0.4006 -0.7454  0.0621
  721TMC3     C10659   4.513   1.786  14.349  0.1593  0.4266  0.0980
  721TMC3     O10660   4.414   1.774  14.417 -0.2926 -0.1949 -0.1632
  721TMC3     H10661   4.569   1.858  14.574 -0.6882 -1.5525 -0.7513
  721TMC3    H110662   0.027   1.720  14.222  0.9615  0.3997 -1.0748
  721TMC3    H210663   0.278   1.799  14.544 -0.6770 -3.9607  0.5351
  721TMC3    C710664   0.272   1.766  14.278  0.1796 -0.6766  0.1174
  721TMC3    C810665   0.089   1.870  14.714  0.4006 -0.0904 -0.6877
  721TMC3    O110666   0.257   1.792  14.160 -0.0945  0.0905 -0.2761
  721TMC3    O210667   0.204   1.900  14.741 -0.0006  0.2755 -0.1090
  722MPD2     C10668   3.774   0.631  13.203  0.6347 -0.5293 -0.4802
  722MPD2    C110669   3.755   0.568  13.084  0.1249  0.2147  0.1229
  722MPD2    C210670   3.632   0.517  13.051  0.5435  0.0031 -0.8191
  722MPD2    C310671   3.521   0.527  13.135  0.3235 -0.6776 -0.4755
  722MPD2    C410672   3.543   0.575  13.262  0.1565  0.9414  1.0909
  722MPD2    C510673   3.669   0.629  13.291 -0.5778  0.7646 -0.3412
  722MPD2     H10674   3.611   0.462  12.961 -0.3787 -0.3674 -0.3784
  722MPD2    H110675   3.461   0.582  13.333 -0.9030  1.1985 -0.1599
  722MPD2    H210676   3.869   0.670  13.239  1.0714 -1.2697 -0.8262
  722MPD2    H310677   3.690   0.670  13.389 -2.0252 -1.6730  0.9869
  722MPD2     N10678   3.400   0.480  13.082  0.2903 -0.6539 -0.4808
  722MPD2    H510679   3.406   0.438  12.990 -1.3801  0.6015 -1.1620
  722MPD2    N110680   3.846   0.564  12.975 -0.3361 -0.0725 -0.4504
  722MPD2    H710681   3.804   0.524  12.892 -0.4356 -0.6408 -0.1272
  723TMC3    C110682   3.180   0.406  13.067  0.2728 -0.5411  0.4509
  723TMC3    C210683   3.110   0.306  13.124  0.1068  0.4127  0.6968
  723TMC3    C310684   3.038   0.229  13.040  0.0529 -0.6112  0.3862
  723TMC3    C410685   3.166   0.452  12.940 -0.5525 -0.1003  0.1760
  723TMC3    C510686   3.088   0.371  12.863  0.3767 -0.8672 -0.4884
  723TMC3    C610687   3.022   0.259  12.907 -0.5396  0.2396 -0.4030
  723TMC3     C10688   3.281   0.468  13.152 -0.0464  0.2507  0.8616
  723TMC3     O10689   3.249   0.491  13.269  0.0451  0.6096  0.8138
  723TMC3     H10690   3.136   0.264  13.220  3.3128  0.6051 -0.0502
  723TMC3    H110691   3.214   0.538  12.895  0.5220  0.4135  2.2913
  723TMC3    H210692   2.964   0.196  12.840  0.3702 -0.9542 -0.0611
  723TMC3    C710693   3.056   0.425  12.737  0.3840  0.2685 -0.7355
  723TMC3    C810694   2.953   0.123  13.083 -0.0175 -0.5615  0.5256
  723TMC3    O110695   3.065   0.349  12.642 -0.1085  0.2154  0.1101
  723TMC3    O210696   2.889   0.148  13.182  0.1275 -0.3277 -0.5597
  724TMC3    C110697   3.328   3.698   9.391 -0.0693 -0.1883  0.7345
  724TMC3    C210698   3.449   3.720   9.447  0.1605 -0.5253  0.1102
  724TMC3    C310699   3.536   3.624   9.408  0.1108  0.2422 -0.4966
  724TMC3    C410700   3.304   3.618   9.280  0.8367 -0.0143 -0.2092
  724TMC3    C510701   3.406   3.540   9.230 -1.3253 -0.1319  0.3052
  724TMC3    C610702   3.521   3.532   9.303  0.1178  0.0516 -0.1440
  724TMC3     C10703   3.216   3.792   9.424 -0.1548 -0.8205 -0.1077
  724TMC3     O10704   3.106   3.771   9.376 -0.1053  0.1598  0.7063
  724TMC3     H10705   3.468   3.776   9.538 -0.0893  0.9383 -0.7328
  724TMC3    H110706   3.203   3.622   9.239  0.4931  0.5618  0.6877
  724TMC3    H210707   3.602   3.470   9.267  1.6881  0.5186  2.6202
  724TMC3    C710708   3.401   3.492   9.095  0.7862 -0.8260  0.0382
  724TMC3    C810709   3.658   3.604   9.477 -0.0557  0.3054 -0.4940
  724TMC3    O110710   3.512   3.478   9.036  0.1211  0.1603 -0.0765
  724TMC3    O210711   3.699   3.489   9.484 -0.1891  1.2283 -0.2636
  725TMC3    C110712   0.360   2.030  13.331 -0.8335 -0.4982 -0.0048
  725TMC3    C210713   0.263   2.054  13.236  0.8231  1.0297 -0.1876
  725TMC3    C310714   0.235   1.949  13.153  0.7141  0.0909  0.5689
  725TMC3    C410715   0.419   1.905  13.345 -0.6762 -0.1954 -0.2998
  725TMC3    C510716   0.380   1.808  13.259  0.1768 -0.4856  0.8229
  725TMC3    C610717   0.287   1.828  13.164  0.4039 -0.4642  0.7993
  725TMC3     C10718   0.433   2.148  13.368  0.1580 -0.4362  0.3722
  725TMC3     O10719   0.416   2.253  13.304 -0.1219  0.1676 -0.4316
  725TMC3     H10720   0.216   2.151  13.223  1.9700  1.6822  0.5277
  725TMC3    H110721   0.504   1.882  13.408 -1.7862 -1.5645  0.6785
  725TMC3    H210722   0.253   1.747  13.100  2.3502 -0.0069 -0.8599
  725TMC3    C710723   0.472   1.694  13.246 -0.4381  0.6298 -0.4676
  725TMC3    C810724   0.158   1.976  13.036  0.0956  0.0405  0.2625
  725TMC3    O110725   0.574   1.707  13.307  0.0165 -0.0392  0.4031
  725TMC3    O210726   0.088   1.884  12.996 -0.4684  0.1645 -0.0556
  726MPD2     C10727   3.576   3.126  10.238  0.5482 -0.5243  0.0997
  726MPD2    C110728   3.510   3.240  10.191  0.7658  0.0880 -0.5468
  726MPD2    C210729   3.393   3.221  10.117 -0.0476 -0.1019 -0.0367
  726MPD2    C310730   3.333   3.094  10.110 -0.6688 -0.2002 -0.3210
  726MPD2    C410731   3.398   2.981  10.164  0.1038 -0.1476 -0.8659
  726MPD2    C510732   3.519   3.001  10.219  0.6226 -0.6682  0.1688
  726MPD2     H10733   3.341   3.311  10.087  2.7439  1.6563  0.4145
  726MPD2    H110734   3.358   2.880  10.161  0.7151 -0.2663 -5.0658
  726MPD2    H210735   3.672   3.125  10.289  1.2017  0.5492 -1.1104
  726MPD2    H310736   3.569   2.910  10.250  3.9030  1.0101 -0.1476
  726MPD2     N10737   3.200   3.074  10.064  0.1687 -0.2129  0.5325
  726MPD2    H510738   3.147   2.991  10.091  1.2801 -1.0938  0.0183
  726MPD2    N110739   3.559   3.371  10.206 -0.1832  0.7882 -0.0859
  726MPD2    H710740   3.499   3.444  10.170 -2.1160  0.6730  2.9148
  727TMC3    C110741   3.705   3.535  10.253 -0.1579 -0.1582  0.3445
  727TMC3    C210742   3.837   3.558  10.272  0.3671  0.2984  0.5492
  727TMC3    C310743   3.872   3.694  10.251  0.2515  0.4291  0.6102
  727TMC3    C410744   3.621   3.625  10.205 -1.1651 -0.4319 -0.2789
  727TMC3    C510745   3.661   3.761  10.198  0.1583 -0.3005 -0.0851
  727TMC3    C610746   3.789   3.801  10.216  0.5631 -0.4742 -0.9086
  727TMC3     C10747   3.668   3.398  10.287 -0.4048  0.2675 -0.4497
  727TMC3     O10748   3.751   3.327  10.343 -0.1809 -0.6038  0.1324
  727TMC3     H10749   3.915   3.491  10.307  0.7359  0.5348  0.1730
  727TMC3    H110750   3.519   3.604  10.176 -1.2601  1.3057 -1.2156
  727TMC3    H210751   3.835   3.896  10.188  0.5294 -0.2508 -0.2076
  727TMC3    C710752   3.571   3.858  10.161  0.3126  0.6507 -0.2605
  727TMC3    C810753   4.009   3.732  10.278 -0.3991  0.6636 -0.4241
  727TMC3    O110754   3.476   3.825  10.090  0.4162 -0.0348 -0.1119
  727TMC3    O210755   4.095   3.650  10.255 -0.0853  0.3402 -0.2571
  728TMC3    C110756   1.359   2.174  14.960  0.1681  0.6211 -0.6236
  728TMC3    C210757   1.452   2.128  15.048 -0.7204 -0.7226 -0.5208
  728TMC3    C310758   1.582   2.145  15.015  0.1468  0.2228 -0.4019
  728TMC3    C410759   1.395   2.225  14.841 -0.3929 -0.0769  0.1444
  728TMC3    C510760   1.528   2.253  14.821 -0.0578  0.7132 -0.3877
  728TMC3    C610761   1.626   2.211  14.907 -0.4278 -0.1148 -0.3475
  728TMC3     C10762   1.234   2.229  15.010  0.3138 -0.7554  0.9069
  728TMC3     O10763   1.195   2.326  14.952  0.0754 -0.2385 -0.1775
  728TMC3     H10764   1.428   2.072  15.137 -0.9021 -0.0511 -0.1513
  728TMC3    H110765   1.320   2.276  14.782 -1.8658 -0.0888  2.0207
  728TMC3    H210766   1.717   2.268  14.894  0.4190 -1.0694  1.4196
  728TMC3    C710767   1.555   2.340  14.710  0.0380  0.2874 -0.4419
  728TMC3    C810768   1.683   2.094  15.105  0.1597 -0.5346 -0.5214
  728TMC3    O110769   1.469   2.409  14.663  0.0171 -0.0443 -0.1653
  728TMC3    O210770   1.643   2.055  15.216 -0.5277  0.6473 -0.5453
  729MPD2     C10771   3.994   3.515  16.446 -0.3279 -0.3525  0.7815
  729MPD2    C110772   4.122   3.483  16.493 -0.7884  0.0125 -0.0860
  729MPD2    C210773   4.147   3.488  16.631  0.5066 -0.4348  0.3739
  729MPD2    C310774   4.046   3.528  16.717 -0.1831  0.2139  0.1533
  729MPD2    C410775   3.923   3.563  16.661  0.1990 -0.2196 -0.0972
  729MPD2    C510776   3.895   3.543  16.532  0.0805 -0.5189 -0.4633
  729MPD2     H10777   4.243   3.460  16.672  0.0222  0.3845  2.0818
  729MPD2    H110778   3.842   3.575  16.732 -1.6986 -1.3489 -2.0783
  729MPD2    H210779   3.968   3.495  16.343 -1.5793  2.0852  0.6320
  729MPD2    H310780   3.799   3.575  16.493  0.2692 -0.8557 -1.1985
  729MPD2     N10781   4.063   3.559  16.857 -0.1250  0.0954 -0.0998
  729MPD2    H510782   3.983   3.603  16.902 -1.4868 -2.0014 -0.4789
  729MPD2    N110783   4.221   3.461  16.401 -0.5334 -0.3890 -0.1276
  729MPD2    H710784   4.205   3.489  16.305 -2.7064  2.3178  1.0457
  730TMC3    C110785   4.158   3.528  17.069  0.4113  0.4100 -0.8707
  730TMC3    C210786   4.273   3.498  17.140  0.0223  0.2013  0.3402
  730TMC3    C310787   4.303   3.584  17.251 -1.0644  0.2635 -0.1954
  730TMC3    C410788   4.073   3.627  17.118  0.2835  0.3116  0.3011
  730TMC3    C510789   4.107   3.706  17.226 -0.1882 -0.1794  0.3969
  730TMC3    C610790   4.222   3.685  17.296  0.1928 -0.7283 -1.0480
  730TMC3     C10791   4.166   3.504  16.931  0.2535  0.2032  0.0068
  730TMC3     O10792   4.263   3.439  16.895 -0.0063 -0.0004 -0.2229
  730TMC3     H10793   4.342   3.423  17.103  0.5048  0.7617  0.1045
  730TMC3    H110794   3.974   3.634  17.074  0.3586  0.4582  0.1552
  730TMC3    H210795   4.272   3.750  17.366 -0.9077 -0.7757 -0.2146
  730TMC3    C710796   4.092   3.846  17.192  0.2148 -0.6190  0.4217
  730TMC3    C810797   4.433   3.582  17.306  0.0323 -0.6159 -0.0722
  730TMC3    O110798   4.042   3.875  17.086 -0.0972  0.2936 -0.1412
  730TMC3    O210799   4.445   3.629  17.418  0.1796 -0.0725  0.1902
  731MPD2     C10800   4.589   1.895  12.405  0.6065 -0.0367 -0.0048
  731MPD2    C110801   4.710   1.846  12.462 -0.4092 -0.6594 -0.2549
  731MPD2    C210802   4.705   1.782  12.582 -0.0149 -0.9139  0.1959
  731MPD2    C310803   4.581   1.762  12.645  0.1937 -0.2364  0.1155
  731MPD2    C410804   4.461   1.801  12.583  0.3191 -0.0451  0.8113
  731MPD2    C510805   4.467   1.867  12.463 -0.2084  0.3083 -0.6561
  731MPD2     H10806   0.071   1.758  12.637 -0.5154 -0.5161  1.1870
  731MPD2    H110807   4.365   1.767  12.623 -0.8793  0.5375 -1.5615
  731MPD2    H210808   4.597   1.945  12.310 -3.1805 -1.3066 -1.0059
  731MPD2    H310809   4.377   1.892  12.407 -0.3153  2.6506  0.5708
  731MPD2     N10810   4.581   1.700  12.768  0.2533  0.3711 -0.9834
  731MPD2    H510811   4.669   1.665  12.804 -0.7423 -1.0181  0.0827
  731MPD2    N110812   0.103   1.880  12.384 -0.4889 -0.2663  0.7563
  731MPD2    H710813   0.101   1.955  12.315 -0.1359 -1.0949 -0.1612
  732TMC3    C110814   0.328   1.863  12.298 -0.4961  0.4934 -0.2482
  732TMC3    C210815   0.284   1.897  12.174 -0.2111 -0.1088  0.1810
  732TMC3    C310816   0.350   1.866  12.062  0.2222  0.4269  0.3217
  732TMC3    C410817   0.455   1.799  12.312 -0.3447  0.1279 -0.4597
  732TMC3    C510818   0.524   1.773  12.196 -0.8171 -0.7185  0.5921
  732TMC3    C610819   0.473   1.803  12.072  0.8390 -0.2070 -0.2833
  732TMC3     C10820   0.231   1.831  12.407 -0.1772 -0.2637  0.3590
  732TMC3     O10821   0.269   1.752  12.493  0.1047  0.9023 -0.7304
  732TMC3     H10822   0.203   1.968  12.169 -1.6351 -1.7756 -0.2064
  732TMC3    H110823   0.495   1.768  12.408 -1.1851  0.7465  0.0781
  732TMC3    H210824   0.520   1.777  11.978  0.8655 -0.3558 -0.2283
  732TMC3    C710825   0.644   1.703  12.196 -0.1670  0.7990  0.3134
  732TMC3    C810826   0.281   1.862  11.937 -0.4176  0.3765  0.4543
  732TMC3    O110827   0.683   1.658  12.089 -0.6216  0.0540  0.0847
  732TMC3    O210828   0.353   1.868  11.839  0.3805  0.1816  0.2149
  733TMC3    C110829   1.037   4.567  12.571 -0.3132  0.9748 -0.1561
  733TMC3    C210830   1.155   4.514  12.624 -0.0498 -0.9314  1.0836
  733TMC3    C310831   1.270   4.534  12.557 -0.9423  0.1689 -0.1124
  733TMC3    C410832   1.044   4.657  12.466 -0.2530  0.7125  0.5015
  733TMC3    C510833   1.163   4.679  12.403 -0.1024 -0.0702  0.0323
  733TMC3    C610834   1.276   4.607  12.442  0.6277  0.3816  0.3725
  733TMC3     C10835   0.914   4.497  12.586  0.4853  0.2114 -0.2921
  733TMC3     O10836   0.843   4.483  12.490 -0.5247 -0.0789 -0.0237
  733TMC3     H10837   1.146   4.434  12.696  1.2121 -0.0633  2.2187
  733TMC3    H110838   0.953   4.689  12.416  1.2144 -0.3371 -2.8401
  733TMC3    H210839   1.375   4.644  12.418 -0.3192  2.0509 -1.0199
  733TMC3    C710840   1.163   0.008  12.268  0.0636  0.3037 -0.2624
  733TMC3    C810841   1.380   4.444  12.575 -0.1617  0.8783 -0.6599
  733TMC3    O110842   1.093   0.102  12.241 -0.6074  0.4974  0.7733
  733TMC3    O210843   1.401   4.384  12.682 -0.1068  0.3219  0.4670
  734MPD2     C10844   2.780   2.366  12.351  0.5323  0.1138  0.0345
  734MPD2    C110845   2.734   2.274  12.256  0.2990  0.3276 -0.2733
  734MPD2    C210846   2.760   2.294  12.124  0.1745  0.1176 -0.0677
  734MPD2    C310847   2.814   2.411  12.081  0.7318 -0.8891  0.3110
  734MPD2    C410848   2.851   2.510  12.171  0.3467 -0.4844 -0.3251
  734MPD2    C510849   2.847   2.476  12.307 -1.2735  0.4330  0.3172
  734MPD2     H10850   2.759   2.216  12.049 -1.6264  0.2263 -0.1593
  734MPD2    H110851   2.885   2.610  12.145  1.3086 -0.3222  1.5518
  734MPD2    H210852   2.756   2.345  12.454  0.0612  1.9866  0.3031
  734MPD2    H310853   2.880   2.548  12.381  0.0864 -0.7402  0.8526
  734MPD2     N10854   2.828   2.419  11.941 -0.1506 -0.1578 -0.1514
  734MPD2    H510855   2.791   2.342  11.888 -0.5714  0.5080 -0.8220
  734MPD2    N110856   2.666   2.164  12.308  0.0509  0.2733 -1.4606
  734MPD2    H710857   2.666   2.153  12.409  0.0815  0.7624 -1.4089
  735TMC3    C110858   2.561   1.957  12.298  0.0268  0.1456 -0.8003
  735TMC3    C210859   2.471   1.866  12.232  0.3105  0.1093 -0.0709
  735TMC3    C310860   2.509   1.736  12.203 -0.5813  0.3871 -0.2054
  735TMC3    C410861   2.674   1.905  12.348 -0.5250 -0.6367  0.2700
  735TMC3    C510862   2.694   1.770  12.342  0.4133 -0.3871 -0.4237
  735TMC3    C610863   2.617   1.682  12.267 -0.0010 -0.1365  0.3876
  735TMC3     C10864   2.586   2.086  12.226 -0.4830  0.3378 -0.3519
  735TMC3     O10865   2.542   2.098  12.113  0.2889  0.7569  0.2766
  735TMC3     H10866   2.382   1.899  12.179 -0.5417 -0.2880  1.1254
  735TMC3    H110867   2.763   1.963  12.371  0.2323 -2.4528  1.9863
  735TMC3    H210868   2.639   1.579  12.242 -0.9020 -0.3473  0.4534
  735TMC3    C710869   2.836   1.744  12.344 -0.1476  0.4667  0.2195
  735TMC3    C810870   2.502   1.707  12.061  0.6366 -0.0215  0.1769
  735TMC3    O110871   2.896   1.798  12.248 -0.7448  0.2642  0.3296
  735TMC3    O210872   2.504   1.590  12.021 -0.0575 -0.0248  0.2429
  736MPD2     C10873   3.011   1.472  12.519  0.6476  0.2894 -0.2388
  736MPD2    C110874   2.995   1.576  12.430 -0.2179  0.5401 -1.1579
  736MPD2    C210875   3.099   1.604  12.344  0.2670  0.2696 -0.2091
  736MPD2    C310876   3.221   1.531  12.346  0.2425  0.6408  0.0141
  736MPD2    C410877   3.236   1.429  12.442 -0.5420  0.1953  0.2859
  736MPD2    C510878   3.125   1.398  12.521  0.0497  0.2309 -1.4018
  736MPD2     H10879   3.089   1.680  12.267 -1.8539 -0.2160 -0.4112
  736MPD2    H110880   3.331   1.377  12.456 -1.5268 -1.6976 -0.0130
  736MPD2    H210881   2.934   1.433  12.584 -0.7530 -0.1555 -2.1809
  736MPD2    H310882   3.134   1.317  12.592  0.0892 -0.1523 -1.8465
  736MPD2     N10883   3.330   1.556  12.262 -0.9072  0.3731  0.1749
  736MPD2    H510884   3.409   1.492  12.260 -0.3410  1.0981 -1.0575
  736MPD2    N110885   2.872   1.643  12.428  0.6270 -0.1897  0.6082
  736MPD2    H710886   2.797   1.607  12.487  2.3374 -2.1775  1.5796
  737TMC3    C110887   3.486   1.685  12.127 -0.7277 -0.6039 -0.1543
  737TMC3    C210888   3.546   1.809  12.102 -0.3180 -0.3689  0.0745
  737TMC3    C310889   3.670   1.813  12.046 -0.5484  0.4134 -0.6398
  737TMC3    C410890   3.544   1.570  12.080  0.2786 -0.5787 -0.0066
  737TMC3    C510891   3.669   1.573  12.029  0.2802 -0.1451 -0.2500
  737TMC3    C610892   3.730   1.694  12.009 -0.7763  0.8677  0.2820
  737TMC3     C10893   3.356   1.676  12.201  0.4725  0.1848 -0.1896
  737TMC3     O10894   3.298   1.782  12.211 -0.4067 -0.1672  0.8030
  737TMC3     H10895   3.507   1.908  12.126  1.4877  0.6677 -1.2742
  737TMC3    H110896   3.487   1.478  12.090 -0.8906  0.2934  1.3894
  737TMC3    H210897   3.833   1.693  11.975 -0.8853  1.6249 -0.0612
  737TMC3    C710898   3.742   1.448  11.993  0.0811 -0.0088  0.0110
  737TMC3    C810899   3.698   1.926  11.964  0.0017 -0.4212  0.1539
  737TMC3    O110900   3.690   1.341  12.023  0.6381  0.1528 -0.3909
  737TMC3    O210901   3.818   1.945  11.954  0.1107 -0.2128  0.1060
  738MPD2     C10902   3.257   1.087  15.552  0.4687  0.1050  0.0199
  738MPD2    C110903   3.297   1.019  15.441  0.7360 -0.4166 -0.2271
  738MPD2    C210904   3.352   1.100  15.340  0.3984 -0.3051 -0.0331
  738MPD2    C310905   3.370   1.242  15.353 -0.8734  0.3943 -0.3045
  738MPD2    C410906   3.334   1.297  15.465  0.4369  0.2100 -0.2457
  738MPD2    C510907   3.269   1.224  15.561  0.1980 -0.1391  0.3080
  738MPD2     H10908   3.376   1.056  15.244 -3.4963  0.7775 -1.4912
  738MPD2    H110909   3.339   1.403  15.487 -1.5096 -0.0305  1.3686
  738MPD2    H210910   3.202   1.042  15.634  1.4393  0.5888  0.9469
  738MPD2    H310911   3.240   1.279  15.650  1.1759  0.2780  0.3721
  738MPD2     N10912   3.431   1.328  15.255 -0.2983  0.3452 -0.2625
  738MPD2    H510913   3.435   1.426  15.280 -3.8030  0.3541  0.2643
  738MPD2    N110914   3.271   0.881  15.417  0.0795 -0.1488 -0.7335
  738MPD2    H710915   3.274   0.844  15.323  3.5869  0.7384 -0.9913
  739TMC3    C110916   3.518   1.406  15.061  0.5982  0.0875  0.5929
  739TMC3    C210917   3.496   1.407  14.922 -0.1234 -0.0347  0.4481
  739TMC3    C310918   3.544   1.513  14.847  0.1992  0.2752  0.0088
  739TMC3    C410919   3.582   1.510  15.131 -0.7366  0.3096  0.6249
  739TMC3    C510920   3.613   1.615  15.048  0.7669 -0.2669 -0.2637
  739TMC3    C610921   3.599   1.622  14.914 -0.0248  0.2660  0.1249
  739TMC3     C10922   3.466   1.288  15.134  0.3157 -0.1838  0.7065
  739TMC3     O10923   3.456   1.186  15.063 -0.8489 -0.3153 -0.5793
  739TMC3     H10924   3.452   1.320  14.875  1.0325 -1.1083  1.3508
  739TMC3    H110925   3.617   1.502  15.233 -0.1388  1.3233  0.4955
  739TMC3    H210926   3.624   1.710  14.856 -0.0668 -0.3457 -0.8314
  739TMC3    C710927   3.713   1.711  15.093 -0.5085  1.0351  0.4978
  739TMC3    C810928   3.602   1.487  14.714  0.3928  0.3103  0.0914
  739TMC3    O110929   3.766   1.772  15.006  0.2213  0.9249  0.1196
  739TMC3    O210930   3.540   1.409  14.641  0.0541 -0.5360  0.0454
  740TMC3    C110931   4.269   2.221  14.241 -0.1553  0.3436  0.1512
  740TMC3    C210932   4.274   2.209  14.376  0.6040  0.4593 -0.4220
  740TMC3    C310933   4.397   2.177  14.438 -0.0617  0.1546  0.2221
  740TMC3    C410934   4.388   2.208  14.166 -0.0723  0.3566 -0.0455
  740TMC3    C510935   4.506   2.199  14.231 -0.4761  0.2868  0.4522
  740TMC3    C610936   4.511   2.170  14.361  0.8955 -0.5265 -0.1404
  740TMC3     C10937   4.135   2.216  14.173  0.2216 -1.0501  0.6493
  740TMC3     O10938   4.141   2.196  14.054 -0.3542  0.8497 -0.2149
  740TMC3     H10939   4.183   2.201  14.435 -0.2519 -1.1603 -1.9661
  740TMC3    H110940   4.391   2.195  14.059  2.2306 -1.5150  0.2560
  740TMC3    H210941   4.602   2.131  14.404  1.0584  0.9812  0.8892
  740TMC3    C710942   4.620   2.163  14.142 -0.0597  0.6132  0.2300
  740TMC3    C810943   4.398   2.144  14.580 -0.3765  0.3733 -0.4609
  740TMC3    O110944   4.702   2.077  14.180 -0.0262  0.2195  0.0373
  740TMC3    O210945   4.494   2.073  14.603 -0.2034  0.0553 -0.1626
  741TMC3    C110946   3.573   1.701  14.145  0.0928  0.4223  1.0048
  741TMC3    C210947   3.473   1.621  14.162  0.2015 -0.1630 -0.2636
  741TMC3    C310948   3.441   1.593  14.298 -0.6602 -0.5429  0.5766
  741TMC3    C410949   3.619   1.786  14.241 -0.0395 -0.0659  0.3679
  741TMC3    C510950   3.580   1.760  14.374  0.0775 -0.5784 -0.1822
  741TMC3    C610951   3.484   1.667  14.407  0.1933  0.1287 -0.0560
  741TMC3     C10952   3.615   1.724  14.009 -0.4081 -0.5159  0.1982
  741TMC3     O10953   3.523   1.708  13.928 -0.0106  0.4996  0.1725
  741TMC3     H10954   3.449   1.547  14.087  1.3957 -1.7752  0.9508
  741TMC3    H110955   3.676   1.874  14.216  2.3910 -1.2999  1.5403
  741TMC3    H210956   3.447   1.642  14.506  0.8316 -2.0374 -0.3659
  741TMC3    C710957   3.651   1.810  14.485  0.0317 -0.2097 -0.1989
  741TMC3    C810958   3.324   1.505  14.306 -0.1749  0.4728 -0.3206
  741TMC3    O110959   3.592   1.812  14.595  0.2096 -0.1472  0.4193
  741TMC3    O210960   3.260   1.509  14.202 -0.0419  0.0897 -0.0282
  742TMC3    C110961   3.680   0.175  15.121 -0.6582 -0.0773  0.3379
  742TMC3    C210962   3.633   0.145  14.998 -0.1617  0.0588 -0.1332
  742TMC3    C310963   3.673   0.023  14.946  0.5144 -0.3059 -0.4629
  742TMC3    C410964   3.768   0.094  15.187 -0.0875 -0.5018 -1.1040
  742TMC3    C510965   3.822   4.713  15.117  0.2544  0.1512 -0.7938
  742TMC3    C610966   3.771   4.670  14.997 -0.0722  0.3839  0.6189
  742TMC3     C10967   3.654   0.309  15.182  0.5824 -0.3735 -0.2277
  742TMC3     O10968   3.694   0.321  15.300  0.1555  0.4761  0.1567
  742TMC3     H10969   3.545   0.192  14.954  0.8407 -0.3324 -2.5506
  742TMC3    H110970   3.817   0.131  15.276 -2.4553 -0.5796  0.2320
  742TMC3    H210971   3.826   4.600  14.935 -2.0151  0.4143 -1.1322
  742TMC3    C710972   3.941   4.650  15.162 -0.3389 -0.3831 -0.4102
  742TMC3    C810973   3.654   0.004  14.800 -0.0559  0.1344 -0.2693
  742TMC3    O110974   3.992   4.571  15.083 -0.3192  0.0237  0.4053
  742TMC3    O210975   3.657   4.612  14.760  0.5824  0.1224  0.8510
  743MPD2     C10976   4.704   0.382   1.277 -0.2153  0.2727  0.5915
  743MPD2    C110977   0.098   0.349   1.211 -0.0069 -0.3951  0.7315
  743MPD2    C210978   0.193   0.293   1.292 -0.0818 -0.2095 -0.0705
  743MPD2    C310979   0.170   0.269   1.426 -0.1904  0.4903  0.2215
  743MPD2    C410980   0.045   0.296   1.487  0.5451 -0.7361  0.4731
  743MPD2    C510981   4.677   0.351   1.403  0.0451  0.0409  0.6975
  743MPD2     H10982   0.289   0.267   1.249  1.0607  1.2994  1.5734
  743MPD2    H110983   0.027   0.284   1.594  1.2715 -1.4003  0.5250
  743MPD2    H210984   4.612   0.409   1.226  0.9185  0.8176 -1.1978
  743MPD2    H310985   4.578   0.372   1.442 -0.6686  2.1871 -2.3056
  743MPD2     N10986   0.291   0.236   1.497 -0.0779 -0.4201 -0.6894
  743MPD2    H510987   0.381   0.233   1.450  0.1925 -0.0541 -0.1983
  743MPD2    N110988   0.115   0.400   1.075 -0.4822 -0.5568  0.2708
  743MPD2    H710989   0.036   0.456   1.047 -1.8511 -2.2663  0.7102
  744TMC3    C110990   0.211   0.424   0.858 -0.4302 -0.1351 -0.3251
  744TMC3    C210991   0.122   0.521   0.835  0.6970 -0.3661  0.2880
  744TMC3    C310992   0.137   0.599   0.719  0.2831 -0.0718  0.9862
  744TMC3    C410993   0.323   0.417   0.780 -0.0830 -0.0626  0.4228
  744TMC3    C510994   0.332   0.496   0.671  0.1866 -0.1734  0.1822
  744TMC3    C610995   0.246   0.592   0.633 -0.5633 -0.6035  0.2453
  744TMC3     C10996   0.215   0.357   0.989  0.2952 -0.5751  0.0757
  744TMC3     O10997   0.308   0.286   1.021 -0.2396  1.2467  0.0776
  744TMC3     H10998   0.033   0.536   0.895 -0.1357 -0.2218 -0.9730
  744TMC3    H110999   0.405   0.351   0.802 -1.3208 -1.7122  0.0747
  744TMC3    H211000   0.264   0.669   0.559  1.6083 -3.0650 -1.7737
  744TMC3    C711001   0.455   0.492   0.599 -0.4235 -0.5652  0.2478
  744TMC3    C811002   0.069   0.717   0.703 -0.8234  0.0955  0.4959
  744TMC3    O111003   0.506   0.602   0.572 -0.0357  0.4813  0.3613
  744TMC3    O211004   0.134   0.816   0.664 -0.7668 -0.0833  0.0021
  745TMC3    C111005   4.448   4.686  13.457 -0.7719 -0.0769  0.5064
  745TMC3    C211006   4.360   4.687  13.568  0.1792 -0.1803  0.4415
  745TMC3    C311007   4.224   4.682  13.533 -0.6938  0.0088  0.5831
  745TMC3    C411008   4.407   4.661  13.331 -0.0440 -0.0285 -0.3303
  745TMC3    C511009   4.274   4.646  13.301 -0.0320  0.3684  0.0393
  745TMC3    C611010   4.185   4.667  13.400  0.1016  0.1333 -0.3684
  745TMC3     C11011   4.583   4.678  13.496  0.4692 -0.4965  0.2164
  745TMC3     O11012   4.613   4.655  13.614 -0.1554 -0.3713 -0.0055
  745TMC3     H11013   4.384   4.681  13.673 -2.7552  0.8006  1.1707
  745TMC3    H111014   4.481   4.658  13.252  0.2952 -2.3968  0.0963
  745TMC3    H211015   4.078   4.664  13.381 -0.1080 -2.1078  1.2234
  745TMC3    C711016   4.213   4.632  13.165 -0.4085  0.9158  0.2404
  745TMC3    C811017   4.133   0.031  13.625  0.3036 -0.5518  0.7339
  745TMC3    O111018   4.095   4.591  13.159 -0.3640 -0.1705 -0.3993
  745TMC3    O211019   4.013   0.012  13.630 -0.5840 -0.2418 -0.0575
  746TMC3    C111020   1.993   1.555  10.798  0.4345  0.1513 -0.6340
  746TMC3    C211021   2.042   1.514  10.677 -0.3382  0.3211  0.0982
  746TMC3    C311022   2.018   1.387  10.639 -0.0829 -0.6318 -0.3125
  746TMC3    C411023   1.932   1.466  10.884 -0.0105 -0.3338 -0.3918
  746TMC3    C511024   1.921   1.333  10.849  0.7013 -1.1218  0.5022
  746TMC3    C611025   1.966   1.293  10.727  0.4172  0.2157 -0.2957
  746TMC3     C11026   1.944   1.689  10.805 -0.5606 -0.2704  0.7255
  746TMC3     O11027   1.829   1.689  10.849 -0.3679 -0.5574  0.0539
  746TMC3     H11028   2.092   1.582  10.608 -0.9065  0.4717 -0.1682
  746TMC3    H111029   1.885   1.509  10.972  0.8475  0.5499 -0.3676
  746TMC3    H211030   1.938   1.197  10.686  2.4168 -1.4649  2.3337
  746TMC3    C711031   1.801   1.265  10.899  0.2929 -0.2610  0.2311
  746TMC3    C811032   2.078   1.327  10.524 -0.4544  0.0292 -0.5039
  746TMC3    O111033   1.770   1.159  10.843 -0.2035 -0.2582 -0.0977
  746TMC3    O211034   2.091   1.208  10.513 -0.1771  0.1099 -0.1867
  747TMC3    C111035   4.352   1.422  11.136  0.3150  0.3815 -0.5376
  747TMC3    C211036   4.304   1.333  11.230  0.0388 -0.1337  0.2282
  747TMC3    C311037   4.286   1.378  11.356  0.2566  0.7509 -1.1013
  747TMC3    C411038   4.358   1.558  11.171  0.0380  0.3286  0.4997
  747TMC3    C511039   4.350   1.598  11.302  0.0518 -0.0869  0.3701
  747TMC3    C611040   4.305   1.512  11.398  0.3276 -0.5554  0.4949
  747TMC3     C11041   4.457   1.386  11.048 -0.0393 -0.2075  0.6940
  747TMC3     O11042   4.557   1.453  11.075  0.0166  0.2024  0.2153
  747TMC3     H11043   4.294   1.230  11.199 -0.7905 -0.0816  0.3399
  747TMC3    H111044   4.399   1.624  11.095  0.6369  1.1972  1.5832
  747TMC3    H211045   4.305   1.540  11.503 -0.6812  1.2625  0.0053
  747TMC3    C711046   4.435   1.709  11.333 -0.1314 -0.6798  0.7711
  747TMC3    C811047   4.206   1.293  11.449 -0.9233  0.5723  0.2782
  747TMC3    O111048   4.420   1.767  11.442  0.1702  0.0210  0.1019
  747TMC3    O211049   4.196   1.173  11.424  0.3067  0.2462  0.8268
  748MPD2     C11050   4.671   2.447   1.480  0.5628 -0.6644 -0.0322
  748MPD2    C111051   4.650   2.404   1.350 -0.8859 -0.1695 -0.3657
  748MPD2    C211052   0.030   2.357   1.273 -0.0768 -0.1988 -1.2172
  748MPD2    C311053   0.155   2.345   1.330 -0.3032  0.3984 -0.2683
  748MPD2    C411054   0.178   2.384   1.461 -0.0416  0.2221  0.0293
  748MPD2    C511055   0.073   2.429   1.540 -0.8650 -0.8812  0.4215
  748MPD2     H11056   0.022   2.315   1.174 -1.1864 -0.6230 -0.9457
  748MPD2    H111057   0.271   2.359   1.512 -0.8743 -2.5060  0.2148
  748MPD2    H211058   4.589   2.475   1.545 -1.1675 -1.0751 -2.0255
  748MPD2    H311059   0.076   2.454   1.645  0.3992  0.0202  0.1814
  748MPD2     N11060   0.251   2.285   1.249 -0.2825  0.3104  0.0584
  748MPD2    H511061   0.224   2.246   1.160  0.3939  0.8954 -0.4074
  748MPD2    N111062   4.521   2.419   1.307  0.2899 -0.8366  0.3681
  748MPD2    H711063   4.448   2.456   1.367 -0.0553 -0.3096 -0.3657
  749TMC3    C111064   0.462   2.234   1.170  0.3379 -0.0033  0.4307
  749TMC3    C211065   0.412   2.129   1.095 -0.0086  0.4476 -0.8174
  749TMC3    C311066   0.498   2.045   1.033 -0.1306 -0.2214 -0.1864
  749TMC3    C411067   0.596   2.261   1.177 -0.2775 -0.0673  0.0146
  749TMC3    C511068   0.684   2.176   1.106 -0.1548 -0.2829  0.7481
  749TMC3    C611069   0.634   2.065   1.036  0.7836 -0.3493 -0.3131
  749TMC3     C11070   0.380   2.306   1.265 -0.4848 -0.2612 -0.5714
  749TMC3     O11071   0.441   2.349   1.365 -0.0281  0.0107 -0.1679
  749TMC3     H11072   0.308   2.101   1.085  0.0633 -0.1852  0.1670
  749TMC3    H111073   0.634   2.352   1.221 -0.7537  1.0166 -1.8053
  749TMC3    H211074   0.701   2.012   0.970  0.7043  1.6803 -2.0137
  749TMC3    C711075   0.826   2.206   1.108 -0.4065 -0.2284  0.1177
  749TMC3    C811076   0.456   1.912   0.985 -0.0041 -0.1868  0.0175
  749TMC3    O111077   0.854   2.320   1.145  0.4405 -0.7342  0.0071
  749TMC3    O211078   0.335   1.907   0.960 -0.2383  0.2852 -0.1142
  750MPD2     C11079   2.497   3.554  10.997 -0.5861  0.3913 -0.5726
  750MPD2    C111080   2.359   3.552  10.988  0.5310 -0.6928  0.2389
  750MPD2    C211081   2.292   3.445  10.923 -0.0531 -0.2569  0.0559
  750MPD2    C311082   2.369   3.331  10.880  0.2188  0.6424  0.2636
  750MPD2    C411083   2.502   3.329  10.906  0.3741  0.1760 -0.2589
  750MPD2    C511084   2.565   3.440  10.954  0.6469  0.1086  0.5000
  750MPD2     H11085   2.186   3.447  10.900 -0.3198  3.0183  1.4667
  750MPD2    H111086   2.560   3.243  10.873 -0.2891 -0.0202 -0.9239
  750MPD2    H211087   2.563   3.636  11.023  0.7841 -0.1918 -2.2034
  750MPD2    H311088   2.672   3.441  10.943  0.4752  1.2899 -1.1064
  750MPD2     N11089   2.316   3.213  10.813  0.0283 -0.3129 -0.2881
  750MPD2    H511090   2.384   3.142  10.786  2.2525  1.5660  0.3310
  750MPD2    N111091   2.287   3.658  11.047  0.6207 -0.0994  0.0822
  750MPD2    H711092   2.341   3.727  11.097 -0.8893  2.7474 -2.2011
  751TMC3    C111093   2.155   3.075  10.716  0.4127 -0.6528 -0.5451
  751TMC3    C211094   2.018   3.043  10.703  0.5298 -0.1797 -0.3638
  751TMC3    C311095   1.990   2.931  10.639 -0.0265 -0.5701  0.0755
  751TMC3    C411096   2.252   3.003  10.652  0.3327  0.7732 -0.5143
  751TMC3    C511097   2.216   2.893  10.582 -0.4177 -0.3981  0.8757
  751TMC3    C611098   2.083   2.853  10.574 -0.3864 -0.0763 -0.4799
  751TMC3     C11099   2.182   3.189  10.812 -0.5911 -0.5360 -0.8937
  751TMC3     O11100   2.088   3.264  10.837 -0.2226 -0.6500 -0.6632
  751TMC3     H11101   1.950   3.120  10.736  1.0070  0.6703 -1.3348
  751TMC3    H111102   2.349   3.048  10.635  0.4904  0.6585  0.0724
  751TMC3    H211103   2.059   2.760  10.525  1.6403 -0.1561 -1.3078
  751TMC3    C711104   2.312   2.786  10.564  0.1027  0.1662  0.2301
  751TMC3    C811105   1.869   2.854  10.673 -0.7999  0.1326 -0.0104
  751TMC3    O111106   2.404   2.798  10.478 -0.2665  0.4120 -0.4335
  751TMC3    O211107   1.889   2.736  10.658  0.3739  0.3752 -0.2169
  752TMC3    C111108   0.390   3.191  17.065 -0.4881 -0.0252 -0.0353
  752TMC3    C211109   0.257   3.174  17.089  0.3445 -0.1470  0.2423
  752TMC3    C311110   0.217   3.191  17.215  0.2798  0.1766  0.3714
  752TMC3    C411111   0.482   3.218  17.159  0.2058  0.5838  0.1983
  752TMC3    C511112   0.436   3.231  17.287 -0.5113 -0.0735  0.0598
  752TMC3    C611113   0.301   3.211  17.317 -0.5225 -0.8650 -0.0890
  752TMC3     C11114   0.430   3.232  16.936 -0.4365 -0.2883 -0.2602
  752TMC3     O11115   0.553   3.247  16.914 -0.2699  1.0242 -0.1507
  752TMC3     H11116   0.185   3.129  17.021  1.2870 -1.7261  0.2889
  752TMC3    H111117   0.578   3.263  17.137 -0.9189  2.6533 -0.5145
  752TMC3    H211118   0.270   3.219  17.421  0.3357  1.1061  0.0230
  752TMC3    C711119   0.511   3.314  17.384  0.0108 -0.8731 -0.7086
  752TMC3    C811120   0.076   3.209  17.230 -0.0161  0.4759  0.2794
  752TMC3    O111121   0.478   3.299  17.501 -0.3356 -0.1460 -0.2999
  752TMC3    O211122   0.010   3.223  17.126  0.0490 -0.0189 -0.5471
  753TMC3    C111123   3.003   4.655  13.427 -0.1638  0.1994 -0.3311
  753TMC3    C211124   2.953   4.612  13.546  0.2948  0.4647  0.1131
  753TMC3    C311125   2.931   4.480  13.556  0.1907 -0.4528  0.3277
  753TMC3    C411126   3.007   4.565  13.316  0.3676 -0.7046 -0.3441
  753TMC3    C511127   2.974   4.431  13.330  0.1228 -0.7355 -0.1368
  753TMC3    C611128   2.936   4.389  13.451 -0.0845 -0.3532  0.1263
  753TMC3     C11129   3.107   0.030  13.445  0.8532  0.4354  0.3500
  753TMC3     O11130   3.095   0.103  13.543 -0.6732 -0.5322  0.0329
  753TMC3     H11131   2.931   4.686  13.621  1.3524 -0.1592  1.0395
  753TMC3    H111132   3.024   4.604  13.216  1.2639  0.4215  0.2406
  753TMC3    H211133   2.939   4.284  13.479  2.0313 -0.8046 -1.7868
  753TMC3    C711134   2.990   4.339  13.218  0.5243 -0.8104 -0.1706
  753TMC3    C811135   2.917   4.416  13.682  1.2610 -0.1172 -0.3089
  753TMC3    O111136   3.056   4.385  13.125  1.2345  0.0106  1.0660
  753TMC3    O211137   2.889   4.297  13.681  0.5211 -0.0013  0.0970
  754MPD2     C11138   1.595   2.898  13.133  0.6339 -0.3251  0.4599
  754MPD2    C111139   1.538   2.770  13.135 -0.3598 -0.6945  0.1987
  754MPD2    C211140   1.412   2.744  13.083 -0.4286  0.0821  0.4606
  754MPD2    C311141   1.333   2.848  13.044  0.3956  0.6300 -0.3210
  754MPD2    C411142   1.381   2.975  13.062 -0.2862 -0.6058 -0.1755
  754MPD2    C511143   1.511   2.995  13.092  0.3001 -0.0556  0.8570
  754MPD2     H11144   1.384   2.639  13.078 -1.8402  0.5319 -0.9997
  754MPD2    H111145   1.324   3.062  13.032  1.5127  0.8512  0.6133
  754MPD2    H211146   1.695   2.923  13.166  0.6369  0.5655 -0.2061
  754MPD2    H311147   1.557   3.093  13.088  2.4073 -1.1045 -0.5363
  754MPD2     N11148   1.196   2.839  13.014 -0.3480 -0.1621 -0.3264
  754MPD2    H511149   1.151   2.927  12.989 -0.6926 -0.8482 -2.1219
  754MPD2    N111150   1.619   2.666  13.184 -0.3096  0.1946  0.3437
  754MPD2    H711151   1.719   2.683  13.182 -0.5674  1.6223 -0.5040
  755MPD2     C11152   0.742   3.501  13.069 -0.6224 -0.0967  0.8967
  755MPD2    C111153   0.722   3.420  13.175  0.7827 -0.3232 -0.1286
  755MPD2    C211154   0.757   3.287  13.167  0.0356  0.1878 -0.3496
  755MPD2    C311155   0.791   3.233  13.045 -0.4927  0.1778  0.0235
  755MPD2    C411156   0.826   3.321  12.943 -0.4857 -0.4415 -0.2616
  755MPD2    C511157   0.798   3.455  12.957  0.5088 -0.4966 -0.6040
  755MPD2     H11158   0.748   3.225  13.256 -2.7608 -0.1185 -0.8233
  755MPD2    H111159   0.885   3.286  12.858  1.0417 -1.2640  1.1307
  755MPD2    H211160   0.719   3.607  13.078 -1.6607 -0.2401 -0.0290
  755MPD2    H311161   0.818   3.525  12.877 -0.3491 -0.8321 -1.1109
  755MPD2     N11162   0.810   3.094  13.020  0.0235  0.1227 -0.3759
  755MPD2    H511163   0.839   3.067  12.927  0.6950  0.1112 -0.1649
  755MPD2    N111164   0.674   3.469  13.300  0.8107  0.2424 -0.5104
  755MPD2    H711165   0.672   3.400  13.375  1.0219 -0.9054 -1.5680
  756MPD2     C11166   1.645   3.621   8.987 -0.1738 -0.2840  0.3997
  756MPD2    C111167   1.607   3.508   9.058  0.6775 -0.2672 -0.0134
  756MPD2    C211168   1.472   3.471   9.036  0.0564 -0.6422  0.1087
  756MPD2    C311169   1.393   3.520   8.928  0.5930 -0.1324  0.5268
  756MPD2    C411170   1.444   3.630   8.853 -0.1657 -0.8114 -0.2488
  756MPD2    C511171   1.565   3.685   8.893 -0.3338  0.3886 -0.1830
  756MPD2     H11172   1.429   3.385   9.087 -2.0992  0.1741 -0.3532
  756MPD2    H111173   1.395   3.673   8.767 -0.2590  3.7017  2.0599
  756MPD2    H211174   1.743   3.667   8.996  0.6897 -2.1933  0.7854
  756MPD2    H311175   1.602   3.773   8.841  3.1772 -0.7063  0.4665
  756MPD2     N11176   1.262   3.466   8.912 -0.0498 -0.4258 -0.0669
  756MPD2    H511177   1.240   3.381   8.963 -0.3408 -0.6359 -0.5446
  756MPD2    N111178   1.680   3.436   9.150 -0.2447  0.2401 -0.6883
  756MPD2    H711179   1.625   3.361   9.191  0.1230 -0.5246 -1.5798
  757MPD2     C11180   0.909   2.760   9.295  0.5046 -0.2193  0.2802
  757MPD2    C111181   1.034   2.788   9.248  0.2843 -0.3338 -0.8407
  757MPD2    C211182   1.053   2.892   9.157  0.3785  0.1302  0.8897
  757MPD2    C311183   0.943   2.966   9.118  0.7581  0.4380 -0.2636
  757MPD2    C411184   0.819   2.939   9.176 -0.2012 -0.2120 -0.2431
  757MPD2    C511185   0.806   2.842   9.268  0.5134 -0.4326 -0.9724
  757MPD2     H11186   1.152   2.920   9.124 -1.1128  1.3413 -2.5564
  757MPD2    H111187   0.728   2.987   9.141 -0.4187 -1.7479 -1.7532
  757MPD2    H211188   0.895   2.684   9.371  1.9720  1.7301  2.4757
  757MPD2    H311189   0.708   2.808   9.298  0.9185 -1.3484 -0.7079
  757MPD2     N11190   0.951   3.062   9.013  0.0481 -0.9440  0.2420
  757MPD2    H511191   1.046   3.088   8.990  0.0123 -0.9195  0.1266
  757MPD2    N111192   1.129   2.694   9.285 -0.4228 -0.3707  0.1793
  757MPD2    H711193   1.103   2.615   9.343  0.9544 -0.4170  0.7342
  758MPD2     C11194   1.249   2.681  15.573 -0.0307 -0.0915  0.1910
  758MPD2    C111195   1.366   2.672  15.646  0.1847  0.2737 -0.4214
  758MPD2    C211196   1.377   2.713  15.775  0.7175 -0.6184 -0.2665
  758MPD2    C311197   1.267   2.787  15.839  0.5035  0.2143  0.1820
  758MPD2    C411198   1.147   2.794  15.767  0.8147  0.0682 -0.3352
  758MPD2    C511199   1.141   2.736  15.639  0.2288  0.7098  0.1091
  758MPD2     H11200   1.470   2.696  15.829  0.9090  0.7808 -0.1429
  758MPD2    H111201   1.055   2.842  15.800  1.2585  1.4269 -1.0869
  758MPD2    H211202   1.235   2.645  15.472 -0.1227  0.9634 -0.1662
  758MPD2    H311203   1.044   2.729  15.590 -0.4661 -1.9261  1.8605
  758MPD2     N11204   1.276   2.853  15.966 -0.0973 -0.6397 -0.1210
  758MPD2    H511205   1.195   2.895  16.011  1.7825  0.4366  2.2753
  758MPD2    N111206   1.472   2.615  15.580  0.3449 -0.1924  0.4791
  758MPD2    H711207   1.454   2.585  15.485 -1.0768 -0.1227  0.7256
  759MPD2     C11208   0.543   1.461  10.390 -0.3502 -0.1532  0.6300
  759MPD2    C111209   0.497   1.338  10.348  1.0117  0.4819  0.2035
  759MPD2    C211210   0.542   1.289  10.228 -0.5756 -0.3820  0.4314
  759MPD2    C311211   0.621   1.375  10.142 -0.1512  0.1277 -0.0959
  759MPD2    C411212   0.666   1.495  10.190 -0.5929  0.4775 -0.2875
  759MPD2    C511213   0.627   1.537  10.312  0.2686 -0.4605 -0.6960
  759MPD2     H11214   0.509   1.188  10.204 -1.2529  0.1445 -0.8381
  759MPD2    H111215   0.735   1.560  10.139 -1.5284  2.3294  0.7623
  759MPD2    H211216   0.519   1.500  10.489  0.0353  2.7281 -0.4202
  759MPD2    H311217   0.670   1.628  10.352 -0.4329 -0.5468  0.2562
  759MPD2     N11218   0.652   1.319  10.014 -0.2937 -0.3532  0.0740
  759MPD2    H511219   0.612   1.228   9.996  0.0886 -0.7972  1.4965
  759MPD2    N111220   0.406   1.245  10.413  0.5564 -0.0548  0.1772
  759MPD2    H711221   0.371   1.162  10.368  3.2073 -1.7046  1.2013
  760MPD2     C11222   4.664   2.887  11.728  0.0826  0.4853  0.0510
  760MPD2    C111223   0.080   2.915  11.738 -0.0844 -0.0809 -0.4245
  760MPD2    C211224   0.154   2.833  11.827  0.2644 -0.1880  0.0208
  760MPD2    C311225   0.093   2.753  11.920 -0.4097 -0.1245  0.6971
  760MPD2    C411226   4.677   2.739  11.917 -0.6639 -0.5950 -0.3971
  760MPD2    C511227   4.602   2.802  11.821  0.3086 -0.8489 -0.1551
  760MPD2     H11228   0.261   2.845  11.840  0.1962 -1.0871  1.4600
  760MPD2    H111229   4.637   2.659  11.978  0.9189 -2.8056 -2.3005
  760MPD2    H211230   4.603   2.939  11.655  0.7604  0.5443 -0.4657
  760MPD2    H311231   4.495   2.782  11.821 -0.1138  1.3366  0.8124
  760MPD2     N11232   0.151   2.680  12.031  0.9872  0.2328 -0.0471
  760MPD2    H511233   0.090   2.658  12.109  2.0922 -0.9846  0.4810
  760MPD2    N111234   0.144   3.013  11.649  0.3715  0.3495 -0.1787
  760MPD2    H711235   0.242   3.031  11.667 -0.1770  1.7783  1.4204
  761MPD2     C11236   1.369   2.793  10.775 -0.9502 -0.7016 -0.7014
  761MPD2    C111237   1.457   2.728  10.692  0.2005  0.2763  0.0844
  761MPD2    C211238   1.590   2.761  10.693 -0.9067  0.1102  0.8284
  761MPD2    C311239   1.633   2.883  10.747  0.3591  0.1042  0.2592
  761MPD2    C411240   1.542   2.962  10.820 -0.1853  0.2744  0.1015
  761MPD2    C511241   1.416   2.911  10.840 -0.4264 -0.2597 -0.1129
  761MPD2     H11242   1.657   2.707  10.627 -0.3584  2.7932 -0.7824
  761MPD2    H111243   1.564   3.053  10.874 -1.0956 -0.6073  1.9471
  761MPD2    H211244   1.263   2.774  10.782 -0.8408 -1.5468 -1.3037
  761MPD2    H311245   1.357   2.971  10.909 -0.4365 -0.6473  0.2159
  761MPD2     N11246   1.766   2.930  10.735  0.3026 -0.2737  0.5188
  761MPD2    H511247   1.785   3.026  10.765  1.1437 -0.3119  0.1131
  761MPD2    N111248   1.405   2.618  10.614 -0.4408 -0.0006  0.5362
  761MPD2    H711249   1.306   2.602  10.626 -0.0119 -2.4871  0.8995
  762MPD2     C11250   1.917   2.442  10.413  0.0525  0.2455  0.6285
  762MPD2    C111251   1.854   2.328  10.358  0.4499 -0.3038  0.4075
  762MPD2    C211252   1.921   2.251  10.271 -0.5967  0.6226 -0.2662
  762MPD2    C311253   2.049   2.281  10.235  0.0172 -0.6574 -0.2171
  762MPD2    C411254   2.115   2.392  10.293 -0.1621  0.5870  0.5948
  762MPD2    C511255   2.043   2.475  10.381  0.2327  0.1598 -0.5723
  762MPD2     H11256   1.882   2.163  10.222  0.9424  0.5191 -1.3058
  762MPD2    H111257   2.215   2.429  10.274  0.8381 -0.8199  3.0661
  762MPD2    H211258   1.867   2.511  10.480 -0.2661  0.5072  0.1207
  762MPD2    H311259   2.092   2.559  10.428  0.8043 -0.0628 -0.7724
  762MPD2     N11260   2.112   2.190  10.138  0.3334 -0.2414  0.1773
  762MPD2    H511261   2.063   2.106  10.112  0.3123 -0.0174 -0.5005
  762MPD2    N111262   1.718   2.314  10.382 -0.4567 -0.0148 -0.0082
  762MPD2    H711263   1.672   2.386  10.435 -1.1234  0.1395 -0.7940
  763MPD2     C11264   2.446   2.818  15.896 -0.1676  0.4596 -1.0464
  763MPD2    C111265   2.563   2.874  15.855 -0.4251 -0.1405  0.1704
  763MPD2    C211266   2.629   2.975  15.934  0.6864  1.3405  0.1873
  763MPD2    C311267   2.563   3.026  16.048 -0.3885 -0.7195  0.3482
  763MPD2    C411268   2.444   2.967  16.084 -0.6951  0.1188 -0.1378
  763MPD2    C511269   2.389   2.866  16.012  0.6390  0.1762 -1.2423
  763MPD2     H11270   2.723   3.016  15.900 -0.0375  2.4335 -0.4789
  763MPD2    H111271   2.396   3.007  16.173  1.0501  0.4750  0.6341
  763MPD2    H211272   2.398   2.732  15.850 -1.0712  0.7745 -0.6878
  763MPD2    H311273   2.287   2.841  16.037  1.3802  1.3995  2.8539
  763MPD2     N11274   2.627   3.120  16.140 -0.0533 -0.7591 -0.0775
  763MPD2    H511275   2.576   3.156  16.220 -0.5361  0.5443 -0.9580
  763MPD2    N111276   2.636   2.833  15.737  0.3682 -0.5848 -0.2949
  763MPD2    H711277   2.726   2.872  15.712  0.1783 -1.1122 -1.7785
  764MPD2     C11278   0.885   0.044  17.121 -0.1984 -0.4493  0.6977
  764MPD2    C111279   0.888   4.650  17.047 -0.7478  0.1683 -0.9028
  764MPD2    C211280   0.927   4.536  17.113  0.0681  0.1694 -1.0853
  764MPD2    C311281   0.973   4.536  17.242 -0.0870 -0.2754  0.1109
  764MPD2    C411282   0.982   4.657  17.310  0.3859  0.0573 -0.4461
  764MPD2    C511283   0.932   0.044  17.250 -0.4127 -0.3583  0.2914
  764MPD2     H11284   0.933   4.446  17.052 -2.7152 -0.2393 -0.7751
  764MPD2    H111285   1.018   4.675  17.411 -0.2680  1.1512 -0.4005
  764MPD2    H211286   0.860   0.142  17.082  2.4571  0.0037  0.1051
  764MPD2    H311287   0.947   0.138  17.301 -1.8621  0.2633 -0.4558
  764MPD2     N11288   1.015   4.412  17.293  0.2005 -0.3768 -0.2226
  764MPD2    H511289   0.990   4.334  17.233 -1.9890 -0.1054  0.3351
  764MPD2    N111290   0.837   4.636  16.917 -0.2883 -0.1769  0.4735
  764MPD2    H711291   0.847   4.542  16.879  0.3524  0.2548 -0.4328
  765MPD2     C11292   0.056   2.152  16.077 -0.2071  0.2653  0.1948
  765MPD2    C111293   0.137   2.246  16.014  0.1709  0.3965 -0.9166
  765MPD2    C211294   0.243   2.192  15.946 -0.2638 -0.4660  0.5979
  765MPD2    C311295   0.288   2.059  15.955 -0.2334  0.4560  0.6301
  765MPD2    C411296   0.214   1.978  16.046  0.2392 -0.5755 -0.6736
  765MPD2    C511297   0.098   2.024  16.094  0.5048 -0.1813  0.7420
  765MPD2     H11298   0.292   2.256  15.874  2.1818 -0.5874  2.1746
  765MPD2    H111299   0.249   1.877  16.066  1.4302 -0.2355 -1.0282
  765MPD2    H211300   4.679   2.181  16.103 -0.1951  1.2610 -0.8844
  765MPD2    H311301   0.039   1.962  16.162  0.4413 -0.6810  0.2317
  765MPD2     N11302   0.406   2.020  15.888 -0.2046 -0.3870  0.0323
  765MPD2    H511303   0.463   2.086  15.837  0.3252 -0.7465  0.1622
  765MPD2    N111304   0.092   2.381  16.011 -0.2249  0.4992 -0.0919
  765MPD2    H711305   4.720   2.402  16.034 -0.3581  0.3043 -0.4554
  766MPD2     C11306   0.213   2.085  15.549 -0.0012  0.0811  0.6654
  766MPD2    C111307   0.253   2.214  15.510 -0.3875  0.4676 -0.2427
  766MPD2    C211308   0.342   2.236  15.407  0.1862 -0.5937 -0.2880
  766MPD2    C311309   0.401   2.122  15.347  0.1826  0.0370  0.8707
  766MPD2    C411310   0.355   1.997  15.380 -0.6906 -0.2716  0.3254
  766MPD2    C511311   0.262   1.979  15.476  0.0028  0.0412 -0.1746
  766MPD2     H11312   0.385   2.331  15.375 -0.0264  0.3835  2.3122
  766MPD2    H111313   0.379   1.905  15.328 -2.2674  0.7038 -2.1101
  766MPD2    H211314   0.143   2.068  15.630 -1.8038  1.2536 -0.6480
  766MPD2    H311315   0.223   1.883  15.508  1.2275  0.4414  2.5820
  766MPD2     N11316   0.489   2.145  15.235  0.8547 -0.1709  0.0856
  766MPD2    H511317   0.490   2.239  15.198 -0.5827 -0.7584 -1.4653
  766MPD2    N111318   0.181   2.318  15.574  0.5777 -0.1363  0.3899
  766MPD2    H711319   0.094   2.291  15.619  0.9732  0.8972  1.7935
  767MPD2     C11320   0.083   2.517  15.221 -0.9390 -0.5013  0.4527
  767MPD2    C111321   0.204   2.515  15.160 -0.6294 -0.3029 -0.2082
  767MPD2    C211322   0.233   2.427  15.058 -1.0854  0.7810  0.0413
  767MPD2    C311323   0.132   2.348  14.998  0.0976 -0.3455 -0.3372
  767MPD2    C411324   0.020   2.338  15.079  0.3172 -0.3181  0.1419
  767MPD2    C511325   4.715   2.423  15.184  0.1791  0.1710 -0.7309
  767MPD2     H11326   0.329   2.444  15.011 -2.0600  3.8706 -0.7899
  767MPD2    H111327   4.660   2.278  15.044  1.1528  0.0944 -2.5104
  767MPD2    H211328   0.050   2.581  15.302 -1.4256  0.1596 -0.2505
  767MPD2    H311329   4.625   2.416  15.244  1.2665  2.5773  1.1773
  767MPD2     N11330   0.149   2.298  14.869  0.5140  0.1357  0.7073
  767MPD2    H511331   0.242   2.297  14.829 -0.1035  1.1744 -0.7561
  767MPD2    N111332   0.304   2.619  15.186  0.6940 -0.6754 -0.3455
  767MPD2    H711333   0.394   2.615  15.138  0.1227 -0.6878 -1.4027
  768MPD2     C11334   1.673   1.216  10.324  0.2461  0.5976 -0.5240
  768MPD2    C111335   1.619   1.160  10.441 -0.1581 -0.0051 -0.3790
  768MPD2    C211336   1.695   1.066  10.502 -0.3447 -0.2633 -0.1478
  768MPD2    C311337   1.827   1.039  10.466 -0.6002  0.5491  0.5506
  768MPD2    C411338   1.875   1.087  10.342  0.7724  0.1894 -0.3674
  768MPD2    C511339   1.791   1.171  10.269 -0.0681  0.1149 -0.2946
  768MPD2     H11340   1.655   1.027  10.595 -1.6683 -0.5809 -0.8561
  768MPD2    H111341   1.975   1.077  10.299  0.6955 -1.2525 -0.2192
  768MPD2    H211342   1.628   1.292  10.261 -3.0746 -2.6992 -2.0941
  768MPD2    H311343   1.825   1.201  10.171  0.1373  0.4490 -0.1219
  768MPD2     N11344   1.916   0.960  10.540 -1.1590 -0.2833  0.4188
  768MPD2    H511345   2.012   0.970  10.508 -0.7495  0.4138  1.8600
  768MPD2    N111346   1.504   1.195  10.512 -0.5636  0.0248  0.3915
  768MPD2    H711347   1.478   1.146  10.597 -0.0540 -1.3467 -0.2444
  769MPD2     C11348   2.391   3.503  14.835 -0.4932 -0.0540  0.7338
  769MPD2    C111349   2.257   3.512  14.865  0.3048  0.5798 -0.6832
  769MPD2    C211350   2.225   3.550  14.994  0.6259  0.3461 -0.8625
  769MPD2    C311351   2.319   3.594  15.079  0.3892  0.6917  0.0726
  769MPD2    C411352   2.455   3.593  15.044  0.1398 -0.3252  0.5377
  769MPD2    C511353   2.489   3.539  14.923 -0.0924  0.7329 -0.2721
  769MPD2     H11354   2.121   3.559  15.024  0.9429 -0.2447  0.4170
  769MPD2    H111355   2.537   3.616  15.111 -0.8897  3.7638  0.4006
  769MPD2    H211356   2.431   3.483  14.736 -2.0141  0.1952  0.0661
  769MPD2    H311357   2.593   3.540  14.895  0.2243  0.6413  0.8813
  769MPD2     N11358   2.275   3.647  15.206 -0.0239  0.3371  0.1099
  769MPD2    H511359   2.179   3.634  15.237 -0.2116  0.1833 -0.5328
  769MPD2    N111360   2.168   3.476  14.760  0.1056 -0.2669  0.4212
  769MPD2    H711361   2.212   3.435  14.678 -1.2457 -1.0659  0.0795
  770MPD2     C11362   1.318   3.347  14.433 -0.0498  0.0262  0.4677
  770MPD2    C111363   1.418   3.350  14.529  0.0819 -0.0913  0.6235
  770MPD2    C211364   1.493   3.459  14.540 -0.0601  0.2041 -0.3768
  770MPD2    C311365   1.483   3.557  14.442  0.2615 -0.3615 -0.6224
  770MPD2    C411366   1.380   3.560  14.354  0.8811 -0.2404  0.4540
  770MPD2    C511367   1.305   3.452  14.345  0.3395 -0.4622 -0.1067
  770MPD2     H11368   1.563   3.474  14.622  0.6351 -0.4797 -0.8407
  770MPD2    H111369   1.380   3.627  14.268  0.7400  0.2700  0.8551
  770MPD2    H211370   1.256   3.261  14.411 -0.4373  0.6340 -0.7982
  770MPD2    H311371   1.240   3.429  14.261  1.1935  0.2794 -0.9646
  770MPD2     N11372   1.572   3.670  14.427  0.2630  0.4639  0.1983
  770MPD2    H511373   1.532   3.752  14.382 -2.0959 -1.4586 -1.2025
  770MPD2    N111374   1.437   3.237  14.617  0.7157  0.0391 -0.1911
  770MPD2    H711375   1.390   3.150  14.595  0.4832 -0.2681  1.5213
  771MPD2     C11376   2.909   1.293  13.480 -0.2776 -0.1698 -0.5922
  771MPD2    C111377   2.919   1.417  13.431 -0.4736 -0.5062  0.0041
  771MPD2    C211378   2.889   1.424  13.297 -0.4569  0.4277 -0.4768
  771MPD2    C311379   2.855   1.318  13.210 -0.0380  0.6585  0.6345
  771MPD2    C411380   2.862   1.196  13.265  0.0879  0.9405  0.0042
  771MPD2    C511381   2.886   1.182  13.401 -0.1298 -0.1924 -0.4005
  771MPD2     H11382   2.896   1.517  13.241  2.6023  1.2726  1.3317
  771MPD2    H111383   2.850   1.100  13.216  1.8153  1.2661 -1.0588
  771MPD2    H211384   2.930   1.281  13.586 -0.2892 -0.2011 -0.5933
  771MPD2    H311385   2.887   1.082  13.443  0.4689  0.7001  1.6959
  771MPD2     N11386   2.814   1.348  13.078  0.5578  0.0618  0.2773
  771MPD2    H511387   2.826   1.445  13.052 -1.2592  0.7754  2.0002
  771MPD2    N111388   2.954   1.533  13.501  0.2859  0.1889 -0.0963
  771MPD2    H711389   2.945   1.620  13.449 -1.4190 -0.1207 -0.2894
  772MPD2     C11390   2.506   1.992  13.442 -0.9559 -0.0032  0.2888
  772MPD2    C111391   2.521   1.896  13.539  0.4318 -0.0185 -0.1230
  772MPD2    C211392   2.410   1.817  13.570  0.5792  0.5337 -0.4659
  772MPD2    C311393   2.289   1.825  13.502 -0.0988 -0.0568  0.2173
  772MPD2    C411394   2.280   1.925  13.408 -0.0653 -0.1273 -0.1801
  772MPD2    C511395   2.380   2.013  13.381 -0.3065 -0.4756 -0.5220
  772MPD2     H11396   2.425   1.747  13.651 -0.7273 -1.1947 -1.7256
  772MPD2    H111397   2.183   1.944  13.362 -0.8397  1.1693  1.9779
  772MPD2    H211398   2.586   2.059  13.413 -1.4924 -0.2068 -1.6181
  772MPD2    H311399   2.372   2.083  13.299 -0.8880 -1.5722 -1.3871
  772MPD2     N11400   2.171   1.750  13.533 -0.5276 -0.6120 -0.4372
  772MPD2    H511401   2.086   1.767  13.480 -0.7841  0.2570  0.2540
  772MPD2    N111402   2.642   1.866  13.606 -0.1756  0.2387  0.0244
  772MPD2    H711403   2.644   1.790  13.673  2.1687  1.1345  0.9746
  773MPD2     C11404   1.270   2.988   0.052 -0.2418 -0.3571 -0.0973
  773MPD2    C111405   1.268   2.866  17.687 -0.1922  0.2776  0.3508
  773MPD2    C211406   1.270   2.754   0.072 -0.8706  0.0621 -0.3634
  773MPD2    C311407   1.300   2.759   0.205  0.5965 -0.5857 -0.0995
  773MPD2    C411408   1.278   2.885   0.265  0.1374  0.6684  0.2764
  773MPD2    C511409   1.271   2.993   0.188  0.5940  0.3240  0.2148
  773MPD2     H11410   1.257   2.654   0.033 -0.5565 -0.3175  0.5125
  773MPD2    H111411   1.282   2.891   0.373 -0.3895 -1.8647  0.4429
  773MPD2    H211412   1.272   3.084   0.003 -0.5257  0.9019  2.3174
  773MPD2    H311413   1.252   3.088   0.238  2.6880  0.3162  1.0143
  773MPD2     N11414   1.333   2.639   0.284  0.3859  0.0519 -0.0805
  773MPD2    H511415   1.336   2.558   0.223  0.9764 -0.5457  0.7524
  773MPD2    N111416   1.248   2.848  17.547 -0.1749  0.6728 -0.1663
  773MPD2    H711417   1.222   2.754  17.518  1.6750  0.2635 -0.5514
  774MPD2     C11418   0.854   1.892  13.158 -0.1187  0.1311  0.2453
  774MPD2    C111419   0.869   1.919  13.289  0.6670 -0.0420  0.5408
  774MPD2    C211420   0.966   2.011  13.333 -0.1870 -0.2668 -0.1918
  774MPD2    C311421   1.038   2.082  13.249 -0.7350 -0.0629  0.3797
  774MPD2    C411422   1.008   2.067  13.112  1.0763 -0.2434 -0.2624
  774MPD2    C511423   0.923   1.970  13.072  0.1236  0.0123  0.3922
  774MPD2     H11424   0.973   2.032  13.439  0.2753 -0.4724 -0.1822
  774MPD2    H111425   1.062   2.123  13.037  0.3547  0.9763  0.1295
  774MPD2    H211426   0.781   1.824  13.114  0.9964  1.5961 -3.9019
  774MPD2    H311427   0.901   1.951  12.967 -2.5490  0.4225  0.8696
  774MPD2     N11428   1.136   2.174  13.299 -0.4969  0.4625  0.4307
  774MPD2    H511429   1.129   2.180  13.400  0.6460 -0.9216  0.5913
  774MPD2    N111430   0.793   1.832  13.378 -0.2161 -0.2064  0.6122
  774MPD2    H711431   0.741   1.755  13.336  0.8780  0.0151 -1.0998
  775MPD2     C11432   2.404   3.560  15.620  0.7439  0.0436 -0.0868
  775MPD2    C111433   2.378   3.659  15.706 -0.4440  0.0735  0.1078
  775MPD2    C211434   2.472   3.762  15.723 -0.2930 -0.4283  0.1380
  775MPD2    C311435   2.587   3.766  15.648 -0.9028 -0.0219  0.4966
  775MPD2    C411436   2.611   3.657  15.557  0.4817 -0.2838 -0.5120
  775MPD2    C511437   2.523   3.553  15.550 -0.7997 -0.2763  0.3656
  775MPD2     H11438   2.445   3.847  15.784 -0.6179 -0.0259 -0.5637
  775MPD2    H111439   2.705   3.650  15.504  0.7587 -1.5719  0.1469
  775MPD2    H211440   2.334   3.478  15.616 -1.3121  1.8601 -1.6319
  775MPD2    H311441   2.546   3.469  15.486  0.3340  0.0411  0.3600
  775MPD2     N11442   2.667   3.880  15.637 -0.2611 -0.4274 -0.7127
  775MPD2    H511443   2.735   3.889  15.562  0.4195 -0.3900 -0.0966
  775MPD2    N111444   2.260   3.657  15.782 -0.2750  0.4294 -0.0842
  775MPD2    H711445   2.201   3.576  15.765 -0.9458  0.5767  1.4537
  776MPD2     C11446   2.102   4.443  10.951 -0.0743 -0.4049 -0.2643
  776MPD2    C111447   2.170   4.361  11.037  0.5404 -0.2558  0.1843
  776MPD2    C211448   2.279   4.413  11.102 -0.2212 -0.0178  0.1504
  776MPD2    C311449   2.325   4.540  11.069 -0.6143 -0.4851  0.2613
  776MPD2    C411450   2.263   4.619  10.966 -0.1387  0.8699 -0.5559
  776MPD2    C511451   2.141   4.566  10.912  0.0202  0.4657 -0.5297
  776MPD2     H11452   2.335   4.363  11.180  0.5380 -0.8486 -0.9205
  776MPD2    H111453   2.305   4.714  10.936  0.3334  0.8015 -0.1007
  776MPD2    H211454   2.004   4.410  10.918 -0.2355 -0.5686  0.3712
  776MPD2    H311455   2.087   4.628  10.841 -0.6798  2.0681  1.4028
  776MPD2     N11456   2.453   4.599  11.104 -0.2462  0.1507  0.6896
  776MPD2    H511457   2.481   4.689  11.066  0.8203 -0.5554 -0.1947
  776MPD2    N111458   2.114   4.238  11.070  0.1751 -0.5022  0.3692
  776MPD2    H711459   2.033   4.204  11.020  1.9364 -1.3900 -1.9152
  777MPD2     C11460   1.252   1.330   0.689 -0.5052 -0.3567  0.5912
  777MPD2    C111461   1.181   1.226   0.740  0.5234 -0.2712 -0.2989
  777MPD2    C211462   1.171   1.111   0.667 -0.6583 -0.0562 -0.6411
  777MPD2    C311463   1.216   1.108   0.535  0.6818  0.3695  0.4015
  777MPD2    C411464   1.276   1.218   0.484 -0.2572 -0.4982 -0.3377
  777MPD2    C511465   1.284   1.333   0.555 -0.0392 -0.7494  0.2306
  777MPD2     H11466   1.126   1.023   0.711 -1.7154  0.5655 -0.4919
  777MPD2    H111467   1.322   1.227   0.386 -2.1232  1.1779 -1.0488
  777MPD2    H211468   1.273   1.424   0.739  0.5955 -1.2204  1.7550
  777MPD2    H311469   1.329   1.418   0.504 -0.2982 -1.3895 -1.0785
  777MPD2     N11470   1.197   0.993   0.456 -0.0491 -0.5867  0.5616
  777MPD2    H511471   1.209   0.904   0.502  0.1364 -0.2838  1.1074
  777MPD2    N111472   1.143   1.244   0.873  0.2832  0.0195 -0.4852
  777MPD2    H711473   1.177   1.332   0.909 -0.4636 -0.5288  1.5325
  778MPD2     C11474   2.853   1.852  14.913 -0.0810  0.8206 -0.1653
  778MPD2    C111475   2.820   1.742  14.836 -0.2075 -0.3317  0.2727
  778MPD2    C211476   2.815   1.761  14.698 -0.2314  0.2038  0.1253
  778MPD2    C311477   2.835   1.884  14.636  0.6798 -0.6576  0.0132
  778MPD2    C411478   2.869   1.990  14.721 -0.2728  0.0683 -0.7384
  778MPD2    C511479   2.871   1.974  14.858 -0.1587  0.0260  0.0501
  778MPD2     H11480   2.803   1.676  14.632 -1.3330 -0.5656  1.2984
  778MPD2    H111481   2.880   2.089  14.679 -0.8833 -0.2727 -1.7152
  778MPD2    H211482   2.857   1.851  15.021 -1.0731 -0.5092 -0.1364
  778MPD2    H311483   2.882   2.059  14.923 -1.4767 -0.4249  0.8781
  778MPD2     N11484   2.845   1.891  14.495  0.2125  0.1218  0.2343
  778MPD2    H511485   2.832   1.807  14.439 -0.0113  0.9345 -0.9274
  778MPD2    N111486   2.771   1.620  14.889 -0.0659  0.2104 -0.4623
  778MPD2    H711487   2.746   1.554  14.816 -0.4215 -2.2651  1.8819
  779MPD2     C11488   2.568   0.387  14.295 -0.4598 -0.2052  0.0334
  779MPD2    C111489   2.687   0.447  14.346  0.6449  0.5154  0.1011
  779MPD2    C211490   2.698   0.582  14.327 -0.7209 -0.2071  0.4336
  779MPD2    C311491   2.599   0.657  14.259  0.5358  0.2625  0.4179
  779MPD2    C411492   2.480   0.601  14.231 -0.5528  0.2775 -0.1169
  779MPD2    C511493   2.468   0.471  14.248  0.4132 -0.4682 -0.6571
  779MPD2     H11494   2.790   0.629  14.359 -1.3969  2.9641 -2.3120
  779MPD2    H111495   2.395   0.656  14.193  1.9261  3.9314 -0.4368
  779MPD2    H211496   2.538   0.283  14.308  0.8752 -0.9226 -2.5077
  779MPD2    H311497   2.368   0.433  14.232 -0.1184  0.7832 -0.3087
  779MPD2     N11498   2.613   0.796  14.235  0.4348  0.4624 -0.0326
  779MPD2    H511499   2.695   0.844  14.271  0.6715 -0.0380  0.0993
  779MPD2    N111500   2.787   0.359  14.386  0.5565  0.5036 -0.6103
  779MPD2    H711501   2.774   0.261  14.364  1.0854  0.4067 -0.4741
  780MPD2     C11502   1.683   0.024   0.958 -0.5110 -0.6324 -0.4016
  780MPD2    C111503   1.624   4.709   0.839 -0.4798 -0.0255 -0.5781
  780MPD2    C211504   1.609   0.081   0.741 -0.0820  0.2510 -0.0355
  780MPD2    C311505   1.635   0.221   0.771  0.9788 -0.2569  0.2222
  780MPD2    C411506   1.697   0.255   0.892  0.4446 -0.6246  0.1654
  780MPD2    C511507   1.723   0.152   0.978  0.1014 -1.1244 -0.1573
  780MPD2     H11508   1.570   0.057   0.643  2.6784  1.1151 -1.3543
  780MPD2    H111509   1.727   0.355   0.921  1.2672 -0.6768 -0.5048
  780MPD2    H211510   1.708   4.670   1.030 -1.0031  1.5025  2.0656
  780MPD2    H311511   1.760   0.166   1.079 -2.7858 -1.9094  1.0391
  780MPD2     N11512   1.603   0.302   0.660  0.6330 -0.7765 -0.3985
  780MPD2    H511513   1.562   0.249   0.583 -1.0545  1.6418 -1.1698
  780MPD2    N111514   1.587   4.572   0.813 -0.8481  0.2814 -0.1416
  780MPD2    H711515   1.617   4.498   0.877 -0.9341 -0.5273 -1.0385
  781MPD2     C11516   4.176   2.405  12.011 -0.1594  0.3323  0.5155
  781MPD2    C111517   4.282   2.371  12.086  0.0079 -0.1358  0.1155
  781MPD2    C211518   4.397   2.334  12.024  0.4373 -0.7427 -0.4095
  781MPD2    C311519   4.417   2.348  11.883 -0.1688  0.3554  0.4763
  781MPD2    C411520   4.302   2.372  11.809  0.4433  0.7846  0.5504
  781MPD2    C511521   4.187   2.400  11.872 -0.0205  0.2022  0.2027
  781MPD2     H11522   4.468   2.292  12.095  0.1929  2.6189  1.8099
  781MPD2    H111523   4.300   2.375  11.701  0.4310 -1.4625  0.4972
  781MPD2    H211524   4.079   2.442  12.044  0.5507  0.7775  2.1121
  781MPD2    H311525   4.105   2.426  11.806 -2.4354 -2.2896  2.2399
  781MPD2     N11526   4.543   2.318  11.823 -0.0947 -0.2428  0.2916
  781MPD2    H511527   4.554   2.333  11.723 -0.3708  0.9317  0.4432
  781MPD2    N111528   4.263   2.369  12.226  0.0290 -0.0440  0.1383
  781MPD2    H711529   4.344   2.340  12.281 -0.6324 -1.5121  0.3393
  782MPD2     C11530   2.631   2.475   9.836  0.2777  0.5782  0.4635
  782MPD2    C111531   2.698   2.501   9.956 -0.0173  0.5917 -0.5357
  782MPD2    C211532   2.719   2.632  10.000 -0.0040  0.3676  0.1740
  782MPD2    C311533   2.666   2.737   9.925  0.8517  0.4284  0.0962
  782MPD2    C411534   2.611   2.709   9.799  0.0065 -1.0433 -0.8580
  782MPD2    C511535   2.587   2.579   9.759 -0.0680 -0.0475 -0.4178
  782MPD2     H11536   2.772   2.659  10.091  1.1466 -0.7623 -0.1590
  782MPD2    H111537   2.592   2.793   9.734 -2.7862 -3.3162 -2.9574
  782MPD2    H211538   2.610   2.375   9.799 -0.2703  0.2942  1.5648
  782MPD2    H311539   2.537   2.556   9.665  0.1179 -1.8511 -0.0691
  782MPD2     N11540   2.685   2.867   9.970  0.1236 -0.7808 -0.0787
  782MPD2    H511541   2.718   2.876  10.065 -1.1756 -3.6697  0.6493
  782MPD2    N111542   2.741   2.394  10.036 -0.4707  0.6715 -0.6422
  782MPD2    H711543   2.723   2.298  10.009 -0.5808  0.6351 -0.4392
  783MPD2     C11544   2.246   2.466  10.730  0.0424  0.1010  0.7857
  783MPD2    C111545   2.310   2.553  10.642 -0.1960  0.5510  0.3741
  783MPD2    C211546   2.405   2.500  10.555  0.2266  0.0203 -0.3919
  783MPD2    C311547   2.443   2.364  10.559  0.2422 -0.7532 -0.1062
  783MPD2    C411548   2.369   2.283  10.643  0.1625 -0.4462  0.8994
  783MPD2    C511549   2.270   2.330  10.727  0.5664 -0.0231 -0.0259
  783MPD2     H11550   2.445   2.566  10.479  1.5366  0.8607  1.0004
  783MPD2    H111551   2.395   2.177  10.647 -0.8402 -0.7033  0.5741
  783MPD2    H211552   2.176   2.503  10.803 -0.9934 -1.4087  0.5547
  783MPD2    H311553   2.221   2.268  10.802  3.0311 -2.2487 -0.2566
  783MPD2     N11554   2.550   2.320  10.476 -0.4961  0.1446 -0.4618
  783MPD2    H511555   2.585   2.387  10.409 -1.5407  0.0860 -1.0574
  783MPD2    N111556   2.265   2.686  10.646 -0.3772 -0.9122 -0.3292
  783MPD2    H711557   2.198   2.702  10.721 -2.1041 -0.0104 -2.0409
  784MPD2     C11558   4.488   2.952   0.293 -0.8139 -0.6195  0.6075
  784MPD2    C111559   4.468   3.067   0.365  0.3591  0.0033 -0.1979
  784MPD2    C211560   4.369   3.152   0.337  0.0181  0.3465 -0.5762
  784MPD2    C311561   4.306   3.141   0.215  0.3101  0.2520  0.4684
  784MPD2    C411562   4.330   3.030   0.138  0.0019  0.2944  0.0808
  784MPD2    C511563   4.416   2.929   0.181 -0.2414  0.5055  0.2513
  784MPD2     H11564   4.352   3.243   0.393 -1.2954  0.6261 -1.4262
  784MPD2    H111565   4.285   3.009   0.041 -2.2436  1.0281  0.9612
  784MPD2    H211566   4.555   2.876   0.332  1.4113  0.2346 -1.5950
  784MPD2    H311567   4.427   2.837   0.126  4.0474  1.3562 -0.3201
  784MPD2     N11568   4.208   3.236   0.187  0.1682  0.2533  0.2892
  784MPD2    H511569   4.184   3.308   0.255 -1.2822  0.6123 -0.5929
  784MPD2    N111570   4.551   3.120   0.475  0.5830  0.1369  0.1345
  784MPD2    H711571   4.540   3.207   0.526 -2.0122  0.7104 -1.3423
  785MPD2     C11572   0.478   1.926  10.804  0.6611  0.6029  1.0308
  785MPD2    C111573   0.364   1.953  10.867 -0.1293  0.1281  0.6221
  785MPD2    C211574   0.253   1.875  10.841 -0.4432  0.6479  0.7429
  785MPD2    C311575   0.246   1.772  10.751  0.6111 -0.8717  0.3734
  785MPD2    C411576   0.366   1.747  10.685  0.1334  0.3097  1.1467
  785MPD2    C511577   0.474   1.825  10.714 -0.1406 -1.1203  0.4638
  785MPD2     H11578   0.174   1.883  10.915 -2.1675  0.3921 -1.0793
  785MPD2    H111579   0.372   1.669  10.610  0.1828 -0.8479  2.3454
  785MPD2    H211580   0.573   1.979  10.809  0.7103  0.7539 -1.2482
  785MPD2    H311581   0.560   1.792  10.657 -1.4476 -2.0478 -0.9867
  785MPD2     N11582   0.128   1.700  10.701  0.1650  0.6916  0.4051
  785MPD2    H511583   0.147   1.644  10.618 -1.7496 -0.1811  0.5506
  785MPD2    N111584   0.370   2.051  10.966 -0.1312 -0.5157 -0.2907
  785MPD2    H711585   0.452   2.055  11.025 -0.7762 -0.3732  0.5914
  786MPD2     C11586   3.487   0.140  14.329  0.3373  0.0572  0.0354
  786MPD2    C111587   3.494   0.016  14.384  0.1053 -0.0785 -0.2385
  786MPD2    C211588   3.531   0.001  14.521 -0.5294  0.3686 -0.0528
  786MPD2    C311589   3.564   0.117  14.597 -0.4699  0.1849  0.2120
  786MPD2    C411590   3.540   0.244  14.535 -0.1104  0.7238 -0.4844
  786MPD2    C511591   3.515   0.251  14.403 -0.5460  0.5386 -0.3678
  786MPD2     H11592   3.536   4.629  14.572  0.1609  0.2664 -0.3152
  786MPD2    H111593   3.549   0.335  14.594 -2.5536  0.6807 -0.0526
  786MPD2    H211594   3.451   0.156  14.228 -0.4996 -2.4805 -0.0548
  786MPD2    H311595   3.510   0.349  14.356  1.7005  1.5076  1.4109
  786MPD2     N11596   3.609   0.112  14.731  0.4886 -0.5120  0.0638
  786MPD2    H511597   3.623   0.201  14.778 -1.5384 -0.1201 -0.0741
  786MPD2    N111598   3.475   4.624  14.305 -0.2794  0.3510 -0.5927
  786MPD2    H711599   3.481   4.537  14.356 -0.7715  0.2431 -0.7195
  787MPD2     C11600   3.545   4.115  14.614  0.3013 -0.3057 -0.3013
  787MPD2    C111601   3.565   4.074  14.479 -0.3831  0.0072  0.1460
  787MPD2    C211602   3.647   3.962  14.457  0.2376  0.4961  0.6637
  787MPD2    C311603   3.703   3.897  14.566  0.4488 -0.5364 -0.1876
  787MPD2    C411604   3.666   3.934  14.692 -0.0316  0.2836 -0.5381
  787MPD2    C511605   3.584   4.037  14.716 -0.4239  0.0493 -0.3411
  787MPD2     H11606   3.665   3.920  14.358  0.7393 -0.3038  1.0976
  787MPD2    H111607   3.720   3.893  14.777 -1.8161  0.2733  0.5868
  787MPD2    H211608   3.480   4.201  14.627  0.3844 -0.6661  2.4893
  787MPD2    H311609   3.554   4.069  14.815 -0.0662 -1.3222  0.2014
  787MPD2     N11610   3.799   3.797  14.537 -0.2921  0.3764  0.0125
  787MPD2    H511611   3.820   3.783  14.439  1.3695  1.5267  0.2140
  787MPD2    N111612   3.500   4.148  14.378 -0.1424 -0.3586  0.3594
  787MPD2    H711613   3.450   4.232  14.407  0.4773  0.6947 -1.5645
  788MPD2     C11614   0.388   3.177   0.532 -0.4048  0.4816  0.2929
  788MPD2    C111615   0.381   3.054   0.467  0.4577 -0.1309  0.5304
  788MPD2    C211616   0.332   3.048   0.333  0.5884  0.3282  0.6159
  788MPD2    C311617   0.276   3.161   0.274  0.3025  0.0996 -0.6088
  788MPD2    C411618   0.287   3.279   0.346 -0.3726 -0.7748 -0.2254
  788MPD2    C511619   0.332   3.286   0.474 -0.0693 -0.3528 -0.0441
  788MPD2     H11620   0.341   2.957   0.276  1.3746  0.8231 -0.0406
  788MPD2    H111621   0.243   3.373   0.315 -1.4246 -1.4844 -0.8747
  788MPD2    H211622   0.421   3.187   0.634  1.3589 -0.6087 -0.1731
  788MPD2    H311623   0.337   3.380   0.528  1.3070 -0.6276  0.3180
  788MPD2     N11624   0.211   3.173   0.150  0.1222 -0.7528 -0.3240
  788MPD2    H511625   0.193   3.267   0.116  1.7344  0.0028  0.8804
  788MPD2    N111626   0.401   2.932   0.545  0.1401  0.3532 -0.5414
  788MPD2    H711627   0.362   2.843   0.516  2.2055 -0.6148 -0.3308
  789MPD2     C11628   0.735   2.815  15.913 -0.7669  0.8173 -0.1889
  789MPD2    C111629   0.712   2.709  16.000  0.0565  0.0643 -0.3633
  789MPD2    C211630   0.627   2.740  16.105  0.1421 -0.4175  0.1659
  789MPD2    C311631   0.561   2.867  16.111 -0.1949 -0.2584 -0.1990
  789MPD2    C411632   0.594   2.965  16.020  0.5267  0.2620 -0.1301
  789MPD2    C511633   0.688   2.935  15.922 -0.1840 -0.0247  0.0589
  789MPD2     H11634   0.592   2.662  16.172 -3.1099  0.8380 -0.0625
  789MPD2    H111635   0.551   3.064  16.019  0.0185  0.0534  2.1364
  789MPD2    H211636   0.812   2.806  15.837 -0.6405  0.3106  0.0077
  789MPD2    H311637   0.729   3.007  15.852  1.8937 -1.9162 -0.6639
  789MPD2     N11638   0.463   2.905  16.212 -0.4253 -0.1766  0.1189
  789MPD2    H511639   0.410   2.990  16.196 -2.3681 -1.1329  1.4316
  789MPD2    N111640   0.778   2.583  15.989 -0.7828  0.0432  0.1812
  789MPD2    H711641   0.755   2.512  16.058  0.5339 -0.9829 -0.4299
  790MPD2     C11642   1.818   4.404  13.455 -0.1382 -0.8219 -0.0909
  790MPD2    C111643   1.905   4.305  13.413 -0.3987 -0.1241  0.1039
  790MPD2    C211644   1.887   4.255  13.288 -0.3239  0.0184  0.1837
  790MPD2    C311645   1.789   4.308  13.201  0.3975 -0.9097 -0.3992
  790MPD2    C411646   1.708   4.406  13.244 -0.0342 -0.1711  0.3897
  790MPD2    C511647   1.719   4.453  13.370  0.7647 -0.4587 -0.6222
  790MPD2     H11648   1.949   4.171  13.260 -0.9394 -0.1410 -0.7167
  790MPD2    H111649   1.655   4.470  13.175  0.0115  0.2279  0.7235
  790MPD2    H211650   1.831   4.437  13.557  1.0359 -3.8475  0.7606
  790MPD2    H311651   1.663   4.541  13.402  1.8559  0.0984 -0.2320
  790MPD2     N11652   1.780   4.243  13.077 -0.5685  0.3750  0.3566
  790MPD2    H511653   1.829   4.154  13.080  0.4744  0.9491  0.3870
  790MPD2    N111654   1.986   4.254  13.516 -0.0219 -0.1256  0.2129
  790MPD2    H711655   1.967   4.283  13.611 -0.4753 -3.8972  1.2662
  791MPD2     C11656   1.184   4.135  12.508  0.7210  0.5046 -0.2285
  791MPD2    C111657   1.242   4.033  12.593  0.0934 -0.6937  0.1638
  791MPD2    C211658   1.169   3.913  12.604 -0.1218 -0.6025 -0.1739
  791MPD2    C311659   1.042   3.900  12.557  0.5962 -0.1763 -0.0272
  791MPD2    C411660   0.986   3.999  12.478 -0.0745  0.6422 -0.0453
  791MPD2    C511661   1.063   4.110  12.456 -0.5419 -0.3438 -0.1209
  791MPD2     H11662   1.204   3.822  12.650 -0.2716 -0.0571  1.0133
  791MPD2    H111663   0.884   3.993  12.441 -0.1760 -1.3353  0.5289
  791MPD2    H211664   1.246   4.221  12.483 -2.3206  1.7958 -3.2400
  791MPD2    H311665   1.018   4.188  12.395 -1.4852 -1.8832 -1.4029
  791MPD2     N11666   0.988   3.773  12.571  0.4040  0.8792  0.4419
  791MPD2    H511667   1.042   3.712  12.631 -2.3858 -1.2746  0.7694
  791MPD2    N111668   1.374   4.057  12.648 -0.0374  0.1218  0.0582
  791MPD2    H711669   1.409   4.151  12.636  0.5042  0.1641  1.9559
  792MPD2     C11670   2.661   3.656  10.707  0.4808 -0.1007  0.4291
  792MPD2    C111671   2.529   3.692  10.697  0.1940  0.8696  0.6598
  792MPD2    C211672   2.442   3.602  10.635 -0.3781  0.5132  0.6040
  792MPD2    C311673   2.490   3.482  10.580  0.2054  0.6944 -0.5098
  792MPD2    C411674   2.619   3.451  10.585  0.7049  0.4718  0.1433
  792MPD2    C511675   2.707   3.537  10.644  0.1511 -0.5522 -0.5139
  792MPD2     H11676   2.335   3.619  10.629 -0.4542 -0.5215 -1.0527
  792MPD2    H111677   2.655   3.366  10.528  2.2073  0.3708  1.2403
  792MPD2    H211678   2.735   3.721  10.751  0.9190 -0.2411 -0.1069
  792MPD2    H311679   2.812   3.514  10.631  0.6678  0.4303  1.9555
  792MPD2     N11680   2.403   3.398  10.500 -0.3538 -0.0282  0.0978
  792MPD2    H511681   2.451   3.316  10.464 -1.1155 -0.2705 -0.3740
  792MPD2    N111682   2.485   3.812  10.750  0.1769 -0.3540  0.0422
  792MPD2    H711683   2.560   3.870  10.786  1.5660 -0.8735 -1.9893
  793MPD2     C11684   1.592   3.134   9.859 -0.8797  0.2742  0.2629
  793MPD2    C111685   1.723   3.117   9.817 -0.8340  0.2951  0.5372
  793MPD2    C211686   1.826   3.120   9.910  0.2208 -0.4188  0.9726
  793MPD2    C311687   1.804   3.134  10.043  0.1242  0.2296  0.7845
  793MPD2    C411688   1.670   3.139  10.085  0.5915 -0.3389  0.4716
  793MPD2    C511689   1.569   3.144   9.989 -0.7363  0.1776 -0.4119
  793MPD2     H11690   1.925   3.121   9.866 -0.1505 -0.3170  0.1423
  793MPD2    H111691   1.640   3.136  10.189 -0.3269  2.9954  0.3300
  793MPD2    H211692   1.513   3.157   9.789 -0.6462 -0.3647 -0.2120
  793MPD2    H311693   1.466   3.163  10.017 -0.2940 -0.6008  1.7648
  793MPD2     N11694   1.916   3.129  10.127 -0.3688 -0.3400 -0.0685
  793MPD2    H511695   2.001   3.102  10.079 -0.3895 -0.4321 -0.0536
  793MPD2    N111696   1.769   3.123   9.684 -0.3501  0.0342 -0.2753
  793MPD2    H711697   1.867   3.098   9.674 -0.4619 -0.2460 -0.6639
  794MPD2     C11698   1.400   3.119  16.714 -0.7760 -0.6593  0.6314
  794MPD2    C111699   1.272   3.141  16.766 -0.3475  0.3940  0.1016
  794MPD2    C211700   1.189   3.235  16.714 -0.3255 -0.6455  0.0658
  794MPD2    C311701   1.220   3.305  16.596 -0.7767  0.0360 -0.3047
  794MPD2    C411702   1.341   3.272  16.537 -0.5229 -0.0659 -0.3412
  794MPD2    C511703   1.432   3.192  16.600  0.3034  0.4553  0.9804
  794MPD2     H11704   1.098   3.258  16.768  0.9095  0.2926  1.7318
  794MPD2    H111705   1.382   3.311  16.445 -2.5359  0.7191 -0.8996
  794MPD2    H211706   1.480   3.062  16.761 -0.2952  0.7562  1.5370
  794MPD2    H311707   1.537   3.183  16.573  0.0089  3.0031 -0.9285
  794MPD2     N11708   1.132   3.399  16.529  0.5944  0.7515  0.1594
  794MPD2    H511709   1.146   3.409  16.429 -0.4564 -0.2778 -0.0862
  794MPD2    N111710   1.230   3.075  16.881  0.1371 -0.0486 -0.1430
  794MPD2    H711711   1.134   3.091  16.910 -0.0969 -1.8221  0.0376
  795MPD2     C11712   4.577   0.553  12.403  0.2469 -0.2184  0.5666
  795MPD2    C111713   4.551   0.551  12.540  0.4250  0.3680 -0.2998
  795MPD2    C211714   4.656   0.535  12.624  0.9412  0.6158  0.0558
  795MPD2    C311715   0.064   0.528  12.585  1.0690 -0.7111 -0.3537
  795MPD2    C411716   0.090   0.548  12.450  0.2061 -0.6497  0.4190
  795MPD2    C511717   4.709   0.557  12.360 -0.0241 -0.6379  0.3259
  795MPD2     H11718   4.640   0.525  12.731  2.0653 -0.3021  0.1477
  795MPD2    H111719   0.187   0.558  12.403  0.2177 -1.9073  0.1727
  795MPD2    H211720   4.503   0.542  12.325 -0.6472 -1.7134  1.6167
  795MPD2    H311721   0.002   0.588  12.258 -0.4544  0.5679  0.6268
  795MPD2     N11722   0.158   0.492  12.682  0.0389  0.8106 -0.3772
  795MPD2    H511723   0.114   0.479  12.772 -0.5413  0.8766 -0.6560
  795MPD2    N111724   4.414   0.558  12.577  0.2296  0.1849  0.2677
  795MPD2    H711725   4.351   0.580  12.500 -0.0637 -0.6867  0.2561
  796MPD2     C11726   2.808   2.048  16.086 -0.1387 -0.2372 -0.3882
  796MPD2    C111727   2.903   2.111  16.168 -0.1042  0.6570  0.0652
  796MPD2    C211728   2.949   2.237  16.127  0.0157 -0.4415  0.6957
  796MPD2    C311729   2.908   2.306  16.014  0.4629  0.0670 -0.0554
  796MPD2    C411730   2.814   2.240  15.934 -0.0693  0.4040 -0.3303
  796MPD2    C511731   2.770   2.113  15.967 -0.6897  0.2864  0.0872
  796MPD2     H11732   3.031   2.279  16.185  0.0632  0.6217 -0.1331
  796MPD2    H111733   2.776   2.291  15.846  0.1889  2.3568  0.6876
  796MPD2    H211734   2.757   1.956  16.112 -3.3129  1.7356  0.2840
  796MPD2    H311735   2.689   2.058  15.920  0.6822 -2.0243  0.4592
  796MPD2     N11736   2.976   2.425  15.977  0.2982  0.2607 -0.1424
  796MPD2    H511737   3.040   2.461  16.047  0.2017  2.3967 -1.1192
  796MPD2    N111738   2.959   2.039  16.279  0.1337 -1.0398 -0.0268
  796MPD2    H711739   2.918   1.947  16.296 -0.9628 -0.5628 -0.0788
  797MPD2     C11740   4.256   1.608  17.425 -0.2436  0.0552 -0.4345
  797MPD2    C111741   4.331   1.712  17.381 -0.1527 -0.4814  0.4099
  797MPD2    C211742   4.277   1.826  17.330  0.9506 -0.9940  0.2429
  797MPD2    C311743   4.134   1.832  17.323 -0.3333 -0.1221  0.1917
  797MPD2    C411744   4.047   1.726  17.367  0.1272  0.2951 -0.1567
  797MPD2    C511745   4.117   1.625  17.422  0.0473 -0.1212  0.8661
  797MPD2     H11746   4.341   1.900  17.284 -1.5196  1.7225  1.1812
  797MPD2    H111747   3.940   1.734  17.379 -0.0447  1.0808 -2.2198
  797MPD2    H211748   4.303   1.520  17.467  0.5823 -0.1538 -1.8031
  797MPD2    H311749   4.056   1.543  17.458  0.1027 -0.7109 -0.3716
  797MPD2     N11750   4.083   1.965  17.288  0.7739 -0.0953  0.1809
  797MPD2    H511751   4.153   2.038  17.282 -0.5647  1.0527 -1.3189
  797MPD2    N111752   4.473   1.710  17.379 -0.1624  0.3776 -0.4460
  797MPD2    H711753   4.514   1.788  17.328  0.5915 -0.0064 -0.4253
  798MPD2     C11754   4.531   2.447  17.397  0.4738  0.0800  0.0611
  798MPD2    C111755   4.468   2.345  17.332 -0.1012 -0.6126  0.1669
  798MPD2    C211756   4.542   2.225  17.311 -0.1510 -0.3928 -0.5617
  798MPD2    C311757   4.662   2.203  17.379  0.5787 -0.3443 -0.4805
  798MPD2    C411758   4.710   2.302  17.463  0.1301  0.1068 -0.1711
  798MPD2    C511759   4.652   2.424  17.457  0.1594  0.3182 -0.1401
  798MPD2     H11760   4.489   2.145  17.260  0.7973  0.5026 -2.9627
  798MPD2    H111761   0.080   2.290  17.515  1.5560 -1.9868 -3.2522
  798MPD2    H211762   4.478   2.541  17.401 -1.2288 -0.8744 -0.1098
  798MPD2    H311763   4.695   2.503  17.518  1.0352 -1.2354  1.2346
  798MPD2     N11764   4.712   2.072  17.385 -0.3436 -0.0612 -0.1871
  798MPD2    H511765   4.671   2.009  17.317  1.0636  1.1696 -2.1719
  798MPD2    N111766   4.337   2.373  17.278  0.5646  0.7300 -0.5459
  798MPD2    H711767   4.291   2.463  17.289 -1.0300 -0.3501  1.5302
  799MPD2     C11768   3.371   3.592  14.431 -0.3683 -0.6808 -0.5852
  799MPD2    C111769   3.330   3.493  14.338  0.4531 -0.3254 -0.5080
  799MPD2    C211770   3.280   3.528  14.212 -0.0309 -0.0274  0.1776
  799MPD2    C311771   3.264   3.659  14.184 -0.4264 -0.8452 -0.5768
  799MPD2    C411772   3.292   3.762  14.276  0.0587 -0.5412 -0.8022
  799MPD2    C511773   3.354   3.725  14.394  0.1111  0.0944  0.8191
  799MPD2     H11774   3.251   3.457  14.135 -2.3595  0.7309  0.3432
  799MPD2    H111775   3.260   3.865  14.268  1.5201  0.0813  1.3007
  799MPD2    H211776   3.410   3.568  14.529  1.5381 -1.3249 -1.5119
  799MPD2    H311777   3.373   3.808  14.461 -1.2361  1.1505 -0.1103
  799MPD2     N11778   3.236   3.704  14.052  0.4178 -0.6364 -0.5407
  799MPD2    H511779   3.274   3.796  14.034 -0.4118 -0.2844 -0.4884
  799MPD2    N111780   3.357   3.352  14.352 -0.1780 -0.3120  0.6921
  799MPD2    H711781   3.333   3.290  14.275  1.6963 -0.2592  0.0725
  800MPD2     C11782   4.138   0.384  13.995  0.6765  0.6420  0.5998
  800MPD2    C111783   4.243   0.417  13.912  0.3370 -0.0454  0.6829
  800MPD2    C211784   4.257   0.332  13.803 -0.3721 -0.4578 -0.3990
  800MPD2    C311785   4.171   0.220  13.787  0.3511  0.0265 -0.6826
  800MPD2    C411786   4.070   0.188  13.876  0.2024  0.8745 -0.3525
  800MPD2    C511787   4.050   0.277  13.977  0.6420  0.3350  0.6571
  800MPD2     H11788   4.325   0.361  13.724  2.0500 -1.8114  1.1801
  800MPD2    H111789   4.021   0.091  13.872  1.9247 -0.0341  0.5127
  800MPD2    H211790   4.117   0.441  14.085 -0.2233  0.2874  0.6189
  800MPD2    H311791   3.986   0.250  14.060 -0.2712 -0.9508 -0.4682
  800MPD2     N11792   4.206   0.136  13.679  0.0448  0.1543  0.4173
  800MPD2    H511793   4.280   0.176  13.624  0.2524 -1.7606 -0.6971
  800MPD2    N111794   4.322   0.526  13.955 -0.0686 -0.0687  0.2818
  800MPD2    H711795   4.314   0.557  14.052 -1.0511 -2.1320  0.8661
  801MPD2     C11796   4.481   1.061  14.409 -0.3040  0.1207 -0.6610
  801MPD2    C111797   4.410   0.949  14.372 -0.5461 -0.1272 -0.3061
  801MPD2    C211798   4.278   0.932  14.401 -0.1408  0.5884 -0.0049
  801MPD2    C311799   4.212   1.030  14.475  0.1934 -0.4363  0.6560
  801MPD2    C411800   4.283   1.135  14.529 -0.3094  0.4242 -0.5507
  801MPD2    C511801   4.418   1.151  14.494  0.2951 -0.4570  0.2123
  801MPD2     H11802   4.240   0.834  14.375 -0.4582  0.9863 -1.0640
  801MPD2    H111803   4.232   1.213  14.584 -1.1346  1.4360 -2.7494
  801MPD2    H211804   4.580   1.081  14.370  0.4738 -1.0107  0.7461
  801MPD2    H311805   4.479   1.239  14.510 -0.2205 -0.5424  2.5401
  801MPD2     N11806   4.072   1.013  14.503  0.4209  0.3551  0.1660
  801MPD2    H511807   4.033   1.048  14.591 -0.4203 -0.5466  0.1471
  801MPD2    N111808   4.466   0.840  14.300  0.5366  0.1539 -0.4092
  801MPD2    H711809   4.415   0.755  14.278 -1.3431  0.5829  2.3533
  802MPD2     C11810   2.737   1.052   0.436 -0.2581 -0.5653  0.4555
  802MPD2    C111811   2.604   1.017   0.393 -0.4171 -0.2954  0.2914
  802MPD2    C211812   2.567   0.885   0.382  0.3548 -0.0292  0.2892
  802MPD2    C311813   2.652   0.784   0.424  0.2590 -0.1236  0.1659
  802MPD2    C411814   2.775   0.821   0.471 -0.4489 -0.1905 -0.1175
  802MPD2    C511815   2.820   0.955   0.477  1.3375 -0.1884  0.2422
  802MPD2     H11816   2.465   0.857   0.360  0.3649 -0.4333  0.7653
  802MPD2    H111817   2.839   0.746   0.516  0.4394  0.9371  0.5037
  802MPD2    H211818   2.778   1.149   0.460  0.1201 -0.8362  0.9053
  802MPD2    H311819   2.920   0.971   0.517  1.7216  0.9968 -1.2252
  802MPD2     N11820   2.604   0.646   0.418 -0.3378 -0.1571  0.0711
  802MPD2    H511821   2.506   0.631   0.396 -0.6740  2.1748 -0.0216
  802MPD2    N111822   2.505   1.112   0.376 -0.7417  0.0607  0.0457
  802MPD2    H711823   2.414   1.088   0.337  0.3076 -2.3351 -0.9004
  803MPD2     C11824   4.528   3.566  11.716  0.2626 -0.1103 -0.3216
  803MPD2    C111825   4.644   3.574  11.796 -0.2115  0.0906 -0.5183
  803MPD2    C211826   4.640   3.533  11.925  0.1890 -0.1177 -0.0266
  803MPD2    C311827   4.521   3.490  11.983  0.0624 -0.2618 -0.6129
  803MPD2    C411828   4.411   3.493  11.904 -0.2908  0.7377 -0.1148
  803MPD2    C511829   4.412   3.527  11.769  0.1384  0.8949 -1.0463
  803MPD2     H11830   0.006   3.538  11.985  0.0147 -0.4287  0.2616
  803MPD2    H111831   4.314   3.466  11.946 -0.5415  1.4746 -0.2310
  803MPD2    H211832   4.529   3.593  11.611 -0.8881  0.8863 -0.0759
  803MPD2    H311833   4.325   3.525  11.705 -0.4126 -2.4452 -0.1600
  803MPD2     N11834   4.507   3.440  12.112  0.4660  0.0531  0.0073
  803MPD2    H511835   4.414   3.424  12.149 -0.6329 -2.0772 -3.7511
  803MPD2    N111836   0.048   3.617  11.746 -0.1320 -0.0792  0.2819
  803MPD2    H711837   0.108   3.646  11.823 -2.0494  2.7271  0.7283
  804MPD2     C11838   3.965   0.778  16.727 -0.0664 -0.2760  0.0812
  804MPD2    C111839   3.910   0.748  16.853  0.3304  0.4001 -0.1350
  804MPD2    C211840   3.956   0.807  16.970 -0.7524  0.1135  0.0179
  804MPD2    C311841   4.059   0.901  16.963  0.3496  0.4391  0.0693
  804MPD2    C411842   4.097   0.943  16.834 -0.0561 -0.2480  0.7378
  804MPD2    C511843   4.059   0.872  16.723  0.2176 -0.0743  0.8688
  804MPD2     H11844   3.912   0.778  17.064  0.0309  1.4954  0.8114
  804MPD2    H111845   4.178   1.011  16.811 -0.3197 -0.3759 -0.5979
  804MPD2    H211846   3.917   0.748  16.634 -0.8748  1.4371 -0.0550
  804MPD2    H311847   4.092   0.911  16.628 -1.1708  0.7952  0.7472
  804MPD2     N11848   4.125   0.951  17.076  0.1591  0.0521 -0.0210
  804MPD2    H511849   4.101   0.903  17.162  1.9278  0.8086  0.9035
  804MPD2    N111850   3.794   0.667  16.875  0.1734  0.0362 -0.5450
  804MPD2    H711851   3.777   0.646  16.972 -1.5129  1.3935 -0.5451
  805MPD2     C11852   2.816   3.750  15.084 -0.4144 -0.0713  0.3032
  805MPD2    C111853   2.934   3.722  15.010 -0.2527 -0.8844  0.4408
  805MPD2    C211854   3.054   3.695  15.071  0.3489 -0.0258 -0.1595
  805MPD2    C311855   3.049   3.688  15.209  0.7083 -0.0913 -0.1644
  805MPD2    C411856   2.930   3.703  15.277 -0.0522  0.4974  0.6324
  805MPD2    C511857   2.817   3.740  15.216  0.5902 -0.4126 -0.0313
  805MPD2     H11858   3.143   3.674  15.014  0.2646 -0.7552 -0.0200
  805MPD2    H111859   2.930   3.685  15.383  0.0897 -0.7530  0.4203
  805MPD2    H211860   2.723   3.768  15.032  1.6016  0.1132 -3.2912
  805MPD2    H311861   2.728   3.742  15.278  0.2047 -0.0973 -0.5959
  805MPD2     N11862   3.181   3.670  15.268  0.3607 -0.4166 -0.6040
  805MPD2    H511863   3.267   3.674  15.213  1.3418 -1.2250  0.8918
  805MPD2    N111864   2.934   3.708  14.866 -0.0853 -0.6670 -0.1417
  805MPD2    H711865   3.020   3.668  14.829  1.6036  2.1795  0.6952
  806MPD2     C11866   2.974   2.632  17.571  0.2898 -0.4678  0.3407
  806MPD2    C111867   3.063   2.533  17.595  0.4765 -0.1765  0.6767
  806MPD2    C211868   3.187   2.544  17.533 -1.2834  0.4990 -0.4901
  806MPD2    C311869   3.221   2.652  17.455  0.0436  0.4336 -0.3355
  806MPD2    C411870   3.135   2.754  17.444 -0.1970  0.0826  0.0679
  806MPD2    C511871   3.011   2.737  17.497  0.1792  0.7035 -0.0987
  806MPD2     H11872   3.261   2.465  17.541  1.0338  2.4980 -2.0276
  806MPD2    H111873   3.151   2.837  17.377 -1.4309  0.0115 -0.3136
  806MPD2    H211874   2.869   2.617  17.593  0.4451 -0.7068  0.9258
  806MPD2    H311875   2.944   2.820  17.477 -0.9082 -0.7725 -2.6916
  806MPD2     N11876   3.358   2.658  17.417  0.2410 -0.0337  0.1300
  806MPD2    H511877   3.416   2.576  17.436  0.5796  0.1126 -0.2865
  806MPD2    N111878   3.030   2.438  17.696  0.4791 -0.1646 -0.2502
  806MPD2    H711879   2.949   2.461   0.057  0.9560  1.5225 -0.2752
  807MPD2     C11880   2.608   2.299   0.612 -0.3739  0.1637 -0.1360
  807MPD2    C111881   2.697   2.192   0.605 -0.3577  0.3899 -0.6056
  807MPD2    C211882   2.678   2.084   0.687 -0.1566  0.8796 -0.1214
  807MPD2    C311883   2.592   2.089   0.791  0.2623  0.8793  0.0019
  807MPD2    C411884   2.500   2.193   0.800 -0.6792  0.0278  0.5108
  807MPD2    C511885   2.518   2.301   0.717 -0.1814  0.1969 -0.6900
  807MPD2     H11886   2.728   1.991   0.665  1.1637  1.6030 -0.1643
  807MPD2    H111887   2.429   2.202   0.881 -0.1623  1.4856  0.8088
  807MPD2    H211888   2.625   2.391   0.557 -0.7423 -0.3862 -1.1869
  807MPD2    H311889   2.447   2.382   0.724 -0.7492 -0.3436 -0.2334
  807MPD2     N11890   2.595   1.976   0.874  0.0884  0.4943  0.2782
  807MPD2    H511891   2.664   1.905   0.850 -0.1672  0.6480 -0.9159
  807MPD2    N111892   2.802   2.183   0.507 -0.6019 -0.1969  0.6074
  807MPD2    H711893   2.851   2.095   0.497  1.2954  0.9815 -0.3725
  808MPD2     C11894   4.172   0.123   9.637 -0.0680 -0.2592 -0.2312
  808MPD2    C111895   4.291   0.067   9.607  0.3853 -0.9639  0.3607
  808MPD2    C211896   4.410   0.137   9.631 -0.2494 -0.0021  0.6470
  808MPD2    C311897   4.404   0.256   9.697 -0.6321 -0.1000  0.1066
  808MPD2    C411898   4.279   0.308   9.727  0.3673 -0.0072  0.1835
  808MPD2    C511899   4.167   0.242   9.706 -0.3094  0.1419 -0.4473
  808MPD2     H11900   4.506   0.090   9.612 -0.0950  1.1929 -1.5177
  808MPD2    H111901   4.269   0.400   9.784 -1.2151  1.1081 -1.9050
  808MPD2    H211902   4.078   0.075   9.613  0.2972 -0.2861 -1.6206
  808MPD2    H311903   4.071   0.284   9.736  0.2692  2.4259 -1.8321
  808MPD2     N11904   4.512   0.339   9.714  0.4080 -0.1629 -0.3580
  808MPD2    H511905   4.500   0.429   9.759  0.3811 -0.8553  1.0061
  808MPD2    N111906   4.305   4.665   9.544 -0.3307  0.2074  0.3186
  808MPD2    H711907   4.397   4.622   9.539 -0.5323 -0.2080  0.1191
  809MPD2     C11908   0.736   0.344   9.355  0.2359  0.6871 -0.1470
  809MPD2    C111909   0.750   0.377   9.481 -0.1679 -0.1773  0.0056
  809MPD2    C211910   0.641   0.423   9.547  0.1552  0.8713 -0.2171
  809MPD2    C311911   0.518   0.437   9.492 -0.4808 -0.1631  0.1587
  809MPD2    C411912   0.514   0.422   9.355  0.3652  1.1734  0.1712
  809MPD2    C511913   0.623   0.380   9.288 -0.0416  0.4953 -0.0844
  809MPD2     H11914   0.661   0.446   9.651 -0.6204 -1.7920  0.4944
  809MPD2    H111915   0.419   0.435   9.305 -0.0271  0.4008  0.7094
  809MPD2    H211916   0.809   0.284   9.302 -0.3606  2.7407 -3.3161
  809MPD2    H311917   0.614   0.365   9.181 -1.2367  0.2639  0.0468
  809MPD2     N11918   0.399   0.448   9.566 -0.5682 -0.2689 -0.0173
  809MPD2    H511919   0.320   0.454   9.503 -0.6828 -1.1686  0.0399
  809MPD2    N111920   0.863   0.350   9.559  0.5598  0.0258 -0.0703
  809MPD2    H711921   0.854   0.385   9.654  0.7872 -1.7745  0.6158
  810MPD2     C11922   4.654   3.198  10.278 -0.0358 -0.0610 -0.0381
  810MPD2    C111923   4.580   3.255  10.178  0.1971 -0.7999 -0.3504
  810MPD2    C211924   4.631   3.373  10.127  0.2870  0.6078  0.3013
  810MPD2    C311925   0.030   3.424  10.163  0.3650 -0.0278  0.0501
  810MPD2    C411926   0.103   3.363  10.269 -0.5740  0.6220  0.0334
  810MPD2    C511927   0.044   3.255  10.328  0.1708 -0.8016  0.3855
  810MPD2     H11928   4.582   3.438  10.056  1.2787  1.8242  0.7251
  810MPD2    H111929   0.197   3.399  10.308  0.1008 -0.9876 -0.0814
  810MPD2    H211930   4.612   3.106  10.317 -1.7386  0.8440  0.2894
  810MPD2    H311931   0.084   3.208  10.417  1.0058 -1.4412 -0.3291
  810MPD2     N11932   0.073   3.548  10.120 -0.3490 -0.1602 -0.6741
  810MPD2    H511933   0.141   3.597  10.177 -2.0331  0.8274  0.4743
  810MPD2    N111934   4.450   3.194  10.143  0.0182 -0.1309 -0.4625
  810MPD2    H711935   4.413   3.117  10.198 -1.2416  0.8261  0.0158
  811MPD2     C11936   3.578   3.396   9.862 -0.6811  0.1191 -0.1256
  811MPD2    C111937   3.697   3.453   9.899 -0.0176  0.2558 -0.1088
  811MPD2    C211938   3.720   3.589   9.892 -0.2990  0.2916 -0.1507
  811MPD2    C311939   3.628   3.675   9.839  0.3086 -0.0839 -0.5430
  811MPD2    C411940   3.506   3.618   9.798  0.0523 -0.5917  0.5302
  811MPD2    C511941   3.492   3.482   9.811  0.4787  0.1922 -0.2599
  811MPD2     H11942   3.815   3.633   9.921  0.8957 -2.6872  0.3645
  811MPD2    H111943   3.425   3.681   9.765 -0.3607 -1.6091 -0.3812
  811MPD2    H211944   3.552   3.292   9.849  1.0667 -0.2786 -0.3393
  811MPD2    H311945   3.404   3.439   9.765  0.5616  0.6754 -0.8721
  811MPD2     N11946   3.661   3.813   9.834 -0.2832  0.1060  0.0376
  811MPD2    H511947   3.755   3.836   9.862 -0.5142  0.7696  0.2564
  811MPD2    N111948   3.799   3.363   9.940 -0.1821  0.2067  0.0552
  811MPD2    H711949   3.779   3.264   9.945  1.9335 -0.1637  1.1860
  812MPD2     C11950   2.843   3.702  12.129  0.2526  0.1279  0.4002
  812MPD2    C111951   2.760   3.767  12.215 -1.1156 -0.2106  0.3820
  812MPD2    C211952   2.707   3.692  12.321 -0.4271  0.4163 -0.0585
  812MPD2    C311953   2.724   3.553  12.327 -0.3921  0.0368  0.6191
  812MPD2    C411954   2.812   3.498  12.239  0.1755 -0.0189  0.0149
  812MPD2    C511955   2.872   3.569  12.141 -0.2225 -0.8369 -1.0264
  812MPD2     H11956   2.632   3.738  12.384  1.7477  3.7811  0.0593
  812MPD2    H111957   2.845   3.395  12.245  1.9662  0.5496  0.1490
  812MPD2    H211958   2.883   3.767  12.052 -1.6621  2.0487  1.0157
  812MPD2    H311959   2.935   3.525  12.064 -0.2304  0.1534 -1.6093
  812MPD2     N11960   2.653   3.474  12.420  0.2398 -0.9208  0.0186
  812MPD2    H511961   2.603   3.529  12.490  2.2468 -0.2660  0.9474
  812MPD2    N111962   2.732   3.901  12.192  0.4092 -0.1844 -0.7775
  812MPD2    H711963   2.779   3.934  12.109 -2.6185  0.3138 -2.2918
  813MPD2     C11964   2.037   0.727  12.330 -0.2157 -0.4681 -0.7770
  813MPD2    C111965   2.030   0.862  12.329  0.4175  0.3041 -0.0291
  813MPD2    C211966   1.967   0.923  12.431 -0.0362  0.6029 -0.3500
  813MPD2    C311967   1.902   0.856  12.532 -0.0539  0.8148 -0.4431
  813MPD2    C411968   1.893   0.715  12.526 -0.3110 -0.1183 -0.3742
  813MPD2    C511969   1.965   0.656  12.425  0.4372 -0.1893 -0.9272
  813MPD2     H11970   1.979   1.030  12.438 -1.0918  0.7957 -1.5368
  813MPD2    H111971   1.840   0.650  12.594 -2.7090  2.1444 -0.0618
  813MPD2    H211972   2.099   0.674  12.258  2.9137  1.9694  0.1304
  813MPD2    H311973   1.971   0.548  12.418  1.0510 -0.1924 -0.3325
  813MPD2     N11974   1.841   0.932  12.633 -0.3326  0.1816  0.3717
  813MPD2    H511975   1.866   1.030  12.642 -4.2946  1.0723  1.6452
  813MPD2    N111976   2.106   0.928  12.228 -0.3921  0.2800  0.3337
  813MPD2    H711977   2.173   0.874  12.176 -0.6932  0.2916 -0.0672
  814MPD2     C11978   2.167   2.111  12.298 -0.1453  0.2194 -0.2377
  814MPD2    C111979   2.202   2.148  12.168  0.1427 -0.0586 -0.5631
  814MPD2    C211980   2.277   2.262  12.156 -0.1090 -0.1381 -0.7844
  814MPD2    C311981   2.309   2.336  12.271 -0.2070 -0.0070 -0.6746
  814MPD2    C411982   2.277   2.287  12.393  0.0119 -0.0972  0.7773
  814MPD2    C511983   2.199   2.175  12.414 -0.4478  0.1109 -0.2031
  814MPD2     H11984   2.334   2.275  12.065  0.8666  1.5744  0.0600
  814MPD2    H111985   2.296   2.346  12.481 -0.6302  1.9748 -0.4608
  814MPD2    H211986   2.093   2.034  12.317  0.8186 -0.5266  0.4736
  814MPD2    H311987   2.155   2.137  12.505  0.1891 -0.7778 -0.2614
  814MPD2     N11988   2.378   2.459  12.269 -0.4806 -0.2762 -0.1957
  814MPD2    H511989   2.405   2.503  12.356 -0.0075 -2.0460  0.5527
  814MPD2    N111990   2.164   2.071  12.052  0.0488 -0.0358 -0.1487
  814MPD2    H711991   2.197   2.101  11.961  0.9592 -2.9430 -0.7585
  815MPD2     C11992   3.221   0.602  11.619 -0.0485 -0.6699  0.0178
  815MPD2    C111993   3.168   0.506  11.533  0.7818 -0.1569 -0.1027
  815MPD2    C211994   3.029   0.484  11.523  0.2319  0.4185  0.0242
  815MPD2    C311995   2.944   0.568  11.593 -0.3987 -0.2812  0.0661
  815MPD2    C411996   2.996   0.670  11.666 -0.0767 -0.0793  0.1104
  815MPD2    C511997   3.130   0.689  11.673 -0.5119  0.0391 -0.2471
  815MPD2     H11998   2.989   0.395  11.477 -1.6114  1.1348  0.2338
  815MPD2    H111999   2.930   0.743  11.713 -1.9777 -0.9882 -1.1776
  815MPD2    H212000   3.327   0.622  11.630 -0.0671 -1.2244  1.1591
  815MPD2    H312001   3.167   0.770  11.736  0.2582 -0.0933 -0.5389
  815MPD2     N12002   2.805   0.547  11.589 -0.3193  0.0344  0.7992
  815MPD2    H512003   2.774   0.481  11.519 -1.8550  2.0184 -0.4018
  815MPD2    N112004   3.249   0.420  11.452  0.1748 -0.3542  0.8694
  815MPD2    H712005   3.201   0.344  11.405  0.0020 -0.2909  0.9453
  816MPD2     C12006   1.561   4.534  17.049 -0.7503  0.7196  0.2241
  816MPD2    C112007   1.630   4.625  17.129 -0.1678  0.4148 -0.1376
  816MPD2    C212008   1.766   4.592  17.166 -0.0917 -0.6224  0.6642
  816MPD2    C312009   1.833   4.479  17.126  0.0952 -0.2671  0.7838
  816MPD2    C412010   1.760   4.393  17.041 -0.1751 -0.2715  0.4904
  816MPD2    C512011   1.628   4.421  17.012 -0.2911 -0.4210 -0.8491
  816MPD2     H12012   1.822   4.662  17.228  0.7267  1.3452 -2.3153
  816MPD2    H112013   1.802   4.299  17.009 -1.3625 -1.2184  1.7290
  816MPD2    H212014   1.462   4.547  17.008 -1.0050 -1.3218  0.1797
  816MPD2    H312015   1.574   4.354  16.945 -2.4122  0.5007 -0.0613
  816MPD2     N12016   1.971   4.465  17.143 -0.0815  0.1348 -0.0791
  816MPD2    H512017   2.009   4.537  17.204 -0.9885  0.5846 -0.0430
  816MPD2    N112018   1.566   0.022  17.165  0.0547 -0.0535 -0.8200
  816MPD2    H712019   1.481   0.050  17.118  0.4581  2.9699  0.2447
  817MPD2     C12020   2.568   1.619   9.375 -0.3706 -0.1426  0.4121
  817MPD2    C112021   2.469   1.539   9.334 -0.1805 -0.1996 -0.2254
  817MPD2    C212022   2.361   1.592   9.263 -1.0701 -0.1392 -0.4462
  817MPD2    C312023   2.350   1.727   9.239 -0.2414  0.1827  0.1546
  817MPD2    C412024   2.449   1.811   9.273 -0.2479  0.3191  0.1266
  817MPD2    C512025   2.562   1.755   9.337 -0.3311  0.3048 -0.2962
  817MPD2     H12026   2.287   1.523   9.224 -1.0542 -1.3743  1.7154
  817MPD2    H112027   2.462   1.917   9.255 -1.8842  0.4260 -0.4843
  817MPD2    H212028   2.658   1.582   9.423  0.9675  0.2366 -1.7797
  817MPD2    H312029   2.649   1.812   9.364  0.0528 -1.0009  1.2150
  817MPD2     N12030   2.240   1.762   9.150 -0.6169 -0.0328  0.0498
  817MPD2    H512031   2.184   1.690   9.107 -1.8628  1.4144 -0.7488
  817MPD2    N112032   2.470   1.401   9.370  0.4085  0.3577 -0.1775
  817MPD2    H712033   2.387   1.350   9.343  1.3831 -1.2233 -0.1805
  818MPD2     C12034   1.282   2.129  10.118  0.0368 -0.1011  0.3791
  818MPD2    C112035   1.179   2.082  10.196 -0.6438  0.0644  0.3450
  818MPD2    C212036   1.142   1.951  10.186 -0.8678 -0.6213  0.3073
  818MPD2    C312037   1.219   1.857  10.125  0.0785 -0.2669  0.6644
  818MPD2    C412038   1.327   1.901  10.055  0.5550 -0.4148 -0.0175
  818MPD2    C512039   1.358   2.037  10.052 -0.1164  0.4709 -0.2993
  818MPD2     H12040   1.068   1.922  10.260 -0.1947 -0.5888  0.9977
  818MPD2    H112041   1.383   1.834   9.990 -0.6046 -0.3582 -1.0549
  818MPD2    H212042   1.319   2.231  10.122 -2.7807  0.8667  1.7983
  818MPD2    H312043   1.454   2.069  10.013  0.3324 -0.6590 -0.1222
  818MPD2     N12044   1.202   1.719  10.146 -0.5440  0.2617  0.2313
  818MPD2    H512045   1.266   1.652  10.103  2.4943  2.8074  0.8677
  818MPD2    N112046   1.106   2.165  10.280  0.4933  0.8785  0.0732
  818MPD2    H712047   1.035   2.120  10.336  1.1909 -0.0428  0.2227
  819MPD2     C12048   3.667   3.416  15.316  0.6974  0.4846  0.1315
  819MPD2    C112049   3.634   3.288  15.354  0.0665  0.4227  0.2753
  819MPD2    C212050   3.700   3.226  15.466 -0.4844  0.1863 -0.3842
  819MPD2    C312051   3.805   3.294  15.523 -0.5778  0.2729 -0.0829
  819MPD2    C412052   3.834   3.425  15.479 -0.0203 -0.4230 -0.2097
  819MPD2    C512053   3.774   3.485  15.373  0.3135  0.1766  0.1573
  819MPD2     H12054   3.683   3.123  15.497  1.9482  0.2046  1.0020
  819MPD2    H112055   3.920   3.472  15.524  1.9368 -2.9461 -1.2629
  819MPD2    H212056   3.620   3.460  15.229  0.8721 -0.3277 -0.3776
  819MPD2    H312057   3.806   3.582  15.337  0.6461  0.4392  1.1740
  819MPD2     N12058   3.880   3.233  15.623  0.3888 -0.3387 -0.4455
  819MPD2    H512059   3.855   3.135  15.636  0.6289 -0.7548 -3.1164
  819MPD2    N112060   3.520   3.231  15.298  0.2930 -0.5001 -0.6745
  819MPD2    H712061   3.477   3.282  15.223 -2.0305  0.2712  1.1855
  820MPD2     C12062   2.967   3.062  14.490  0.5785  0.3633 -0.1286
  820MPD2    C112063   3.027   3.166  14.559  0.8296  0.2761  0.1386
  820MPD2    C212064   3.082   3.141  14.686  0.3716  0.2122 -0.0774
  820MPD2    C312065   3.064   3.019  14.749 -0.3273 -0.5671  0.0114
  820MPD2    C412066   2.994   2.923  14.681 -0.3325  0.1202 -0.1289
  820MPD2    C512067   2.942   2.948  14.557 -0.8894  0.8241  0.0935
  820MPD2     H12068   3.148   3.217  14.727  1.3997 -1.3706  1.2070
  820MPD2    H112069   2.977   2.828  14.729 -1.0838  0.3966  0.1471
  820MPD2    H212070   2.938   3.077  14.387  0.5126  1.1736  0.0061
  820MPD2    H312071   2.877   2.881  14.503  1.5285 -1.2692 -0.2443
  820MPD2     N12072   3.121   2.987  14.874  0.2143 -0.3513 -0.3027
  820MPD2    H512073   3.109   2.892  14.905  0.7710 -0.7173 -1.2101
  820MPD2    N112074   3.022   3.298  14.501  0.1943 -0.1550  0.1829
  820MPD2    H712075   2.954   3.303  14.427 -0.5086 -1.8228  0.6985
  821MPD2     C12076   4.165   4.579  12.863 -0.1720 -0.1829  0.3594
  821MPD2    C112077   4.288   4.583  12.931 -0.1404  0.7989 -0.1254
  821MPD2    C212078   4.408   4.555  12.862 -0.0346 -0.4201 -0.4084
  821MPD2    C312079   4.408   4.535  12.722 -0.0158  0.5383 -0.3127
  821MPD2    C412080   4.289   4.546  12.657  0.1357 -0.2038  0.7469
  821MPD2    C512081   4.170   4.565  12.722 -0.1529 -0.2783 -0.8244
  821MPD2     H12082   4.504   4.554  12.913 -1.9055 -0.1613  3.0792
  821MPD2    H112083   4.279   4.513  12.555  1.1142  2.3915 -0.1813
  821MPD2    H212084   4.070   4.589  12.913  0.4410  4.8463  0.4526
  821MPD2    H312085   4.078   4.565  12.663 -0.4525 -2.7165 -0.3352
  821MPD2     N12086   4.522   4.521  12.638 -0.1706  0.4400 -0.3336
  821MPD2    H512087   4.507   4.551  12.541  0.2866 -1.4768 -0.9892
  821MPD2    N112088   4.307   4.627  13.070  0.6108  1.3226 -0.7116
  821MPD2    H712089   4.405   4.626  13.097  0.7954  2.9692 -1.3304
  822MPD2     C12090   4.442   0.005  15.489 -0.7627 -0.2614  0.3652
  822MPD2    C112091   4.429   4.695  15.621 -0.4778 -0.5734  0.5723
  822MPD2    C212092   4.356   0.052  15.702  0.4409 -0.3435  0.1244
  822MPD2    C312093   4.292   0.163  15.661 -0.7514  0.2701 -0.3222
  822MPD2    C412094   4.294   0.191  15.527  0.0711 -0.2579 -0.1661
  822MPD2    C512095   4.360   0.107  15.443 -0.5560  0.0020 -0.2168
  822MPD2     H12096   4.347   0.037  15.809  2.9229  1.2512  0.5411
  822MPD2    H112097   4.230   0.266  15.483  1.4104  1.0164  0.0287
  822MPD2    H212098   4.498   4.676  15.413  0.9120  2.5930 -0.4152
  822MPD2    H312099   4.364   0.126  15.336  1.0102 -1.8921 -0.4967
  822MPD2     N12100   4.235   0.253  15.759 -0.3828  0.7964  0.4045
  822MPD2    H512101   4.247   0.226  15.856  3.3003 -1.7078 -0.7153
  822MPD2    N112102   4.491   4.590  15.680  0.7241  0.4416 -0.2076
  822MPD2    H712103   4.466   4.583  15.778 -2.5087  1.4867 -0.9858
  823MPD2     C12104   3.994   0.455  16.538  0.8713  0.5385  0.0801
  823MPD2    C112105   4.039   0.362  16.441  0.0526  0.2869  0.0367
  823MPD2    C212106   4.082   0.237  16.475  0.5085 -0.1534 -0.0443
  823MPD2    C312107   4.089   0.196  16.608  0.3554  0.4595 -0.3872
  823MPD2    C412108   4.050   0.285  16.708 -0.0743  0.2666  0.4061
  823MPD2    C512109   4.008   0.415  16.672 -0.0186 -0.8249  0.0455
  823MPD2     H12110   4.115   0.173  16.394 -0.6143 -0.6958 -0.0824
  823MPD2    H112111   4.048   0.260  16.814 -1.2237  1.1952  0.6134
  823MPD2    H212112   3.955   0.553  16.514  0.2830  0.0360 -0.9655
  823MPD2    H312113   3.987   0.488  16.749 -1.4384 -2.7889  1.5172
  823MPD2     N12114   4.134   0.071  16.648 -0.3031  0.2962  0.5718
  823MPD2    H512115   4.124   0.051  16.747 -0.9309  3.3948  1.1421
  823MPD2    N112116   4.048   0.412  16.311  0.3314 -0.1401 -0.6041
  823MPD2    H712117   4.039   0.513  16.301  4.3284  0.2262 -0.5621
  824MPD2     C12118   0.507   4.072  15.856 -0.1900 -0.3047  0.0557
  824MPD2    C112119   0.414   4.080  15.759 -0.0417 -0.8036  0.0929
  824MPD2    C212120   0.430   3.993  15.649 -0.2615 -0.6089  0.6875
  824MPD2    C312121   0.517   3.888  15.647 -0.4634 -0.0699 -1.1238
  824MPD2    C412122   0.595   3.874  15.759 -0.6927  0.2936 -0.3624
  824MPD2    C512123   0.597   3.973  15.855 -0.0125 -0.7567  0.1742
  824MPD2     H12124   0.365   3.999  15.562  1.1745  0.5225 -0.3005
  824MPD2    H112125   0.661   3.788  15.763 -1.2451 -0.1117 -0.1020
  824MPD2    H212126   0.514   4.148  15.933 -0.4546  2.1257 -2.2858
  824MPD2    H312127   0.666   3.959  15.938  0.1133  1.1686  0.3747
  824MPD2     N12128   0.504   3.785  15.546  0.1044 -0.6425 -0.9259
  824MPD2    H512129   0.443   3.803  15.467 -2.2407 -1.8024  0.6015
  824MPD2    N112130   0.318   4.179  15.772  0.2371  0.7400  0.0697
  824MPD2    H712131   0.330   4.247  15.846  0.2397  1.2448 -0.3960
  825MPD2     C12132   0.999   3.564  14.916 -0.3318 -0.7882  1.0747
  825MPD2    C112133   0.890   3.633  14.949  0.5249 -0.0908 -0.2804
  825MPD2    C212134   0.879   3.763  14.906 -0.0371  0.2579  0.4395
  825MPD2    C312135   0.971   3.822  14.821  0.4050 -0.1354  0.4863
  825MPD2    C412136   1.077   3.745  14.782 -0.5518  0.7109 -0.0772
  825MPD2    C512137   1.085   3.616  14.825  0.4026 -0.3140  0.3409
  825MPD2     H12138   0.793   3.820  14.937  0.2978  0.9571  0.0900
  825MPD2    H112139   1.158   3.781  14.718  0.8845 -1.3983  0.5318
  825MPD2    H212140   1.007   3.461  14.950  0.1422 -1.0148  0.2818
  825MPD2    H312141   1.166   3.546  14.805  1.8119  1.6174 -0.7032
  825MPD2     N12142   0.981   3.962  14.789 -0.0224 -0.3983  0.4003
  825MPD2    H512143   1.058   3.995  14.731 -0.0389 -3.5729 -1.4825
  825MPD2    N112144   0.792   3.582  15.044 -0.1398  0.6705  0.0021
  825MPD2    H712145   0.827   3.493  15.077  0.5039  0.6739 -0.6616
  826MPD2     C12146   1.012   3.820  13.704 -0.0061 -0.5780 -0.1656
  826MPD2    C112147   0.936   3.815  13.589  0.0771 -0.6708  0.5092
  826MPD2    C212148   0.808   3.866  13.594 -0.2543  0.0723 -0.4399
  826MPD2    C312149   0.765   3.925  13.715 -0.1142 -0.0226 -0.4139
  826MPD2    C412150   0.849   3.951  13.825  0.0880 -0.2811 -0.1720
  826MPD2    C512151   0.977   3.886  13.811  0.0600  0.4300 -0.2714
  826MPD2     H12152   0.742   3.840  13.513  0.9871 -0.9980 -1.1058
  826MPD2    H112153   0.820   4.023  13.900  2.5452 -0.4266  0.9329
  826MPD2    H212154   1.111   3.775  13.703  0.9988  1.6307  0.6193
  826MPD2    H312155   1.054   3.898  13.886  0.9665 -2.5132 -0.7539
  826MPD2     N12156   0.640   3.997  13.722  0.7439 -0.1408 -1.0454
  826MPD2    H512157   0.639   4.067  13.795 -2.7455  1.6263 -2.7621
  826MPD2    N112158   0.992   3.747  13.474  0.0003 -0.4835 -0.2624
  826MPD2    H712159   1.084   3.706  13.486  0.1145  0.1909  1.1355
  827MPD2     C12160   1.889   4.482   9.797  0.4038 -0.3246  0.5974
  827MPD2    C112161   1.815   4.588   9.828  0.0174  0.6757  0.2944
  827MPD2    C212162   1.692   4.604   9.760  0.5022  0.0682 -0.0993
  827MPD2    C312163   1.638   4.505   9.681  0.0734  0.2282  0.8164
  827MPD2    C412164   1.708   4.390   9.668  0.0043  0.7901 -0.0303
  827MPD2    C512165   1.829   4.376   9.733 -0.0983 -0.2167  0.6496
  827MPD2     H12166   1.639   4.694   9.788  0.1061  0.2637 -1.4961
  827MPD2    H112167   1.668   4.302   9.619 -0.3213  1.3133 -0.7125
  827MPD2    H212168   1.986   4.466   9.842  0.1962 -3.6865 -0.1406
  827MPD2    H312169   1.878   4.281   9.717 -1.8542 -1.2099  1.2505
  827MPD2     N12170   1.508   4.519   9.632  0.1068 -0.3129 -0.3326
  827MPD2    H512171   1.464   4.610   9.647 -1.6157 -1.0472 -0.9175
  827MPD2    N112172   1.853   4.692   9.916 -0.5963  0.0606  0.2076
  827MPD2    H712173   1.786   0.043   9.933 -1.2728 -0.7181  0.9987
  828MPD2     C12174   0.307   4.301  11.996  0.3925  0.2285  0.0442
  828MPD2    C112175   0.236   4.313  11.884 -0.0126 -0.2946  0.2745
  828MPD2    C212176   0.303   4.291  11.763 -0.3509 -0.9452  0.5505
  828MPD2    C312177   0.437   4.254  11.763  0.4963  0.5407  0.1820
  828MPD2    C412178   0.496   4.239  11.886 -0.0328 -0.0727 -0.2731
  828MPD2    C512179   0.436   4.265  12.005  0.0400 -0.2011  0.4648
  828MPD2     H12180   0.234   4.287  11.679 -0.7225  1.5501  0.7407
  828MPD2    H112181   0.598   4.204  11.872 -0.4174 -1.1100 -0.5329
  828MPD2    H212182   0.257   4.318  12.091 -0.5723  0.3890 -0.4951
  828MPD2    H312183   0.505   4.270  12.088 -0.1852  1.7240  0.5436
  828MPD2     N12184   0.512   4.229  11.640 -0.3246 -0.2190 -0.1566
  828MPD2    H512185   0.606   4.194  11.655 -0.4470  0.0129  1.1914
  828MPD2    N112186   0.100   4.338  11.872 -0.7638 -0.3313 -0.4401
  828MPD2    H712187   0.065   4.327  11.778  1.5069  0.4333 -1.3777
  829MPD2     C12188   3.968   4.136  11.383 -0.6626 -0.1610  0.6864
  829MPD2    C112189   3.921   4.200  11.493  0.5235 -0.2343 -0.0333
  829MPD2    C212190   4.017   4.253  11.581  0.2766 -0.2715  0.2255
  829MPD2    C312191   4.155   4.224  11.565  0.3083  0.9242  0.0595
  829MPD2    C412192   4.196   4.150  11.456  0.4069 -0.4479 -0.0926
  829MPD2    C512193   4.100   4.107  11.371  0.0810  0.2325  0.7077
  829MPD2     H12194   3.983   4.331  11.648 -1.1078 -1.7333  1.2476
  829MPD2    H112195   4.299   4.122  11.438  0.3519  0.2942 -1.5404
  829MPD2    H212196   3.906   4.101  11.301 -1.7667  0.8120  1.1021
  829MPD2    H312197   4.136   4.043  11.292 -3.0117  0.7071 -1.0782
  829MPD2     N12198   4.247   4.265  11.665 -0.8167  0.1438 -0.7120
  829MPD2    H512199   4.206   4.302  11.751  0.4124  1.6483 -0.7651
  829MPD2    N112200   3.788   4.239  11.495  0.8289 -0.7903  0.9400
  829MPD2    H712201   3.730   4.214  11.416  0.6492  2.3393  0.0771
  830MPD2     C12202   4.225   2.695  15.484  0.2101 -0.9085 -0.1701
  830MPD2    C112203   4.270   2.782  15.573 -0.2487  0.0143 -0.4791
  830MPD2    C212204   4.397   2.827  15.559  0.2897 -0.0633  0.0932
  830MPD2    C312205   4.481   2.777  15.465 -0.2800  0.4761  0.2829
  830MPD2    C412206   4.443   2.674  15.385  0.1255  0.8097  0.4086
  830MPD2    C512207   4.311   2.635  15.397  0.2582 -0.0779 -0.4407
  830MPD2     H12208   4.426   2.916  15.613 -0.8291 -1.4280  2.9485
  830MPD2    H112209   4.505   2.631  15.308 -0.4796  1.1249 -0.2473
  830MPD2    H212210   4.126   2.653  15.502  0.0470 -0.4373  0.0281
  830MPD2    H312211   4.269   2.562  15.329  0.3690 -1.1651  0.6668
  830MPD2     N12212   4.606   2.839  15.436  0.0821 -0.1017 -0.3582
  830MPD2    H512213   4.652   2.818  15.348 -0.5234 -0.4583 -0.5835
  830MPD2    N112214   4.182   2.851  15.665 -0.2506 -0.4498 -0.7635
  830MPD2    H712215   4.080   2.850  15.658 -0.0311  1.9729 -4.2660
  831MPD2     C12216   4.532   0.304  16.047  0.1450 -0.1537 -0.8405
  831MPD2    C112217   4.561   0.191  15.984 -0.0197  0.4636 -0.0190
  831MPD2    C212218   4.494   0.075  16.010  0.4661 -0.6175  0.4915
  831MPD2    C312219   4.388   0.075  16.105 -0.4379  0.4510 -0.3649
  831MPD2    C412220   4.374   0.189  16.179 -0.2142 -0.0902 -0.0398
  831MPD2    C512221   4.439   0.306  16.147 -0.7262  0.2955  0.3698
  831MPD2     H12222   4.515   4.707  15.956  0.1385  0.2027 -1.0295
  831MPD2    H112223   4.303   0.183  16.261  1.2612  0.6535  1.3049
  831MPD2    H212224   4.583   0.396  16.021  2.6732 -1.0690  0.9744
  831MPD2    H312225   4.411   0.393  16.207  1.0869  0.3324  1.1807
  831MPD2     N12226   4.294   4.690  16.136  0.0946 -0.1241 -0.5274
  831MPD2    H512227   4.248   4.695  16.226  0.0962  1.2508 -0.6175
  831MPD2    N112228   4.657   0.190  15.889  0.3529 -0.4649 -0.6283
  831MPD2    H712229   4.688   0.281  15.855 -2.4907  0.4710 -0.6768
  832MPD2     C12230   2.468   0.782  17.370  0.0058 -0.4712  0.2054
  832MPD2    C112231   2.475   0.914  17.342 -0.6259  0.4575  0.3444
  832MPD2    C212232   2.419   0.965  17.225  0.1133  0.3615 -0.2466
  832MPD2    C312233   2.321   0.884  17.157  0.1703 -0.1982  0.2273
  832MPD2    C412234   2.309   0.750  17.191  0.0933  0.1479 -0.4358
  832MPD2    C512235   2.378   0.705  17.297 -0.2086 -0.0465 -0.5394
  832MPD2     H12236   2.422   1.070  17.199 -0.6336  0.4070 -0.1451
  832MPD2    H112237   2.236   0.677  17.160  0.2463 -1.8745  3.9046
  832MPD2    H212238   2.519   0.742  17.457  2.2546  2.0135  0.0049
  832MPD2    H312239   2.363   0.604  17.333  0.1084  1.1286  2.8846
  832MPD2     N12240   2.229   0.932  17.062  0.4106  0.0927 -0.5395
  832MPD2    H512241   2.174   0.856  17.021 -0.9835  0.4653  0.6590
  832MPD2    N112242   2.534   0.998  17.439 -0.5852  0.3235 -0.0741
  832MPD2    H712243   2.546   0.945  17.525  1.3290 -0.4431 -0.8107
  833MPD2     C12244   0.501   2.775  12.811  0.5266  0.2792  0.3870
  833MPD2    C112245   0.546   2.816  12.688  0.2266 -0.5304  0.0486
  833MPD2    C212246   0.673   2.780  12.654 -0.1690  0.5073  0.2084
  833MPD2    C312247   0.748   2.691  12.733  0.9477  0.1618 -0.6107
  833MPD2    C412248   0.701   2.641  12.847 -0.2061 -0.1413 -0.5159
  833MPD2    C512249   0.572   2.677  12.879 -0.1726 -0.3731 -0.2536
  833MPD2     H12250   0.715   2.814  12.560  0.2433 -1.0571 -0.1608
  833MPD2    H112251   0.757   2.561  12.896 -0.8472  0.3548  1.0210
  833MPD2    H212252   0.406   2.799  12.858 -0.7350 -2.0465 -1.0195
  833MPD2    H312253   0.526   2.627  12.964 -0.7850  0.1684 -0.2674
  833MPD2     N12254   0.868   2.650  12.671 -0.2144  0.0292  0.2539
  833MPD2    H512255   0.898   2.681  12.579 -1.1965 -2.4675 -0.9235
  833MPD2    N112256   0.464   2.909  12.613 -1.1740  0.0551 -0.0283
  833MPD2    H712257   0.380   2.951  12.652 -0.0800  1.3014  0.9823
  834MPD2     C12258   1.153   1.898  12.049 -0.4010  0.2864  0.4171
  834MPD2    C112259   1.117   2.015  11.983  0.3382 -0.5097 -0.3696
  834MPD2    C212260   1.098   2.130  12.055  0.7959  0.4194 -0.6440
  834MPD2    C312261   1.124   2.138  12.191 -0.8551  0.5751 -0.1255
  834MPD2    C412262   1.162   2.021  12.254  0.3584  0.0295  0.3452
  834MPD2    C512263   1.178   1.903  12.182 -0.3914 -0.3250 -0.4972
  834MPD2     H12264   1.067   2.220  12.002  0.9630  1.3064  0.7580
  834MPD2    H112265   1.184   2.016  12.360 -1.4221  0.3673  0.7268
  834MPD2    H212266   1.168   1.800  12.006  1.9412  0.3187  1.1099
  834MPD2    H312267   1.216   1.814  12.230 -0.2736 -0.6196 -1.1366
  834MPD2     N12268   1.113   2.260  12.262 -0.1693  0.5200  0.1855
  834MPD2    H512269   1.084   2.339  12.205  1.2186  1.2597  0.5103
  834MPD2    N112270   1.111   2.004  11.839 -0.6243 -0.4992  0.2528
  834MPD2    H712271   1.132   1.909  11.810 -2.0422 -0.5688 -0.4947
  835MPD2     C12272   1.051   4.708  10.922 -0.0534  0.1714 -0.3289
  835MPD2    C112273   0.974   0.041  11.020 -0.3841  0.6697  0.1739
  835MPD2    C212274   1.007   0.052  11.152 -0.7545 -0.1933  1.2013
  835MPD2    C312275   1.134   0.009  11.183 -0.9947 -0.4133  0.2538
  835MPD2    C412276   1.219   4.675  11.095  0.4766  0.2884 -0.4058
  835MPD2    C512277   1.176   4.660  10.965  0.2831 -0.5795 -0.6816
  835MPD2     H12278   0.939   0.103  11.219  0.1003  1.5076  0.7847
  835MPD2    H112279   1.314   4.637  11.130 -0.2299 -0.5897  0.5758
  835MPD2    H212280   1.016   4.712  10.820 -0.8770 -1.3150 -0.1037
  835MPD2    H312281   1.238   4.614  10.889  2.1848  3.3473 -1.5021
  835MPD2     N12282   1.184   0.019  11.311 -0.4246 -0.1942  0.0044
  835MPD2    H512283   1.265   4.682  11.322 -0.9982 -0.6708  1.5335
  835MPD2    N112284   0.844   0.081  10.979 -0.6053 -0.1010 -0.6678
  835MPD2    H712285   0.796   0.132  11.052 -0.7841 -0.9439 -0.1985
  836MPD2     C12286   0.818   4.424  11.246 -0.1443  0.2673 -0.0222
  836MPD2    C112287   0.803   4.476  11.372  0.0564  0.3184  0.2244
  836MPD2    C212288   0.679   4.537  11.407  0.7154  0.1292 -0.3640
  836MPD2    C312289   0.580   4.536  11.315  0.4580 -0.2741 -0.6540
  836MPD2    C412290   0.593   4.463  11.197  0.0568 -0.0824 -0.1115
  836MPD2    C512291   0.714   4.416  11.162 -0.1139  0.9743  0.3397
  836MPD2     H12292   0.657   4.580  11.504  0.0221  0.3342 -0.6143
  836MPD2    H112293   0.505   4.465  11.135 -0.8473 -0.3016  1.1592
  836MPD2    H212294   0.909   4.374  11.215 -1.3478 -1.5158 -0.6708
  836MPD2    H312295   0.720   4.367  11.066 -0.4945 -0.3352  0.9790
  836MPD2     N12296   0.451   4.587  11.341 -0.7258  0.1426 -0.2912
  836MPD2    H512297   0.372   4.563  11.282  0.5478 -1.2551 -1.4487
  836MPD2    N112298   0.910   4.474  11.464  0.1569 -0.3724 -0.4889
  836MPD2    H712299   1.000   4.455  11.421 -0.5949 -2.4988 -1.0925
  837MPD2     C12300   4.182   4.395   9.876  0.5612 -0.3962  0.2055
  837MPD2    C112301   4.065   4.415   9.952 -0.3125 -0.2980  0.4379
  837MPD2    C212302   4.043   4.539   9.999 -0.0946  0.9811 -0.2088
  837MPD2    C312303   4.130   4.644   9.979 -0.0451 -0.4762  0.4622
  837MPD2    C412304   4.244   4.624   9.909 -0.2524  0.2817 -0.0489
  837MPD2    C512305   4.269   4.500   9.856 -0.2628 -0.5932  0.2488
  837MPD2     H12306   3.944   4.559  10.038 -1.3144 -1.7976 -1.8948
  837MPD2    H112307   4.306   4.711   9.893  1.0145 -0.1225  2.6760
  837MPD2    H212308   4.208   4.298   9.836 -0.7578  0.2049 -2.0757
  837MPD2    H312309   4.363   4.486   9.804 -0.5051 -0.6359 -0.1735
  837MPD2     N12310   4.079   0.045  10.023 -0.9619 -0.1772 -0.3732
  837MPD2    H512311   3.984   0.058  10.054 -0.5160  0.7117  0.6000
  837MPD2    N112312   3.964   4.321   9.969  0.2704  0.8504  0.0889
  837MPD2    H712313   3.886   4.351  10.026  0.3172  0.9863  0.0808
  838MPD2     C12314   2.530   3.175  11.550 -0.4339 -1.0435  0.2528
  838MPD2    C112315   2.420   3.100  11.520 -0.9131 -0.0965 -0.7914
  838MPD2    C212316   2.300   3.111  11.584  0.3329 -0.2647 -0.7545
  838MPD2    C312317   2.293   3.197  11.694 -0.8587  0.7960 -0.2793
  838MPD2    C412318   2.403   3.269  11.725  0.6764 -0.1168 -0.2376
  838MPD2    C512319   2.519   3.264  11.649 -0.2765  0.1226  0.2559
  838MPD2     H12320   2.211   3.060  11.549  0.8364 -0.0510 -2.3260
  838MPD2    H112321   2.410   3.334  11.812 -0.4370  2.3886 -2.0000
  838MPD2    H212322   2.622   3.181  11.492  1.5798 -0.0691  3.5412
  838MPD2    H312323   2.603   3.329  11.672 -1.5587  1.9053 -0.0992
  838MPD2     N12324   2.178   3.209  11.769 -0.4424 -0.3726 -0.1515
  838MPD2    H512325   2.176   3.287  11.834  1.1666 -0.2060 -0.3098
  838MPD2    N112326   2.420   3.008  11.414 -0.0445  0.3935 -0.1325
  838MPD2    H712327   2.335   2.963  11.383  1.3151 -2.5172  0.3249
  839MPD2     C12328   1.705   2.898  11.109  0.2712  0.4703  0.7055
  839MPD2    C112329   1.760   2.788  11.053  0.0688  0.2441  0.8413
  839MPD2    C212330   1.895   2.794  11.031 -0.2997  0.3145  0.1592
  839MPD2    C312331   1.974   2.903  11.068 -0.1629  0.6539 -0.0840
  839MPD2    C412332   1.912   3.006  11.139 -0.6704 -0.5642 -0.7418
  839MPD2    C512333   1.778   3.001  11.157 -0.4793 -0.1319  0.4049
  839MPD2     H12334   1.937   2.714  10.970 -0.5901  0.3853 -0.1305
  839MPD2    H112335   1.966   3.093  11.172  0.0686 -0.9726 -0.8732
  839MPD2    H212336   1.598   2.898  11.129  0.5176 -0.3313  2.0418
  839MPD2    H312337   1.729   3.080  11.214 -1.0898 -0.3604  0.1934
  839MPD2     N12338   2.116   2.914  11.065 -0.2540 -0.3590  0.4483
  839MPD2    H512339   2.156   2.995  11.111 -1.5041  0.2896  0.3747
  839MPD2    N112340   1.675   2.678  11.024 -1.0929 -0.2505  0.0526
  839MPD2    H712341   1.717   2.603  10.970 -1.0697  0.0950 -0.4112
  840MPD2     C12342   2.433   0.485  10.142 -0.2051  0.4043  0.1430
  840MPD2    C112343   2.385   0.412  10.242  0.7815  0.4152  0.7655
  840MPD2    C212344   2.442   0.423  10.372  0.3109 -0.9567 -0.9586
  840MPD2    C312345   2.552   0.508  10.393 -0.1442 -0.2650  0.7190
  840MPD2    C412346   2.588   0.593  10.287  0.4725 -0.1138  0.1142
  840MPD2    C512347   2.528   0.582  10.163  0.5297 -1.0813 -0.4952
  840MPD2     H12348   2.411   0.367  10.460  1.3578  0.7504  0.5012
  840MPD2    H112349   2.663   0.669  10.303  0.3061  0.4420 -1.8357
  840MPD2    H212350   2.398   0.479  10.040  1.2098  1.3552 -0.3968
  840MPD2    H312351   2.566   0.647  10.086 -0.5178  0.1587  0.0351
  840MPD2     N12352   2.626   0.524  10.511 -0.0731 -0.0022  0.2298
  840MPD2    H512353   2.690   0.603  10.506 -4.9204  3.8655 -0.5928
  840MPD2    N112354   2.274   0.323  10.217 -0.3921 -0.0778 -0.6224
  840MPD2    H712355   2.256   0.300  10.120 -1.0060 -0.8787 -0.3183
  841MPD2     C12356   2.277   0.129  14.346 -0.2973  0.4718 -0.8403
  841MPD2    C112357   2.151   0.163  14.372  0.1182  0.1850  0.1719
  841MPD2    C212358   2.134   0.218  14.498 -0.1387  0.9683 -0.8140
  841MPD2    C312359   2.235   0.220  14.594  0.9921  0.4935 -0.2249
  841MPD2    C412360   2.356   0.156  14.567  0.6534  0.4310  1.0581
  841MPD2    C512361   2.373   0.123  14.439  0.6623 -0.0010 -0.7922
  841MPD2     H12362   2.038   0.259  14.528  0.3980  0.1659  2.0097
  841MPD2    H112363   2.442   0.139  14.631  1.8604 -3.5401 -1.6216
  841MPD2    H212364   2.303   0.084  14.250  0.8618  0.2058 -0.4018
  841MPD2    H312365   2.471   0.086  14.413 -0.7888 -3.7957 -0.8514
  841MPD2     N12366   2.220   0.261  14.726  0.5749  0.0755 -0.8052
  841MPD2    H512367   2.135   0.310  14.752  0.2060 -1.2646  0.5195
  841MPD2    N112368   2.053   0.145  14.276  0.3011 -0.0059 -0.0510
  841MPD2    H712369   2.077   0.100  14.188  1.5571 -0.6300  0.6126
  842MPD2     C12370   2.096   1.548  16.864  0.5342 -0.4403  0.3604
  842MPD2    C112371   1.980   1.463  16.846 -0.1563 -0.1512 -0.0040
  842MPD2    C212372   1.944   1.384  16.954 -0.5102 -0.4160  0.0011
  842MPD2    C312373   2.012   1.395  17.073  0.1887 -0.2742  1.0785
  842MPD2    C412374   2.145   1.443  17.069 -0.3271 -0.2739 -0.0908
  842MPD2    C512375   2.185   1.515  16.964 -0.0725 -0.1318  0.1925
  842MPD2     H12376   1.846   1.338  16.946 -1.9118  2.6348 -0.2029
  842MPD2    H112377   2.192   1.444  17.167 -0.1647 -1.1882 -0.1548
  842MPD2    H212378   2.130   1.612  16.783 -2.7287 -1.8457 -2.1119
  842MPD2    H312379   2.276   1.574  16.964 -0.5667  0.6243  3.5207
  842MPD2     N12380   1.974   1.323  17.193 -0.4633  0.3769 -0.3435
  842MPD2    H512381   2.051   1.319  17.259 -0.8014 -0.9046 -0.0208
  842MPD2    N112382   1.918   1.471  16.719  0.1026 -0.1413  0.5475
  842MPD2    H712383   1.962   1.529  16.648  2.3836  0.2522  2.2915
  843MPD2     C12384   4.321   2.032  17.626 -0.2306  0.1774  0.8180
  843MPD2    C112385   4.321   1.917  17.696 -0.2628 -0.0577 -0.5343
  843MPD2    C212386   4.437   1.877   0.068 -0.5758  0.1762  0.2171
  843MPD2    C312387   4.553   1.957   0.069 -0.6110 -0.2488 -0.1332
  843MPD2    C412388   4.551   2.075  17.694 -0.6986  1.1721 -0.3579
  843MPD2    C512389   4.435   2.114  17.632 -0.1532 -0.3306 -0.3437
  843MPD2     H12390   4.445   1.787   0.128  0.3154 -0.3045 -0.6280
  843MPD2    H112391   4.639   2.137  17.687 -1.7404  2.9525  2.3486
  843MPD2    H212392   4.228   2.065  17.579 -0.8783  1.9111  3.2763
  843MPD2    H312393   4.426   2.205  17.574 -4.5025 -0.6804 -0.2014
  843MPD2     N12394   4.677   1.924   0.128  0.2792 -0.1544 -0.8845
  843MPD2    H512395   0.018   2.001   0.136  1.7000 -1.7755  3.7293
  843MPD2    N112396   4.204   1.839  17.692 -0.2964 -0.6475  0.3859
  843MPD2    H712397   4.116   1.881  17.664  1.8431  0.7071 -4.2459
  844MPD2     C12398   2.413   0.871  16.655 -0.1221  0.0331 -0.3535
  844MPD2    C112399   2.475   0.757  16.699  0.0350  0.0489 -0.3095
  844MPD2    C212400   2.543   0.772  16.817 -0.2119  0.3350 -0.0487
  844MPD2    C312401   2.553   0.890  16.889 -0.6831  0.2785  0.1695
  844MPD2    C412402   2.489   1.001  16.836  0.2208  0.0125  0.3239
  844MPD2    C512403   2.420   0.990  16.725 -0.0397 -0.2239  0.3748
  844MPD2     H12404   2.598   0.692  16.866 -1.4742 -1.7901 -2.0645
  844MPD2    H112405   2.491   1.097  16.886 -1.4045 -0.1012  0.6078
  844MPD2    H212406   2.349   0.872  16.567 -1.3461 -0.3993  0.5318
  844MPD2    H312407   2.370   1.078  16.686  0.9902  0.2320  0.0782
  844MPD2     N12408   2.646   0.891  16.993 -0.4329  0.2073 -0.2480
  844MPD2    H512409   2.688   0.800  17.014  0.1813  0.4942 -0.2352
  844MPD2    N112410   2.463   0.630  16.643  0.2084 -0.2880 -0.2238
  844MPD2    H712411   2.517   0.556  16.686  0.7395 -0.9137 -1.9606
  845MPD2     C12412   2.972   1.695  17.381  0.2396  0.2665 -0.2693
  845MPD2    C112413   2.853   1.641  17.343  0.2703  0.1303  0.7911
  845MPD2    C212414   2.838   1.504  17.338 -0.4791 -0.2017 -0.0696
  845MPD2    C312415   2.942   1.418  17.362  0.0883  0.2443  0.8100
  845MPD2    C412416   3.058   1.477  17.409  0.8538 -0.4481 -0.0257
  845MPD2    C512417   3.076   1.613  17.412  0.0678 -0.0264  0.1279
  845MPD2     H12418   2.741   1.470  17.304 -0.5002  1.3627 -1.5410
  845MPD2    H112419   3.144   1.413  17.423  0.1349 -0.8723  2.5187
  845MPD2    H212420   2.985   1.801  17.398 -2.3614  0.2208  1.9936
  845MPD2    H312421   3.174   1.646  17.444 -0.0488 -1.4036  1.9086
  845MPD2     N12422   2.933   1.288  17.310 -0.3643 -0.4234 -0.4426
  845MPD2    H512423   2.841   1.271  17.270 -1.3417  0.6455  1.3709
  845MPD2    N112424   2.743   1.723  17.307  0.3285  0.1790  0.2962
  845MPD2    H712425   2.657   1.671  17.291  0.2314  0.7427 -1.0783
  846MPD2     C12426   0.162   2.230  13.711 -0.4579  0.4803 -0.1487
  846MPD2    C112427   0.061   2.331  13.717  0.1219 -0.4340 -0.5869
  846MPD2    C212428   4.710   2.344  13.835 -0.4444  0.0061  0.1835
  846MPD2    C312429   0.002   2.254  13.937  0.1437  0.6198 -0.3073
  846MPD2    C412430   0.106   2.161  13.927 -0.3508 -0.4824  0.2828
  846MPD2    C512431   0.186   2.153  13.820 -0.4455 -0.2775 -0.5929
  846MPD2     H12432   4.624   2.410  13.843 -2.7771 -2.8862 -1.1044
  846MPD2    H112433   0.117   2.092  14.010 -0.8791 -1.5393 -0.5463
  846MPD2    H212434   0.226   2.222  13.624 -3.5970  0.0020 -2.4012
  846MPD2    H312435   0.272   2.088  13.814 -1.8147 -1.8160 -3.2120
  846MPD2     N12436   4.636   2.259  14.048  0.0093  0.2709 -0.4331
  846MPD2    H512437   4.564   2.330  14.040 -0.1567  0.2005  0.4565
  846MPD2    N112438   0.041   2.422  13.609  0.7336 -0.4581  0.2597
  846MPD2    H712439   4.690   2.491  13.616 -1.6389 -3.2539  2.4272
  847MPD2     C12440   0.119   2.856  13.975  0.5516  0.8102 -0.3490
  847MPD2    C112441   0.117   2.980  14.020  0.7462 -0.6044 -0.0886
  847MPD2    C212442   0.184   3.013  14.131  0.7602 -0.3678  0.1803
  847MPD2    C312443   0.253   2.924  14.205  0.2221  0.0856  0.4265
  847MPD2    C412444   0.261   2.792  14.162  0.3240 -0.1469  0.3574
  847MPD2    C512445   0.201   2.766  14.044  0.0105  0.0846  0.1113
  847MPD2     H12446   0.191   3.117  14.163  2.7377 -0.1478 -0.9634
  847MPD2    H112447   0.324   2.716  14.208  0.3216  1.2577  2.6927
  847MPD2    H212448   0.083   2.815  13.882  2.0448 -0.0802 -0.5355
  847MPD2    H312449   0.218   2.668  14.000  0.7458  0.7020 -0.9820
  847MPD2     N12450   0.335   2.985  14.305  0.4981 -0.1343  0.6693
  847MPD2    H512451   0.339   3.086  14.314  0.1889 -0.1808  1.3901
  847MPD2    N112452   0.056   3.087  13.954 -0.4186  0.2933 -0.5062
  847MPD2    H712453   0.076   3.174  14.003  0.2349  0.0029 -0.2589
  848MPD2     C12454   2.062   1.245  16.309 -0.4903 -0.0417  0.1173
  848MPD2    C112455   2.148   1.272  16.412  0.4490 -0.3036 -0.0859
  848MPD2    C212456   2.256   1.362  16.400 -0.1809 -0.1479  0.5144
  848MPD2    C312457   2.271   1.422  16.276  0.4564 -0.7460  0.6162
  848MPD2    C412458   2.190   1.389  16.170 -0.0256  0.2850 -0.1151
  848MPD2    C512459   2.091   1.302  16.191  0.6912 -0.3016 -0.0429
  848MPD2     H12460   2.319   1.368  16.488 -0.0462  1.5080  0.3083
  848MPD2    H112461   2.203   1.438  16.074 -1.5838 -1.2314 -1.0937
  848MPD2    H212462   1.979   1.176  16.307 -1.3583  0.9982 -0.0348
  848MPD2    H312463   2.019   1.288  16.111  0.8047 -2.1988  0.2026
  848MPD2     N12464   2.367   1.525  16.253  0.3633  0.2633 -0.5166
  848MPD2    H512465   2.360   1.561  16.158  2.3493  1.8594 -0.0560
  848MPD2    N112466   2.121   1.219  16.539  0.1603  0.1592  0.4610
  848MPD2    H712467   2.199   1.231  16.602  0.6645  0.2754 -0.1785
  849MPD2     C12468   1.884   1.403  13.432  0.4708 -0.2328  0.1363
  849MPD2    C112469   2.001   1.345  13.464 -0.5899 -0.0736 -0.6192
  849MPD2    C212470   2.005   1.237  13.555 -0.4907 -0.9918 -0.4987
  849MPD2    C312471   1.882   1.185  13.593  0.0738  0.0910  0.6795
  849MPD2    C412472   1.772   1.253  13.553  0.0460  0.1532  0.1733
  849MPD2    C512473   1.769   1.361  13.481 -0.1946  0.7241  0.5721
  849MPD2     H12474   2.094   1.180  13.578 -0.0616  1.3676  3.9185
  849MPD2    H112475   1.673   1.223  13.585  0.9834 -2.6967  0.3914
  849MPD2    H212476   1.876   1.492  13.370  1.2566 -0.6202 -0.5177
  849MPD2    H312477   1.681   1.419  13.454 -1.5799 -0.0242  3.4974
  849MPD2     N12478   1.886   1.065  13.664 -0.2996 -0.0255 -0.7139
  849MPD2    H512479   1.980   1.029  13.680  0.6134  2.6183 -0.2732
  849MPD2    N112480   2.119   1.384  13.408 -0.5541 -0.1235 -0.0180
  849MPD2    H712481   2.194   1.329  13.450  0.8633 -0.1838 -2.6072
  850MPD2     C12482   4.376   4.246  14.708  0.0741  0.1187  0.0875
  850MPD2    C112483   4.456   4.164  14.774 -0.0662  0.0568 -0.1283
  850MPD2    C212484   4.575   4.128  14.707  0.1017 -0.0843  0.3557
  850MPD2    C312485   4.620   4.186  14.584  0.1991 -0.3750 -0.1664
  850MPD2    C412486   4.535   4.270  14.516 -0.4049 -0.0773  0.2929
  850MPD2    C512487   4.417   4.293  14.586  0.6401 -0.1282 -0.4944
  850MPD2     H12488   4.640   4.058  14.760 -0.4177 -1.1315 -0.4038
  850MPD2    H112489   4.540   4.315  14.418  0.2562  1.6335  1.1188
  850MPD2    H212490   4.276   4.279  14.734  0.0985  0.1337  0.1641
  850MPD2    H312491   4.345   4.347  14.527 -0.6702  0.2692  1.4864
  850MPD2     N12492   0.032   4.170  14.540  0.4849 -0.3329  0.4026
  850MPD2    H512493   0.080   4.251  14.503 -0.0962  0.4098  1.2500
  850MPD2    N112494   4.418   4.118  14.908  0.6505 -0.0120  0.3984
  850MPD2    H712495   4.343   4.167  14.955 -0.8359 -1.6140 -0.2797
  851MPD2     C12496   0.098   3.759  15.639 -0.1865  0.1721  0.0003
  851MPD2    C112497   0.017   3.715  15.534  0.3144  0.0019  0.1354
  851MPD2    C212498   0.034   3.581  15.492 -0.0931  0.1153 -0.2177
  851MPD2    C312499   0.138   3.503  15.539  0.4713 -0.7598 -0.1312
  851MPD2    C412500   0.223   3.550  15.635  0.1394 -0.4149 -0.5800
  851MPD2    C512501   0.206   3.677  15.686  0.3797 -0.4784  0.1799
  851MPD2     H12502   4.692   3.538  15.418 -0.3988 -1.5446  1.0396
  851MPD2    H112503   0.309   3.493  15.669  0.6737  1.9667  2.0234
  851MPD2    H212504   0.096   3.865  15.664 -0.1221 -0.0737  1.0720
  851MPD2    H312505   0.283   3.710  15.756  1.0038 -1.6608  0.0546
  851MPD2     N12506   0.141   3.377  15.491 -0.1368 -0.0198  0.0667
  851MPD2    H512507   0.059   3.343  15.443 -1.4352 -0.2246  2.4309
  851MPD2    N112508   4.643   3.803  15.479  0.9236 -0.5180  0.5649
  851MPD2    H712509   4.642   3.891  15.529  0.2708 -0.1704 -0.0563
  852MPD2     C12510   4.606   1.565  10.063 -0.1882 -0.3950  0.0009
  852MPD2    C112511   4.657   1.672  10.134  0.4639  0.1702 -0.1184
  852MPD2    C212512   0.041   1.747  10.079 -0.1204  0.6592  0.2785
  852MPD2    C312513   0.094   1.715   9.961 -0.3638  0.6896  0.8147
  852MPD2    C412514   0.040   1.614   9.886  0.1618 -0.0761 -0.4276
  852MPD2    C512515   4.652   1.544   9.933  0.3624 -0.0383 -0.6913
  852MPD2     H12516   0.087   1.830  10.130  0.2715  1.8549 -1.9921
  852MPD2    H112517   0.079   1.588   9.788  4.2424  0.3923  1.0911
  852MPD2    H212518   4.528   1.505  10.108 -1.5600  1.8290  0.5782
  852MPD2    H312519   4.607   1.466   9.873 -1.4468  1.7375 -1.6419
  852MPD2     N12520   0.210   1.790   9.924  0.6049  0.2555 -0.2169
  852MPD2    H512521   0.238   1.855   9.996  0.1030  0.4514 -0.2004
  852MPD2    N112522   4.626   1.697  10.266 -0.4717  0.3546 -0.7090
  852MPD2    H712523   4.676   1.776  10.306  0.7214 -0.7254 -0.0501
  853MPD2     C12524   1.661   1.447  12.046 -0.7984  0.0077  0.0619
  853MPD2    C112525   1.628   1.577  12.001 -0.1208  0.4596 -0.3328
  853MPD2    C212526   1.634   1.608  11.869  0.1015  0.2510 -0.1675
  853MPD2    C312527   1.671   1.510  11.778  0.2561 -0.2736  0.5468
  853MPD2    C412528   1.693   1.382  11.824 -0.7379  0.0488 -0.5117
  853MPD2    C512529   1.696   1.352  11.955 -0.1098 -0.6993  0.2789
  853MPD2     H12530   1.601   1.706  11.836 -1.9447  0.2179  1.7294
  853MPD2    H112531   1.720   1.304  11.753  0.5454 -0.4122  0.4973
  853MPD2    H212532   1.662   1.409  12.147 -1.9470 -2.0062 -0.6964
  853MPD2    H312533   1.722   1.252  11.988  1.1107 -0.2419  0.7132
  853MPD2     N12534   1.669   1.533  11.639 -0.4789  0.5079 -0.1466
  853MPD2    H512535   1.701   1.455  11.582 -1.0222  1.4464 -1.7286
  853MPD2    N112536   1.599   1.674  12.103  0.3789 -0.1977  0.3741
  853MPD2    H712537   1.591   1.637  12.198  0.1604  0.7286  0.7216
  854MPD2     C12538   3.583   1.718  12.494 -0.5966 -0.2612  0.5031
  854MPD2    C112539   3.488   1.681  12.585 -0.0064 -0.7248  0.4481
  854MPD2    C212540   3.491   1.554  12.641 -0.2413  0.3481 -0.3705
  854MPD2    C312541   3.595   1.470  12.620  0.5754 -0.6813 -0.3089
  854MPD2    C412542   3.700   1.513  12.541 -0.1779 -0.6595 -0.4759
  854MPD2    C512543   3.693   1.631  12.477 -0.2451 -0.2200  0.5835
  854MPD2     H12544   3.406   1.520  12.699 -1.1223  3.1507 -0.0224
  854MPD2    H112545   3.793   1.459  12.532  0.7144  0.5480  1.3570
  854MPD2    H212546   3.580   1.811  12.440  2.1976 -0.8843 -0.7354
  854MPD2    H312547   3.774   1.660  12.412 -0.6460 -0.2816  0.0611
  854MPD2     N12548   3.582   1.345  12.675 -0.1471 -0.4644  0.0733
  854MPD2    H512549   3.504   1.325  12.737  1.3106 -0.9016  1.7951
  854MPD2    N112550   3.378   1.769  12.608  0.0135 -0.1688  0.3473
  854MPD2    H712551   3.386   1.862  12.568 -2.0984 -0.4799 -0.7963
  855MPD2     C12552   3.559   1.499  13.496 -0.7490  0.7142  0.0616
  855MPD2    C112553   3.640   1.385  13.500  0.0472  0.2105  0.0303
  855MPD2    C212554   3.686   1.321  13.384  0.4640  0.0706  0.2691
  855MPD2    C312555   3.635   1.361  13.265  0.5768 -0.4113 -0.1213
  855MPD2    C412556   3.559   1.477  13.264 -0.1135  0.3502 -0.5677
  855MPD2    C512557   3.519   1.546  13.377 -0.2045 -0.8549  0.7398
  855MPD2     H12558   3.752   1.236  13.392 -2.3409 -1.9534  1.9150
  855MPD2    H112559   3.511   1.510  13.172 -2.3666  0.1848  0.5525
  855MPD2    H212560   3.538   1.559  13.584 -2.1599 -0.2478  0.3919
  855MPD2    H312561   3.452   1.631  13.372  0.0001 -0.7363 -0.0112
  855MPD2     N12562   3.665   1.299  13.142  0.0690  0.1691  0.1017
  855MPD2    H512563   3.628   1.342  13.058 -1.3119 -0.7860  0.2339
  855MPD2    N112564   3.705   1.346  13.621 -0.0884  0.1582  0.3556
  855MPD2    H712565   3.781   1.279  13.621  1.8764  2.4004 -1.5651
  856MPD2     C12566   0.546   2.375  13.884  0.1290  0.8026 -0.9341
  856MPD2    C112567   0.628   2.430  13.976  0.3992 -0.6291 -0.4991
  856MPD2    C212568   0.627   2.561  14.005 -0.0008  0.5190  0.1570
  856MPD2    C312569   0.548   2.650  13.934 -0.8847 -0.2416 -0.5416
  856MPD2    C412570   0.470   2.602  13.833 -0.3220 -0.1544 -0.2049
  856MPD2    C512571   0.466   2.465  13.805 -0.4680 -0.1038  0.1183
  856MPD2     H12572   0.695   2.594  14.082 -0.2631 -2.4612  1.6781
  856MPD2    H112573   0.400   2.667  13.782 -0.1288  0.5530  0.4375
  856MPD2    H212574   0.536   2.269  13.860  0.2558  0.3042  1.2207
  856MPD2    H312575   0.392   2.423  13.738 -1.4304 -1.3395  1.9398
  856MPD2     N12576   0.549   2.792  13.949  0.1433  0.1332  0.3006
  856MPD2    H512577   0.505   2.853  13.881 -0.7227 -1.0259 -0.1586
  856MPD2    N112578   0.714   2.360  14.054  0.1629  0.7662 -0.1821
  856MPD2    H712579   0.753   2.405  14.136 -1.1138 -0.2552  0.9941
  857MPD2     C12580   2.651   4.436  13.022  1.1733  0.5443  0.2436
  857MPD2    C112581   2.759   4.430  12.939 -0.1896 -0.9653 -0.6766
  857MPD2    C212582   2.850   4.539  12.930  0.7669  0.3310  0.5873
  857MPD2    C312583   2.840   4.644  13.014  0.2376 -0.0962  0.6906
  857MPD2    C412584   2.728   4.651  13.102  0.1135  0.2357 -0.4084
  857MPD2    C512585   2.645   4.538  13.109  0.2560 -0.1361  0.0513
  857MPD2     H12586   2.932   4.538  12.859 -0.8063 -0.8019 -1.1983
  857MPD2    H112587   2.722   0.016  13.163  0.8848 -0.6066  0.8960
  857MPD2    H212588   2.571   4.364  13.033  1.7027 -0.2476 -1.0070
  857MPD2    H312589   2.565   4.531  13.182 -0.6977 -1.7321 -1.1390
  857MPD2     N12590   2.943   0.014  13.003  0.0616 -1.5921  0.2384
  857MPD2    H512591   3.016   4.720  12.934  1.2743  2.1659  0.5822
  857MPD2    N112592   2.765   4.308  12.856  0.0378 -0.0572 -0.1904
  857MPD2    H712593   2.690   4.240  12.869  0.3980 -0.5158 -0.5130
  858MPD2     C12594   2.436   3.498  16.581  0.0130 -0.4193 -0.4243
  858MPD2    C112595   2.570   3.500  16.628  0.1387  0.4303 -0.2620
  858MPD2    C212596   2.596   3.577  16.743  0.4830 -0.1611  0.2508
  858MPD2    C312597   2.491   3.632  16.820 -0.0968 -0.6142 -0.2945
  858MPD2    C412598   2.366   3.617  16.774 -0.0816  0.0022  0.3498
  858MPD2    C512599   2.337   3.546  16.659 -0.2110  0.0919  0.2760
  858MPD2     H12600   2.697   3.586  16.783 -0.1237  0.4685  1.6590
  858MPD2    H112601   2.287   3.666  16.829 -0.8151 -0.2515 -0.4828
  858MPD2    H212602   2.409   3.444  16.490 -1.5285 -3.4485  1.8345
  858MPD2    H312603   2.236   3.518  16.634 -0.0010 -1.5762  1.3306
  858MPD2     N12604   2.502   3.706  16.938  0.4218 -0.6705  0.9554
  858MPD2    H512605   2.416   3.749  16.971  0.2339 -1.6561  1.7369
  858MPD2    N112606   2.664   3.436  16.550  0.0826 -0.2034 -0.2193
  858MPD2    H712607   2.635   3.405  16.458 -1.2698  0.6026 -0.0664
  859MPD2     C12608   1.459   1.238  15.516 -0.2038  0.8142 -0.2849
  859MPD2    C112609   1.570   1.169  15.491  0.3187 -0.4568  0.0642
  859MPD2    C212610   1.610   1.072  15.581  0.2439  0.1244 -0.0178
  859MPD2    C312611   1.529   1.028  15.688  0.9618  0.3899 -0.0569
  859MPD2    C412612   1.410   1.098  15.705 -0.3653 -0.3775  0.2143
  859MPD2    C512613   1.381   1.202  15.621 -0.4645 -0.8935  0.4779
  859MPD2     H12614   1.711   1.035  15.565 -1.4653 -3.3289 -2.7381
  859MPD2    H112615   1.328   1.068  15.770  0.0264  0.6232  1.1697
  859MPD2    H212616   1.425   1.317  15.450  0.7526  0.8824 -0.6979
  859MPD2    H312617   1.284   1.251  15.628 -0.6638 -1.2273  0.0842
  859MPD2     N12618   1.555   0.912  15.775 -0.0196 -0.0016  0.0583
  859MPD2    H512619   1.477   0.882  15.831  0.9813  1.0086  2.0128
  859MPD2    N112620   1.639   1.193  15.368  0.1998  0.4972  0.1869
  859MPD2    H712621   1.591   1.263  15.313  1.2066  0.9660 -0.0916
  860MPD2     C12622   0.110   1.748  11.718 -0.4675 -0.1213 -0.2542
  860MPD2    C112623   0.071   1.755  11.849  0.6150 -0.5354  0.2689
  860MPD2    C212624   4.680   1.688  11.893  0.2769 -0.4442  1.0387
  860MPD2    C312625   4.608   1.608  11.806  0.9202  1.4616  0.3514
  860MPD2    C412626   4.656   1.593  11.675  0.7662 -0.1213 -0.2252
  860MPD2    C512627   0.037   1.671  11.629 -0.1339 -1.4975  0.0445
  860MPD2     H12628   4.645   1.705  11.994 -0.5724 -0.2362  0.7102
  860MPD2    H112629   4.611   1.527  11.603  0.2480  0.3419 -0.3272
  860MPD2    H212630   0.196   1.801  11.677 -1.0733  0.3669 -0.9070
  860MPD2    H312631   0.066   1.666  11.525 -0.1810 -1.0541  0.0120
  860MPD2     N12632   4.491   1.545  11.857 -0.5060  0.1988 -0.0899
  860MPD2    H512633   4.463   1.582  11.947 -1.1865 -0.0616 -0.1918
  860MPD2    N112634   0.154   1.818  11.950  0.6607  0.2321 -0.0221
  860MPD2    H712635   0.109   1.815  12.041  1.5650 -0.7743  0.3948
  861MPD2     C12636   3.356   3.994  10.690 -0.7929 -0.2116 -0.3419
  861MPD2    C112637   3.254   4.042  10.763 -0.2149  0.0622  1.1512
  861MPD2    C212638   3.154   4.122  10.701 -0.0779 -0.5118  0.0461
  861MPD2    C312639   3.155   4.145  10.562  0.3013 -0.3280 -0.1333
  861MPD2    C412640   3.259   4.082  10.494  0.2896 -0.5285 -0.0720
  861MPD2    C512641   3.358   4.007  10.553 -0.0586  0.7260 -0.1913
  861MPD2     H12642   3.082   4.171  10.765 -0.1198  1.9937 -1.9474
  861MPD2    H112643   3.269   4.084  10.386  1.1767 -1.1207 -0.0053
  861MPD2    H212644   3.439   3.935  10.728 -0.1285 -0.1628 -1.6809
  861MPD2    H312645   3.443   3.964  10.501 -0.6203  0.1362 -0.6125
  861MPD2     N12646   3.079   4.239  10.489 -0.3561  0.1802  0.2443
  861MPD2    H512647   3.076   4.229  10.388  0.4016 -4.8893  0.7228
  861MPD2    N112648   3.243   4.008  10.901 -0.1002  0.0839  0.0431
  861MPD2    H712649   3.154   4.035  10.942 -0.9850 -2.7041 -0.0145
  862MPD2     C12650   2.668   4.361   9.884  0.2558 -0.0724  0.1007
  862MPD2    C112651   2.728   4.294   9.984 -0.6963 -0.1390 -0.6741
  862MPD2    C212652   2.722   4.158   9.993  0.8004 -0.0976 -0.3981
  862MPD2    C312653   2.684   4.083   9.889 -0.1582 -0.3557  0.5055
  862MPD2    C412654   2.636   4.147   9.783  0.1507  0.6081  0.8398
  862MPD2    C512655   2.617   4.284   9.785 -0.1001 -0.1418 -0.8080
  862MPD2     H12656   2.762   4.121  10.087 -0.7313  0.7492  0.5958
  862MPD2    H112657   2.596   4.098   9.694  0.0956 -0.0719  1.2348
  862MPD2    H212658   2.666   4.469   9.871  0.8394 -0.1170 -0.3503
  862MPD2    H312659   2.573   4.337   9.701 -1.1783  0.2036 -0.0265
  862MPD2     N12660   2.707   3.947   9.894 -0.0402  0.6824 -0.0150
  862MPD2    H512661   2.669   3.900   9.813  0.5652  0.7100 -0.3127
  862MPD2    N112662   2.787   4.353  10.099 -0.5460 -0.1738 -0.0315
  862MPD2    H712663   2.821   4.291  10.171 -0.7577 -0.5674 -0.2683
  863MPD2     C12664   1.431   2.373  16.383 -1.1622  0.1679 -0.8201
  863MPD2    C112665   1.478   2.480  16.450  0.1287 -0.4503  0.1105
  863MPD2    C212666   1.562   2.463  16.559 -0.6457 -0.3422 -0.1375
  863MPD2    C312667   1.587   2.335  16.606 -0.8601 -0.1011 -0.6922
  863MPD2    C412668   1.535   2.223  16.540  0.1766 -0.4649 -0.4953
  863MPD2    C512669   1.454   2.246  16.433  0.4361 -0.3978  0.0535
  863MPD2     H12670   1.578   2.551  16.620 -1.3852  0.3354 -0.9219
  863MPD2    H112671   1.543   2.120  16.572  0.9403  0.7614  3.2118
  863MPD2    H212672   1.358   2.378  16.303 -0.3694 -0.1047 -1.5672
  863MPD2    H312673   1.403   2.163  16.386 -1.6583  1.1619 -0.4155
  863MPD2     N12674   1.646   2.298  16.733  0.2915  0.2241 -0.0501
  863MPD2    H512675   1.655   2.201  16.760  2.7261 -0.1046 -2.0201
  863MPD2    N112676   1.432   2.604  16.407  0.2212  0.0594 -0.5650
  863MPD2    H712677   1.395   2.609  16.313  2.8729 -0.2751 -1.6220
  864MPD2     C12678   1.482   3.375  16.946 -0.3114  0.1321  0.3197
  864MPD2    C112679   1.617   3.356  16.938 -0.4459  0.0672 -0.0472
  864MPD2    C212680   1.694   3.462  16.907  0.2789  0.4706  0.0871
  864MPD2    C312681   1.629   3.578  16.874  0.1218 -0.4817 -0.5358
  864MPD2    C412682   1.493   3.602  16.883 -0.0847 -0.4531  0.0533
  864MPD2    C512683   1.421   3.498  16.922 -0.4300  0.0761  0.2762
  864MPD2     H12684   1.802   3.450  16.910  0.7510  4.8077  0.1507
  864MPD2    H112685   1.447   3.695  16.852 -1.4746 -1.1000  0.1627
  864MPD2    H212686   1.418   3.298  16.988 -1.1128  1.1217  0.8978
  864MPD2    H312687   1.314   3.512  16.931 -0.4468 -0.2339  0.5896
  864MPD2     N12688   1.694   3.689  16.816 -0.3169  0.2692 -0.0261
  864MPD2    H512689   1.627   3.765  16.824  0.4048  0.7077  1.8086
  864MPD2    N112690   1.667   3.223  16.954 -0.0162  0.1690 -0.2195
  864MPD2    H712691   1.591   3.159  16.973  0.5872 -0.7346 -0.8394
  865MPD2     C12692   1.887   4.237  16.161 -0.2734  0.1246 -0.1070
  865MPD2    C112693   1.863   4.118  16.228  0.3809  0.3644  0.2250
  865MPD2    C212694   1.825   4.113  16.364 -0.6863 -0.0258 -0.4147
  865MPD2    C312695   1.808   4.234  16.428  0.2790  0.5535 -0.0027
  865MPD2    C412696   1.815   4.355  16.361 -0.3789 -0.0285  0.7315
  865MPD2    C512697   1.853   4.359  16.231 -0.6594 -0.0635 -0.4101
  865MPD2     H12698   1.805   4.018  16.412  2.0393  0.8991  2.5722
  865MPD2    H112699   1.771   4.443  16.404  2.4978  1.7389  0.0636
  865MPD2    H212700   1.924   4.248  16.060  0.2484 -0.8086 -0.0095
  865MPD2    H312701   1.856   4.451  16.174 -0.0874  0.3055  0.2167
  865MPD2     N12702   1.759   4.247  16.559 -0.1107  0.5501 -0.7088
  865MPD2    H512703   1.740   4.340  16.595 -0.0554 -0.3258  1.5945
  865MPD2    N112704   1.884   4.001  16.148 -0.1029  0.2746  0.1178
  865MPD2    H712705   1.913   4.012  16.052  0.5775  2.1524  0.5410
  866MPD2     C12706   3.847   3.781  11.015  0.2156  0.5350  0.1760
  866MPD2    C112707   3.880   3.838  10.896 -0.8345  0.2776  0.1471
  866MPD2    C212708   3.823   3.954  10.850  0.5079 -0.0181  0.2417
  866MPD2    C312709   3.753   4.030  10.938 -0.1955 -0.3034  0.3187
  866MPD2    C412710   3.730   3.982  11.066  0.2248  0.0616 -0.2843
  866MPD2    C512711   3.778   3.856  11.108 -0.4854 -0.2735  0.2589
  866MPD2     H12712   3.840   3.992  10.749  1.6505 -0.6432  0.2028
  866MPD2    H112713   3.674   4.044  11.135 -0.2389  0.0341 -0.6339
  866MPD2    H212714   3.903   3.693  11.045  1.2944  0.7831 -1.1576
  866MPD2    H312715   3.761   3.813  11.206 -1.9307  1.2068  0.6571
  866MPD2     N12716   3.705   4.159  10.906  0.8399 -0.1696 -0.0095
  866MPD2    H512717   3.640   4.198  10.973 -0.5032 -1.4153 -0.5688
  866MPD2    N112718   3.968   3.760  10.819 -0.0011 -0.0635  0.5642
  866MPD2    H712719   3.972   3.665  10.854 -0.7851 -0.1606  0.3964
  867MPD2     C12720   0.456   3.979  16.246  0.3140  0.3535  0.1097
  867MPD2    C112721   0.557   3.972  16.338 -0.5942  0.2540 -0.1621
  867MPD2    C212722   0.598   4.089  16.409  0.3631 -0.5854  0.1616
  867MPD2    C312723   0.522   4.204  16.395  0.1018 -0.3721 -0.2831
  867MPD2    C412724   0.417   4.207  16.302  0.3263  0.1910 -0.8066
  867MPD2    C512725   0.386   4.094  16.233  0.3825 -0.3108 -0.6326
  867MPD2     H12726   0.659   4.089  16.498  1.5516  1.1578 -0.6327
  867MPD2    H112727   0.347   4.288  16.293  0.3325  0.1841 -0.9218
  867MPD2    H212728   0.431   3.891  16.186  1.2448 -0.1503  0.4543
  867MPD2    H312729   0.299   4.103  16.168 -0.4522 -1.9940  0.2458
  867MPD2     N12730   0.543   4.329  16.458  0.0490  0.1576  0.1917
  867MPD2    H512731   0.481   4.405  16.431  0.5637  0.8396  0.9175
  867MPD2    N112732   0.617   3.843  16.356 -0.2216 -0.7265 -0.6375
  867MPD2    H712733   0.574   3.761  16.315 -0.3072 -1.3647  0.7677
  868MPD2     C12734   2.526   2.745  12.853  0.3404  0.5679  0.0288
  868MPD2    C112735   2.599   2.761  12.970  0.8847 -0.1206  0.1850
  868MPD2    C212736   2.532   2.805  13.083 -0.1667 -0.2258  0.0536
  868MPD2    C312737   2.393   2.824  13.089  0.2806  0.0912 -0.2864
  868MPD2    C412738   2.327   2.829  12.967 -0.1169 -0.3183 -0.0627
  868MPD2    C512739   2.399   2.783  12.851  0.5093 -0.6874 -0.1082
  868MPD2     H12740   2.585   2.815  13.177 -0.3060  1.3222 -0.0420
  868MPD2    H112741   2.220   2.836  12.957 -0.1108  0.9551  0.6868
  868MPD2    H212742   2.578   2.699  12.770 -2.7985  0.1641 -1.6991
  868MPD2    H312743   2.340   2.768  12.761  1.2733  1.8493 -1.0082
  868MPD2     N12744   2.332   2.857  13.216 -1.2275 -0.3001  0.6385
  868MPD2    H512745   2.393   2.878  13.294 -0.0601 -1.4512  0.0374
  868MPD2    N112746   2.732   2.719  12.979  0.1453 -0.1189 -0.2901
  868MPD2    H712747   2.756   2.666  12.896 -1.0345 -2.3174  0.7954
  869MPD2     C12748   3.776   0.315   1.152  0.2070  0.2273 -0.1280
  869MPD2    C112749   3.861   0.388   1.071  0.2248 -0.1121 -0.4261
  869MPD2    C212750   3.804   0.486   0.993  0.1829 -0.6240  0.2192
  869MPD2    C312751   3.666   0.512   0.984 -0.2134  0.1738 -0.2305
  869MPD2    C412752   3.585   0.430   1.068 -0.0780  0.0778  0.5707
  869MPD2    C512753   3.642   0.333   1.149  0.0016  0.0901 -0.1313
  869MPD2     H12754   3.870   0.530   0.920 -0.4110 -0.8993 -0.4850
  869MPD2    H112755   3.478   0.447   1.073 -0.4310 -1.8948 -0.3821
  869MPD2    H212756   3.825   0.241   1.214  0.1797 -0.7691 -1.3043
  869MPD2    H312757   3.574   0.275   1.210 -0.5738 -1.7557 -2.4973
  869MPD2     N12758   3.594   0.590   0.893 -1.0665 -0.2151  0.1210
  869MPD2    H512759   3.493   0.595   0.892 -1.1157 -1.4998 -1.4066
  869MPD2    N112760   3.999   0.358   1.082 -0.0347  0.3242  0.1987
  869MPD2    H712761   4.026   0.273   1.131 -0.1431  0.8369  1.1424
  870MPD2     C12762   3.288   4.269   1.602  0.1254  0.1392  0.3453
  870MPD2    C112763   3.374   4.229   1.502 -0.1571 -0.6647 -0.6753
  870MPD2    C212764   3.343   4.257   1.371  0.3062  0.5205  0.1068
  870MPD2    C312765   3.236   4.341   1.338 -0.0239  0.5164 -0.0956
  870MPD2    C412766   3.154   4.383   1.444  0.0953 -0.1179  0.3581
  870MPD2    C512767   3.181   4.341   1.569  0.0183  0.1048 -0.2973
  870MPD2     H12768   3.416   4.227   1.297  0.2720 -0.6341  0.5349
  870MPD2    H112769   3.066   4.446   1.433  0.8525  0.8779  0.0275
  870MPD2    H212770   3.302   4.240   1.706  0.0235  2.0540  0.8838
  870MPD2    H312771   3.116   4.367   1.651  0.8868  0.5079  0.2543
  870MPD2     N12772   3.215   4.388   1.206  0.6217 -0.2798  0.2447
  870MPD2    H512773   3.293   4.371   1.143 -0.9411 -0.7369 -1.5507
  870MPD2    N112774   3.476   4.149   1.538 -0.4521  0.6725 -0.7031
  870MPD2    H712775   3.476   4.121   1.635 -1.7908  0.7133 -0.6962
  871MPD2     C12776   4.410   4.247  16.176 -0.0142  0.2193  0.7024
  871MPD2    C112777   4.391   4.192  16.297  0.3050 -0.1546 -0.5161
  871MPD2    C212778   4.394   4.053  16.313  0.1982 -0.4342 -0.2062
  871MPD2    C312779   4.419   3.975  16.205  0.0030  0.2592 -0.1135
  871MPD2    C412780   4.416   4.035  16.079  0.5234 -0.8186 -0.2459
  871MPD2    C512781   4.397   4.167  16.065 -0.5861  0.0681  0.4256
  871MPD2     H12782   4.387   4.000  16.407 -1.9533  1.3894  0.6708
  871MPD2    H112783   4.429   3.961  16.001  1.8620 -0.5533 -0.2728
  871MPD2    H212784   4.394   4.354  16.164 -1.5105 -0.2020 -1.1200
  871MPD2    H312785   4.388   4.211  15.966  0.1239 -0.3043  0.1934
  871MPD2     N12786   4.435   3.838  16.228  0.3308 -0.4084 -0.0924
  871MPD2    H512787   4.410   3.800  16.318  0.6744 -0.9705 -0.2352
  871MPD2    N112788   4.364   4.279  16.406  0.2276  0.1815  0.3914
  871MPD2    H712789   4.376   4.378  16.388 -1.4609 -0.1061 -2.3830
  872MPD2     C12790   0.739   1.562  14.201  0.0727  0.5975 -0.6902
  872MPD2    C112791   0.663   1.644  14.113 -0.1875 -0.1793 -0.1435
  872MPD2    C212792   0.535   1.691  14.158 -0.2402  0.1984  0.0637
  872MPD2    C312793   0.488   1.652  14.284 -0.9738  0.2117  0.1522
  872MPD2    C412794   0.565   1.567  14.360  0.1637  0.2497  0.1444
  872MPD2    C512795   0.688   1.521  14.321 -0.3001 -0.7826 -0.6782
  872MPD2     H12796   0.472   1.754  14.098  0.2631 -1.1241 -1.8625
  872MPD2    H112797   0.531   1.547  14.461  0.5986 -0.0608  0.2270
  872MPD2    H212798   0.837   1.522  14.174  0.1876  0.0613  0.5541
  872MPD2    H312799   0.738   1.459  14.394 -1.3234  0.0768  0.7514
  872MPD2     N12800   0.368   1.694  14.341 -0.1641 -0.3356  0.8931
  872MPD2    H512801   0.337   1.651  14.427 -0.7798  0.4573  1.0683
  872MPD2    N112802   0.701   1.662  13.983 -0.0265  0.4085  0.5972
  872MPD2    H712803   0.646   1.722  13.922 -2.0499  2.2091  4.2236
  873MPD2     C12804   1.634   1.322   0.753 -0.5099  0.5398 -0.2397
  873MPD2    C112805   1.570   1.348   0.877 -0.0067 -0.1311 -0.7013
  873MPD2    C212806   1.497   1.250   0.940 -0.2816  0.9836  0.3165
  873MPD2    C312807   1.493   1.121   0.886 -0.5179 -0.2210  0.3398
  873MPD2    C412808   1.545   1.099   0.756 -0.1038  0.2201  0.4309
  873MPD2    C512809   1.593   1.210   0.682 -1.2505  0.8019  0.1523
  873MPD2     H12810   1.444   1.284   1.029 -0.6509 -1.1602  0.9137
  873MPD2    H112811   1.535   1.005   0.703  2.3280 -0.3694  1.0153
  873MPD2    H212812   1.698   1.393   0.702 -2.4489  1.0204 -1.9942
  873MPD2    H312813   1.606   1.205   0.574  0.1317 -0.6135  0.3945
  873MPD2     N12814   1.429   1.016   0.948 -0.0088  0.0407  0.3447
  873MPD2    H512815   1.443   0.931   0.895  0.0309 -0.0551  0.5100
  873MPD2    N112816   1.587   1.474   0.931 -0.1658 -0.1541  0.3679
  873MPD2    H712817   1.659   1.531   0.887 -1.0770  0.5877 -0.1676
  874MPD2     C12818   1.861   1.725  15.911 -1.0376  0.6376  0.0890
  874MPD2    C112819   1.936   1.679  16.015  0.4240  0.5876  0.3293
  874MPD2    C212820   2.071   1.719  16.026 -0.1871 -0.0933  0.1077
  874MPD2    C312821   2.130   1.815  15.943 -0.6843 -0.9260  0.3607
  874MPD2    C412822   2.046   1.873  15.852  0.4498  0.0782 -1.0048
  874MPD2    C512823   1.918   1.818  15.827 -0.8724  0.4423  0.1781
  874MPD2     H12824   2.132   1.677  16.105 -1.2542  1.4228  1.7317
  874MPD2    H112825   2.088   1.938  15.775  0.9004  0.8276 -0.1237
  874MPD2    H212826   1.759   1.688  15.903 -0.7827  0.4149 -2.2465
  874MPD2    H312827   1.869   1.839  15.733 -3.2661 -2.4489  0.8135
  874MPD2     N12828   2.264   1.848  15.949 -0.2733 -0.3581 -0.0780
  874MPD2    H512829   2.303   1.931  15.906  3.7614 -2.1285  0.1316
  874MPD2    N112830   1.868   1.594  16.111 -0.2394  0.6033  0.4110
  874MPD2    H712831   1.790   1.540  16.075  1.2771 -1.2524 -0.1219
  875MPD2     C12832   3.309   0.010  14.939 -0.2087 -0.2521  0.0576
  875MPD2    C112833   3.258   0.136  14.908  0.8827 -0.5291  0.2220
  875MPD2    C212834   3.239   0.231  15.002  1.0760 -0.1004  0.7211
  875MPD2    C312835   3.274   0.202  15.129  0.1000  0.5766 -0.0158
  875MPD2    C412836   3.345   0.089  15.157 -0.1473  0.3092 -0.8553
  875MPD2    C512837   3.344   4.711  15.069  0.5772  0.5440 -0.1521
  875MPD2     H12838   3.200   0.326  14.968 -0.8241 -0.5934  1.5301
  875MPD2    H112839   3.383   0.073  15.257 -1.7685 -0.0465 -0.2884
  875MPD2    H212840   3.326   4.660  14.861  0.4714 -1.4309  1.2997
  875MPD2    H312841   3.396   4.618  15.086 -1.0468 -0.0870  1.4443
  875MPD2     N12842   3.240   0.291  15.230 -0.2612 -0.4903 -0.6627
  875MPD2    H512843   3.258   0.264  15.326  1.2660  1.5623 -0.3729
  875MPD2    N112844   3.212   0.172  14.779 -0.3387 -0.7099  0.3094
  875MPD2    H712845   3.180   0.267  14.763 -1.1076 -0.9122  0.6342
  876MPD2     C12846   1.590   1.363  15.885 -0.6083  0.2029 -0.4687
  876MPD2    C112847   1.722   1.343  15.866 -0.7159 -0.1699 -0.4878
  876MPD2    C212848   1.782   1.244  15.941 -0.6236 -0.0698 -0.3858
  876MPD2    C312849   1.715   1.176  16.041 -0.5440  0.2310  0.2404
  876MPD2    C412850   1.577   1.208  16.064 -0.3420  0.1923  0.0692
  876MPD2    C512851   1.518   1.302  15.981 -0.4110  0.4591  0.1010
  876MPD2     H12852   1.885   1.214  15.922 -1.0845 -1.5896 -0.4974
  876MPD2    H112853   1.517   1.149  16.131 -2.1370  0.9309 -0.8973
  876MPD2    H212854   1.537   1.434  15.822  1.9916  3.2013  0.6933
  876MPD2    H312855   1.410   1.307  15.987 -0.3599 -0.3494  1.8119
  876MPD2     N12856   1.781   1.071  16.104  0.0486  0.4173 -0.2425
  876MPD2    H512857   1.880   1.059  16.084 -0.2738  1.0448 -2.2585
  876MPD2    N112858   1.786   1.411  15.768  0.1446  0.9164  0.0514
  876MPD2    H712859   1.733   1.482  15.719  0.8049  1.8575  0.7089
  877MPD2     C12860   1.708   1.728  15.096 -0.2075  0.1987  0.1407
  877MPD2    C112861   1.841   1.709  15.110  0.3723 -0.0198 -0.6588
  877MPD2    C212862   1.921   1.704  14.995 -0.0170  0.2049  0.5021
  877MPD2    C312863   1.870   1.719  14.868  0.5200  0.2656  0.1158
  877MPD2    C412864   1.735   1.756  14.859 -1.0115  0.5710 -0.4446
  877MPD2    C512865   1.655   1.757  14.970 -0.4088  0.7143  0.0780
  877MPD2     H12866   2.027   1.686  15.011  0.4416  3.1567  0.9716
  877MPD2    H112867   1.695   1.782  14.762  0.9827 -0.6253 -1.5829
  877MPD2    H212868   1.645   1.751  15.181  1.4789 -1.5049  1.8430
  877MPD2    H312869   1.559   1.807  14.966 -1.1882 -0.9449 -1.9776
  877MPD2     N12870   1.958   1.735  14.762 -0.5039 -1.0608 -0.3597
  877MPD2    H512871   1.923   1.785  14.681 -1.4068 -0.0051  0.6896
  877MPD2    N112872   1.900   1.696  15.234 -0.4197  0.3108  0.7428
  877MPD2    H712873   2.001   1.699  15.229 -0.3145  0.6056  2.8657
  878MPD2     C12874   2.501   0.927  12.662  0.3555  0.4655 -0.4048
  878MPD2    C112875   2.454   1.061  12.640  0.3354 -0.4759  0.1390
  878MPD2    C212876   2.430   1.147  12.746  0.0548 -0.2023  0.6184
  878MPD2    C312877   2.449   1.095  12.872  0.6076 -0.1374  0.0608
  878MPD2    C412878   2.485   0.962  12.901 -0.1492 -0.3586 -0.3027
  878MPD2    C512879   2.518   0.884  12.793  0.1659  0.2298  0.5593
  878MPD2     H12880   2.388   1.243  12.717  2.2440  0.3561 -0.7097
  878MPD2    H112881   2.521   0.930  12.998 -0.3118  0.0350 -0.1172
  878MPD2    H212882   2.531   0.860  12.583 -1.0804  1.4486 -1.7982
  878MPD2    H312883   2.569   0.790  12.810 -0.9467 -0.2673  1.1389
  878MPD2     N12884   2.431   1.168  12.991 -0.2706 -0.1634 -0.5965
  878MPD2    H512885   2.448   1.117  13.077  0.5187  0.6412 -0.2718
  878MPD2    N112886   2.436   1.091  12.504 -0.2802 -0.5446  0.2145
  878MPD2    H712887   2.465   1.026  12.432 -1.6282 -1.0634  0.1415
  879MPD2     C12888   2.305   2.618  16.804 -0.1659 -0.2721  0.9135
  879MPD2    C112889   2.249   2.511  16.865 -0.0502  0.0930  0.0000
  879MPD2    C212890   2.187   2.413  16.792 -0.2775 -0.0674 -0.3634
  879MPD2    C312891   2.175   2.427  16.653 -0.3163  0.4350 -0.1217
  879MPD2    C412892   2.217   2.547  16.594 -0.0582  0.0763 -0.0389
  879MPD2    C512893   2.293   2.633  16.667  1.0978  0.1930 -0.2553
  879MPD2     H12894   2.150   2.320  16.834 -1.7569  1.4066  1.5316
  879MPD2    H112895   2.211   2.564  16.487  0.0083 -1.1018 -0.2323
  879MPD2    H212896   2.351   2.700  16.858 -1.5090  1.2132 -0.2026
  879MPD2    H312897   2.334   2.723  16.622 -0.1915  0.9760  0.1233
  879MPD2     N12898   2.125   2.328  16.563  0.0779  0.2810 -0.1712
  879MPD2    H512899   2.133   2.350  16.465 -2.0729  0.0134 -0.4109
  879MPD2    N112900   2.267   2.507  17.008  0.6331  0.4264 -0.3315
  879MPD2    H712901   2.337   2.572  17.043  0.7794 -0.0231  0.2086
  880MPD2     C12902   3.668   3.997  17.344 -0.0836 -0.2662  0.3265
  880MPD2    C112903   3.678   4.038  17.477  0.3313 -0.2132  0.3995
  880MPD2    C212904   3.736   3.949  17.563  0.0832  0.5520  0.2263
  880MPD2    C312905   3.775   3.815  17.521 -0.2087  0.0279  0.1758
  880MPD2    C412906   3.760   3.784  17.391  0.2350  0.2190  0.1758
  880MPD2    C512907   3.707   3.873  17.307 -0.7164  0.0370  0.5548
  880MPD2     H12908   3.732   3.964  17.670 -0.3327  0.2076  0.2629
  880MPD2    H112909   3.780   3.687  17.349 -3.8155 -1.0763  1.2547
  880MPD2    H212910   3.620   4.055  17.267  0.9657  1.8518  1.2592
  880MPD2    H312911   3.688   3.845  17.204 -0.4728 -1.0184  0.7989
  880MPD2     N12912   3.840   3.735  17.616  0.3743 -0.1423 -0.6541
  880MPD2    H512913   3.851   3.781   0.010 -2.3729  1.7943 -1.3075
  880MPD2    N112914   3.638   4.173  17.507  0.1652 -0.1886 -0.0690
  880MPD2    H712915   3.587   4.220  17.433  2.0019  1.6381 -0.1679
  881MPD2     C12916   3.220   0.366  17.294 -0.0387  0.2755  0.1429
  881MPD2    C112917   3.322   0.288  17.250 -0.6653 -0.3461 -0.1842
  881MPD2    C212918   3.343   0.166  17.305  0.6510  0.8325  0.5449
  881MPD2    C312919   3.280   0.129  17.415 -0.2187  0.0304  0.2536
  881MPD2    C412920   3.179   0.212  17.463  1.3502  0.7035  0.6122
  881MPD2    C512921   3.144   0.325  17.398  0.2824 -0.2994 -0.4455
  881MPD2     H12922   3.422   0.109  17.259  1.4889  2.6429 -0.2531
  881MPD2    H112923   3.110   0.187  17.543  2.2105 -0.4241  0.9902
  881MPD2    H212924   3.195   0.462  17.250 -1.1488  0.2842  0.8092
  881MPD2    H312925   3.066   0.390  17.436  2.0612  1.5603  0.0218
  881MPD2     N12926   3.316   0.013  17.496 -0.6639 -0.1434 -0.0570
  881MPD2    H512927   3.274   0.016  17.589  0.9483 -0.1333  0.6637
  881MPD2    N112928   3.391   0.315  17.130 -0.4703 -0.0882 -0.7595
  881MPD2    H712929   3.451   0.248  17.084 -0.4629 -0.1850 -0.6090
  882MPD2     C12930   1.993   1.936  13.966  0.2652 -0.1861 -0.0853
  882MPD2    C112931   1.945   1.890  14.084 -0.2734  0.0910 -0.4082
  882MPD2    C212932   1.811   1.876  14.104 -0.1320  0.1716 -0.6544
  882MPD2    C312933   1.720   1.890  14.003  0.2848  0.1505  0.2962
  882MPD2    C412934   1.766   1.929  13.877  0.2318  0.0273  0.2583
  882MPD2    C512935   1.900   1.953  13.864 -0.5353  0.7508 -0.3360
  882MPD2     H12936   1.778   1.835  14.198 -4.3209  0.5849 -1.9333
  882MPD2    H112937   1.699   1.949  13.794 -0.0119 -1.1689  0.1756
  882MPD2    H212938   2.097   1.961  13.948  0.0174  0.5618 -0.4826
  882MPD2    H312939   1.936   1.993  13.770 -2.0957 -0.6799 -1.5322
  882MPD2     N12940   1.591   1.850  14.036 -0.6704  0.0823  0.6497
  882MPD2    H512941   1.580   1.814  14.130  1.1691  1.4620  1.3968
  882MPD2    N112942   2.037   1.858  14.179  0.5748  0.1476  0.1126
  882MPD2    H712943   2.135   1.857  14.152  0.9216 -1.8350  1.3931
  883MPD2     C12944   4.049   2.108  16.764  0.4183  0.6250 -0.0084
  883MPD2    C112945   4.097   2.095  16.636 -0.2060 -0.0413 -0.3676
  883MPD2    C212946   4.237   2.114  16.608  0.2062 -0.1359  0.2543
  883MPD2    C312947   4.320   2.146  16.716  0.0834 -0.0643  0.8209
  883MPD2    C412948   4.270   2.137  16.845 -0.7368 -0.1364  0.0505
  883MPD2    C512949   4.140   2.121  16.868  0.3910 -0.1107  0.1325
  883MPD2     H12950   4.275   2.110  16.506 -1.2181 -0.0033 -0.2876
  883MPD2    H112951   4.332   2.143  16.933 -0.5768 -1.2731  0.0179
  883MPD2    H212952   3.947   2.104  16.801  0.1850  0.7034 -0.6386
  883MPD2    H312953   4.103   2.124  16.970  0.4689  1.2829  0.1147
  883MPD2     N12954   4.455   2.183  16.697 -0.1153  0.3011  0.1511
  883MPD2    H512955   4.487   2.192  16.602 -1.9152  1.5228 -0.3544
  883MPD2    N112956   4.016   2.081  16.525 -0.0550 -0.1021  0.5474
  883MPD2    H712957   4.063   2.094  16.436  0.6692 -1.2161  0.7625
  884MPD2     C12958   1.027   2.704  14.695 -0.5460 -0.3259  0.4090
  884MPD2    C112959   1.078   2.802  14.772  0.8333  0.5138  0.2883
  884MPD2    C212960   1.000   2.843  14.880 -0.0540 -0.0890  0.2091
  884MPD2    C312961   0.880   2.780  14.915  0.4245 -0.2064  0.9109
  884MPD2    C412962   0.840   2.674  14.838  0.5290  0.1032 -0.0936
  884MPD2    C512963   0.911   2.641  14.731  0.7067  0.3377  0.4764
  884MPD2     H12964   1.027   2.935  14.931 -0.8686 -0.0896  0.6415
  884MPD2    H112965   0.745   2.620  14.839  1.5248 -1.6743 -0.6869
  884MPD2    H212966   1.076   2.658  14.610 -0.5419 -0.3692  0.4348
  884MPD2    H312967   0.886   2.555  14.670 -1.9882  2.6985 -1.7309
  884MPD2     N12968   0.811   2.819  15.037  0.0041 -0.3670 -0.1854
  884MPD2    H512969   0.851   2.895  15.091 -0.4207 -1.0490  1.0995
  884MPD2    N112970   1.212   2.849  14.761 -0.4450  0.7490 -0.4485
  884MPD2    H712971   1.235   2.918  14.832  0.3499  1.0072 -0.9465
  885MPD2     C12972   3.854   2.476  17.455 -0.1899 -0.2044 -0.1720
  885MPD2    C112973   3.943   2.567  17.507 -0.1984  0.1239  0.2907
  885MPD2    C212974   3.988   2.678  17.437 -0.1416  0.8311 -0.5972
  885MPD2    C312975   3.922   2.707  17.323 -0.4732 -0.3152  0.3172
  885MPD2    C412976   3.823   2.630  17.274  0.1439  0.6200 -0.0616
  885MPD2    C512977   3.797   2.506  17.334 -0.4863 -0.0891  0.0404
  885MPD2     H12978   4.060   2.751  17.474 -0.6286  1.7474 -1.4610
  885MPD2    H112979   3.760   2.659  17.190 -0.8012  0.1224  0.4736
  885MPD2    H212980   3.804   2.392  17.502  0.6643 -1.1719 -0.9868
  885MPD2    H312981   3.706   2.454  17.305  0.8657 -2.3168 -0.1812
  885MPD2     N12982   3.964   2.827  17.260 -0.1601 -0.3244 -0.0644
  885MPD2    H512983   4.052   2.866  17.293 -0.4676 -0.0889  0.4790
  885MPD2    N112984   3.984   2.538  17.636  0.7438 -0.1891  0.2312
  885MPD2    H712985   3.941   2.463  17.690 -1.5280  1.7808  1.1721
  886MPD2     C12986   0.448   1.027  15.333 -0.0457  0.2111  0.1328
  886MPD2    C112987   0.577   1.058  15.371  0.5801  0.0365  0.4730
  886MPD2    C212988   0.644   1.169  15.314  0.4652 -0.3594 -0.8248
  886MPD2    C312989   0.589   1.244  15.216  0.3516  0.0380  0.4764
  886MPD2    C412990   0.460   1.212  15.183 -0.1426  0.3606 -0.6844
  886MPD2    C512991   0.397   1.100  15.230  0.1831  0.4848 -0.1459
  886MPD2     H12992   0.747   1.187  15.341  0.2966 -1.2397  0.3919
  886MPD2    H112993   0.412   1.270  15.105 -2.2927  0.5630  0.8024
  886MPD2    H212994   0.392   0.942  15.371 -0.3474  0.7144  0.8130
  886MPD2    H312995   0.304   1.066  15.185  0.7838 -0.0627 -0.9596
  886MPD2     N12996   0.652   1.348  15.145  0.2649  0.1324 -0.8281
  886MPD2    H512997   0.613   1.372  15.054 -0.9093 -0.3929 -0.4646
  886MPD2    N112998   0.665   0.980  15.456  0.2671  0.4011  0.4939
  886MPD2    H712999   0.753   1.019  15.489  1.0914 -1.5014  0.5088
  887MPD2     C13000   1.013   1.214  15.912  0.2971  0.8668 -0.3445
  887MPD2    C113001   0.876   1.207  15.906 -0.5492  0.1338  0.3848
  887MPD2    C213002   0.799   1.319  15.867 -0.3312  0.2178  0.3900
  887MPD2    C313003   0.866   1.437  15.826 -0.0721 -0.4068  0.1647
  887MPD2    C413004   1.002   1.440  15.840  0.3101  0.6153 -0.0834
  887MPD2    C513005   1.081   1.333  15.881  0.2165 -0.4544 -0.2634
  887MPD2     H13006   0.693   1.309  15.847  0.1288 -2.1466 -0.8934
  887MPD2    H113007   1.060   1.526  15.807  1.1184  0.0513 -0.1337
  887MPD2    H213008   1.073   1.124  15.926  0.3946  1.0221  0.2426
  887MPD2    H313009   1.189   1.338  15.874  0.2387 -1.6205 -0.8489
  887MPD2     N13010   0.791   1.551  15.779  0.8933  0.0153  0.1402
  887MPD2    H513011   0.695   1.531  15.753  1.0294 -0.4252 -0.0334
  887MPD2    N113012   0.810   1.084  15.900  0.0871 -0.1796  0.0879
  887MPD2    H713013   0.712   1.084  15.875  0.1499  1.0202 -0.1407
  888MPD2     C13014   3.057   1.443  14.782 -0.3672  0.8570  0.7222
  888MPD2    C113015   3.143   1.500  14.876  0.0317 -0.3683 -0.2855
  888MPD2    C213016   3.207   1.613  14.827  0.5067  0.2461  0.7300
  888MPD2    C313017   3.188   1.661  14.702  0.5783  0.7922 -0.1396
  888MPD2    C413018   3.112   1.592  14.611  0.1351 -0.4192 -0.1584
  888MPD2    C513019   3.048   1.482  14.653 -1.1667 -0.3065 -0.6267
  888MPD2     H13020   3.275   1.664  14.894 -1.0042  2.1750  0.7964
  888MPD2    H113021   3.105   1.619  14.506  0.6100 -1.4037 -0.4413
  888MPD2    H213022   3.012   1.346  14.799 -2.1310  1.2031 -2.0697
  888MPD2    H313023   2.982   1.419  14.595  1.6923 -2.7815 -1.1846
  888MPD2     N13024   3.246   1.789  14.676 -0.8712 -0.1931  0.0870
  888MPD2    H513025   3.271   1.845  14.757  0.2398  0.9702 -1.0785
  888MPD2    N113026   3.170   1.456  15.012 -0.2296 -0.6803  0.0624
  888MPD2    H713027   3.217   1.519  15.075 -0.4019  0.4767 -0.9652
  889MPD2     C13028   2.991   0.595  12.511 -0.2465 -0.3369 -0.2430
  889MPD2    C113029   2.985   0.644  12.638  0.2549 -0.6626  0.1731
  889MPD2    C213030   2.921   0.759  12.667 -0.2638  0.6520  0.4092
  889MPD2    C313031   2.886   0.849  12.572 -0.6416  0.2431  0.0091
  889MPD2    C413032   2.900   0.811  12.437  0.0084  0.0197  0.4065
  889MPD2    C513033   2.958   0.682  12.410 -0.0937 -0.3236  0.1092
  889MPD2     H13034   2.912   0.801  12.767 -3.1496  0.1786  0.3471
  889MPD2    H113035   2.876   0.880  12.357 -1.3271 -1.1184 -0.1658
  889MPD2    H213036   3.073   0.525  12.501 -1.1778 -1.6093  1.2424
  889MPD2    H313037   2.977   0.654  12.307  0.2159 -0.7971  0.2942
  889MPD2     N13038   2.833   0.968  12.615  0.0691  0.2118 -0.4717
  889MPD2    H513039   2.820   0.983  12.714  2.6198 -0.1142 -0.0982
  889MPD2    N113040   3.017   0.557  12.746 -0.6069  0.1450 -0.0714
  889MPD2    H713041   3.004   0.591  12.841 -2.7673  0.2739 -0.4241
  890MPD2     C13042   1.851   2.507  14.332 -0.0249 -1.6226 -0.6326
  890MPD2    C113043   1.929   2.436  14.418  0.6207  0.0813  0.6818
  890MPD2    C213044   1.870   2.380  14.531  0.6916 -0.5017  0.0634
  890MPD2    C313045   1.732   2.378  14.544 -0.6416 -0.4171 -0.4550
  890MPD2    C413046   1.655   2.432  14.443  0.5863 -0.1092  0.6295
  890MPD2    C513047   1.716   2.499  14.342  0.6097  0.3258  1.0139
  890MPD2     H13048   1.929   2.344  14.614  0.9251  1.0188  0.5570
  890MPD2    H113049   1.547   2.435  14.453  0.4313 -0.0876 -1.0836
  890MPD2    H213050   1.901   2.544  14.243  1.4179 -4.7196 -1.1115
  890MPD2    H313051   1.654   2.552  14.271 -1.0016 -1.0749  1.3930
  890MPD2     N13052   1.684   2.317  14.661  0.3161 -0.1026 -0.0124
  890MPD2    H513053   1.746   2.256  14.712  0.4968 -0.1959 -0.3414
  890MPD2    N113054   2.070   2.455  14.397  0.3245  0.4718  0.4088
  890MPD2    H713055   2.086   2.519  14.319  0.5592 -1.2794 -0.9806
  891MPD2     C13056   4.553   1.020  16.908  0.4648  0.2906 -0.1818
  891MPD2    C113057   4.597   1.149  16.897 -0.0467  0.4431  0.1028
  891MPD2    C213058   0.009   1.178  16.902 -0.1922 -0.9130 -0.1862
  891MPD2    C313059   0.099   1.070  16.900  0.0577 -0.5655 -0.0484
  891MPD2    C413060   0.051   0.941  16.906  0.0673  0.2168  0.6447
  891MPD2    C513061   4.640   0.916  16.905 -0.3134  0.3149  0.6544
  891MPD2     H13062   0.043   1.281  16.900 -1.1295 -0.6227 -1.1398
  891MPD2    H113063   0.111   0.851  16.908 -2.3719 -1.3852  1.6236
  891MPD2    H213064   4.447   1.001  16.919  0.5518 -0.9204 -1.4358
  891MPD2    H313065   4.591   0.819  16.901  0.1660  0.1076 -0.1465
  891MPD2     N13066   0.236   1.102  16.901 -1.2019 -0.2528  0.3493
  891MPD2    H513067   0.259   1.200  16.917 -1.2381 -0.3014  0.7037
  891MPD2    N113068   4.497   1.244  16.865 -0.0428 -0.3315 -0.1237
  891MPD2    H713069   4.402   1.210  16.877 -0.5350  0.8140 -0.7468
  892MPD2     C13070   1.238   1.950  14.798 -0.3994 -0.5572 -0.1931
  892MPD2    C113071   1.125   1.944  14.716 -0.1167 -0.5434  0.3103
  892MPD2    C213072   1.142   1.920  14.575  0.3643  0.7279  0.4859
  892MPD2    C313073   1.267   1.895  14.524 -0.0304  0.4918  0.6296
  892MPD2    C413074   1.381   1.899  14.594 -0.4241  0.2498 -0.1045
  892MPD2    C513075   1.364   1.934  14.727  0.1719 -0.0167 -0.2993
  892MPD2     H13076   1.054   1.931  14.513  1.0022  0.5629 -0.4424
  892MPD2    H113077   1.481   1.882  14.554 -0.2485 -1.4506  1.0783
  892MPD2    H213078   1.240   1.963  14.905  1.8694 -0.3956 -0.2468
  892MPD2    H313079   1.448   1.930  14.796  1.3815 -0.5113 -1.8139
  892MPD2     N13080   1.286   1.846  14.392  0.2983 -0.1195 -0.2335
  892MPD2    H513081   1.379   1.845  14.350  0.3799  1.6693 -0.1095
  892MPD2    N113082   0.998   1.987  14.760 -0.0846 -0.6623 -0.3587
  892MPD2    H713083   0.935   2.026  14.691  1.4354  0.9549 -0.8374
  893MPD2     C13084   3.866   4.082   2.031 -0.1570 -0.2079 -0.5821
  893MPD2    C113085   3.756   4.109   1.953 -0.2521 -0.4661  0.1341
  893MPD2    C213086   3.662   4.003   1.932  0.1649  0.3767 -0.6441
  893MPD2    C313087   3.677   3.880   1.985 -0.3131  0.2555 -0.3026
  893MPD2    C413088   3.788   3.859   2.066  0.2163 -0.1906  0.0820
  893MPD2    C513089   3.872   3.961   2.096 -0.3821 -0.4921  0.0734
  893MPD2     H13090   3.576   4.018   1.868 -2.4177  0.9441  2.9902
  893MPD2    H113091   3.797   3.761   2.110  0.8913 -0.8891 -1.6147
  893MPD2    H213092   3.940   4.160   2.047  0.4503 -0.5919 -1.5155
  893MPD2    H313093   3.960   3.940   2.155  0.6639  2.0637 -0.5879
  893MPD2     N13094   3.590   3.767   1.967  0.0590  0.2063 -0.0527
  893MPD2    H513095   3.620   3.689   2.025  0.1438  0.1597 -0.1599
  893MPD2    N113096   3.743   4.238   1.897 -0.3502  0.5017  0.5128
  893MPD2    H713097   3.824   4.298   1.909  0.4061 -0.0498 -1.7887
  894MPD2     C13098   1.087   2.785   0.742  0.0566 -0.3977  0.3822
  894MPD2    C113099   1.029   2.857   0.846 -0.5169 -0.8423  0.6960
  894MPD2    C213100   1.017   2.990   0.827  0.3492  1.1104 -0.2693
  894MPD2    C313101   1.057   3.055   0.713  0.3266  0.4679 -0.7946
  894MPD2    C413102   1.123   2.985   0.619  0.3127  0.0194 -0.8092
  894MPD2    C513103   1.140   2.846   0.630  0.7648 -0.5993  0.2905
  894MPD2     H13104   0.985   3.047   0.914  0.0428 -0.1565  0.4403
  894MPD2    H113105   1.169   3.023   0.528 -0.2547 -1.1352 -1.5613
  894MPD2    H213106   1.097   2.677   0.744 -1.8542 -0.5977 -1.0545
  894MPD2    H313107   1.172   2.780   0.550 -0.7274 -2.4206  1.1918
  894MPD2     N13108   1.044   3.196   0.707 -0.2884 -0.4700 -0.2413
  894MPD2    H513109   0.996   3.253   0.777 -1.9799  1.1893 -2.7287
  894MPD2    N113110   0.988   2.805   0.974  0.1612 -0.1019  0.7079
  894MPD2    H713111   0.933   2.866   1.034 -0.6050 -0.6789  0.5893
  895MPD2     C13112   0.798   1.200  13.778  0.5022 -0.1396  0.3812
  895MPD2    C113113   0.745   1.233  13.657  0.2409 -0.1064  0.0093
  895MPD2    C213114   0.818   1.235  13.535  0.0583 -0.3494  0.2370
  895MPD2    C313115   0.950   1.191  13.543  0.3017  0.2881 -0.4534
  895MPD2    C413116   1.000   1.149  13.662  0.3194 -0.7936 -0.1958
  895MPD2    C513117   0.922   1.155  13.779 -0.1525 -0.5066 -0.5424
  895MPD2     H13118   0.778   1.278  13.443 -1.4643 -1.8500  0.1892
  895MPD2    H113119   1.104   1.119  13.671  0.4010 -0.6435 -0.6674
  895MPD2    H213120   0.742   1.224  13.868 -1.3247  0.2155 -0.8570
  895MPD2    H313121   0.968   1.135  13.875  0.0900  3.5689  0.2092
  895MPD2     N13122   1.035   1.175  13.433  0.5062  0.4046  0.0835
  895MPD2    H513123   1.129   1.143  13.457 -0.1453 -0.7765  1.0481
  895MPD2    N113124   0.605   1.258  13.637  0.2178  0.1179 -0.1447
  895MPD2    H713125   0.556   1.261  13.548  1.6231  0.9650 -0.8671
  896MPD2     C13126   2.417   3.849   1.282 -0.1624  0.2616  0.3329
  896MPD2    C113127   2.451   3.782   1.165 -0.0425  0.3973 -0.2232
  896MPD2    C213128   2.356   3.712   1.095 -0.8024  0.0138  0.3370
  896MPD2    C313129   2.224   3.735   1.123 -0.1216 -0.3087  0.4980
  896MPD2    C413130   2.188   3.812   1.231 -0.3188  0.1708 -0.0536
  896MPD2    C513131   2.282   3.869   1.309  0.0202  0.3817 -0.1456
  896MPD2     H13132   2.376   3.649   1.009 -0.7944  1.3238 -0.6340
  896MPD2    H113133   2.083   3.814   1.258 -0.8305  0.2501 -2.0197
  896MPD2    H213134   2.487   3.903   1.345 -1.0025 -1.5599  2.8353
  896MPD2    H313135   2.259   3.939   1.388 -0.0025 -0.8230  0.9135
  896MPD2     N13136   2.133   3.677   1.037 -0.2167 -0.3269  0.3782
  896MPD2    H513137   2.183   3.632   0.961 -1.3782  0.5099 -0.8708
  896MPD2    N113138   2.582   3.783   1.121  0.6781  0.8226 -0.4415
  896MPD2    H713139   2.644   3.837   1.180 -2.5333  3.1440  0.8454
  897MPD2     C13140   4.198   0.309  10.359 -0.3534 -0.0995 -0.1321
  897MPD2    C113141   4.189   0.440  10.406 -1.1828 -0.6100 -0.4044
  897MPD2    C213142   4.078   0.467  10.488 -0.1694  0.4097  0.8129
  897MPD2    C313143   4.002   0.372  10.543  0.5565  0.1184  0.2867
  897MPD2    C413144   4.013   0.243  10.496  0.6869 -0.3012  0.5687
  897MPD2    C513145   4.111   0.211  10.401 -0.5418  0.5185 -0.2569
  897MPD2     H13146   4.056   0.562  10.534 -1.1552  1.2449 -1.4171
  897MPD2    H113147   3.947   0.169  10.539  0.6912  0.7456  2.3823
  897MPD2    H213148   4.284   0.275  10.303 -1.1803 -2.5190  0.0746
  897MPD2    H313149   4.122   0.108  10.369 -1.1175 -0.4737  2.7509
  897MPD2     N13150   3.900   0.411  10.633  0.5101 -0.4327  0.3527
  897MPD2    H513151   3.899   0.510  10.654 -0.1547 -0.1785 -0.8591
  897MPD2    N113152   4.263   0.542  10.349  0.1161 -0.2565  0.8013
  897MPD2    H713153   4.329   0.516  10.276  1.8696 -0.1589  2.3627
  898MPD2     C13154   0.785   1.130  16.820 -0.3102  0.7083  0.2635
  898MPD2    C113155   0.854   1.229  16.880  0.0227  0.2455  0.2099
  898MPD2    C213156   0.834   1.357  16.833  0.0823 -0.0039  0.0898
  898MPD2    C313157   0.737   1.391  16.740  0.0630 -0.4637 -0.4756
  898MPD2    C413158   0.665   1.284  16.680 -0.1985 -0.1327 -0.1135
  898MPD2    C513159   0.691   1.155  16.714 -0.6483 -0.2611  0.0927
  898MPD2     H13160   0.891   1.438  16.877  0.0480  0.1544 -0.1571
  898MPD2    H113161   0.592   1.303  16.602  0.3013 -0.3921 -0.6410
  898MPD2    H213162   0.807   1.025  16.834  0.7767  1.0177  0.8047
  898MPD2    H313163   0.641   1.064  16.686 -2.2726 -0.2301  2.8973
  898MPD2     N13164   0.724   1.528  16.707 -0.0129  0.4333  0.0358
  898MPD2    H513165   0.785   1.601  16.740 -0.2005  0.6271 -0.0475
  898MPD2    N113166   0.951   1.217  16.989 -0.9484  0.3340 -0.3192
  898MPD2    H713167   0.997   1.301  17.022 -0.5323 -0.3715  0.9142
  899MPD2     C13168   1.437   1.844  17.109  0.5124  0.0238 -0.2651
  899MPD2    C113169   1.452   1.959  17.180 -0.8684  0.5202 -0.5185
  899MPD2    C213170   1.367   1.972  17.292  0.0157 -0.7153 -0.4341
  899MPD2    C313171   1.278   1.873  17.335 -0.7173 -0.1565  0.0789
  899MPD2    C413172   1.271   1.758  17.262  0.1054 -0.5942  0.2428
  899MPD2    C513173   1.344   1.753  17.148 -0.1669 -0.8813  0.1015
  899MPD2     H13174   1.370   2.063  17.350 -1.4725 -0.8913 -0.0865
  899MPD2    H113175   1.215   1.670  17.293 -0.4967 -0.9318 -1.7545
  899MPD2    H213176   1.488   1.816  17.018  0.2274  2.1870 -1.1033
  899MPD2    H313177   1.331   1.672  17.077  1.6093 -1.9088  0.9450
  899MPD2     N13178   1.193   1.887  17.452 -0.2160 -0.0845  0.6451
  899MPD2    H513179   1.118   1.818  17.459 -1.0531  0.5225 -2.4271
  899MPD2    N113180   1.541   2.058  17.137  0.1163  0.0541  0.2047
  899MPD2    H713181   1.613   2.031  17.072 -2.7533 -0.9429 -2.5706
  900MPD2     C13182   1.640   3.766  12.448 -0.5046  0.1202  0.4264
  900MPD2    C113183   1.548   3.669  12.425  0.1073  0.0084 -0.6103
  900MPD2    C213184   1.422   3.702  12.370  0.2043  0.6305 -0.3385
  900MPD2    C313185   1.389   3.829  12.346  0.8668  0.4073 -0.6089
  900MPD2    C413186   1.485   3.929  12.356 -1.0499 -0.1234 -0.5070
  900MPD2    C513187   1.613   3.895  12.401  0.4330 -0.1694  0.0477
  900MPD2     H13188   1.353   3.625  12.340 -2.0231  1.9274  1.5079
  900MPD2    H113189   1.474   4.034  12.331 -1.7667 -0.2579 -0.7423
  900MPD2    H213190   1.738   3.739  12.487 -0.4810  3.4982  2.7632
  900MPD2    H313191   1.703   3.956  12.404 -0.6647  1.4638 -0.2835
  900MPD2     N13192   1.269   3.854  12.275 -0.2223  0.1745  0.0281
  900MPD2    H513193   1.208   3.775  12.261 -0.5841  0.6250 -0.9188
  900MPD2    N113194   1.587   3.539  12.455  0.3309  0.2210  0.7524
  900MPD2    H713195   1.683   3.525  12.485  0.3393 -0.6669  0.3162
  901MPD2     C13196   1.491   2.499  12.763  1.0595 -0.1157 -0.5153
  901MPD2    C113197   1.613   2.526  12.709 -0.0631 -0.2367  0.8253
  901MPD2    C213198   1.652   2.658  12.682  0.8085  0.0848 -0.3007
  901MPD2    C313199   1.561   2.767  12.711  0.2114  0.5065 -0.0756
  901MPD2    C413200   1.435   2.740  12.756 -0.4345 -0.1649  0.5725
  901MPD2    C513201   1.406   2.611  12.779 -0.1320 -0.2295  0.0553
  901MPD2     H13202   1.750   2.687  12.645 -0.4512  1.0794 -2.8419
  901MPD2    H113203   1.354   2.810  12.773  0.7935  1.6904 -1.1962
  901MPD2    H213204   1.462   2.396  12.776  2.9596 -0.6616 -0.7384
  901MPD2    H313205   1.317   2.582  12.833 -0.1641 -1.4893 -0.6778
  901MPD2     N13206   1.602   2.890  12.662 -1.1141  0.2096 -0.3520
  901MPD2    H513207   1.686   2.896  12.605  0.1038 -0.2205  1.3897
  901MPD2    N113208   1.688   2.415  12.668  0.0586 -0.1328  0.2399
  901MPD2    H713209   1.651   2.322  12.680  1.4132 -0.7181 -0.1947
  902MPD2     C13210   0.478   1.431  12.998 -0.1470 -0.0903 -0.2731
  902MPD2    C113211   0.528   1.517  13.085  0.5295  0.0026  0.4118
  902MPD2    C213212   0.667   1.537  13.098  0.2600  0.2748  0.0402
  902MPD2    C313213   0.748   1.467  13.014  0.4039 -0.0079 -0.2771
  902MPD2    C413214   0.702   1.376  12.933 -0.8256 -0.4833 -0.0618
  902MPD2    C513215   0.563   1.355  12.921 -0.1381  0.0369  0.8960
  902MPD2     H13216   0.713   1.609  13.164  0.0542 -0.2179  0.7209
  902MPD2    H113217   0.775   1.331  12.867  2.3617  0.6536  2.6855
  902MPD2    H213218   0.373   1.403  13.000  0.1008 -0.7770  2.5314
  902MPD2    H313219   0.525   1.273  12.861  0.4176  0.0541  0.5234
  902MPD2     N13220   0.889   1.497  12.996 -0.1578 -0.0150  0.1322
  902MPD2    H513221   0.927   1.472  12.905 -0.6076  0.3954 -0.1639
  902MPD2    N113222   0.432   1.597  13.161  0.2016  0.0811  0.1193
  902MPD2    H713223   0.335   1.596  13.129  0.6916 -2.9014 -1.3077
  903MPD2     C13224   1.121   1.609  12.358  0.4697 -0.6429  0.2879
  903MPD2    C113225   1.052   1.659  12.465  0.3014  0.1096 -0.5470
  903MPD2    C213226   0.914   1.691  12.460 -0.6180 -0.1346  0.0012
  903MPD2    C313227   0.847   1.673  12.336  0.1308 -0.3459 -0.3852
  903MPD2    C413228   0.919   1.608  12.234  0.7503  0.8682  0.4489
  903MPD2    C513229   1.050   1.578  12.245 -0.2150  0.3803 -0.6156
  903MPD2     H13230   0.858   1.735  12.542 -2.3442 -2.6613  0.1709
  903MPD2    H113231   0.877   1.571  12.141 -0.6452 -2.0651  2.2432
  903MPD2    H213232   1.229   1.597  12.361  0.5910  0.0632 -1.1278
  903MPD2    H313233   1.099   1.522  12.166  1.8268  2.6981 -0.9847
  903MPD2     N13234   0.712   1.711  12.320  0.2360 -0.1637 -0.1916
  903MPD2    H513235   0.671   1.772  12.389  1.7559 -0.5802  1.0574
  903MPD2    N113236   1.129   1.682  12.582  0.5889 -0.0823 -0.5815
  903MPD2    H713237   1.215   1.628  12.584  0.1548 -0.8043 -1.4531
  904MPD2     C13238   0.737   0.242  13.492 -0.0695  0.2566  0.3887
  904MPD2    C113239   0.717   0.380  13.499  0.3248 -0.5970 -0.0640
  904MPD2    C213240   0.797   0.450  13.584  0.2328 -0.0839  0.1114
  904MPD2    C313241   0.917   0.395  13.632 -0.3335  0.5838 -0.4078
  904MPD2    C413242   0.939   0.263  13.611  0.5971 -0.4823 -0.2408
  904MPD2    C513243   0.849   0.186  13.544 -0.7794 -0.1136 -0.3947
  904MPD2     H13244   0.780   0.556  13.598  0.6549 -0.0997  0.7728
  904MPD2    H113245   1.023   0.208  13.653 -0.7242 -1.7315  0.7401
  904MPD2    H213246   0.671   0.166  13.453  1.9516 -0.2411 -2.0898
  904MPD2    H313247   0.862   0.079  13.535 -0.4105  0.0079 -1.2298
  904MPD2     N13248   1.012   0.485  13.693  0.6190  0.0625 -0.4528
  904MPD2    H513249   0.981   0.582  13.695  1.4819  0.3398 -0.6420
  904MPD2    N113250   0.606   0.436  13.436 -0.0077 -0.7353 -0.3240
  904MPD2    H713251   0.580   0.531  13.462 -0.5058 -0.5284 -1.6061
  905MPD2     C13252   0.514   0.921  12.765 -0.3368 -0.1963 -0.1865
  905MPD2    C113253   0.540   0.859  12.887 -0.9203  0.4452 -0.1391
  905MPD2    C213254   0.670   0.888  12.936  0.9754 -0.3062  0.6240
  905MPD2    C313255   0.759   0.976  12.869  0.1759  0.3254 -0.0940
  905MPD2    C413256   0.720   1.034  12.751  0.0456  0.4727 -0.2261
  905MPD2    C513257   0.597   1.009  12.702 -0.2829 -0.1510  0.2742
  905MPD2     H13258   0.703   0.848  13.031  0.1862 -1.8194  0.2602
  905MPD2    H113259   0.776   1.117  12.709 -0.0124  0.5797 -0.0904
  905MPD2    H213260   0.417   0.899  12.721 -0.4267  2.4337 -1.3296
  905MPD2    H313261   0.568   1.063  12.613  0.8583  0.6349  0.3913
  905MPD2     N13262   0.875   1.011  12.943 -0.3739  0.3607 -0.1127
  905MPD2    H513263   0.886   0.970  13.036 -2.2685  0.4060  0.1397
  905MPD2    N113264   0.448   0.783  12.956 -0.1098  0.0518  0.5334
  905MPD2    H713265   0.361   0.767  12.907  0.8139  0.2147 -1.1430
  906MPD2     C13266   2.704   0.296  11.347 -0.1271 -0.5531  0.9842
  906MPD2    C113267   2.624   0.292  11.231  0.4540  0.3504 -0.8519
  906MPD2    C213268   2.507   0.210  11.233  0.6398  0.4287 -0.5530
  906MPD2    C313269   2.458   0.161  11.354 -0.1744  0.2447  0.0757
  906MPD2    C413270   2.544   0.159  11.464  0.1982 -0.4002 -0.8167
  906MPD2    C513271   2.664   0.233  11.462  0.3217 -0.7248  0.1380
  906MPD2     H13272   2.450   0.198  11.141  0.3396  2.1063 -0.5830
  906MPD2    H113273   2.516   0.108  11.556 -0.0817 -0.2456 -0.8175
  906MPD2    H213274   2.803   0.337  11.333  0.4558 -2.2876 -0.0219
  906MPD2    H313275   2.728   0.238  11.549 -1.1156 -1.7373  1.2592
  906MPD2     N13276   2.337   0.087  11.366  0.3076  0.2696 -0.2486
  906MPD2    H513277   2.323   0.028  11.447 -1.8270  0.2430 -0.6451
  906MPD2    N113278   2.651   0.360  11.111  0.3607 -0.1518  0.0977
  906MPD2    H713279   2.608   0.331  11.024  1.8015  0.2838 -0.7561
  907MPD2     C13280   0.967   4.669  15.243  0.3895  0.1003 -0.2545
  907MPD2    C113281   1.025   4.548  15.227 -0.0126 -1.0184  0.3799
  907MPD2    C213282   1.097   4.489  15.335  0.5223  0.0724 -0.8282
  907MPD2    C313283   1.127   4.565  15.450  0.1286  0.8502 -0.0827
  907MPD2    C413284   1.071   4.691  15.459 -0.0677  0.1666 -0.7781
  907MPD2    C513285   0.983   0.014  15.365  0.1361  0.1659  0.1229
  907MPD2     H13286   1.150   4.396  15.318  0.4679 -0.0140 -0.5220
  907MPD2    H113287   1.090   0.032  15.544 -1.2790 -0.2680 -0.1706
  907MPD2    H213288   0.911   4.716  15.163 -0.5468  0.4145  0.5828
  907MPD2    H313289   0.954   0.117  15.377 -0.6285  0.1435 -1.5259
  907MPD2     N13290   1.217   4.506  15.544 -0.2371  0.1457  0.0130
  907MPD2    H513291   1.247   4.413  15.519  2.4126  0.7669  0.9144
  907MPD2    N113292   0.997   4.471  15.113 -0.2802 -0.2698 -0.3525
  907MPD2    H713293   1.018   4.372  15.122  1.0829  0.0165 -0.3154
  908MPD2     C13294   4.362   0.650   9.535 -0.1016 -0.0873  0.3440
  908MPD2    C113295   4.252   0.647   9.620  0.4015 -0.0042 -0.0606
  908MPD2    C213296   4.266   0.704   9.743  0.4167  0.5269  0.0471
  908MPD2    C313297   4.397   0.733   9.795  0.2623 -0.4228  0.3911
  908MPD2    C413298   4.502   0.722   9.708  0.0354  1.1107  0.1674
  908MPD2    C513299   4.486   0.678   9.580 -0.3250  0.0053  0.2557
  908MPD2     H13300   4.185   0.702   9.815 -0.4522  0.2564 -0.9437
  908MPD2    H113301   4.603   0.742   9.742  0.6123 -1.6311  0.1144
  908MPD2    H213302   4.360   0.610   9.434 -0.5367 -0.4194  0.4816
  908MPD2    H313303   4.569   0.655   9.514 -0.1776 -0.9207  0.7632
  908MPD2     N13304   4.415   0.765   9.933 -0.1738  0.7319  0.1336
  908MPD2    H513305   4.327   0.767   9.983 -0.0088  1.8803  0.3719
  908MPD2    N113306   4.133   0.595   9.571  0.0824 -0.7659  0.4601
  908MPD2    H713307   4.140   0.561   9.475  2.6271  1.0532 -0.0040
  909MPD2     C13308   4.272   2.744  11.747 -0.3461  0.3532  0.4227
  909MPD2    C113309   4.261   2.864  11.675 -0.2616  0.4647  0.0583
  909MPD2    C213310   4.178   2.961  11.727 -0.2281 -0.0063 -0.7647
  909MPD2    C313311   4.115   2.945  11.852  0.5337  0.1637  0.2036
  909MPD2    C413312   4.133   2.828  11.927  0.5811  0.1448 -0.3704
  909MPD2    C513313   4.215   2.733  11.875 -0.5721 -0.1090  0.0312
  909MPD2     H13314   4.168   3.060  11.683  0.7892  0.5845  0.3503
  909MPD2    H113315   4.086   2.806  12.022  0.9271  1.2015  0.0499
  909MPD2    H213316   4.344   2.671  11.713 -1.4645 -0.7125  0.3845
  909MPD2    H313317   4.212   2.636  11.924 -0.9996 -0.0797  0.0640
  909MPD2     N13318   4.038   3.056  11.901  0.7258  0.0929 -0.0124
  909MPD2    H513319   4.035   3.136  11.840  1.5211  0.4691  0.4374
  909MPD2    N113320   4.325   2.894  11.554 -0.6254 -0.0933  0.1092
  909MPD2    H713321   4.303   2.983  11.511 -1.5090 -0.6186 -0.5373
  910MPD2     C13322   0.545   0.260  15.419  0.1867 -0.0176 -0.1398
  910MPD2    C113323   0.514   0.126  15.387 -0.2856  0.5367  0.2818
  910MPD2    C213324   0.432   0.102  15.284  0.7546 -0.9976  0.0742
  910MPD2    C313325   0.380   0.208  15.213 -0.5114  0.6750  0.2189
  910MPD2    C413326   0.403   0.337  15.245  0.5365 -0.6895 -0.3582
  910MPD2    C513327   0.496   0.361  15.343  0.5709  0.2092  0.4188
  910MPD2     H13328   0.401   0.004  15.250  2.6560 -2.1356  1.6182
  910MPD2    H113329   0.351   0.423  15.205  1.6501  0.6418  1.0763
  910MPD2    H213330   0.602   0.281  15.509 -2.1267 -0.9184  1.5263
  910MPD2    H313331   0.520   0.463  15.370  1.4884 -0.4029  1.9141
  910MPD2     N13332   0.295   0.197  15.102 -0.2952  0.0098 -0.7269
  910MPD2    H513333   0.264   0.279  15.052  0.3919  1.3088  0.9643
  910MPD2    N113334   0.578   0.012  15.453  0.2561  0.1295  0.0266
  910MPD2    H713335   0.567   4.642  15.417  0.6962  0.0834  0.0115
  911MPD2     C13336   3.108   1.302  16.621 -0.2162  0.2505  0.4595
  911MPD2    C113337   3.112   1.193  16.534 -0.6787 -0.9808 -0.5582
  911MPD2    C213338   3.011   1.199  16.435  0.1781  0.0971  0.4853
  911MPD2    C313339   2.916   1.301  16.428  0.0614  0.2106 -0.2353
  911MPD2    C413340   2.915   1.406  16.523 -0.3932 -0.1429 -0.0541
  911MPD2    C513341   3.016   1.409  16.621 -0.4747  0.3129  0.0280
  911MPD2     H13342   3.012   1.121  16.360  2.1860  0.6532 -0.0574
  911MPD2    H113343   2.841   1.485  16.516 -0.8587 -0.6039 -0.4504
  911MPD2    H213344   3.185   1.315  16.696 -0.2894  1.4996  0.3271
  911MPD2    H313345   3.004   1.488  16.694  4.9353 -0.2955  1.5971
  911MPD2     N13346   2.842   1.295  16.313  0.2400 -0.0897  0.0453
  911MPD2    H513347   2.863   1.213  16.256  0.7696  0.1806 -0.1429
  911MPD2    N113348   3.223   1.104  16.542 -0.1994 -0.4008 -0.3175
  911MPD2    H713349   3.289   1.122  16.617  1.3745 -0.7602 -1.5998
  912MPD2     C13350   2.737   0.761  15.791  0.5577 -0.0875 -0.4027
  912MPD2    C113351   2.650   0.828  15.872  0.0517 -0.3971 -0.9880
  912MPD2    C213352   2.556   0.748  15.943  0.4930 -0.0950  0.5185
  912MPD2    C313353   2.561   0.607  15.941 -0.3420 -0.5138 -0.3440
  912MPD2    C413354   2.654   0.543  15.855 -0.0737 -0.3624  0.1358
  912MPD2    C513355   2.744   0.623  15.791  1.0091  0.2041 -0.3338
  912MPD2     H13356   2.485   0.795  16.010 -0.1400  0.4008 -0.4949
  912MPD2    H113357   2.676   0.437  15.853  0.8401 -0.2021  1.3520
  912MPD2    H213358   2.818   0.800  15.731  0.8730  2.9904  2.0456
  912MPD2    H313359   2.817   0.566  15.735  0.4978  0.2192 -1.0243
  912MPD2     N13360   2.490   0.550  16.057  0.2014  0.1910  0.1120
  912MPD2    H513361   2.437   0.612  16.118 -1.3738 -2.2045  1.1952
  912MPD2    N113362   2.666   0.965  15.897  0.2570 -0.1133 -0.2591
  912MPD2    H713363   2.733   1.017  15.842  1.7316 -1.5087  0.2138
  913MPD2     C13364   4.079   2.043  10.188  1.1397  0.3448 -0.6608
  913MPD2    C113365   4.168   2.098  10.096  0.3415  0.1472  0.4049
  913MPD2    C213366   4.166   2.234  10.065  0.0291 -0.5896 -0.8777
  913MPD2    C313367   4.070   2.316  10.123 -0.3053  0.6376  0.5846
  913MPD2    C413368   3.989   2.260  10.215  0.3437  0.0038  0.1739
  913MPD2    C513369   3.986   2.127  10.244 -1.0478  0.0042  0.3963
  913MPD2     H13370   4.225   2.281   9.988  0.6583 -0.1045 -0.1078
  913MPD2    H113371   3.925   2.325  10.274  3.3875  2.6315  0.5619
  913MPD2    H213372   4.071   1.939  10.219 -0.9762  0.3714 -1.0922
  913MPD2    H313373   3.904   2.088  10.304 -0.7922 -1.4701 -0.2150
  913MPD2     N13374   4.054   2.457  10.092 -0.0445 -0.0454  0.7626
  913MPD2    H513375   3.974   2.497  10.140 -0.4609  0.9458 -0.7709
  913MPD2    N113376   4.268   2.010  10.049 -0.3958  0.4585  0.1320
  913MPD2    H713377   4.264   1.910  10.063 -2.8194  0.7210  1.3283
  914MPD2     C13378   1.593   2.688  11.854 -0.0383  0.2754 -0.2128
  914MPD2    C113379   1.665   2.753  11.954 -1.0527 -0.8126 -0.6723
  914MPD2    C213380   1.728   2.676  12.056  0.1850 -0.2949 -0.1397
  914MPD2    C313381   1.727   2.535  12.047  0.1911 -0.4588 -0.2043
  914MPD2    C413382   1.645   2.472  11.953 -0.6940 -0.2159  0.2248
  914MPD2    C513383   1.578   2.549  11.873 -0.0720 -0.2551  0.1648
  914MPD2     H13384   1.786   2.716  12.138 -1.0433 -2.6681  1.8853
  914MPD2    H113385   1.624   2.366  11.950  3.7872 -1.0403 -2.3622
  914MPD2    H213386   1.545   2.742  11.773 -2.1540  1.5084  1.8765
  914MPD2    H313387   1.527   2.494  11.795 -0.4035  1.5571 -0.8875
  914MPD2     N13388   1.792   2.461  12.151 -0.5878  0.0863  0.0625
  914MPD2    H513389   1.838   2.516  12.223 -0.8453 -0.9981  1.0560
  914MPD2    N113390   1.687   2.893  11.955  0.0966  0.3616  0.3667
  914MPD2    H713391   1.750   2.926  12.027  0.2958  0.4464  0.1554
  915MPD2     C13392   4.117   2.247  15.601 -0.1576 -0.0746  0.0741
  915MPD2    C113393   4.032   2.328  15.540  0.3407 -0.2357  0.3305
  915MPD2    C213394   3.985   2.440  15.608  0.6358 -0.7046  0.3623
  915MPD2    C313395   4.029   2.468  15.741  0.3861  0.3133  0.7396
  915MPD2    C413396   4.114   2.377  15.807 -0.1996 -0.0243 -0.2693
  915MPD2    C513397   4.153   2.268  15.733  0.3322 -0.0673 -0.3437
  915MPD2     H13398   3.907   2.509  15.577  0.8584 -0.2255  0.8652
  915MPD2    H113399   4.142   2.388  15.911  1.0277 -1.4159 -0.4422
  915MPD2    H213400   4.172   2.169  15.550  0.1731  0.0423  0.2476
  915MPD2    H313401   4.210   2.186  15.775  1.5216  1.1271  0.3780
  915MPD2     N13402   3.972   2.579  15.811  0.1412 -0.1604 -0.4138
  915MPD2    H513403   3.883   2.615  15.777 -1.0220 -2.3144  0.3618
  915MPD2    N113404   3.994   2.304  15.405 -0.6468 -0.3332  0.1299
  915MPD2    H713405   4.029   2.218  15.364  0.2950 -0.7189  1.7345
  916MPD2     C13406   2.125   0.802  15.739 -0.3320  0.0809  0.3905
  916MPD2    C113407   2.160   0.723  15.839 -0.5393 -0.2250  0.0996
  916MPD2    C213408   2.239   0.609  15.822 -0.6618 -0.1438  0.4333
  916MPD2    C313409   2.291   0.581  15.694  0.5490  0.5028 -0.6683
  916MPD2    C413410   2.260   0.662  15.593 -0.7944  0.2201 -0.8247
  916MPD2    C513411   2.180   0.779  15.617  0.3253 -0.0420  0.2446
  916MPD2     H13412   2.261   0.540  15.902  2.2271 -0.1974 -0.3975
  916MPD2    H113413   2.299   0.645  15.493 -1.4622  0.4840 -1.1307
  916MPD2    H213414   2.062   0.889  15.757 -1.1723  0.1709 -2.9828
  916MPD2    H313415   2.171   0.850  15.535  0.8410 -0.7489 -0.4264
  916MPD2     N13416   2.387   0.473  15.697 -0.6930  0.1338 -0.3245
  916MPD2    H513417   2.419   0.435  15.786 -1.4930  3.0444  1.2048
  916MPD2    N113418   2.102   0.764  15.958  0.6093  0.0306  0.6779
  916MPD2    H713419   2.060   0.856  15.956  0.8847  0.0995 -2.1439
  917MPD2     C13420   2.710   2.583  10.860  0.0941 -0.1755  0.0319
  917MPD2    C113421   2.780   2.642  10.964  0.0105  0.2913  0.1067
  917MPD2    C213422   2.889   2.715  10.926  0.1212 -0.0965 -0.4824
  917MPD2    C313423   2.917   2.739  10.788  0.0371 -0.0654 -0.5989
  917MPD2    C413424   2.837   2.683  10.692  0.6361  0.0592  0.1298
  917MPD2    C513425   2.730   2.608  10.728  0.7130 -0.4549  0.2710
  917MPD2     H13426   2.959   2.746  11.003 -0.8076  0.9114 -0.0399
  917MPD2    H113427   2.876   2.691  10.592  3.0558 -2.9304  0.8346
  917MPD2    H213428   2.633   2.509  10.876 -0.0295  0.0652  0.5503
  917MPD2    H313429   2.684   2.546  10.652  1.4735  0.9185 -1.3128
  917MPD2     N13430   3.034   2.811  10.747  0.1760 -0.6443  0.5596
  917MPD2    H513431   3.056   2.820  10.649  0.8909 -2.0456  0.5855
  917MPD2    N113432   2.742   2.620  11.099 -0.6538  0.2932  0.4667
  917MPD2    H713433   2.663   2.556  11.102 -0.4395 -0.0378 -0.9805
  918MPD2     C13434   2.849   3.157  11.953 -0.5290  0.1589  0.0865
  918MPD2    C113435   2.957   3.086  11.907 -0.1489 -0.1360 -0.0206
  918MPD2    C213436   2.931   2.991  11.812 -0.3550  0.1352  0.1506
  918MPD2    C313437   2.801   2.963  11.772  0.3397  0.7088  0.7978
  918MPD2    C413438   2.699   3.029  11.829 -0.3640 -1.0271 -0.0671
  918MPD2    C513439   2.723   3.134  11.911  0.4846 -0.2955 -0.0879
  918MPD2     H13440   3.004   2.920  11.775 -1.1772 -0.4711 -0.3173
  918MPD2    H113441   2.594   3.016  11.804  0.3151 -1.3212 -2.7776
  918MPD2    H213442   2.864   3.226  12.034 -1.2987  0.0015  0.3615
  918MPD2    H313443   2.638   3.184  11.957  0.8997 -0.3924  0.7866
  918MPD2     N13444   2.779   2.866  11.670 -0.3190  0.3069 -0.3611
  918MPD2    H513445   2.860   2.832  11.619 -0.2450  3.1784 -2.1576
  918MPD2    N113446   3.090   3.107  11.957  0.0778  0.1061 -0.5400
  918MPD2    H713447   3.162   3.050  11.912 -0.9381 -0.2349 -1.7242
  919MPD2     C13448   3.674   2.181  11.809 -0.1312  0.0765 -0.2492
  919MPD2    C113449   3.578   2.077  11.809 -0.3945  0.5727 -0.1158
  919MPD2    C213450   3.473   2.088  11.731  0.5578  0.0191  0.0323
  919MPD2    C313451   3.457   2.192  11.643  0.1490  0.0051 -0.2167
  919MPD2    C413452   3.549   2.293  11.650 -0.1962  0.3337 -0.5982
  919MPD2    C513453   3.661   2.283  11.728 -0.2508 -0.2949 -0.2585
  919MPD2     H13454   3.404   2.005  11.736 -0.0839  0.5728  0.4653
  919MPD2    H113455   3.551   2.381  11.587  0.7161  2.4921  2.4660
  919MPD2    H213456   3.761   2.164  11.870 -0.6431  2.1201  1.0314
  919MPD2    H313457   3.729   2.367  11.740  0.5947 -0.8680 -1.1207
  919MPD2     N13458   3.358   2.195  11.539  0.2658 -0.3966  0.7159
  919MPD2    H513459   3.351   2.280  11.484  1.5374 -0.4958  0.4086
  919MPD2    N113460   3.588   1.962  11.892  1.1153 -0.1694  0.0327
  919MPD2    H713461   3.508   1.901  11.905 -0.4982  1.5518 -1.9218
  920MPD2     C13462   3.648   2.275  10.612 -0.8143 -0.6138  0.6146
  920MPD2    C113463   3.525   2.222  10.582 -0.2868  0.3364 -0.4310
  920MPD2    C213464   3.438   2.183  10.684 -0.5241  0.2930 -0.0853
  920MPD2    C313465   3.477   2.197  10.821  0.4506  1.0590  0.3968
  920MPD2    C413466   3.604   2.234  10.843  0.1821  0.4086  0.2805
  920MPD2    C513467   3.686   2.275  10.737 -0.0729  0.2262  0.3960
  920MPD2     H13468   3.340   2.151  10.651 -0.6787 -1.0919  1.7327
  920MPD2    H113469   3.645   2.253  10.941  0.9532 -2.9769  0.6154
  920MPD2    H213470   3.719   2.305  10.536 -2.0409  1.1914  0.1745
  920MPD2    H313471   3.789   2.303  10.757  0.0756  1.2424 -1.8258
  920MPD2     N13472   3.385   2.165  10.924 -0.7715  0.2881  0.5634
  920MPD2    H513473   3.306   2.107  10.896 -1.1295  0.9586  0.1692
  920MPD2    N113474   3.483   2.206  10.448 -0.2207  0.5710  0.2828
  920MPD2    H713475   3.389   2.171  10.435  0.5768 -0.7944 -1.8215
  921MPD2     C13476   3.876   1.195  17.057 -0.0453  0.2349  0.4450
  921MPD2    C113477   3.898   1.214  16.924 -0.2262  0.1846 -0.6429
  921MPD2    C213478   3.820   1.147  16.833 -0.0385 -0.0418  0.2119
  921MPD2    C313479   3.712   1.067  16.867 -0.4016 -0.7397 -0.0780
  921MPD2    C413480   3.689   1.046  17.006 -0.5742 -0.3251 -0.4755
  921MPD2    C513481   3.778   1.103  17.090  0.6696  0.3434  0.5897
  921MPD2     H13482   3.838   1.158  16.727 -0.2727  0.5030  0.2261
  921MPD2    H113483   3.610   0.980  17.039 -0.0261 -1.0645 -0.6540
  921MPD2    H213484   3.921   1.258  17.133 -2.6902  0.3311  1.9410
  921MPD2    H313485   3.765   1.068  17.192 -0.6769  2.0642  1.0059
  921MPD2     N13486   3.640   0.983  16.779  0.0895 -0.0476  0.6880
  921MPD2    H513487   3.571   0.922  16.821  1.5342 -1.4322  1.0488
  921MPD2    N113488   4.017   1.288  16.890  0.2653 -0.2803  0.6924
  921MPD2    H713489   4.083   1.298  16.966  0.8361 -1.1464  0.2968
  922MPD2     C13490   0.230   3.592  17.262 -0.1179 -0.1172  0.2245
  922MPD2    C113491   0.175   3.575  17.129  0.2372  0.3253  0.3676
  922MPD2    C213492   0.032   3.557  17.121 -0.5105  0.2836 -0.3568
  922MPD2    C313493   4.669   3.556  17.232 -0.1995  0.5072 -0.4535
  922MPD2    C413494   0.008   3.566  17.360  0.3948  0.2569 -0.3310
  922MPD2    C513495   0.147   3.589  17.370 -0.2364  0.4530 -0.3505
  922MPD2     H13496   4.713   3.527  17.026  0.6899 -2.1348 -0.1394
  922MPD2    H113497   4.678   3.566  17.455  1.1806 -0.3659  0.1204
  922MPD2    H213498   0.335   3.591  17.289 -0.0914 -0.7410  0.1153
  922MPD2    H313499   0.195   3.607  17.465 -0.6907  1.0706 -0.2469
  922MPD2     N13500   4.527   3.553  17.212  0.2376 -0.6180  0.5781
  922MPD2    H513501   4.500   3.560  17.115  1.4523 -2.2658  0.1209
  922MPD2    N113502   0.246   3.568  17.010  0.3767  0.7210 -0.0988
  922MPD2    H713503   0.184   3.583  16.931 -0.0536 -0.3925  0.0256
  923MPD2     C13504   1.661   0.112   8.980 -0.0512 -0.2990  0.0209
  923MPD2    C113505   1.679   0.246   9.002  0.0746  0.9967 -0.8045
  923MPD2    C213506   1.782   0.280   9.088  0.1057  0.1791  0.0277
  923MPD2    C313507   1.863   0.188   9.146  0.0023  0.5574 -0.4870
  923MPD2    C413508   1.837   0.050   9.133 -0.0168  1.0331 -0.1268
  923MPD2    C513509   1.739   0.017   9.047  0.9363 -0.0867  0.0175
  923MPD2     H13510   1.797   0.386   9.107  1.9559 -0.3910  1.6603
  923MPD2    H113511   1.897   4.692   9.174  1.4974  0.8911 -2.6200
  923MPD2    H213512   1.585   0.069   8.915  1.1322  1.5375 -2.6105
  923MPD2    H313513   1.733   4.636   9.021  2.2462  0.3636 -2.1243
  923MPD2     N13514   1.958   0.230   9.243  0.2699  0.2082 -0.7542
  923MPD2    H513515   2.028   0.162   9.269 -1.4003 -1.2319  0.0298
  923MPD2    N113516   1.596   0.340   8.937  0.3610  0.1173  0.5697
  923MPD2    H713517   1.520   0.297   8.886  1.1180  0.0510 -0.5080
  924MPD2     C13518   1.533   3.737  15.501  0.7124  0.2224  0.4359
  924MPD2    C113519   1.442   3.760  15.597 -0.0205  0.0786  0.4191
  924MPD2    C213520   1.436   3.892  15.650 -0.2881 -0.1955 -0.4250
  924MPD2    C313521   1.516   3.992  15.604  0.2544  0.5781 -0.2673
  924MPD2    C413522   1.613   3.965  15.509  0.4637  0.0715 -0.0111
  924MPD2    C513523   1.612   3.839  15.450  0.0158  0.3904  0.1772
  924MPD2     H13524   1.361   3.919  15.723  0.8386  1.4005  0.1474
  924MPD2    H113525   1.683   4.032  15.460  2.7314 -1.7976  0.6805
  924MPD2    H213526   1.546   3.639  15.457  0.2258  0.5324 -0.4166
  924MPD2    H313527   1.684   3.811  15.374 -0.0352  0.7317  0.0017
  924MPD2     N13528   1.508   4.117  15.672  0.0791  0.0394 -0.5058
  924MPD2    H513529   1.444   4.113  15.751 -1.3653 -1.2214 -1.7221
  924MPD2    N113530   1.366   3.656  15.645 -0.2143 -1.1156  0.2702
  924MPD2    H713531   1.380   3.570  15.593 -0.4362  0.3143 -2.1247
  925MPD2     C13532   0.078   1.982  14.981  0.1150  0.3328  0.1096
  925MPD2    C113533   4.714   1.889  14.935  0.7491 -0.0491  0.6883
  925MPD2    C213534   4.616   1.829  15.018 -0.8347  0.4501 -0.3940
  925MPD2    C313535   4.633   1.839  15.156  1.1124 -0.1429 -0.7245
  925MPD2    C413536   0.012   1.919  15.207 -0.4735 -0.3268  0.2878
  925MPD2    C513537   0.086   2.001  15.120  0.9033 -0.1815 -0.0972
  925MPD2     H13538   4.534   1.771  14.977  0.5165 -1.9105  0.2102
  925MPD2    H113539   0.012   1.934  15.314 -0.1252  1.4436  0.0361
  925MPD2    H213540   0.144   2.036  14.915  0.1824  0.4695  0.2866
  925MPD2    H313541   0.162   2.063  15.166 -1.6105  1.8673  1.2762
  925MPD2     N13542   4.540   1.781  15.249 -0.8265 -0.5885 -0.6726
  925MPD2    H513543   4.547   1.809  15.346  0.6658 -0.9498 -0.6649
  925MPD2    N113544   4.709   1.856  14.803  0.3195 -0.0929 -0.2500
  925MPD2    H713545   4.634   1.795  14.771 -0.4058 -0.0182  1.2955
  926MPD2     C13546   3.897   0.177  12.954 -0.4538 -0.4839  1.0432
  926MPD2    C113547   4.020   0.206  13.015 -0.0433  0.2170 -0.1245
  926MPD2    C213548   4.131   0.213  12.934 -0.0859 -1.0223 -0.0692
  926MPD2    C313549   4.124   0.182  12.800  0.4096  0.2143 -0.1689
  926MPD2    C413550   4.005   0.160  12.739  0.1667  0.7357 -0.1430
  926MPD2    C513551   3.891   0.155  12.815 -0.5372 -0.0168 -0.0434
  926MPD2     H13552   4.217   0.251  12.988  1.0208 -2.2548 -0.9717
  926MPD2    H113553   3.995   0.151  12.631 -1.2764 -0.8685  0.1397
  926MPD2    H213554   3.808   0.173  13.016 -0.7616 -0.4379  0.6015
  926MPD2    H313555   3.792   0.132  12.776  0.3655 -1.1062 -1.7077
  926MPD2     N13556   4.238   0.175  12.713  0.2987 -0.5098  0.3836
  926MPD2    H513557   4.219   0.148  12.617 -1.1944  1.5560  0.0875
  926MPD2    N113558   4.036   0.234  13.154  0.5879 -0.4225  0.2012
  926MPD2    H713559   4.122   0.273  13.191  0.0941 -0.1203  1.0269
  927MPD2     C13560   2.554   2.585  17.569  1.0870 -0.1341 -0.0921
  927MPD2    C113561   2.557   2.468  17.631 -0.5922  0.0794 -0.3752
  927MPD2    C213562   2.650   2.376  17.587  0.3447 -0.2763 -0.4315
  927MPD2    C313563   2.724   2.399  17.473  0.1551  0.1522 -0.0801
  927MPD2    C413564   2.728   2.523  17.415 -0.9416  0.2187  0.2117
  927MPD2    C513565   2.637   2.611  17.466 -0.1911 -0.2791 -0.0024
  927MPD2     H13566   2.664   2.281  17.639  1.1403  0.5229  0.8264
  927MPD2    H113567   2.778   2.538  17.320  0.1454  1.7995  1.0305
  927MPD2    H213568   2.482   2.659  17.601  0.2481 -0.0773 -2.1328
  927MPD2    H313569   2.624   2.709  17.422 -1.4244 -0.0646  0.8469
  927MPD2     N13570   2.798   2.287  17.433  0.3841 -0.3552  0.0799
  927MPD2    H513571   2.795   2.196  17.477  0.2523 -0.8268 -0.8990
  927MPD2    N113572   2.486   2.458   0.052  0.9538 -0.0843 -0.2442
  927MPD2    H713573   2.429   2.533   0.089 -0.3115 -0.1571 -2.0530
  928MPD2     C13574   0.567   0.220   0.386 -0.1028 -0.0679 -0.2096
  928MPD2    C113575   0.579   0.338   0.457 -0.6009  0.9590  0.5014
  928MPD2    C213576   0.679   0.430   0.421 -0.0048  0.3182  0.3559
  928MPD2    C313577   0.776   0.393   0.328 -0.2143 -0.3252 -0.3478
  928MPD2    C413578   0.756   0.274   0.262 -0.6029  0.1416 -0.0117
  928MPD2    C513579   0.652   0.192   0.287 -0.2783 -0.3560 -0.3756
  928MPD2     H13580   0.698   0.519   0.480 -0.3911  0.0087  0.9427
  928MPD2    H113581   0.837   0.240   0.198 -0.2529  1.1045 -0.0739
  928MPD2    H213582   0.485   0.152   0.408  1.2215 -1.7418 -0.4443
  928MPD2    H313583   0.642   0.094   0.241  0.3017 -0.2070 -0.8176
  928MPD2     N13584   0.888   0.470   0.292  0.1668 -0.2371 -0.1690
  928MPD2    H513585   0.949   0.435   0.218 -0.5738 -0.8602 -0.4794
  928MPD2    N113586   0.484   0.366   0.551 -0.6097  0.2145 -0.3509
  928MPD2    H713587   0.419   0.290   0.568  1.7632 -1.2363  2.1944
  929MPD2     C13588   1.686   1.011   9.897 -0.1506  0.2034 -0.1211
  929MPD2    C113589   1.571   0.955   9.949  0.7000 -0.3960 -0.4657
  929MPD2    C213590   1.481   1.042  10.016  0.0418 -0.0166 -0.1809
  929MPD2    C313591   1.496   1.178  10.024  0.3782  0.0457 -0.0185
  929MPD2    C413592   1.609   1.227   9.963  0.2747  0.1700 -0.0107
  929MPD2    C513593   1.705   1.147   9.906 -0.7435  0.7626  0.0422
  929MPD2     H13594   1.392   0.995  10.055  0.7409  0.2594  1.7341
  929MPD2    H113595   1.624   1.334   9.955 -2.2437  0.4726 -0.9696
  929MPD2    H213596   1.746   0.945   9.835  0.9472 -0.8686  2.0902
  929MPD2    H313597   1.793   1.196   9.865 -1.7205 -0.4972 -3.5604
  929MPD2     N13598   1.391   1.259  10.072 -0.1753  0.2021 -0.1238
  929MPD2    H513599   1.403   1.359  10.061  3.0006 -0.1446  0.1913
  929MPD2    N113600   1.555   0.811   9.940 -0.6391 -0.7267 -0.4362
  929MPD2    H713601   1.636   0.763   9.904  0.2126 -0.5907  1.2753
  930MPD2     C13602   3.047   3.180  13.899 -0.1498  0.3309  0.4262
  930MPD2    C113603   3.137   3.198  13.796 -0.0779  0.3282  0.8327
  930MPD2    C213604   3.117   3.129  13.677 -0.6040  0.1445 -0.0048
  930MPD2    C313605   3.010   3.036  13.671 -0.6058 -0.0220  0.5855
  930MPD2    C413606   2.940   3.005  13.787  0.5752 -0.8444  0.7915
  930MPD2    C513607   2.957   3.081  13.896  0.5119  0.8345  0.2220
  930MPD2     H13608   3.182   3.143  13.591 -1.8773 -2.6767 -1.4213
  930MPD2    H113609   2.864   2.928  13.794 -0.6437  0.0635 -2.3238
  930MPD2    H213610   3.055   3.235  13.992  0.3956  2.3953 -0.8527
  930MPD2    H313611   2.898   3.056  13.983 -1.5156  0.7862 -1.1670
  930MPD2     N13612   2.993   2.948  13.561 -0.0978  0.1728 -0.8053
  930MPD2    H513613   2.952   2.857  13.580  0.9407  0.2390  1.6967
  930MPD2    N113614   3.254   3.278  13.804 -0.1080  0.4026 -0.0707
  930MPD2    H713615   3.269   3.316  13.897 -0.0011  0.1730  0.0043
  931MPD2     C13616   2.545   1.863   0.201 -0.1192  0.6596 -0.2007
  931MPD2    C113617   2.485   1.904   0.318  0.8437  0.2224 -0.5833
  931MPD2    C213618   2.509   1.827   0.434  0.1920 -0.2869  0.1160
  931MPD2    C313619   2.585   1.711   0.420  0.3548 -0.9371 -0.1625
  931MPD2    C413620   2.655   1.674   0.310  0.8289 -0.1416  0.8281
  931MPD2    C513621   2.628   1.750   0.196  0.1730  0.4064 -0.0796
  931MPD2     H13622   2.453   1.842   0.526  0.6309  0.4498  0.2712
  931MPD2    H113623   2.709   1.581   0.298  0.9738  0.0328  0.1247
  931MPD2    H213624   2.546   1.921   0.109 -1.8694  2.8682  1.1823
  931MPD2    H313625   2.678   1.723   0.104 -0.2398 -2.1357  0.4444
  931MPD2     N13626   2.599   1.612   0.521 -0.0072  0.1698  0.0835
  931MPD2    H513627   2.651   1.528   0.498  1.3480  1.1817 -0.6428
  931MPD2    N113628   2.400   2.014   0.319 -1.1099  0.0269 -0.4764
  931MPD2    H713629   2.393   2.062   0.229 -2.1265  0.2886 -0.2598
  932MPD2     C13630   1.086   1.450  11.391 -0.7379  0.5568  0.0023
  932MPD2    C113631   1.142   1.522  11.497  0.0622 -0.1943 -0.2811
  932MPD2    C213632   1.211   1.465  11.595  0.1741 -0.2597 -0.0107
  932MPD2    C313633   1.226   1.327  11.587 -0.6184 -0.1139  0.1976
  932MPD2    C413634   1.181   1.258  11.481 -0.2055 -0.2185  0.2058
  932MPD2    C513635   1.111   1.317  11.383  0.2825 -0.4399  0.5650
  932MPD2     H13636   1.249   1.531  11.672  0.0753 -1.5428  1.1551
  932MPD2    H113637   1.205   1.152  11.471  1.8550  0.1559  1.4770
  932MPD2    H213638   1.021   1.491  11.314 -0.2855  0.2458 -0.5505
  932MPD2    H313639   1.086   1.258  11.296  1.8219 -0.6979  0.2910
  932MPD2     N13640   1.279   1.252  11.694 -0.2093 -0.2251  0.4130
  932MPD2    H513641   1.296   1.152  11.684 -0.7770 -0.5906  3.2205
  932MPD2    N113642   1.128   1.658  11.503  0.8805  0.7612  0.5726
  932MPD2    H713643   1.153   1.707  11.588  0.4873 -0.4923  1.4010
  933MPD2     C13644   4.439   0.797   0.774  0.9952  0.1155 -0.4670
  933MPD2    C113645   4.575   0.821   0.747 -0.2048 -0.4152  0.1268
  933MPD2    C213646   4.616   0.948   0.726 -0.2567  0.4832  0.5791
  933MPD2    C313647   4.523   1.051   0.741 -0.5109 -0.1699  0.7245
  933MPD2    C413648   4.399   1.031   0.790  0.2684  0.3971  0.7066
  933MPD2    C513649   4.356   0.906   0.806  0.1934  0.0704 -0.1263
  933MPD2     H13650   4.715   0.965   0.684 -0.3799 -1.7323 -0.6057
  933MPD2    H113651   4.325   1.109   0.800 -0.7106 -0.9213  3.7790
  933MPD2    H213652   4.402   0.697   0.792 -1.3891  1.2430  0.9378
  933MPD2    H313653   4.254   0.886   0.837  0.3851  0.1502  0.5534
  933MPD2     N13654   4.566   1.179   0.699 -0.5671  0.2123  0.1147
  933MPD2    H513655   4.661   1.171   0.664 -0.5304  0.2709  0.2036
  933MPD2    N113656   4.663   0.713   0.740  0.0637 -0.2676 -0.2213
  933MPD2    H713657   4.621   0.621   0.746  0.1266 -0.2588  0.3082
  934MPD2     C13658   2.531   3.496   1.311 -0.0529  0.4730  0.7179
  934MPD2    C113659   2.534   3.423   1.196  0.4740 -0.3211  0.5742
  934MPD2    C213660   2.421   3.370   1.139  0.0556  0.2561 -0.4997
  934MPD2    C313661   2.299   3.384   1.206 -0.0695  0.4972  0.1289
  934MPD2    C413662   2.293   3.463   1.317  0.0610  0.6051 -0.3190
  934MPD2    C513663   2.412   3.519   1.367 -0.4221 -0.1333  0.0731
  934MPD2     H13664   2.436   3.327   1.041 -2.9650  1.5284 -1.4988
  934MPD2    H113665   2.198   3.483   1.365  0.8956  0.6257  1.3249
  934MPD2    H213666   2.618   3.542   1.356  0.3505  0.8176 -0.4182
  934MPD2    H313667   2.398   3.582   1.454  2.9139  1.1547 -0.3063
  934MPD2     N13668   2.185   3.318   1.154 -0.5271  0.1543  0.3694
  934MPD2    H513669   2.100   3.348   1.201 -0.7365  0.2070 -0.0360
  934MPD2    N113670   2.657   3.393   1.127 -0.6146 -0.4658  0.0975
  934MPD2    H713671   2.655   3.333   1.045 -1.1637  0.7402 -0.7662
  935MPD2     C13672   1.717   2.375   1.256 -0.6305 -0.6936 -0.1772
  935MPD2    C113673   1.778   2.391   1.135 -0.6439  0.3475 -0.0856
  935MPD2    C213674   1.811   2.519   1.102 -0.0467 -0.2648  0.0954
  935MPD2    C313675   1.785   2.626   1.184 -0.1018  0.6306 -0.5414
  935MPD2    C413676   1.712   2.611   1.299  0.5896  0.3307 -0.0356
  935MPD2    C513677   1.682   2.483   1.331 -0.1810 -0.4256 -0.0242
  935MPD2     H13678   1.830   2.543   0.998 -0.7134  0.0036  0.0367
  935MPD2    H113679   1.685   2.681   1.377  1.9803 -2.2345  2.7498
  935MPD2    H213680   1.672   2.284   1.294 -2.1620  0.2364  0.2772
  935MPD2    H313681   1.618   2.461   1.415  0.6557 -1.4153  0.3618
  935MPD2     N13682   1.822   2.757   1.160  0.3893  1.1233 -0.4794
  935MPD2    H513683   1.776   2.831   1.211 -1.0559 -1.5334  2.0788
  935MPD2    N113684   1.792   2.289   1.039 -0.2775  0.7467 -0.0863
  935MPD2    H713685   1.829   2.312   0.947  1.7605 -1.3554  0.2165
  936MPD2     C13686   1.262   0.074  11.974  0.4093 -0.2511 -0.5041
  936MPD2    C113687   1.301   4.692  12.053  0.3622 -0.2214  0.4819
  936MPD2    C213688   1.401   4.609  11.995  0.2968 -0.0420 -0.7878
  936MPD2    C313689   1.450   4.627  11.866 -0.0306  1.1438  0.1639
  936MPD2    C413690   1.396   0.008  11.797 -0.0562 -0.0391  0.2075
  936MPD2    C513691   1.306   0.096  11.850 -0.3764  0.1715 -0.0083
  936MPD2     H13692   1.454   4.543  12.062 -0.6037  0.7523  0.7094
  936MPD2    H113693   1.436   0.033  11.699 -2.2009  0.3782 -0.5607
  936MPD2    H213694   1.186   0.141  12.012  1.2482  1.0304 -1.0639
  936MPD2    H313695   1.274   0.188  11.801 -0.9633 -0.9715 -1.7540
  936MPD2     N13696   1.542   4.529  11.822  0.1907  0.0769  0.2148
  936MPD2    H513697   1.553   4.464  11.899  1.5729  0.7519  0.5847
  936MPD2    N113698   1.262   4.669  12.194  0.3399  0.0283  0.8133
  936MPD2    H713699   1.292   4.584  12.241 -0.5673 -0.8137 -0.1180
  937MPD2     C13700   3.904   1.232  11.859 -0.3846  0.2856 -0.4753
  937MPD2    C113701   3.901   1.369  11.821  0.0747 -0.2287  0.6075
  937MPD2    C213702   3.994   1.405  11.727 -0.0152 -0.3236 -0.2895
  937MPD2    C313703   4.059   1.311  11.646 -0.0008 -0.8922  0.6403
  937MPD2    C413704   4.033   1.178  11.664  0.3172 -0.2138 -1.0120
  937MPD2    C513705   3.963   1.137  11.782 -0.1835 -0.2029 -0.2221
  937MPD2     H13706   4.024   1.508  11.715  2.4200 -1.0016 -0.0902
  937MPD2    H113707   4.076   1.100  11.602  1.6146 -1.4881  1.5000
  937MPD2    H213708   3.846   1.206  11.947  0.2850 -1.2272 -0.4936
  937MPD2    H313709   3.949   1.032  11.805  1.7333 -0.2757  0.6215
  937MPD2     N13710   4.143   1.364  11.556  0.1131  0.7672  0.1919
  937MPD2    H513711   4.144   1.465  11.555 -0.9868  0.7580 -2.0291
  937MPD2    N113712   3.830   1.469  11.889 -0.0382 -0.2010 -0.0149
  937MPD2    H713713   3.843   1.563  11.853  2.1342  0.2924  2.0725
  938MPD2     C13714   1.334   2.154   1.013 -0.7170  0.5411  0.2736
  938MPD2    C113715   1.259   2.269   1.029  0.5492 -0.6185 -0.5886
  938MPD2    C213716   1.120   2.255   1.048  0.8870  0.1345  0.6543
  938MPD2    C313717   1.058   2.127   1.048  0.5820 -0.1150 -0.1961
  938MPD2    C413718   1.134   2.015   1.030 -0.5008 -0.0201 -0.1026
  938MPD2    C513719   1.270   2.028   1.014  0.1158  0.7473  0.3194
  938MPD2     H13720   1.063   2.344   1.072 -0.4450 -0.3806 -0.5893
  938MPD2    H113721   1.087   1.917   1.030  1.4447 -0.9630 -2.0881
  938MPD2    H213722   1.442   2.151   1.017 -0.8481 -2.1555  1.1295
  938MPD2    H313723   1.323   1.934   1.004 -2.6628 -0.7977  0.0227
  938MPD2     N13724   0.919   2.102   1.074 -0.3566  0.1967 -0.0383
  938MPD2    H513725   0.885   2.006   1.077 -2.8170  1.0254 -1.3890
  938MPD2    N113726   1.308   2.397   1.032 -0.0918  0.4681 -0.4002
  938MPD2    H713727   1.249   2.477   1.053  0.2366  0.9822 -1.4187
  939MPD2     C13728   3.106   4.127   1.017 -0.2347 -0.7187  0.6017
  939MPD2    C113729   2.992   4.149   0.930 -0.5506 -0.3182 -0.1186
  939MPD2    C213730   3.021   4.195   0.808 -0.7360 -0.5434  0.9488
  939MPD2    C313731   3.145   4.205   0.760 -0.6002  0.3796  0.5670
  939MPD2    C413732   3.257   4.178   0.839  0.0121  0.4731 -0.7619
  939MPD2    C513733   3.232   4.148   0.968  0.0641  0.3976 -0.0741
  939MPD2     H13734   2.945   4.212   0.732 -0.4128 -2.1049  0.2767
  939MPD2    H113735   3.353   4.214   0.804 -1.1939  2.6137 -1.8372
  939MPD2    H213736   3.097   4.115   1.124  0.6235  1.7310  0.9313
  939MPD2    H313737   3.311   4.126   1.038 -2.4499 -2.3476  1.8969
  939MPD2     N13738   3.159   4.248   0.621 -0.2215 -0.2749  0.1722
  939MPD2    H513739   3.070   4.271   0.576 -0.5529 -1.9349 -0.0084
  939MPD2    N113740   2.866   4.135   0.989  0.2490 -0.3566  0.1511
  939MPD2    H713741   2.861   4.121   1.090 -1.7624  1.4841  0.3192
  940MPD2     C13742   2.723   0.101  12.740 -1.1447 -0.3734  1.1248
  940MPD2    C113743   2.605   0.042  12.771  0.0688 -0.4678 -0.0709
  940MPD2    C213744   2.560   4.667  12.687 -0.4746  0.1947  0.0943
  940MPD2    C313745   2.640   4.612  12.583  0.2961  0.2738  0.2125
  940MPD2    C413746   2.770   4.666  12.563  0.0233  1.1443  0.4892
  940MPD2    C513747   2.806   0.045  12.648  0.1227 -0.6014 -0.5447
  940MPD2     H13748   2.463   4.621  12.702  0.1003 -1.5694 -1.5658
  940MPD2    H113749   2.846   4.619  12.501 -1.0795  2.2222 -1.6926
  940MPD2    H213750   2.756   0.187  12.797 -0.3927  1.4790 -2.0526
  940MPD2    H313751   2.901   0.097  12.639  0.1613 -0.7331 -0.9027
  940MPD2     N13752   2.601   4.517  12.485 -0.0350  0.5020  0.7531
  940MPD2    H513753   2.668   4.507  12.409 -0.0483 -1.3132  0.9994
  940MPD2    N113754   2.527   0.086  12.877 -0.6271  1.1962  0.0409
  940MPD2    H713755   2.449   0.023  12.895  1.5939 -1.3678  0.6116
  941MPD2     C13756   1.013   3.874   8.885  0.2744 -0.0158 -0.5214
  941MPD2    C113757   1.101   3.847   8.985  0.4541 -0.0068  0.1232
  941MPD2    C213758   1.071   3.743   9.074 -0.0871  0.4656 -0.1661
  941MPD2    C313759   0.950   3.673   9.065  0.1417 -0.5125 -0.3751
  941MPD2    C413760   0.859   3.711   8.970  0.6787 -0.0454  0.1875
  941MPD2    C513761   0.897   3.805   8.884  0.1770  0.4801  0.6388
  941MPD2     H13762   1.146   3.720   9.149 -0.6659  0.2351  0.3361
  941MPD2    H113763   0.760   3.668   8.968  0.2480  0.9928 -0.8641
  941MPD2    H213764   1.023   3.949   8.808  0.0638  0.0870 -0.4492
  941MPD2    H313765   0.828   3.818   8.801  1.5183 -0.1709 -0.5928
  941MPD2     N13766   0.917   3.574   9.160 -0.2483  0.1085 -0.0664
  941MPD2    H513767   0.820   3.547   9.165 -0.0664 -0.7627 -1.3099
  941MPD2    N113768   1.221   3.916   8.994  0.0453  0.0221 -0.1735
  941MPD2    H713769   1.281   3.900   9.074  0.0367 -2.4050 -0.6747
  942MPD2     C13770   4.494   1.182   9.966  0.6582  0.6433 -0.3007
  942MPD2    C113771   4.466   1.127   9.839 -0.1578 -0.2750 -0.2425
  942MPD2    C213772   4.571   1.087   9.759  0.0640 -0.1059 -0.4397
  942MPD2    C313773   4.705   1.104   9.790 -0.2797 -0.2807  0.1456
  942MPD2    C413774   0.007   1.185   9.905  0.5618  0.2221 -0.8514
  942MPD2    C513775   4.625   1.218   9.988 -0.0692 -0.5112 -0.4583
  942MPD2     H13776   4.544   1.036   9.667 -0.6734 -0.3732 -0.0777
  942MPD2    H113777   0.110   1.190   9.938  0.4195  2.1852 -0.7004
  942MPD2    H213778   4.434   1.201  10.054  0.2224  0.0649 -0.4721
  942MPD2    H313779   4.651   1.270  10.079 -0.6242  0.9489 -1.1354
  942MPD2     N13780   0.090   1.045   9.726 -0.4336  0.3861  0.7467
  942MPD2    H513781   0.182   1.073   9.759  1.4205 -1.0090 -3.2088
  942MPD2    N113782   4.327   1.101   9.799 -0.0499  0.0018 -0.0800
  942MPD2    H713783   4.323   1.055   9.708 -0.2865  0.4293 -0.2887
  943MPD2     C13784   4.353   3.298   8.513 -0.5243  0.0422  0.0925
  943MPD2    C113785   4.265   3.294   8.612 -0.2211 -0.1657 -0.7651
  943MPD2    C213786   4.127   3.307   8.580  0.1537 -0.1517 -0.2990
  943MPD2    C313787   4.091   3.323   8.449 -0.0073 -0.1151 -0.4782
  943MPD2    C413788   4.185   3.332   8.353 -0.3001 -0.1211  0.2094
  943MPD2    C513789   4.314   3.328   8.388  0.3023  0.3311  0.1506
  943MPD2     H13790   4.059   3.309   8.665  1.1426 -1.5325  0.5356
  943MPD2    H113791   4.162   3.333   8.247  0.5790 -1.9217  0.0081
  943MPD2    H213792   4.459   3.292   8.535 -0.4061  2.3281  0.1465
  943MPD2    H313793   4.394   3.326   8.314  0.0515 -0.2035 -0.1079
  943MPD2     N13794   3.964   3.326   8.406 -0.1644 -0.2695  0.5937
  943MPD2    H513795   3.955   3.329   8.305 -2.1741 -0.5391  0.7497
  943MPD2    N113796   4.319   3.292   8.740  0.2632  0.3879  0.4551
  943MPD2    H713797   4.420   3.298   8.745  0.2662  0.8897 -0.1665
  944MPD2     C13798   3.758   1.958  10.957  0.3998  0.1801  0.2369
  944MPD2    C113799   3.866   2.032  10.926 -0.5236 -0.2527  0.0516
  944MPD2    C213800   3.899   2.133  11.012  0.4354  0.3841 -0.1918
  944MPD2    C313801   3.831   2.146  11.133 -0.2039  0.1033  0.0396
  944MPD2    C413802   3.721   2.068  11.161 -0.0109  0.0021  0.7442
  944MPD2    C513803   3.686   1.975  11.074  0.3185 -0.3838  0.3262
  944MPD2     H13804   3.980   2.203  10.997  2.2420 -1.3230  1.6563
  944MPD2    H113805   3.651   2.095  11.240 -1.0195  0.7129 -0.4020
  944MPD2    H213806   3.730   1.885  10.881  1.3716  1.6383 -1.5104
  944MPD2    H313807   3.596   1.915  11.082 -0.9287  1.6091  1.1989
  944MPD2     N13808   3.862   2.267  11.207 -0.1767  0.2618  0.4430
  944MPD2    H513809   3.946   2.319  11.181 -1.2239  1.2121 -1.0383
  944MPD2    N113810   3.936   2.000  10.809 -0.4265 -0.1443  0.5839
  944MPD2    H713811   3.913   1.914  10.759 -0.8961  1.1517 -1.4117
    1TCq1    O113812   2.187   3.167  14.213 -0.3597 -0.5898  0.0417
    1TCq1    C113813   2.288   3.252  14.231  0.7447  0.0467 -0.1276
    1TCq1    O213814   2.407   3.244  14.222  0.1927 -0.2593  0.2351
    1TCq1    C213815   2.241   3.387  14.272  0.4724 -0.5572 -0.1043
    1TCq1    C313816   2.125   3.434  14.210  0.3642 -0.6002 -0.6817
    1TCq1    C413817   2.087   3.564  14.246 -0.4306  0.3495 -0.2144
    1TCq1    C513818   2.166   3.640  14.327  0.6034  0.0744  0.1565
    1TCq1    C613819   2.273   3.586  14.388 -0.6246  0.2575  0.2722
    1TCq1    C713820   2.314   3.460  14.364 -0.0291 -0.1238 -0.1906
    1TCq1    C813821   2.377   3.678  14.442 -0.2312  0.3242 -0.4765
    1TCq1    O413822   2.446   3.632  14.532  0.2318 -0.5073  0.3950
    1TCq1    C913823   1.962   3.621  14.182  0.3033 -0.2689  0.5600
    1TCq1    O513824   1.958   3.746  14.183  0.4280 -0.1391  0.1062
    1TCq1    O613825   1.903   3.553  14.096  0.7315 -0.0942  0.3341
    1TCq1    H113826   2.100   3.194  14.249 -0.6355 -0.1848 -0.9217
    1TCq1    H213827   2.071   3.378  14.133 -0.2249  1.0645 -1.4863
    1TCq1    H313828   2.133   3.741  14.346 -1.0378 -0.3488 -0.4184
    1TCq1    H413829   2.410   3.430  14.406 -0.3610 -0.7382  0.1228
    2MPD2     C13830   2.588   4.125  14.523 -0.2393 -0.2890  0.4596
    2MPD2    C113831   2.531   4.128  14.397 -0.8720 -0.6032 -0.2975
    2MPD2    C213832   2.456   4.021  14.355 -0.2349 -1.2292 -0.5631
    2MPD2    C313833   2.447   3.911  14.436 -0.4626 -0.3882  0.1611
    2MPD2    C413834   2.490   3.914  14.562  0.5902  0.3313  0.1381
    2MPD2    C513835   2.561   4.022  14.610  0.4703  0.5725  0.5579
    2MPD2     H13836   2.400   4.016  14.262  0.4869 -0.9353 -1.0104
    2MPD2    H113837   2.480   3.833  14.634 -2.1995 -0.3963 -1.0701
    2MPD2    H213838   2.645   4.213  14.551 -0.2625 -0.9340  2.5880
    2MPD2    H313839   2.609   4.013  14.706  0.1996 -1.4739  0.4985
    2MPD2     N13840   2.375   3.800  14.384 -0.2892 -0.1045  0.1422
    2MPD2    H513841   2.325   3.803  14.296  0.9581 -0.0994 -0.5564
    2MPD2    N113842   2.571   4.241  14.317  0.3568 -0.4092 -0.1824
    2MPD2    H713843   2.645   4.299  14.355  1.1546 -0.9546 -0.8901
    3TMC2    C113844   2.576   4.398  14.155  0.8422 -0.1546  0.6380
    3TMC2    C213845   2.607   4.491  14.248 -0.2255  0.2921 -0.2843
    3TMC2    C313846   2.660   4.608  14.209 -0.3063  0.0939 -0.3813
    3TMC2    C413847   2.595   4.423  14.021 -0.4081 -0.1200 -0.4323
    3TMC2    C513848   2.635   4.553  13.980  0.6748  0.3727 -0.1717
    3TMC2    C613849   2.664   4.651  14.074 -0.0048 -0.9644  0.0091
    3TMC2     C13850   2.512   4.276  14.198  0.7958  0.8141 -0.6900
    3TMC2     O13851   2.447   4.208  14.115  0.1565  0.2349 -0.1386
    3TMC2     H13852   2.592   4.483  14.355  2.6808 -0.1492  0.0723
    3TMC2    H113853   2.554   4.348  13.955 -2.6757 -0.0038  0.8738
    3TMC2    H213854   2.708   0.024  14.050  0.8285 -1.0803  1.0704
    3TMC2    C713855   2.612   4.590  13.840  0.2069 -0.2906 -0.0091
    3TMC2    C813856   2.717   4.705  14.304  0.2221 -0.4999  0.6614
    3TMC2    O113857   2.591   4.497  13.763  0.0505 -0.5694  0.1801
    3TMC2    O213858   2.725   0.101  14.279  0.5017 -0.2513  0.7070
    3TMC2    O513859   2.771   4.639  14.412 -0.1279 -0.2395  0.7815
    3TMC2    H513860   2.768   4.541  14.407 -2.4221  0.0215 -3.1003
    4MPD2     C13861   1.916   0.957  13.254 -0.4458  0.7017 -0.0147
    4MPD2    C113862   1.939   0.824  13.294  0.0463 -0.0132 -0.2855
    4MPD2    C213863   2.073   0.783  13.315 -0.4666  0.0787 -0.1476
    4MPD2    C313864   2.176   0.866  13.307  0.1765  0.0473 -0.0648
    4MPD2    C413865   2.153   0.993  13.253  0.0049 -0.0820 -0.0465
    4MPD2    C513866   2.022   1.035  13.237  0.0211 -0.1635 -0.1368
    4MPD2     H13867   2.097   0.684  13.353 -1.4030  0.0613  0.3996
    4MPD2    H113868   2.237   1.061  13.244 -0.5427  0.3780 -1.5758
    4MPD2    H213869   1.817   1.002  13.257 -1.6652 -2.1640  1.8631
    4MPD2    H313870   2.006   1.139  13.210 -1.8477 -0.5780 -0.6545
    4MPD2     N13871   2.304   0.812  13.335 -0.0119 -0.4991  0.0473
    4MPD2    H513872   2.307   0.726  13.390 -2.2387 -0.6819 -0.1087
    4MPD2    N113873   1.822   0.742  13.292 -0.0818 -0.5994  0.0907
    4MPD2    H713874   1.732   0.787  13.277  0.5594  1.0465  1.2212
    5TCq2    C113875   2.422   0.865  13.300  0.2843  0.1630  0.2049
    5TCq2    O213876   2.452   0.958  13.227 -0.2840 -0.0329 -0.8988
    5TCq2    C213877   2.540   0.792  13.364  0.1487 -0.2374 -0.6391
    5TCq2    C313878   2.664   0.818  13.325 -0.0770 -0.3544  0.9717
    5TCq2    C413879   2.769   0.741  13.374 -0.5794 -0.2811 -0.2898
    5TCq2    C513880   2.749   0.643  13.471  0.0342 -0.0405  0.1858
    5TCq2    C613881   2.622   0.626  13.520 -0.7779 -0.3726 -0.2113
    5TCq2    C713882   2.518   0.700  13.468 -0.4865 -0.9826  0.1142
    5TCq2    C813883   2.591   0.508  13.602 -0.3596  0.0999 -0.9371
    5TCq2    O413884   2.505   0.512  13.684 -0.1634  0.3872 -0.1259
    5TCq2    C913885   2.904   0.756  13.330  0.1160  0.2231  0.4390
    5TCq2    O513886   2.991   0.746  13.426  0.0092 -0.6806  0.2084
    5TCq2    O613887   2.934   0.803  13.214 -0.1161 -0.4154  0.0074
    5TCq2    H213888   2.693   0.889  13.248  1.9998 -0.7037  1.4361
    5TCq2    H313889   2.823   0.579  13.517 -0.4136 -2.2676 -2.1596
    5TCq2    H413890   2.423   0.671  13.510 -1.5603  2.0364 -0.2115
    6MPD1     C13891   2.514   0.508  12.480 -0.0724  0.0411  0.1703
    6MPD1    C113892   2.541   0.386  12.537 -0.2660 -0.6164 -0.8607
    6MPD1    C213893   2.437   0.289  12.550 -0.2422 -0.6562 -1.4905
    6MPD1    C313894   2.304   0.329  12.525  0.3077  0.0890  0.2116
    6MPD1    C413895   2.280   0.454  12.479  0.1236 -0.4184 -0.1242
    6MPD1    C513896   2.385   0.540  12.453  0.3741  0.2126  0.2922
    6MPD1     H13897   2.459   0.185  12.573  1.7613  0.1427  0.1511
    6MPD1    H113898   2.178   0.489  12.467 -0.2736 -1.5016  0.1630
    6MPD1    H213899   2.578   0.593  12.461 -2.2334  1.5298 -0.4863
    6MPD1    H313900   2.367   0.637  12.407  1.8503 -0.4897 -1.7315
    6MPD1     N13901   2.195   0.238  12.541  0.6652  0.3256 -0.2616
    6MPD1    H513902   2.104   0.278  12.562  0.7471 -0.2133  1.1525
    6MPD1    N113903   2.678   0.346  12.554 -0.4406 -0.0246  0.2636
    6MPD1    H613904   2.736   0.424  12.585 -0.8526 -0.7804  2.9288
    6MPD1    H713905   2.682   0.279  12.630  1.0945 -0.0070  0.1877
    7MPD2     C13906   1.608   0.459  12.525  1.1975  0.3181  0.4681
    7MPD2    C113907   1.640   0.345  12.604 -0.4615 -0.4681 -0.4053
    7MPD2    C213908   1.601   0.352  12.737  0.0168 -0.1692 -0.1923
    7MPD2    C313909   1.541   0.468  12.791 -0.6294  0.2194  0.1507
    7MPD2    C413910   1.501   0.573  12.706 -0.0911 -0.3110 -0.3066
    7MPD2    C513911   1.545   0.568  12.571  0.1293  0.3595 -0.0403
    7MPD2     H13912   1.615   0.269  12.805  0.9487  0.8405  0.8267
    7MPD2    H113913   1.447   0.659  12.743  1.8708  1.2496 -1.0879
    7MPD2    H213914   1.646   0.462  12.424 -0.5529  1.0608 -0.1660
    7MPD2    H313915   1.514   0.637  12.493 -0.3278 -0.2934 -0.4423
    7MPD2     N13916   1.527   0.467  12.929 -0.1993 -0.5687  0.2154
    7MPD2    H513917   1.575   0.389  12.974 -1.7264 -0.7174  1.6128
    7MPD2    N113918   1.722   0.242  12.558 -0.1888  0.6284  0.9692
    7MPD2    H713919   1.779   0.253  12.475 -0.3482 -0.9006  0.6675
    8TMC3    C113920   1.504   0.537  13.147  0.4749  0.1195 -0.1240
    8TMC3    C213921   1.601   0.615  13.196  0.0572 -0.0739  0.6142
    8TMC3    C313922   1.692   0.556  13.286 -0.0064 -0.3022 -0.3417
    8TMC3    C413923   1.501   0.402  13.168 -0.2145 -0.2405 -0.5972
    8TMC3    C513924   1.595   0.345  13.246 -0.1821 -0.1672  0.1347
    8TMC3    C613925   1.679   0.423  13.321  0.2009 -0.1237 -0.0834
    8TMC3     C13926   1.473   0.563  13.007  0.6930 -0.2240  0.2522
    8TMC3     O13927   1.421   0.671  12.984  0.1020 -0.4407 -0.8305
    8TMC3     H13928   1.605   0.714  13.152 -0.8865  0.2334  1.2042
    8TMC3    H113929   1.427   0.346  13.111 -1.0139  0.2485 -0.0431
    8TMC3    H213930   1.762   0.365  13.359 -0.7109 -2.0356 -1.0136
    8TMC3    C713931   1.650   0.231  13.173  0.2722 -0.3573  0.1240
    8TMC3    C813932   1.826   0.605  13.302 -0.3894 -0.3466  0.5766
    8TMC3    O113933   1.647   0.247  13.051 -0.1965  0.1235 -0.3050
    8TMC3    O213934   1.917   0.531  13.328 -0.6143  0.0287  0.0597
    9TMC3    C113935   2.067   0.044  12.549 -0.0430 -0.3619 -0.0244
    9TMC3    C213936   2.072   4.638  12.604 -0.2092  1.3614 -0.0762
    9TMC3    C313937   1.960   4.577  12.649 -0.5686  0.3939 -0.7921
    9TMC3    C413938   1.953   0.112  12.527  0.0109  0.1563  0.1149
    9TMC3    C513939   1.839   0.044  12.561  0.3635 -0.1948 -0.4344
    9TMC3    C613940   1.843   4.644  12.624  0.1924  0.1573 -0.6092
    9TMC3     C13941   2.197   0.109  12.535  0.1977  0.1504  0.6356
    9TMC3     O13942   2.289   0.033  12.512  0.1048 -0.4046 -0.4657
    9TMC3     H13943   2.171   4.598  12.621  0.1008  3.2801  2.6579
    9TMC3    H113944   1.955   0.215  12.494  2.5395 -0.3586 -1.3394
    9TMC3    H213945   1.746   4.602  12.647  0.9775 -2.1427 -1.5287
    9TMC3    C713946   1.730   0.123  12.620  0.7683 -0.0167  0.4599
    9TMC3    C813947   1.984   4.556  12.787  0.1589 -0.7106 -0.2617
    9TMC3    O113948   1.679   0.077  12.722 -0.2862 -0.6181 -0.0206
    9TMC3    O213949   2.093   4.517  12.822 -0.1967  0.2772 -0.4848
   10MPD2     C13950   1.918   4.711  13.278 -0.2925  0.3680 -0.4975
   10MPD2    C113951   1.820   0.050  13.199  0.0206 -0.5667 -0.1085
   10MPD2    C213952   1.801   0.003  13.069 -0.0339 -0.1556 -0.8680
   10MPD2    C313953   1.888   4.635  13.007  0.1047 -0.5305 -0.2391
   10MPD2    C413954   1.988   4.588  13.085 -0.2839  0.5649 -0.4244
   10MPD2    C513955   1.997   4.611  13.217 -0.0633 -0.4528 -0.0555
   10MPD2     H13956   1.733   0.050  12.999  1.7461  0.4879 -2.1641
   10MPD2    H113957   2.051   4.510  13.044 -2.0833 -0.7308 -0.7515
   10MPD2    H213958   1.915   0.008  13.384  1.6842  0.4009 -0.4534
   10MPD2    H313959   2.077   4.560  13.271  0.9871  0.2068 -0.9914
   10MPD2     N13960   1.879   4.610  12.863  0.0769 -0.4948  0.2564
   10MPD2    H513961   1.806   4.668  12.823  2.0323  0.1079 -2.5221
   10MPD2    N113962   1.734   0.152  13.250  0.2481  0.1433 -0.1428
   10MPD2    H713963   1.742   0.170  13.350  0.4002 -0.6023 -0.0224
   11MPD2     C13964   2.635   4.707  13.580 -0.3155  0.1812  0.2162
   11MPD2    C113965   2.612   0.061  13.698  0.1426  0.2296 -0.0489
   11MPD2    C213966   2.613   0.199  13.691  0.2626 -0.3162 -0.1417
   11MPD2    C313967   2.641   0.262  13.565 -0.4917  0.5524  0.5594
   11MPD2    C413968   2.656   0.183  13.453 -0.0833  0.0229  0.0721
   11MPD2    C513969   2.653   0.046  13.459 -0.3980 -0.0526 -0.1910
   11MPD2     H13970   2.608   0.265  13.777  1.4013  1.7771 -1.6747
   11MPD2    H113971   2.675   0.225  13.355 -1.1142 -0.5306 -0.3563
   11MPD2    H213972   2.629   4.599  13.576  1.7025  0.1116 -1.2632
   11MPD2    H313973   2.679   4.712  13.371  0.7701  3.7302 -2.2947
   11MPD2     N13974   2.649   0.400  13.534  0.8689 -0.0491  0.2919
   11MPD2    H513975   2.696   0.424  13.447 -2.6022 -0.9426 -1.8384
   11MPD2    N113976   2.599   0.000  13.821 -0.3329  0.1380 -0.0966
   11MPD2    H713977   2.578   0.060  13.900 -0.6441  1.0412 -0.8678
    1MPD1     C13978   3.649   1.403  17.474  0.4240  0.0628 -0.1652
    1MPD1    C113979   3.563   1.452  17.369 -0.6274  0.1300 -0.2682
    1MPD1    C213980   3.626   1.478  17.245  0.5430  0.5004  0.6358
    1MPD1    C313981   3.760   1.484  17.241  0.9621  0.5386 -0.3673
    1MPD1    C413982   3.833   1.427  17.344  0.6106 -0.1704  0.1441
    1MPD1    C513983   3.777   1.396  17.457 -0.3103 -0.5351 -0.1890
    1MPD1     H13984   3.569   1.511  17.159  0.6768 -1.9081 -0.3678
    1MPD1    H113985   3.940   1.418  17.332  0.4565  1.3525 -2.2277
    1MPD1    H213986   3.610   1.364  17.567  0.2519 -0.8146 -0.6022
    1MPD1    H313987   3.846   1.343  17.522  1.7636 -0.0065 -1.9510
    1MPD1     N13988   3.832   1.533  17.125 -0.1646  0.0884  0.5300
    1MPD1    H513989   3.933   1.533  17.136  0.1017  0.0149 -1.9660
    1MPD1    N113990   3.424   1.457  17.395  0.1994 -0.3815  0.1859
    1MPD1    H613991   3.372   1.519  17.333 -0.1460 -2.1411 -1.2973
    1MPD1    H713992   3.420   1.474  17.495  1.4786  0.7313  0.0408
    2MPD1     C13993   4.693   1.787  16.735 -0.4577 -0.3793  0.2676
    2MPD1    C113994   4.604   1.815  16.632  0.0762 -0.6243  0.2677
    2MPD1    C213995   4.475   1.815  16.661  0.4726 -0.0338  0.3251
    2MPD1    C313996   4.426   1.805  16.793  0.0849  0.1025  0.8202
    2MPD1    C413997   4.517   1.778  16.892  0.3252 -0.7000  1.0447
    2MPD1    C513998   4.649   1.769  16.864  0.0043  0.8850 -0.1176
    2MPD1     H13999   4.399   1.812  16.583  1.3770  1.2701 -0.5953
    2MPD1    H114000   4.489   1.773  16.996  0.9877  0.2054  1.2710
    2MPD1    H214001   0.075   1.775  16.716 -0.5215  0.5034 -0.6476
    2MPD1    H314002   4.717   1.743  16.944 -1.9676 -2.4540  0.4937
    2MPD1     N14003   4.287   1.804  16.811 -0.0739 -0.5470  0.9581
    2MPD1    H514004   4.239   1.836  16.727  1.5476  0.0561  0.2583
    2MPD1    N114005   4.652   1.836  16.504 -0.2252 -0.5061  0.0674
    2MPD1    H614006   0.023   1.874  16.498 -0.6204  0.6943  1.3641
    2MPD1    H714007   4.592   1.894  16.446 -0.0791 -0.3009  0.1239
    3TMC3    C114008   4.078   1.735  16.877  0.1382  0.2431 -0.1241
    3TMC3    C214009   4.046   1.750  16.746  0.4168 -0.8936  0.4004
    3TMC3    C314010   3.924   1.705  16.701  0.1353 -0.0884  0.9644
    3TMC3    C414011   3.995   1.670  16.970 -0.3113  1.1212 -0.1734
    3TMC3    C514012   3.875   1.622  16.922 -0.1972  0.4463 -0.2155
    3TMC3    C614013   3.837   1.647  16.789 -0.7883 -0.0342  0.0184
    3TMC3     C14014   4.214   1.748  16.913 -0.6608 -0.1695  0.4894
    3TMC3     O14015   4.254   1.709  17.022  0.2673 -0.5202 -0.0827
    3TMC3     H14016   4.108   1.791  16.668 -0.0523 -2.1599 -0.6344
    3TMC3    H114017   4.030   1.654  17.071 -0.3694 -2.0995 -0.6581
    3TMC3    H214018   3.752   1.603  16.739 -1.4990  1.2746  0.0757
    3TMC3    C714019   3.771   1.569  17.008  0.5118 -1.0034  0.3861
    3TMC3    C814020   3.910   1.687  16.556  0.3174 -0.3823 -0.5808
    3TMC3    O114021   3.666   1.535  16.958 -0.1529  0.0327  0.1464
    3TMC3    O214022   4.020   1.668  16.502 -0.1999 -0.0218  0.1776
    4MPD1     C14023   3.692   1.606  16.104 -0.2964  0.4754 -0.4687
    4MPD1    C114024   3.594   1.664  16.179  0.1156  0.4494  0.0372
    4MPD1    C214025   3.625   1.673  16.314 -0.1295  0.3519 -0.2215
    4MPD1    C314026   3.755   1.668  16.364 -0.6034 -0.1836  0.1931
    4MPD1    C414027   3.851   1.623  16.273 -0.9380 -0.5070 -0.1869
    4MPD1    C514028   3.817   1.583  16.147 -0.0006  1.0357 -0.0666
    4MPD1     H14029   3.553   1.706  16.388  1.2851  2.3351  0.2340
    4MPD1    H114030   3.954   1.603  16.301 -0.7172 -1.5948 -1.7655
    4MPD1    H214031   3.675   1.576  16.001 -0.2202  2.4695 -1.0623
    4MPD1    H314032   3.889   1.539  16.079 -2.2098 -1.0423 -1.0679
    4MPD1     N14033   3.781   1.692  16.502  0.5689 -0.1807  0.3253
    4MPD1    H514034   3.706   1.703  16.570 -1.2684  1.0566 -1.9300
    4MPD1    N114035   3.461   1.643  16.136  0.0774  0.3225  0.5593
    4MPD1    H614036   3.395   1.696  16.192 -0.1635 -0.7128  1.2416
    4MPD1    H714037   3.451   1.683  16.042  1.3213 -0.0244  0.2695
    1TCq1    O114038   1.012   0.744  11.634  0.5860  0.1017 -0.0134
    1TCq1    C114039   0.902   0.680  11.584 -0.6037 -0.9182  0.0638
    1TCq1    O214040   0.807   0.648  11.654  0.3852  0.3100 -0.3904
    1TCq1    C214041   0.926   0.609  11.456 -0.2885  0.2854 -1.2111
    1TCq1    C314042   0.817   0.550  11.401 -0.8464 -0.1221  0.2618
    1TCq1    C414043   0.844   0.469  11.293  0.3672 -0.0954 -0.1787
    1TCq1    C514044   0.970   0.425  11.267  0.2116 -0.1728  0.2382
    1TCq1    C614045   1.076   0.486  11.330  0.2584  0.0224 -0.2715
    1TCq1    C714046   1.061   0.591  11.418 -0.5164  0.0703  0.0857
    1TCq1    C814047   1.207   0.441  11.289 -0.6204  0.4252 -0.4703
    1TCq1    O414048   1.300   0.444  11.370 -0.5430 -0.4229  0.0024
    1TCq1    C914049   0.733   0.398  11.229 -0.1136 -0.5591 -1.0560
    1TCq1    O514050   0.766   0.321  11.132  0.5122  0.7922 -0.0820
    1TCq1    O614051   0.629   0.390  11.296  0.1928  0.2542  0.9117
    1TCq1    H114052   1.073   0.771  11.562  0.6049  1.1800  0.4028
    1TCq1    H214053   0.716   0.580  11.427 -0.9555  0.5513 -0.9581
    1TCq1    H314054   0.986   0.329  11.218 -0.2124  0.1077 -0.4474
    1TCq1    H414055   1.150   0.619  11.475 -1.3258 -1.7331  2.2016
    2MPD1     C14056   1.545   0.258  10.929  0.8490 -0.0103 -0.4753
    2MPD1    C114057   1.414   0.232  10.893  0.5236 -0.1792 -0.1037
    2MPD1    C214058   1.310   0.279  10.972  0.5677 -0.6660 -0.3448
    2MPD1    C314059   1.330   0.334  11.090  0.1890  0.4973  0.7144
    2MPD1    C414060   1.462   0.349  11.137 -0.1467 -0.2285  0.1923
    2MPD1    C514061   1.568   0.320  11.050  0.0475 -0.2108 -0.2936
    2MPD1     H14062   1.206   0.263  10.946  0.6839 -2.0335  0.0179
    2MPD1    H114063   1.488   0.399  11.229  0.3379  1.2249 -0.7210
    2MPD1    H214064   1.632   0.232  10.871  1.7523 -0.5386  1.1045
    2MPD1    H314065   1.671   0.327  11.085  0.7762 -1.9307 -2.0776
    2MPD1     N14066   1.212   0.385  11.162 -0.3049  0.0109  0.5283
    2MPD1    H514067   1.123   0.375  11.115 -0.6029 -0.9169  1.2845
    2MPD1    N114068   1.383   0.175  10.769  0.4484 -0.7712  0.0936
    2MPD1    H614069   1.453   0.110  10.734  0.3852 -0.3291 -0.8568
    2MPD1    H714070   1.292   0.131  10.760 -0.4896  0.8491  1.8033
    1TCq1    O114071   0.546   3.535   0.218  0.5073 -0.1835 -0.0805
    1TCq1    C114072   0.631   3.579   0.316 -0.2721  0.2717  0.6242
    1TCq1    O214073   0.628   3.695   0.365 -0.3219  0.0680  0.0091
    1TCq1    C214074   0.659   3.461   0.399  0.4526 -0.1432 -0.4714
    1TCq1    C314075   0.675   3.482   0.539  0.3868 -0.5641  0.3093
    1TCq1    C414076   0.695   3.380   0.622  0.1949 -0.2947 -0.0957
    1TCq1    C514077   0.730   3.255   0.572 -0.5235 -0.3227 -0.1357
    1TCq1    C614078   0.711   3.235   0.435  0.0099  0.8983  1.4844
    1TCq1    C714079   0.675   3.337   0.348  0.0555 -0.0771  0.2018
    1TCq1    C814080   0.769   3.115   0.371  0.1329 -0.5561 -0.2929
    1TCq1    O414081   0.794   3.126   0.253  0.1761 -0.2082 -0.4372
    1TCq1    C914082   0.745   3.418   0.753 -0.1022 -0.4678  0.3312
    1TCq1    O514083   0.729   3.539   0.797  0.2035  0.0365 -0.5925
    1TCq1    O614084   0.796   3.332   0.827 -0.1435 -0.6184 -0.4065
    1TCq1    H114085   0.540   3.439   0.198  0.5364  0.2008 -1.8817
    1TCq1    H214086   0.659   3.582   0.577  0.7073 -1.3382  2.4726
    1TCq1    H314087   0.764   3.170   0.629  2.5185  0.2785 -1.0449
    1TCq1    H414088   0.674   3.333   0.239  0.5504  0.4791  0.1776
    2MPD1     C14089   0.923   2.620   0.367 -0.0980 -0.3739  0.6783
    2MPD1    C114090   0.857   2.643   0.484  0.2880 -0.0084  0.3093
    2MPD1    C214091   0.800   2.769   0.513  0.0298 -0.1751  0.3439
    2MPD1    C314092   0.825   2.878   0.431 -0.1421  0.0950  0.6291
    2MPD1    C414093   0.906   2.854   0.321  0.2215 -0.7100  0.1283
    2MPD1    C514094   0.949   2.731   0.288 -0.3574  0.4275  1.2265
    2MPD1     H14095   0.743   2.778   0.605  0.3493  1.3752  0.3912
    2MPD1    H114096   0.920   2.936   0.251 -0.3161 -0.3424  0.4496
    2MPD1    H214097   0.968   2.528   0.331 -1.3387 -1.2614  1.3856
    2MPD1    H314098   0.988   2.713   0.189 -0.2382 -0.1682  1.3829
    2MPD1     N14099   0.764   3.004   0.453 -0.6575 -0.5333  0.5771
    2MPD1    H514100   0.712   3.017   0.540 -0.6493  0.3355  0.4581
    2MPD1    N114101   0.831   2.539   0.574  0.3499 -0.1158 -0.2662
    2MPD1    H614102   0.818   2.576   0.668 -2.5549 -2.6674  0.2987
    2MPD1    H714103   0.897   2.462   0.571  0.7058  0.0930  2.3857
    1MPD1     C14104   2.109   1.260  11.745 -0.0229 -0.0911  0.0046
    1MPD1    C114105   2.135   1.384  11.789  0.0742 -0.6888  0.2546
    1MPD1    C214106   2.269   1.404  11.827  0.1513 -0.6186 -0.0218
    1MPD1    C314107   2.368   1.309  11.831  0.1136  0.2132 -0.7697
    1MPD1    C414108   2.330   1.183  11.788  0.5170  0.1216  0.6822
    1MPD1    C514109   2.210   1.165  11.741  0.0364  0.4744  0.0560
    1MPD1     H14110   2.297   1.504  11.860  0.4174 -0.5283 -0.5273
    1MPD1    H114111   2.400   1.100  11.785 -1.1091 -1.1506 -1.7029
    1MPD1    H214112   2.011   1.242  11.703 -0.5213  1.1357  0.6435
    1MPD1    H314113   2.182   1.067  11.704 -1.4312  0.1472  1.9874
    1MPD1     N14114   2.497   1.331  11.885 -0.3489 -0.8564  0.7760
    1MPD1    H514115   2.510   1.421  11.929 -0.7238 -1.1216  1.4282
    1MPD1    N114116   2.040   1.485  11.781 -0.0395  0.7227  0.4840
    1MPD1    H614117   1.948   1.446  11.795  1.0399 -1.9040  0.1888
    1MPD1    H714118   2.063   1.558  11.848  1.1469 -1.4427  2.4176
    2MPD1     C14119   1.901   0.710  11.729 -0.0941  0.2649 -0.1073
    2MPD1    C114120   2.030   0.715  11.795 -0.6332  0.9312 -0.1863
    2MPD1    C214121   2.147   0.750  11.725  0.0243 -0.2852  0.7508
    2MPD1    C314122   2.138   0.767  11.589 -1.2589  0.1685 -0.1661
    2MPD1    C414123   2.015   0.767  11.523  0.1062  0.2941  0.2748
    2MPD1    C514124   1.901   0.740  11.593  0.2607 -0.1050 -0.2814
    2MPD1     H14125   2.241   0.754  11.778  1.4845  2.4441 -1.9949
    2MPD1    H114126   1.997   0.805  11.423  0.3388  0.1464  0.1766
    2MPD1    H214127   1.807   0.703  11.783 -0.0064 -0.3679 -0.0395
    2MPD1    H314128   1.805   0.750  11.543  0.0592  3.7967  0.8860
    2MPD1     N14129   2.250   0.795  11.503 -0.4720 -0.0120 -0.0344
    2MPD1    H514130   2.223   0.785  11.405  0.5971 -2.3803 -0.0802
    2MPD1    N114131   2.046   0.672  11.929  0.4959 -0.0793  0.2438
    2MPD1    H614132   1.965   0.689  11.988  0.1988 -0.1752 -0.1346
    2MPD1    H714133   2.130   0.720  11.962 -0.5229  2.0368 -0.2952
    3MPD1     C14134   2.337   0.695  10.608  0.1463  0.1419 -0.4410
    3MPD1    C114135   2.289   0.601  10.692 -0.1898 -0.3341  0.0406
    3MPD1    C214136   2.311   0.621  10.829  0.3009  0.0825  0.5829
    3MPD1    C314137   2.397   0.723  10.873 -0.1933  0.3372  0.0646
    3MPD1    C414138   2.464   0.798  10.786 -0.6547  0.3834  0.1060
    3MPD1    C514139   2.419   0.797  10.655 -0.3133  0.2365  0.0110
    3MPD1     H14140   2.261   0.549  10.892  1.1248  0.2337  1.4108
    3MPD1    H114141   2.542   0.870  10.808 -1.1379  0.8037  0.4397
    3MPD1    H214142   2.313   0.697  10.502 -0.0062  1.0380 -0.3873
    3MPD1    H314143   2.468   0.859  10.581 -0.5855  1.6096  0.9862
    3MPD1     N14144   2.424   0.730  11.005 -0.3130  1.1776 -0.2124
    3MPD1    H514145   2.381   0.652  11.055  1.1576  1.5406  1.6116
    3MPD1    N114146   2.195   0.513  10.646 -0.0985  0.6461  0.4047
    3MPD1    H614147   2.179   0.440  10.715 -0.3262  1.5698  1.3194
    3MPD1    H714148   2.215   0.471  10.555 -1.0117  2.4721 -0.6367
    4MPD2     C14149   3.149   1.692  11.886 -0.7241 -0.5207 -0.4371
    4MPD2    C114150   3.149   1.562  11.932 -0.2252  0.2299  0.3710
    4MPD2    C214151   3.248   1.471  11.897 -0.1919  1.1906  0.4165
    4MPD2    C314152   3.354   1.502  11.820 -0.2762 -0.4303  0.5756
    4MPD2    C414153   3.358   1.637  11.786  0.4412  0.0844 -0.4464
    4MPD2    C514154   3.262   1.733  11.818  0.4544  0.2641 -0.3556
    4MPD2     H14155   3.221   1.367  11.914 -0.0304  0.7636 -2.0036
    4MPD2    H114156   3.444   1.680  11.736  0.0923  1.7691  0.4040
    4MPD2    H214157   3.079   1.772  11.907 -2.1385 -1.5435 -1.2760
    4MPD2    H314158   3.286   1.836  11.795  0.6190  0.1596 -0.6509
    4MPD2     N14159   3.448   1.409  11.770 -0.4132 -0.4504 -0.1481
    4MPD2    H514160   3.499   1.445  11.690  0.9919 -0.8224  0.5856
    4MPD2    N114161   3.044   1.501  12.001 -0.2238  0.1509 -0.3421
    4MPD2    H714162   3.063   1.405  12.026 -0.0767  0.2928  0.0880
    5TMC3    C114163   2.834   1.459  12.068  0.2944 -0.4742  0.2497
    5TMC3    C214164   2.732   1.413  11.994 -0.5234 -0.5014  0.4036
    5TMC3    C314165   2.693   1.277  11.995  0.9411 -0.8557 -0.1206
    5TMC3    C414166   2.905   1.370  12.150 -0.3966  0.0438 -0.0729
    5TMC3    C514167   2.871   1.235  12.147  0.2828 -0.4119 -0.1963
    5TMC3    C614168   2.770   1.187  12.064 -0.3042  0.5152  0.3893
    5TMC3     C14169   2.916   1.555  12.009 -0.3337 -0.2112  0.3567
    5TMC3     O14170   2.872   1.651  11.945  0.1730  0.1965 -0.2794
    5TMC3     H14171   2.692   1.477  11.916 -1.0672  0.0394  1.1284
    5TMC3    H114172   2.985   1.410  12.211  0.3083 -0.3379 -0.7443
    5TMC3    H214173   2.752   1.082  12.043 -1.2691  0.5103  1.2686
    5TMC3    C714174   2.996   1.161  12.141  0.0669 -0.3882  0.0798
    5TMC3    C814175   2.586   1.229  11.912 -0.2933  0.5382  0.0507
    5TMC3    O114176   3.092   1.238  12.149  0.3013  0.6178 -0.4843
    5TMC3    O214177   2.594   1.113  11.873 -0.0190  0.1073  0.0919
    6TMC3    C114178   2.470   0.839  11.421 -0.6063 -0.8498 -0.2478
    6TMC3    C214179   2.429   0.811  11.294 -0.0404 -1.0071 -0.4701
    6TMC3    C314180   2.532   0.801  11.199  0.0155 -1.0447 -0.0779
    6TMC3    C414181   2.600   0.862  11.455 -0.0058  0.0091 -0.0626
    6TMC3    C514182   2.693   0.847  11.362  0.1402 -0.2849  0.8045
    6TMC3    C614183   2.661   0.827  11.229 -0.7983 -0.3636 -0.4294
    6TMC3     C14184   2.380   0.831  11.531 -0.4285 -0.3645 -0.3010
    6TMC3     O14185   2.427   0.852  11.642 -0.4677 -0.9725  0.0433
    6TMC3     H14186   2.325   0.806  11.265 -0.0992  1.6789 -0.7560
    6TMC3    H114187   2.639   0.894  11.551 -0.6896 -4.2552  1.6219
    6TMC3    H214188   2.741   0.809  11.159 -0.0952  0.3849  0.1698
    6TMC3    C714189   2.829   0.854  11.385 -0.3035  0.7734  0.9778
    6TMC3    C814190   2.505   0.826  11.067 -0.1174 -0.5571 -0.0101
    6TMC3    O114191   2.862   0.939  11.460  0.2098  0.7202  0.6240
    6TMC3    O214192   2.556   0.928  11.018 -0.1506 -0.2049  0.0544
    7MPD2     C14193   3.283   0.765  12.003 -0.5823  0.4675  0.3321
    7MPD2    C114194   3.311   0.898  11.998 -0.1409  0.2084 -0.3739
    7MPD2    C214195   3.215   0.993  12.033 -0.1320  0.0043  0.0799
    7MPD2    C314196   3.095   0.948  12.075  0.1508 -0.0252 -0.3852
    7MPD2    C414197   3.073   0.810  12.081 -0.5667 -0.1857  0.4993
    7MPD2    C514198   3.160   0.725  12.035 -0.7075 -0.5020  0.2342
    7MPD2     H14199   3.229   1.098  12.010  0.2295 -0.2490 -0.8668
    7MPD2    H114200   2.972   0.775  12.102 -1.1782  0.7253 -0.8622
    7MPD2    H214201   3.360   0.698  11.967  0.3202  1.4400  0.4474
    7MPD2    H314202   3.134   0.620  12.026 -2.4013 -0.1249  0.8137
    7MPD2     N14203   2.983   1.028  12.110  0.1005  0.4400  1.0774
    7MPD2    H514204   2.897   0.976  12.125 -0.0326  0.2191 -0.4218
    7MPD2    N114205   3.424   0.945  11.931  0.1321  0.5760 -0.0392
    7MPD2    H714206   3.429   1.046  11.916  3.6707  0.3125 -0.5943
    8TMC3    C114207   3.579   0.965  11.751 -0.3204 -0.1350 -0.5460
    8TMC3    C214208   3.525   0.946  11.625 -0.5156  0.5787 -0.6303
    8TMC3    C314209   3.471   1.060  11.556  0.2492  0.7125 -0.6241
    8TMC3    C414210   3.594   1.092  11.799 -0.3799 -0.3345 -0.1754
    8TMC3    C514211   3.531   1.196  11.737  0.1000  0.1074  0.4141
    8TMC3    C614212   3.473   1.185  11.614 -0.2230  0.1400 -0.2956
    8TMC3     C14213   3.516   0.879  11.854 -0.9057  1.0264  0.5111
    8TMC3     O14214   3.514   0.762  11.837 -0.3081 -0.1577 -0.0586
    8TMC3     H14215   3.499   0.846  11.593  0.2316  0.3137 -0.4175
    8TMC3    H114216   3.640   1.104  11.897 -1.5484  0.3342  0.2937
    8TMC3    H214217   3.418   1.269  11.574 -0.5900 -1.1586 -2.5082
    8TMC3    C714218   3.456   1.283  11.825 -0.4525  0.2014 -0.3644
    8TMC3    C814219   3.349   1.027  11.478  0.3581  0.3454  0.4876
    8TMC3    O114220   3.407   1.231  11.921 -0.0411  0.2262 -0.4031
    8TMC3    O214221   3.254   1.102  11.494 -0.0172 -0.2081  0.0150
    9MPD2     C14222   3.312   0.739  11.265 -0.4712 -0.5604 -0.5689
    9MPD2    C114223   3.263   0.839  11.346 -0.0732  0.0175  0.8823
    9MPD2    C214224   3.127   0.849  11.371  0.2048  0.0838  0.5677
    9MPD2    C314225   3.041   0.751  11.317  0.4165  0.1710  0.1358
    9MPD2    C414226   3.091   0.659  11.228 -0.3364 -0.3659  0.1158
    9MPD2    C514227   3.227   0.644  11.207  0.5228  0.0968  1.6557
    9MPD2     H14228   3.095   0.923  11.443 -0.7824 -0.1468  0.3604
    9MPD2    H114229   3.030   0.578  11.190 -2.9046  1.4978  0.2744
    9MPD2    H214230   3.419   0.727  11.256 -0.2509 -0.2437  1.4868
    9MPD2    H314231   3.272   0.568  11.144 -0.5288 -0.0340  1.0452
    9MPD2     N14232   2.898   0.745  11.334 -0.3602 -0.5344 -0.0635
    9MPD2    H514233   2.863   0.673  11.272  0.1788 -1.7544  1.0623
    9MPD2    N114234   3.366   0.914  11.405  0.2990  0.1962 -0.0474
    9MPD2    H714235   3.459   0.874  11.394 -0.0815 -0.6172 -0.2769
    1MPD1     C14236   3.239   0.243  16.647  0.1815  0.9076  0.0529
    1MPD1    C114237   3.253   0.133  16.725  0.3996 -0.6361  0.2297
    1MPD1    C214238   3.182   0.122  16.845 -0.2837 -0.4329 -0.5671
    1MPD1    C314239   3.092   0.220  16.891 -0.5757 -0.1037  0.8249
    1MPD1    C414240   3.086   0.332  16.811 -0.1355 -0.2495  0.0352
    1MPD1    C514241   3.155   0.343  16.688  0.3163  0.5293 -0.0424
    1MPD1     H14242   3.201   0.028  16.896  0.6472 -0.0748 -0.2498
    1MPD1    H114243   3.028   0.414  16.853 -2.4472 -1.3241 -1.0282
    1MPD1    H214244   3.301   0.256  16.560  1.6368 -1.8625  0.6698
    1MPD1    H314245   3.132   0.434  16.633 -0.9697 -0.1016 -0.5670
    1MPD1     N14246   3.014   0.213  17.009  0.2841  0.6640  0.2970
    1MPD1    H514247   2.953   0.292  17.026  1.5251  1.2209  2.2030
    1MPD1    N114248   3.332   0.019  16.686 -0.5695 -0.3273 -0.4650
    1MPD1    H614249   3.368   4.691  16.765 -0.8554  0.3008  0.0735
    1MPD1    H714250   3.408   0.033  16.620  1.5180  1.4363  2.3139
    2MPD1     C14251   2.053   0.160  17.197  0.0547 -0.1722 -0.7223
    2MPD1    C114252   2.111   0.078  17.288 -0.4636  0.0194 -0.4989
    2MPD1    C214253   2.246   0.094  17.319 -0.1916 -0.4002  0.0816
    2MPD1    C314254   2.328   0.175  17.255 -0.0695  0.0778  0.1404
    2MPD1    C414255   2.274   0.249  17.148 -0.2751 -1.0196  0.0374
    2MPD1    C514256   2.137   0.242  17.129  0.5104 -0.2717  0.1365
    2MPD1     H14257   2.295   0.034  17.394 -0.3911  1.3849  1.6273
    2MPD1    H114258   2.338   0.316  17.091  0.3166 -2.0522 -0.4934
    2MPD1    H214259   1.946   0.163  17.186 -0.1395  0.2371  1.3194
    2MPD1    H314260   2.100   0.313  17.057  0.3117 -1.9801 -1.4469
    2MPD1     N14261   2.466   0.183  17.284 -0.6043  0.1033  0.6168
    2MPD1    H514262   2.481   0.125  17.365 -0.4394  0.2719  0.7064
    2MPD1    N114263   2.031   4.701  17.344  0.5329  0.6205  0.1326
    2MPD1    H614264   1.954   0.017  17.398 -0.5096 -1.3620  0.1210
    2MPD1    H714265   2.093   4.647  17.403  1.1835  0.6818 -0.5064
    3TCq2    C114266   2.568   0.253  17.211 -0.4391  0.0219 -1.0148
    3TCq2    O214267   2.558   0.298  17.093  0.2079 -0.6653 -0.4408
    3TCq2    C214268   2.695   0.214  17.254  0.1882  0.3829 -0.0994
    3TCq2    C314269   2.725   0.179  17.388  0.5570  0.2421 -0.0074
    3TCq2    C414270   2.834   0.108  17.418  0.6924  0.4527  0.6903
    3TCq2    C514271   2.914   0.068  17.318  0.4659  0.9907 -0.4463
    3TCq2    C614272   2.901   0.117  17.194  0.7627  0.0349 -0.6204
    3TCq2    C714273   2.788   0.188  17.156 -0.2242 -0.1697 -0.1865
    3TCq2    C814274   3.003   0.106  17.094  0.9160 -0.3685  0.1272
    3TCq2    O414275   3.075   0.006  17.095 -0.3044 -0.6925 -0.0807
    3TCq2    C914276   2.853   0.069  17.557  1.1739 -0.2454  0.2634
    3TCq2    O514277   2.753   0.086  17.634 -0.3673  0.2337  0.1795
    3TCq2    O614278   2.946   4.708  17.575  0.3885  0.3055  0.9853
    3TCq2    H214279   2.653   0.203  17.465  0.7666 -0.6190  0.4600
    3TCq2    H314280   2.997   0.002  17.342 -1.5346 -1.1946  0.4580
    3TCq2    H414281   2.761   0.216  17.055  3.1558 -1.1217 -1.3494
    1TCq1    O114282   4.712   3.418  12.772 -0.3511  0.1067 -0.6315
    1TCq1    C114283   4.663   3.520  12.703 -0.2047  0.0790 -0.3278
    1TCq1    O214284   4.623   3.522  12.583 -0.0472 -0.0346  0.1774
    1TCq1    C214285   0.005   3.634  12.761 -0.4356 -0.0057 -0.7609
    1TCq1    C314286   4.670   3.691  12.869  0.4614  0.1905 -0.4372
    1TCq1    C414287   0.021   3.771  12.947  0.4360  0.1076  1.1170
    1TCq1    C514288   0.152   3.801  12.919  0.1136 -0.0465 -0.2533
    1TCq1    C614289   0.209   3.727  12.821  0.0489 -0.1234 -0.0334
    1TCq1    C714290   0.138   3.643  12.737  0.4901  0.0374  0.2955
    1TCq1    C814291   0.342   3.761  12.763 -0.1648 -0.5060  0.4758
    1TCq1    O414292   0.341   3.778  12.640 -0.3602  0.4373  0.2768
    1TCq1    C914293   4.681   3.830  13.058  0.1578  0.7047 -0.0387
    1TCq1    O514294   0.034   3.890  13.144  0.0337 -0.2459 -0.1292
    1TCq1    O614295   4.575   3.764  13.092 -0.2116 -0.4240  0.7957
    1TCq1    H114296   0.040   3.443  12.852 -1.0075 -3.6190  0.9375
    1TCq1    H214297   4.570   3.666  12.903  0.2694  1.4671 -0.0682
    1TCq1    H314298   0.205   3.878  12.974 -0.4178 -1.5925  2.4255
    1TCq1    H414299   0.197   3.576  12.676  1.1608  1.0307 -0.1379
    2MPD2     C14300   0.600   3.891  12.716  0.1781  0.7256 -0.4767
    2MPD2    C114301   0.550   3.864  12.844  0.0666  0.4056 -0.5059
    2MPD2    C214302   0.623   3.888  12.958 -0.8048 -0.0409 -0.3030
    2MPD2    C314303   0.745   3.949  12.946 -0.2548 -0.6380  0.6308
    2MPD2    C414304   0.792   3.990  12.820  0.2404  0.6738 -0.3764
    2MPD2    C514305   0.724   3.954  12.708 -0.1812 -0.7988  0.2847
    2MPD2     H14306   0.584   3.856  13.054 -0.9075 -0.6649 -0.5545
    2MPD2    H114307   0.887   4.036  12.798  1.8584 -1.9339  1.1171
    2MPD2    H214308   0.550   3.869  12.622 -0.7224  0.7036  0.0027
    2MPD2    H314309   0.763   3.978  12.610 -3.7721  1.5177 -0.5890
    2MPD2     N14310   0.808   3.999  13.064  0.3910  0.2907 -0.8349
    2MPD2    H514311   0.759   3.984  13.152  1.2851 -0.9997 -0.5627
    2MPD2    N114312   0.420   3.809  12.860  1.0422 -0.6072 -0.2054
    2MPD2    H714313   0.375   3.811  12.952  2.0808 -0.7644  0.3051
    3TCq1    O114314   0.863   4.321  13.589  0.3025 -0.2247  0.2058
    3TCq1    C114315   0.798   4.265  13.491  0.2106 -0.3403 -0.0351
    3TCq1    O214316   0.706   4.320  13.437 -0.9004 -0.2392  0.5556
    3TCq1    C214317   0.896   4.188  13.413  0.1728 -0.2204  0.4000
    3TCq1    C314318   1.022   4.179  13.464  0.1322 -0.1208 -0.0611
    3TCq1    C414319   1.115   4.112  13.393  1.0500  0.3183 -0.4998
    3TCq1    C514320   1.087   4.080  13.264  0.4665  0.0167  0.1316
    3TCq1    C614321   0.958   4.092  13.217 -0.1148  0.9744  0.0260
    3TCq1    C714322   0.858   4.144  13.294  0.4839 -0.1491  0.2777
    3TCq1    C814323   0.929   4.059  13.077 -0.3273 -0.0875  0.2520
    3TCq1    O414324   1.022   4.059  12.994  0.0982  0.4197  0.2429
    3TCq1    C914325   1.248   4.091  13.445 -0.1244 -0.2701 -0.1039
    3TCq1    O514326   1.284   4.161  13.539  0.0608 -0.0209  0.2363
    3TCq1    O614327   1.311   3.998  13.390 -0.1760  0.0554 -0.2137
    3TCq1    H114328   0.924   4.267  13.645  2.7827  0.0887 -2.1545
    3TCq1    H214329   1.063   4.215  13.558 -1.0704 -1.5908  1.0400
    3TCq1    H314330   1.152   4.021  13.201  2.6674  1.6518  0.8679
    3TCq1    H414331   0.752   4.149  13.270  0.5845 -0.7200 -0.2841
    1MPD2     C14332   0.551   0.336  14.284  0.6799 -0.3405  0.1069
    1MPD2    C114333   0.445   0.248  14.297 -0.0544  0.4920  0.7442
    1MPD2    C214334   0.467   0.125  14.366 -0.4036 -0.5747  0.6079
    1MPD2    C314335   0.593   0.086  14.399  0.1790 -0.3679  0.3917
    1MPD2    C414336   0.699   0.171  14.375  0.9131  0.3446  0.0939
    1MPD2    C514337   0.680   0.294  14.322  1.0706 -0.3997  0.4052
    1MPD2     H14338   0.390   0.052  14.389  0.2745 -1.4346  0.1027
    1MPD2    H114339   0.798   0.139  14.405  1.7481  3.1940  0.3893
    1MPD2    H214340   0.522   0.431  14.240 -0.1062  0.0831  1.5574
    1MPD2    H314341   0.769   0.354  14.312 -0.6816  1.4662 -4.0672
    1MPD2     N14342   0.602   4.688  14.470  0.5003 -0.1057 -0.1167
    1MPD2    H514343   0.507   4.654  14.484  0.1875  1.1756  0.8836
    1MPD2    N114344   0.318   0.290  14.252  0.1931 -0.3340  0.0707
    1MPD2    H714345   0.308   0.378  14.203 -1.1961  0.4992  1.8495
    2TMC3    C114346   0.078   0.290  14.260  0.8070  0.8010 -0.5001
    2TMC3    C214347   4.689   0.208  14.246  0.2790  0.5040  1.0830
    2TMC3    C314348   4.582   0.230  14.319  0.3677 -0.6081  0.2498
    2TMC3    C414349   0.069   0.410  14.327  0.0158  0.1793 -0.7382
    2TMC3    C514350   4.675   0.435  14.390 -0.7588 -0.7114 -0.0735
    2TMC3    C614351   4.572   0.346  14.386 -0.0044 -0.2217 -0.2209
    2TMC3     C14352   0.199   0.214  14.264  0.6113  0.0551  0.5684
    2TMC3     O14353   0.186   0.098  14.304 -0.7158  0.0463  0.0386
    2TMC3     H14354   4.696   0.105  14.214  0.0015  1.0676 -0.7738
    2TMC3    H114355   0.157   0.473  14.333  0.1046 -0.1493  1.5094
    2TMC3    H214356   4.493   0.360  14.459  0.5796  0.6321  0.2489
    2TMC3    C714357   4.653   0.560  14.459  0.9751  0.5459  0.0118
    2TMC3    C814358   4.541   0.122  14.408  0.6578  0.0931  0.6771
    2TMC3    O114359   4.535   0.588  14.475  0.1332 -0.3162  0.3249
    2TMC3    O214360   4.422   0.123  14.445 -0.0400  0.1182 -0.2265
    3TCq1    O114361   0.694   0.625  15.264  0.2232 -0.2791 -0.0368
    3TCq1    C114362   0.645   0.614  15.137  0.1352  0.3402 -0.5803
    3TCq1    O214363   0.618   0.509  15.084  0.0015 -0.2830  0.1159
    3TCq1    C214364   0.627   0.749  15.087  0.0903  0.2949 -0.3076
    3TCq1    C314365   0.723   0.844  15.120  0.3952  0.5184 -0.4152
    3TCq1    C414366   0.721   0.959  15.046 -0.9353  0.4544  0.5733
    3TCq1    C514367   0.630   0.980  14.942  0.1331 -0.0822  0.3078
    3TCq1    C614368   0.547   0.879  14.911  0.9508 -0.3604 -0.9291
    3TCq1    C714369   0.544   0.766  14.983 -0.5231  0.0756 -0.7160
    3TCq1    C814370   0.408   0.920  14.868  0.0895 -0.2495 -0.2992
    3TCq1    O414371   0.369   1.036  14.870 -0.3312  0.2029 -1.2379
    3TCq1    C914372   0.823   1.060  15.068  0.2962 -0.6927 -0.3958
    3TCq1    O514373   0.832   1.145  14.974 -0.0596 -0.7517 -0.2710
    3TCq1    O614374   0.910   1.035  15.157  0.2380  0.2364 -0.7227
    3TCq1    H114375   0.658   0.704  15.310  0.2846  0.4594 -1.2634
    3TCq1    H214376   0.800   0.825  15.193  0.2367 -0.2654 -0.4552
    3TCq1    H314377   0.637   1.074  14.888 -2.4831 -0.5729 -0.8981
    3TCq1    H414378   0.476   0.683  14.971 -0.1685 -0.1423 -1.2271
    4MPD2     C14379   0.123   0.903  14.778  0.2340 -0.4023  0.2646
    4MPD2    C114380   0.226   0.812  14.744  0.4400  0.9298 -0.3489
    4MPD2    C214381   0.190   0.715  14.653  0.2375 -0.4665 -0.2389
    4MPD2    C314382   0.070   0.709  14.593  0.4340  0.0099 -0.4230
    4MPD2    C414383   4.701   0.813  14.609 -0.6753  1.2193  0.2338
    4MPD2    C514384   0.005   0.907  14.705  1.0302  0.1590 -0.0595
    4MPD2     H14385   0.256   0.633  14.624  0.3324 -0.0646 -1.1342
    4MPD2    H114386   4.602   0.803  14.565 -0.2439  1.4844 -0.7991
    4MPD2    H214387   0.138   0.975  14.858 -1.1379 -0.1676  0.3055
    4MPD2    H314388   4.650   0.978  14.725 -0.3670 -1.1974 -0.8210
    4MPD2     N14389   0.047   0.599  14.509  0.2025 -0.3193 -0.2699
    4MPD2    H514390   0.121   0.529  14.507 -0.6885 -1.2719  0.1595
    4MPD2    N114391   0.351   0.807  14.807  0.1271 -0.9593  0.2341
    4MPD2    H714392   0.409   0.724  14.795  2.0795  0.4739 -0.1821
    5TMC2    C114393   0.441   4.493  14.721 -0.9559 -0.8588  0.2322
    5TMC2    C214394   0.465   4.559  14.840  0.3963  0.1707  0.0993
    5TMC2    C314395   0.590   4.603  14.868  0.0141  0.1678 -0.1155
    5TMC2    C414396   0.532   4.488  14.626  1.0537 -0.6675 -0.9219
    5TMC2    C514397   0.655   4.552  14.652  0.0818 -0.0450  0.2148
    5TMC2    C614398   0.683   4.608  14.773 -0.3412 -0.4642 -0.1024
    5TMC2     C14399   0.317   4.536  14.654 -0.1526 -0.0788  0.2793
    5TMC2     O14400   0.333   4.574  14.537  0.0952  0.0506  0.2073
    5TMC2     H14401   0.387   4.570  14.914  2.3695  0.5788  2.1011
    5TMC2    H114402   0.521   4.427  14.537  1.8257 -0.9313 -0.8403
    5TMC2    H214403   0.770   4.669  14.790 -1.3317  1.3464 -1.4724
    5TMC2    C714404   0.707   4.636  14.545  0.0582  0.4167  0.3612
    5TMC2    C814405   0.592   4.710  14.962  0.0594 -0.4126  0.4057
    5TMC2    O114406   0.821   4.676  14.550  0.0746 -0.1351  0.2241
    5TMC2    O214407   0.586   0.105  14.928 -0.0931  0.1681 -0.2210
    5TMC2    O514408   0.552   4.657  15.086  0.1966  0.0702 -0.3903
    5TMC2    H514409   0.568   4.561  15.101  0.4633  0.1213 -0.3545
    6MPD2     C14410   4.545   4.651  14.644  0.1267  0.1111  0.5750
    6MPD2    C114411   4.650   4.685  14.557 -0.6024 -0.5148  0.5269
    6MPD2    C214412   0.050   4.635  14.576 -0.5826 -0.4140  0.5912
    6MPD2    C314413   0.076   4.555  14.689 -0.8299  0.3052  1.2004
    6MPD2    C414414   4.697   4.516  14.773  0.7269  0.7459  0.0822
    6MPD2    C514415   4.565   4.570  14.752 -0.3664 -0.0370  0.7333
    6MPD2     H14416   0.134   4.670  14.517 -1.2951 -2.1034 -1.4217
    6MPD2    H114417   4.709   4.464  14.868  0.5421  0.7396  0.1020
    6MPD2    H214418   4.445   4.692  14.635 -0.1816 -0.9339 -0.7324
    6MPD2    H314419   4.482   4.559  14.820 -1.6847 -0.6930 -0.9717
    6MPD2     N14420   0.205   4.517  14.732 -0.3247 -0.6855  0.4753
    6MPD2    H514421   0.211   4.452  14.809  1.5070 -1.9577 -0.7348
    6MPD2    N114422   4.648   0.052  14.447  0.1399 -0.3638  0.1258
    6MPD2    H714423   0.012   0.070  14.399  1.0821  1.2602  2.4840
  945NH4     N114424   1.205   1.293   7.493 -0.1340 -0.4133 -0.2689
  945NH4     H214425   1.263   1.314   7.410 -3.8257 -2.7091 -3.4307
  945NH4     H314426   1.105   1.294   7.465 -0.4250  0.1048  0.7623
  945NH4     H414427   1.214   1.364   7.568 -0.6102 -0.2659 -0.3518
  945NH4     H514428   1.233   1.198   7.526 -0.8031 -0.1378  1.0991
  946SOD     NA14429   3.147   1.465   1.661 -0.4823 -0.4643  0.0117
  947SOD     NA14430   1.576   3.026  17.479 -0.0123  0.2260 -0.4819
  948SOD     NA14431   0.055   4.197   9.597  0.4744  0.2418  0.2794
  949SOD     NA14432   1.730   2.220  16.047  0.1226 -0.0176 -0.0514
  950SOD     NA14433   4.621   3.573   1.971 -0.0410  0.6575  0.0315
  951SOD     NA14434   0.609   3.053  10.145  0.0064  0.0912 -0.0665
  952SOD     NA14435   0.364   2.900   9.909 -0.6635 -0.4258  0.0580
  953SOD     NA14436   1.101   3.217  10.023 -0.3286  0.0110 -0.0019
  954SOD     NA14437   0.507   4.539   0.553 -0.0163  0.3196 -0.1508
  955SOD     NA14438   4.644   1.657  16.357 -0.6811 -0.2922  0.0606
  956SOD     NA14439   2.068   2.890  12.587  0.1399  0.4615  0.0440
  957SOD     NA14440   2.825   4.646   0.063 -0.1724 -0.4295 -0.3773
  958SOD     NA14441   4.464   3.014  14.355 -0.0744  0.3027  0.4853
  959SOD     NA14442   1.777   3.032   8.532 -0.1882 -0.0417 -0.2682
  960SOD     NA14443   0.770   4.534  11.881  0.7553  0.0337  0.5387
  961SOD     NA14444   3.567   0.233   4.620  0.9951 -0.3849  0.0655
  962SOD     NA14445   3.924   1.926   1.383 -0.1701 -0.2364  0.0448
  963SOD     NA14446   3.162   2.343   0.836  0.0281  0.0104 -0.3203
  964SOD     NA14447   4.105   2.428   8.535  0.0028  0.7943 -0.2573
  965SOD     NA14448   4.576   3.650   7.292  0.2267 -0.2597 -0.2760
  966SOD     NA14449   2.889   3.805  17.682  0.5810 -0.6142 -0.0624
  967SOD     NA14450   4.442   3.731   2.435  0.0015 -0.0432 -0.2803
  968SOD     NA14451   0.300   1.199   0.667  0.6444 -0.2226  0.3911
  969SOD     NA14452   3.727   2.997  13.150 -0.0430 -0.1270 -0.0002
  970SOD     NA14453   0.472   3.823   9.495  0.4203  0.5512  0.4439
  971SOD     NA14454   0.552   3.970   2.194  0.8418 -0.2179 -0.2146
  972SOD     NA14455   4.002   2.528  13.758 -0.3891 -0.0794  0.1873
  973SOD     NA14456   4.062   3.065  10.712  0.2888 -0.3119  0.3615
  974SOD     NA14457   2.423   3.911  10.282  0.3219  0.1965  0.0724
  975SOD     NA14458   1.206   3.357  12.340 -0.1057 -0.2614 -0.5230
  976SOD     NA14459   3.100   2.973  12.607  0.6204  0.3604  0.3889
  977SOD     NA14460   1.496   4.051  13.503  0.5401  0.3296  0.2307
  978SOD     NA14461   1.314   2.980   4.256 -0.0827 -0.4367  0.8845
  979SOD     NA14462   0.459   3.467   9.799 -0.5682  0.4128 -0.1465
  980SOD     NA14463   3.190   1.321  13.806  0.1287  0.2275 -0.5851
  981SOD     NA14464   4.616   3.936   9.624 -0.0830 -0.0027 -0.2106
  982SOD     NA14465   3.695   3.903   0.678  0.4174 -0.1373 -0.2961
  983SOD     NA14466   3.227   2.461   9.676 -0.0510  0.2877  0.3826
  984SOD     NA14467   0.974   1.860   1.565 -0.1459 -0.2320 -0.2730
  985SOD     NA14468   0.407   0.461  11.281  0.1182 -0.5619 -0.2526
  986SOD     NA14469   3.194   1.524  11.325  0.1353 -0.1564 -0.3147
  987SOD     NA14470   1.613   0.301  16.336 -0.0550 -0.0573 -0.4173
  988SOD     NA14471   2.103   1.286  14.069  0.0685 -0.0574 -0.2908
  989SOD     NA14472   3.135   1.205  10.338  0.0200 -0.2332  0.5792
  990SOD     NA14473   0.396   2.244  11.271 -0.2231  0.1546 -0.1090
  991SOD     NA14474   1.832   3.743  13.984 -0.2278  0.3482 -0.1830
  992SOD     NA14475   1.837   4.389  15.519 -0.0165  0.0143  0.1989
  993SOD     NA14476   1.290   1.112  16.755  0.4866 -0.1542  0.5168
  994SOD     NA14477   3.710   4.455  13.281 -0.7348  0.5875 -0.5525
  995SOD     NA14478   2.559   2.536   2.070 -0.1779  0.4633  0.0947
  996SOD     NA14479   0.009   4.351  13.271 -0.3771  0.0455  0.1899
  997SOD     NA14480   3.021   0.982   6.169  0.1667 -0.0246 -0.0769
  998SOD     NA14481   1.875   4.217  14.382  0.2867  0.2203 -0.1306
  999SOD     NA14482   1.394   0.799  11.661 -0.0960 -0.4241  0.0517
 1000SOD     NA14483   3.156   0.218  13.727 -0.4321 -0.1062 -0.1796
 1001SOD     NA14484   1.568   1.337  14.058  0.5986 -0.3512 -0.2381
 1002SOD     NA14485   1.402   3.047  11.623 -0.0399  0.2740 -0.0873
 1003SOD     NA14486   0.281   0.468   6.476 -0.1511  0.6882 -0.9530
 1004SOD     NA14487   2.706   0.024  15.139 -0.1021 -0.1229  0.1708
 1005SOD     NA14488   4.285   0.162  14.841 -0.4207 -0.0224 -0.0641
 1006SOD     NA14489   1.263   3.455  12.676  0.7204  0.1910  0.0430
 1007SOD     NA14490   1.702   0.793  14.934  0.3966 -0.7477  0.1371
 1008SOD     NA14491   3.244   1.343   1.019  0.0321  0.2857  0.4202
 1009SOD     NA14492   0.956   3.791  11.526  0.2968  0.4107 -0.1401
 1010SOD     NA14493   1.029   1.275   0.188 -0.0243 -0.5360  0.4195
 1011SOL     OW14494   4.571   2.102   1.968  0.2900  0.4319 -0.0406
 1011SOL    HW114495   4.507   2.053   1.916 -1.2248  1.7962  0.5080
 1011SOL    HW214496   4.617   2.155   1.903  1.4013 -0.9387 -0.3560
 1012SOL     OW14497   3.942   2.072   8.675  0.2220 -0.6652 -0.9218
 1012SOL    HW114498   4.027   2.046   8.640  0.9332  0.4722 -0.0378
 1012SOL    HW214499   3.941   2.041   8.765 -1.0589  0.5627 -0.5078
 1013SOL     OW14500   0.858   2.578   3.274  0.2829 -0.7645 -0.3179
 1013SOL    HW114501   0.834   2.522   3.201 -0.5710 -0.2803 -0.4009
 1013SOL    HW214502   0.810   2.538   3.347  1.0754  0.8538  1.0778
 1014SOL     OW14503   1.949   4.488   1.780 -0.2282  0.0784 -0.1736
 1014SOL    HW114504   2.034   4.509   1.818 -1.2628  0.6176  1.8565
 1014SOL    HW214505   1.933   4.578   1.751  0.3599  0.0789 -0.4770
 1015SOL     OW14506   1.529   1.740   7.412 -0.7086  0.1598  0.0205
 1015SOL    HW114507   1.485   1.747   7.327  0.3278  1.4584 -0.4144
 1015SOL    HW214508   1.618   1.773   7.396  0.4063 -2.2921  1.2018
 1016SOL     OW14509   1.760   4.696   1.296 -0.3681 -0.2449  0.0990
 1016SOL    HW114510   1.741   4.627   1.359 -0.8008  0.3219  0.5992
 1016SOL    HW214511   1.672   0.003   1.272  0.1442  1.1567 -0.0302
 1017SOL     OW14512   2.400   1.285   7.756  0.1259  0.2640 -0.4212
 1017SOL    HW114513   2.486   1.323   7.742  0.7100 -0.1696  2.0078
 1017SOL    HW214514   2.398   1.279   7.851  1.0160 -0.3555 -0.4489
 1018SOL     OW14515   4.251   3.723   2.568  0.3233  0.2052  0.3633
 1018SOL    HW114516   4.156   3.716   2.567  0.4261 -1.4073  1.6796
 1018SOL    HW214517   4.252   3.808   2.613  0.8787  0.6566 -0.5176
 1019SOL     OW14518   3.001   0.500   1.175 -0.2558 -0.1727  0.0151
 1019SOL    HW114519   3.026   0.583   1.216 -1.0079  0.0451  0.0462
 1019SOL    HW214520   2.922   0.472   1.222 -0.0240  1.6339  1.5030
 1020SOL     OW14521   3.152   0.394  16.002  0.8631 -0.2044  0.2577
 1020SOL    HW114522   3.107   0.441  15.932  1.6800  0.8842  0.4782
 1020SOL    HW214523   3.129   0.305  15.973  1.6126 -0.0249 -0.8601
 1021SOL     OW14524   1.175   0.540   3.003  0.2006  0.5449  0.2692
 1021SOL    HW114525   1.202   0.498   2.921  1.7753  2.0750 -0.0088
 1021SOL    HW214526   1.122   0.471   3.043 -1.1734  0.8302 -1.0407
 1022SOL     OW14527   1.197   2.071   6.326  0.0662  0.1917  0.1606
 1022SOL    HW114528   1.135   2.072   6.253 -1.4845 -2.7124  1.4546
 1022SOL    HW214529   1.271   2.023   6.290  1.2991  3.4523 -1.6210
 1023SOL     OW14530   4.315   4.343   1.970  0.2223  0.2534  0.3618
 1023SOL    HW114531   4.379   4.381   2.031  1.0620 -0.5918 -0.0098
 1023SOL    HW214532   4.370   4.314   1.898  1.0443 -0.7670  1.3979
 1024SOL     OW14533   0.491   3.804  14.411  0.0963 -0.1089  0.1080
 1024SOL    HW114534   0.447   3.856  14.344  0.9343 -0.2808 -0.5689
 1024SOL    HW214535   0.464   3.719  14.375 -0.8054  1.4794 -2.9552
 1025SOL     OW14536   0.369   3.255   3.786 -0.0307 -0.6525  0.0604
 1025SOL    HW114537   0.414   3.326   3.740  1.5034 -2.0990 -0.6763
 1025SOL    HW214538   0.276   3.267   3.768  0.1696 -0.0960 -0.5948
 1026SOL     OW14539   3.303   4.496   2.249 -0.6671 -0.2060  0.2328
 1026SOL    HW114540   3.322   4.540   2.166  0.4943 -0.5812  0.3050
 1026SOL    HW214541   3.317   4.403   2.234 -3.1130 -0.4314 -0.7422
 1027SOL     OW14542   1.353   3.919   6.810 -0.0647 -0.2818  0.2374
 1027SOL    HW114543   1.417   3.931   6.740 -0.7620 -0.1421 -0.3838
 1027SOL    HW214544   1.363   3.996   6.867  1.8584 -0.5490  0.2433
 1028SOL     OW14545   2.432   2.017   2.454  0.0444 -0.2200 -0.3584
 1028SOL    HW114546   2.377   1.939   2.462 -1.7984  1.0761 -0.3215
 1028SOL    HW214547   2.425   2.043   2.362 -3.7361 -1.2979 -0.4059
 1029SOL     OW14548   4.046   1.311   2.740  0.2739 -0.2059  0.0504
 1029SOL    HW114549   4.111   1.306   2.669  0.1841 -0.2206 -0.0308
 1029SOL    HW214550   4.030   1.217   2.753 -0.0568 -0.1009  0.3724
 1030SOL     OW14551   0.401   2.706   6.630 -0.1449 -0.1130  0.2922
 1030SOL    HW114552   0.321   2.655   6.626  0.2281 -0.8370  1.8622
 1030SOL    HW214553   0.442   2.694   6.716 -1.2803 -0.6402  0.7565
 1031SOL     OW14554   3.366   2.940   3.133  0.0184  0.3990 -0.4130
 1031SOL    HW114555   3.354   3.017   3.188  0.3225  0.1160  0.0495
 1031SOL    HW214556   3.337   2.957   3.043 -0.2139 -2.5631 -0.8897
 1032SOL     OW14557   0.461   0.784   1.277 -0.2155  0.2452  0.0240
 1032SOL    HW114558   0.460   0.741   1.362  0.0106  0.8659  0.3468
 1032SOL    HW214559   0.417   0.725   1.217  0.1597 -1.2210  1.2085
 1033SOL     OW14560   1.501   1.564   4.165 -0.7252 -0.0073 -0.5750
 1033SOL    HW114561   1.575   1.624   4.177 -0.3318 -0.9551  1.7850
 1033SOL    HW214562   1.533   1.497   4.225 -2.0141  1.2835  1.5948
 1034SOL     OW14563   1.126   3.084   4.160 -0.0156  0.3191  0.2904
 1034SOL    HW114564   1.053   3.072   4.222 -1.5671  5.3068 -0.6185
 1034SOL    HW214565   1.126   3.177   4.138  1.0367  0.3382  0.4094
 1035SOL     OW14566   3.375   4.084   4.859 -0.1000  0.0322 -0.6443
 1035SOL    HW114567   3.347   4.017   4.796 -2.1639 -0.0311  0.3366
 1035SOL    HW214568   3.436   4.036   4.915 -0.0438  1.2607  0.3529
 1036SOL     OW14569   3.632   4.661  15.420 -0.0451 -0.4776 -0.1673
 1036SOL    HW114570   3.686   4.595  15.377  3.8588  1.3575  1.8833
 1036SOL    HW214571   3.552   4.614  15.439  0.4854 -1.5287 -0.5319
 1037SOL     OW14572   3.355   1.339  13.619  0.1681  0.0678  0.1279
 1037SOL    HW114573   3.429   1.365  13.673 -0.2243 -0.1747  0.7812
 1037SOL    HW214574   3.357   1.387  13.535  0.6274  0.2482  0.2448
 1038SOL     OW14575   2.405   3.602   2.901 -0.5426 -0.5160  0.7878
 1038SOL    HW114576   2.333   3.638   2.850 -0.7931 -1.9495  0.1145
 1038SOL    HW214577   2.375   3.514   2.925  1.3560 -1.1425  0.8964
 1039SOL     OW14578   3.411   1.741   3.380 -0.1889 -0.5029 -0.5956
 1039SOL    HW114579   3.461   1.728   3.299  0.0820 -3.3967  0.0455
 1039SOL    HW214580   3.478   1.710   3.441  0.8825  0.6995 -1.1549
 1040SOL     OW14581   1.526   1.509   9.208  0.9840 -0.3795 -0.5471
 1040SOL    HW114582   1.555   1.577   9.147  1.2147 -0.1898 -0.2283
 1040SOL    HW214583   1.459   1.462   9.158  0.5394  0.7673 -1.0343
 1041SOL     OW14584   1.602   4.551  11.202 -0.1381  0.3897  0.1818
 1041SOL    HW114585   1.572   4.641  11.209 -2.3586 -0.3626  0.3333
 1041SOL    HW214586   1.563   4.522  11.284 -1.4643  0.1664 -0.5320
 1042SOL     OW14587   2.480   4.371   7.607 -0.3195 -0.5063 -0.4156
 1042SOL    HW114588   2.459   4.278   7.617  1.1133 -0.8062 -0.1921
 1042SOL    HW214589   2.413   4.406   7.667  2.7086  3.3959  0.6621
 1043SOL     OW14590   2.344   4.180   1.973 -1.0273 -0.0755  0.1707
 1043SOL    HW114591   2.396   4.215   2.045 -1.4586 -1.4409  1.1531
 1043SOL    HW214592   2.371   4.088   1.965  0.8057  0.5723 -1.1214
 1044SOL     OW14593   3.758   3.525  10.570  0.1228  0.1213 -0.3325
 1044SOL    HW114594   3.780   3.510  10.662  0.8867  0.8176 -0.4016
 1044SOL    HW214595   3.745   3.435  10.541  0.2292  0.7499 -2.3357
 1045SOL     OW14596   1.224   4.623   9.999 -0.1331 -0.0610 -0.1138
 1045SOL    HW114597   1.271   4.546   9.968  3.0622  0.2544  3.9513
 1045SOL    HW214598   1.153   4.624   9.935  0.3689  0.5732 -0.6455
 1046SOL     OW14599   2.182   1.694   5.282 -0.0318 -0.3769  0.6688
 1046SOL    HW114600   2.275   1.716   5.285 -0.5891  1.8311  1.8072
 1046SOL    HW214601   2.163   1.678   5.374 -2.1341 -1.4074  0.0573
 1047SOL     OW14602   1.228   0.134   2.713 -0.1698 -0.2997 -0.1938
 1047SOL    HW114603   1.284   0.210   2.697 -0.7729 -0.0511 -1.0882
 1047SOL    HW214604   1.273   0.059   2.675  0.2365 -0.2769  0.2443
 1048SOL     OW14605   4.229   4.502  14.906 -0.1462 -0.0610  0.5850
 1048SOL    HW114606   4.166   4.508  14.977  0.8634  0.7465  1.4131
 1048SOL    HW214607   4.288   4.443  14.952 -1.6486 -1.6002  0.5123
 1049SOL     OW14608   2.596   3.095   3.236  0.7050 -0.1435 -0.3432
 1049SOL    HW114609   2.519   3.046   3.265 -0.3631  1.9917  0.3601
 1049SOL    HW214610   2.667   3.042   3.274  0.8220  1.5532  1.7681
 1050SOL     OW14611   2.709   0.311   5.257 -0.0094  0.2097 -1.1541
 1050SOL    HW114612   2.787   0.327   5.310  0.5531 -0.5726 -1.7440
 1050SOL    HW214613   2.681   0.228   5.295 -1.3044  1.8416  1.4130
 1051SOL     OW14614   1.721   2.120   9.938  0.3476  0.8601  0.2419
 1051SOL    HW114615   1.720   2.053  10.006  0.8089 -0.4322 -1.0148
 1051SOL    HW214616   1.725   2.067   9.858  2.1725  0.8738  0.3347
 1052SOL     OW14617   2.496   1.183   5.748  0.4726 -0.2709 -0.2969
 1052SOL    HW114618   2.418   1.208   5.697  0.1824  4.2304  2.3036
 1052SOL    HW214619   2.562   1.228   5.694  0.6771 -0.3931 -0.1441
 1053SOL     OW14620   1.151   2.029  17.033  0.5896  0.4263  0.4283
 1053SOL    HW114621   1.208   2.075  16.972 -0.2975 -0.2534 -0.8995
 1053SOL    HW214622   1.214   1.980  17.086  1.5554  2.5631  1.2583
 1054SOL     OW14623   0.745   1.560   6.570 -0.0915  0.0348  0.1536
 1054SOL    HW114624   0.820   1.620   6.567 -1.5382  1.8316 -0.0331
 1054SOL    HW214625   0.779   1.481   6.611 -1.1197 -0.2947  0.3611
 1055SOL     OW14626   4.325   4.407   8.849  0.5290 -0.1948 -0.1553
 1055SOL    HW114627   4.358   4.320   8.871  1.2702  0.0442 -0.3189
 1055SOL    HW214628   4.262   4.378   8.783 -0.2083 -1.3086  1.0231
 1056SOL     OW14629   0.565   4.656   8.674 -0.1734 -0.7037 -0.2470
 1056SOL    HW114630   0.547   4.566   8.701 -1.7745 -0.5778 -0.8663
 1056SOL    HW214631   0.478   4.692   8.654 -0.4393 -0.6385  1.0289
 1057SOL     OW14632   2.515   2.885  15.120  0.6624 -0.7738 -0.2064
 1057SOL    HW114633   2.472   2.962  15.082 -1.2130 -2.3973 -1.3453
 1057SOL    HW214634   2.538   2.915  15.208 -2.7316  1.2861 -0.0346
 1058SOL     OW14635   4.390   3.139  15.680  0.3932 -0.0202  0.2398
 1058SOL    HW114636   4.389   3.054  15.723 -2.1261  0.5002  1.2279
 1058SOL    HW214637   4.478   3.155  15.647 -0.6304  1.4672 -1.7523
 1059SOL     OW14638   1.426   4.049   2.863  0.1157  0.0224 -0.4651
 1059SOL    HW114639   1.403   3.961   2.834 -0.0126 -0.2249  0.3831
 1059SOL    HW214640   1.396   4.101   2.788 -2.1704  0.3134  0.6556
 1060SOL     OW14641   2.731   4.719   8.914  0.1649  1.0199 -0.6009
 1060SOL    HW114642   2.658   4.660   8.893  1.1366  0.2973 -1.8746
 1060SOL    HW214643   2.750   4.672   8.996 -0.4692  0.9928 -0.4605
 1061SOL     OW14644   3.328   1.596   1.714 -0.7938 -0.3582  0.0047
 1061SOL    HW114645   3.380   1.547   1.650 -1.4122 -0.8260 -0.1392
 1061SOL    HW214646   3.380   1.578   1.793 -1.5335  0.2036  0.6195
 1062SOL     OW14647   4.673   0.858   5.951 -1.0114 -0.2424 -0.1491
 1062SOL    HW114648   4.606   0.920   5.979  0.5381  1.7979 -1.0387
 1062SOL    HW214649   4.624   0.776   5.959 -0.8410 -0.5454 -2.2465
 1063SOL     OW14650   1.516   0.597   6.410  0.1433  0.0249  0.2980
 1063SOL    HW114651   1.528   0.643   6.327 -0.7314 -0.0943  0.1028
 1063SOL    HW214652   1.435   0.548   6.394  0.6916 -1.2671  1.4564
 1064SOL     OW14653   0.274   2.460   7.707  0.0971  0.1792  0.0462
 1064SOL    HW114654   0.336   2.533   7.700  1.2116 -0.6167  1.4733
 1064SOL    HW214655   0.286   2.422   7.795  2.0977  2.0208  0.5629
 1065SOL     OW14656   3.534   1.119   0.806  0.3596  0.4845  0.5148
 1065SOL    HW114657   3.496   1.065   0.875 -3.3457  1.4276 -0.7623
 1065SOL    HW214658   3.471   1.191   0.817  1.4253  1.5785 -0.4295
 1066SOL     OW14659   1.354   1.120   3.115 -0.7919 -0.7474  0.0164
 1066SOL    HW114660   1.434   1.099   3.068 -0.6394 -0.3659  0.1068
 1066SOL    HW214661   1.284   1.085   3.059 -1.9292  2.0148 -0.2870
 1067SOL     OW14662   1.388   3.652  10.732 -0.0121  0.2271  0.1128
 1067SOL    HW114663   1.479   3.681  10.738  0.2977 -0.5815 -0.7371
 1067SOL    HW214664   1.342   3.735  10.742 -0.1406  0.2358 -0.5652
 1068SOL     OW14665   2.393   4.327   4.718 -0.1962  0.1319  0.7110
 1068SOL    HW114666   2.433   4.260   4.663  0.4860  1.6097 -0.5882
 1068SOL    HW214667   2.423   4.298   4.804 -1.0708 -0.2023  0.9079
 1069SOL     OW14668   3.875   0.447   6.691  0.1486  0.1137 -0.1106
 1069SOL    HW114669   3.928   0.369   6.677 -0.1627 -0.2632  0.8168
 1069SOL    HW214670   3.840   0.425   6.778 -0.3438 -1.1447 -0.6302
 1070SOL     OW14671   1.851   3.554  12.594 -0.1559  0.3194 -0.5247
 1070SOL    HW114672   1.869   3.638  12.636  0.0735  0.1566 -0.2991
 1070SOL    HW214673   1.918   3.495  12.629 -0.5207 -0.0620 -0.4674
 1071SOL     OW14674   4.231   1.260   4.696  0.5119  0.9725  0.6367
 1071SOL    HW114675   4.272   1.334   4.650 -0.4838  0.9829 -0.2185
 1071SOL    HW214676   4.168   1.310   4.748  1.0473 -1.0619  3.2329
 1072SOL     OW14677   3.800   0.772   4.484  0.6590 -0.1753 -0.0469
 1072SOL    HW114678   3.842   0.707   4.541  1.2174  0.7999  0.6503
 1072SOL    HW214679   3.871   0.835   4.477  0.2367  0.1348 -1.5282
 1073SOL     OW14680   2.712   1.520   2.178  0.3734 -0.5089 -0.1097
 1073SOL    HW114681   2.693   1.453   2.243  1.8215 -0.0770  0.7546
 1073SOL    HW214682   2.707   1.476   2.093 -0.2515 -1.1170  0.2437
 1074SOL     OW14683   4.219   1.988   6.983  0.3354 -0.3149 -0.3421
 1074SOL    HW114684   4.181   1.914   6.935 -2.5225 -0.6337  2.4102
 1074SOL    HW214685   4.152   2.015   7.046 -1.3643  0.5598 -2.4828
 1075SOL     OW14686   2.391   2.073  15.509 -0.3285 -0.0480  0.5473
 1075SOL    HW114687   2.445   2.151  15.491 -0.6594 -0.3547 -1.8117
 1075SOL    HW214688   2.409   2.011  15.438 -0.6844  0.2885  0.1653
 1076SOL     OW14689   2.062   2.095   7.898  0.0395 -0.1771 -0.2748
 1076SOL    HW114690   2.113   2.169   7.932 -1.2463  0.2121  0.7959
 1076SOL    HW214691   2.131   2.049   7.849  0.5548 -0.5475  0.7805
 1077SOL     OW14692   3.874   0.430  12.405  0.0194 -0.1331 -0.4748
 1077SOL    HW114693   3.834   0.436  12.318  0.6934  2.3976 -0.5812
 1077SOL    HW214694   3.797   0.457  12.454  1.4070  0.4183  1.4204
 1078SOL     OW14695   4.286   3.893  11.135  0.0657 -0.0810 -0.5682
 1078SOL    HW114696   4.354   3.960  11.130  0.5589 -0.3658  2.5179
 1078SOL    HW214697   4.222   3.939  11.082 -1.7055  0.2194  1.8338
 1079SOL     OW14698   3.059   1.786   0.949  0.2187 -0.3773  0.4591
 1079SOL    HW114699   3.105   1.755   1.028  2.9858 -0.4478 -1.1766
 1079SOL    HW214700   2.982   1.730   0.947  0.2351 -0.3680 -0.3520
 1080SOL     OW14701   0.884   2.547  15.499 -0.4088  0.0862  0.5574
 1080SOL    HW114702   0.802   2.497  15.495 -0.4529  0.2012  0.0693
 1080SOL    HW214703   0.889   2.556  15.594  2.2658  0.9457  0.3300
 1081SOL     OW14704   1.865   4.015  11.913 -0.0150 -0.2242 -0.0011
 1081SOL    HW114705   1.878   3.939  11.856 -0.6906 -0.0629 -0.3686
 1081SOL    HW214706   1.925   4.082  11.882  2.1864 -1.2053  2.1479
 1082SOL     OW14707   2.570   3.452   9.678 -0.0536  0.7067 -0.1752
 1082SOL    HW114708   2.616   3.379   9.635 -0.5280 -0.1776  0.8092
 1082SOL    HW214709   2.517   3.493   9.610 -0.7821 -0.8745 -0.5532
 1083SOL     OW14710   3.313   3.256   3.032 -0.0957 -0.5513 -0.1102
 1083SOL    HW114711   3.306   3.234   2.939  0.7268 -0.5085 -0.1866
 1083SOL    HW214712   3.408   3.245   3.031 -0.1036 -0.5098 -0.9656
 1084SOL     OW14713   1.848   3.642  10.878  0.1360 -0.0311 -0.2657
 1084SOL    HW114714   1.908   3.618  10.949 -0.4590  1.0019  0.5819
 1084SOL    HW214715   1.863   3.566  10.821 -0.0985  0.5136 -1.0496
 1085SOL     OW14716   4.095   3.915   6.689 -0.3061  0.2419  0.1952
 1085SOL    HW114717   4.133   3.899   6.776 -3.0197 -1.1303  1.1211
 1085SOL    HW214718   4.069   3.825   6.670  0.0605  0.2149 -0.1798
 1086SOL     OW14719   0.809   4.075   9.715  0.1777  0.1682  0.3473
 1086SOL    HW114720   0.878   4.115   9.768 -1.0788  2.1856  0.4813
 1086SOL    HW214721   0.791   4.149   9.658  0.8571 -1.2827 -1.7324
 1087SOL     OW14722   3.147   1.028   2.111 -0.3865  0.1295  0.1707
 1087SOL    HW114723   3.231   1.022   2.067 -1.0344  1.8005 -1.3267
 1087SOL    HW214724   3.153   0.963   2.180 -1.7334 -0.3136 -0.1331
 1088SOL     OW14725   0.375   2.529  13.174 -0.2786  0.9589 -0.4336
 1088SOL    HW114726   0.339   2.460  13.230  1.0668  1.5278  1.1208
 1088SOL    HW214727   0.466   2.527  13.204 -0.5642  3.6096  0.5738
 1089SOL     OW14728   2.545   0.312   7.052  0.0990 -0.0508 -0.5280
 1089SOL    HW114729   2.617   0.360   7.011 -0.3369  0.5666 -0.5702
 1089SOL    HW214730   2.573   0.321   7.143  0.4857  0.7318 -0.7300
 1090SOL     OW14731   3.542   0.986  12.472 -0.2802  0.5453 -0.2854
 1090SOL    HW114732   3.560   1.072  12.435  1.2781 -0.1339 -1.0897
 1090SOL    HW214733   3.462   0.961  12.424 -1.8471 -0.8442  2.9971
 1091SOL     OW14734   4.503   0.067  15.138  0.5753  0.1393 -0.3253
 1091SOL    HW114735   4.589   0.096  15.170 -0.2010  2.2198 -0.1100
 1091SOL    HW214736   4.505   0.086  15.044  1.0422 -1.5756 -0.6537
 1092SOL     OW14737   0.421   2.868  14.871  0.5896 -0.6447  0.1971
 1092SOL    HW114738   0.383   2.780  14.879 -0.3347 -0.3896 -1.2411
 1092SOL    HW214739   0.483   2.870  14.798  0.5362  2.5697  0.2717
 1093SOL     OW14740   2.485   3.663   5.187  0.1932 -0.1535  0.2839
 1093SOL    HW114741   2.490   3.707   5.102 -0.4801 -1.4237 -0.4166
 1093SOL    HW214742   2.394   3.635   5.194  0.3956 -0.6437  0.9448
 1094SOL     OW14743   2.262   0.939  16.365  0.6941 -0.1125 -0.0819
 1094SOL    HW114744   2.327   1.007  16.381  0.5410 -0.1379  0.6656
 1094SOL    HW214745   2.291   0.861  16.412  1.1619  0.4463  0.5533
 1095SOL     OW14746   0.470   2.724  10.441 -0.1301  0.5412 -0.4021
 1095SOL    HW114747   0.555   2.759  10.413  0.0876  1.2156  1.0852
 1095SOL    HW214748   0.495   2.661  10.508 -1.3054 -0.0514 -0.5289
 1096SOL     OW14749   4.622   0.822   8.486 -0.3449 -0.2024 -0.0945
 1096SOL    HW114750   4.571   0.775   8.552  0.1768 -1.9795 -0.9580
 1096SOL    HW214751   4.612   0.910   8.522  1.4383 -0.3781  0.8664
 1097SOL     OW14752   4.158   1.196   8.871 -0.0286  0.0753 -0.4340
 1097SOL    HW114753   4.185   1.147   8.793 -0.3505  0.2500 -0.6569
 1097SOL    HW214754   4.083   1.141   8.894 -1.1731  2.0008  0.4403
 1098SOL     OW14755   4.004   0.054   2.415  0.2881  0.1369 -0.0281
 1098SOL    HW114756   3.986   0.148   2.416  1.4593  0.3695 -1.3042
 1098SOL    HW214757   3.957   0.025   2.493  1.0968 -2.0279 -0.3341
 1099SOL     OW14758   0.157   3.790   7.729  0.3238  0.3823  0.4262
 1099SOL    HW114759   0.157   3.868   7.785  1.0845  0.6749  0.0236
 1099SOL    HW214760   0.131   3.721   7.790 -0.1632  0.9298  0.8351
 1100SOL     OW14761   1.539   3.579   9.398 -0.5451  0.0255  0.2513
 1100SOL    HW114762   1.502   3.610   9.481  2.9423  0.8491  1.4917
 1100SOL    HW214763   1.624   3.622   9.389 -0.9935  0.9788  0.5690
 1101SOL     OW14764   0.017   0.002  16.458  0.5471  0.6218  0.7158
 1101SOL    HW114765   0.107   0.013  16.488  1.2844  1.8697 -1.9408
 1101SOL    HW214766   0.033   4.713  16.365 -2.0713  1.1746  0.1832
 1102SOL     OW14767   1.225   0.143   4.752  0.0656 -0.2303 -0.1232
 1102SOL    HW114768   1.302   0.181   4.709  1.8541 -1.7799  1.7351
 1102SOL    HW214769   1.191   0.219   4.800  2.3402 -0.5411  1.9728
 1103SOL     OW14770   1.660   1.486   1.898 -0.0749 -0.0685 -0.1119
 1103SOL    HW114771   1.696   1.419   1.839  1.4491 -0.4393  1.2451
 1103SOL    HW214772   1.570   1.496   1.867 -0.3386 -1.5119  0.1657
 1104SOL     OW14773   0.640   1.532   3.167 -0.0306 -0.2095 -0.0111
 1104SOL    HW114774   0.591   1.475   3.226  1.3048  0.1193  1.4206
 1104SOL    HW214775   0.608   1.522   3.078 -1.5813  0.3684  0.4767
 1105SOL     OW14776   1.397   2.281  15.743  0.5583  0.0520 -0.0952
 1105SOL    HW114777   1.449   2.214  15.699  0.3490 -0.3511  0.2750
 1105SOL    HW214778   1.329   2.295  15.676 -0.5109 -0.5656  0.8556
 1106SOL     OW14779   4.138   0.123   9.015  0.0653 -0.0404  0.1905
 1106SOL    HW114780   4.112   0.186   9.082 -0.7925  1.0554 -1.1826
 1106SOL    HW214781   4.060   0.128   8.961  0.3392  1.5484 -0.0606
 1107SOL     OW14782   1.290   3.296  17.369 -0.2069  0.0965  0.7766
 1107SOL    HW114783   1.305   3.204  17.392  1.8385 -0.1134 -1.3839
 1107SOL    HW214784   1.223   3.324  17.431  0.2075  0.3775  1.0960
 1108SOL     OW14785   1.947   1.024   4.101 -0.5649 -0.8615  0.6232
 1108SOL    HW114786   1.915   1.048   4.014  0.9599  0.1906  0.3727
 1108SOL    HW214787   1.985   0.938   4.082 -0.0864 -0.3932 -0.5172
 1109SOL     OW14788   1.780   1.123   7.524  0.3476 -0.1219 -0.2411
 1109SOL    HW114789   1.812   1.053   7.581 -0.7366 -0.1292  0.3677
 1109SOL    HW214790   1.813   1.085   7.443 -0.7525  0.7176 -1.0852
 1110SOL     OW14791   2.370   3.495   6.548  0.4074  0.7576  0.2668
 1110SOL    HW114792   2.420   3.457   6.621 -0.1872  1.8015  1.2297
 1110SOL    HW214793   2.302   3.429   6.535  3.9638 -2.2757 -2.8110
 1111SOL     OW14794   1.048   4.121   9.542 -0.3876 -0.3626  0.4755
 1111SOL    HW114795   0.993   4.186   9.500 -0.8859 -0.7818  0.4783
 1111SOL    HW214796   0.983   4.051   9.551 -1.9224  1.5192  3.9272
 1112SOL     OW14797   0.856   2.913   7.036  0.2580  0.1803  0.3947
 1112SOL    HW114798   0.899   2.947   7.114  0.1160 -0.9881  0.9853
 1112SOL    HW214799   0.820   2.830   7.067  1.6345  0.7218  3.4684
 1113SOL     OW14800   3.393   0.869  13.124 -0.0091  0.2785 -0.3522
 1113SOL    HW114801   3.464   0.842  13.182 -2.1160  0.0178  2.1284
 1113SOL    HW214802   3.329   0.878  13.194  2.1512 -1.9910  1.8950
 1114SOL     OW14803   0.002   1.285   2.549 -0.8397  0.0345 -0.1428
 1114SOL    HW114804   4.635   1.264   2.572 -0.7863  0.1655  0.1837
 1114SOL    HW214805   0.032   1.324   2.631 -1.4199 -0.4314  0.2933
 1115SOL     OW14806   1.032   0.279   1.106 -0.0260  0.3436  0.1761
 1115SOL    HW114807   1.063   0.232   1.029  0.2561 -0.4344  0.7612
 1115SOL    HW214808   0.996   0.361   1.074  2.4411  1.0382 -0.7852
 1116SOL     OW14809   4.494   3.255  14.026 -0.6348 -0.3397 -0.0046
 1116SOL    HW114810   4.564   3.256  14.092 -2.4819 -1.3943  1.9578
 1116SOL    HW214811   4.422   3.247  14.088  0.0600 -2.4555  0.5234
 1117SOL     OW14812   1.474   1.612   2.814  0.2425 -0.3629 -0.0944
 1117SOL    HW114813   1.530   1.537   2.791  2.3202  1.0796  0.2409
 1117SOL    HW214814   1.481   1.672   2.741 -0.3533  1.4811  1.3752
 1118SOL     OW14815   2.837   1.406   5.050  0.2553  0.9064  0.2263
 1118SOL    HW114816   2.846   1.319   5.011  0.9501  0.4063  1.5195
 1118SOL    HW214817   2.865   1.464   4.979  0.2893  1.2373  0.5074
 1119SOL     OW14818   0.474   3.431   5.392 -0.5253 -0.0331 -0.2771
 1119SOL    HW114819   0.472   3.477   5.308  2.1220  0.7018  0.0379
 1119SOL    HW214820   0.399   3.463   5.443 -0.7031  0.7538 -1.0290
 1120SOL     OW14821   3.790   2.450  12.874 -0.0148  0.4994 -0.3160
 1120SOL    HW114822   3.854   2.379  12.867  0.3951  1.1600 -3.1579
 1120SOL    HW214823   3.799   2.496  12.791 -2.5086  1.3097 -0.1214
 1121SOL     OW14824   0.969   1.944   4.051  0.6380 -0.3067 -0.5587
 1121SOL    HW114825   0.897   1.940   3.987 -0.3720  0.2155  0.5304
 1121SOL    HW214826   0.994   1.853   4.063  0.3184 -0.1228  1.4110
 1122SOL     OW14827   3.458   0.951   6.666  0.0044  0.3158  0.2712
 1122SOL    HW114828   3.369   0.953   6.701  0.1224  2.1358  0.4310
 1122SOL    HW214829   3.502   0.982   6.745  1.6923 -4.0084  1.0235
 1123SOL     OW14830   0.626   3.203   2.461  0.3978  0.5679  0.2250
 1123SOL    HW114831   0.663   3.233   2.378 -0.9809  1.0695 -0.2084
 1123SOL    HW214832   0.656   3.112   2.468  0.7021  0.6085 -0.5958
 1124SOL     OW14833   1.229   3.705   6.740  0.0098  0.2891 -0.0498
 1124SOL    HW114834   1.293   3.635   6.750 -1.5374 -0.8094  2.3425
 1124SOL    HW214835   1.283   3.783   6.750 -0.5861  0.8569 -1.3060
 1125SOL     OW14836   0.357   2.024   5.359  0.1559 -0.0391  0.0362
 1125SOL    HW114837   0.345   2.001   5.451 -0.2217 -0.5629 -0.1432
 1125SOL    HW214838   0.292   1.976   5.307 -1.7481  1.6102  0.8998
 1126SOL     OW14839   0.049   1.458   3.249 -0.0536 -0.3351 -0.5501
 1126SOL    HW114840   0.077   1.374   3.213  0.8792 -0.4136  0.3641
 1126SOL    HW214841   0.129   1.510   3.236 -1.1117  1.0271 -1.5736
 1127SOL     OW14842   3.779   4.481  14.239 -0.6200  0.4776  0.8535
 1127SOL    HW114843   3.770   4.388  14.258  1.1739 -0.1206 -1.2706
 1127SOL    HW214844   3.790   4.514  14.328  4.7094  0.7581  0.0912
 1128SOL     OW14845   2.077   1.650   3.320  0.0412 -0.1229  0.6060
 1128SOL    HW114846   2.155   1.600   3.296 -1.4485 -1.4851 -1.4384
 1128SOL    HW214847   2.037   1.692   3.244 -2.2549  0.1406  1.9748
 1129SOL     OW14848   1.105   2.369   7.422 -0.0715 -0.2680  0.9114
 1129SOL    HW114849   1.158   2.329   7.490  4.3431  0.2998 -2.2070
 1129SOL    HW214850   1.173   2.411   7.369 -1.9367  0.6187 -0.7631
 1130SOL     OW14851   0.936   2.136   4.778 -0.3591 -0.2560  0.2629
 1130SOL    HW114852   0.949   2.179   4.862 -1.5646  0.8230 -0.0999
 1130SOL    HW214853   1.029   2.116   4.764 -0.6812 -1.9265  0.5712
 1131SOL     OW14854   2.473   4.203  11.359 -0.5272  0.3078  0.3276
 1131SOL    HW114855   2.494   4.296  11.345 -2.2701  0.1563 -3.2833
 1131SOL    HW214856   2.426   4.186  11.277  0.5505  0.7336 -0.3790
 1132SOL     OW14857   0.583   2.385  11.534 -0.3133 -0.1028 -0.2727
 1132SOL    HW114858   0.588   2.320  11.463 -1.1084 -0.9896  0.4972
 1132SOL    HW214859   0.543   2.455  11.482  0.1403  0.7638  0.5659
 1133SOL     OW14860   1.253   2.934   7.018 -0.3868 -0.0034 -0.4952
 1133SOL    HW114861   1.177   2.978   7.057 -1.0171 -0.5521 -1.1027
 1133SOL    HW214862   1.273   3.003   6.955 -0.1772 -0.7328 -1.2387
 1134SOL     OW14863   3.737   0.822   2.978  0.5463 -0.6531 -0.5717
 1134SOL    HW114864   3.831   0.828   2.959  0.1270  2.7676 -1.5991
 1134SOL    HW214865   3.729   0.738   3.023 -1.3399 -1.0639 -1.6887
 1135SOL     OW14866   3.159   3.457   3.896  0.7954 -0.2942 -0.6924
 1135SOL    HW114867   3.150   3.537   3.948  1.3411 -0.4373 -0.3783
 1135SOL    HW214868   3.254   3.458   3.885  0.6758  1.1685 -1.5774
 1136SOL     OW14869   2.635   1.635   4.343  0.6942  0.0629  0.2753
 1136SOL    HW114870   2.710   1.695   4.338  0.1455  0.7823  0.5836
 1136SOL    HW214871   2.565   1.700   4.333  1.3002  0.3966 -1.9802
 1137SOL     OW14872   4.294   4.608   3.971  1.3171 -0.5247 -0.4880
 1137SOL    HW114873   4.306   4.687   3.919  3.6712 -0.5265  0.0293
 1137SOL    HW214874   4.293   4.639   4.061 -0.0956  0.2525 -0.7765
 1138SOL     OW14875   4.717   1.245   2.187  0.3397  0.2863  0.1281
 1138SOL    HW114876   4.701   1.285   2.101 -1.0011 -3.1036 -1.2220
 1138SOL    HW214877   4.629   1.222   2.219  0.3535 -0.4047 -0.3201
 1139SOL     OW14878   3.701   0.897   8.882  0.1057 -0.4349 -0.5276
 1139SOL    HW114879   3.639   0.926   8.949 -0.0218 -0.0000 -0.8415
 1139SOL    HW214880   3.637   0.864   8.819 -2.3729  1.8975  0.8096
 1140SOL     OW14881   3.835   3.074   8.189 -0.4607 -0.4212  0.2690
 1140SOL    HW114882   3.898   3.055   8.119 -0.1789 -0.6365  0.5782
 1140SOL    HW214883   3.764   3.117   8.142 -0.9965 -0.4771  1.0279
 1141SOL     OW14884   0.418   4.416   8.754  0.6095 -0.8059 -0.1831
 1141SOL    HW114885   0.363   4.343   8.723 -0.3872 -1.0325  2.0723
 1141SOL    HW214886   0.394   4.414   8.847 -0.7315  2.0401 -0.4723
 1142SOL     OW14887   1.346   1.937   8.891  0.2199  0.0985 -0.1472
 1142SOL    HW114888   1.313   1.869   8.832  0.9403  1.2580 -1.8932
 1142SOL    HW214889   1.271   1.960   8.946  0.7881 -1.4093  1.2627
 1143SOL     OW14890   2.725   4.265   8.522 -0.2989  0.3646 -0.3193
 1143SOL    HW114891   2.630   4.255   8.525 -0.2801 -0.3306 -2.2606
 1143SOL    HW214892   2.730   4.359   8.505 -1.8063  0.7149  1.2149
 1144SOL     OW14893   1.605   4.288   7.084  0.0851 -0.0438 -0.2319
 1144SOL    HW114894   1.680   4.231   7.098 -2.2414 -3.0466 -0.1755
 1144SOL    HW214895   1.611   4.359   7.148  1.4466 -1.0103  0.6967
 1145SOL     OW14896   1.957   2.461   4.166 -0.1043 -0.1694  0.2244
 1145SOL    HW114897   1.982   2.453   4.074  0.4697  1.0751  0.2730
 1145SOL    HW214898   2.038   2.501   4.196  1.6666 -3.2313 -0.5171
 1146SOL     OW14899   3.473   0.772   4.671  0.0992  0.0997  0.1501
 1146SOL    HW114900   3.434   0.686   4.686 -1.5965  0.6321 -1.3149
 1146SOL    HW214901   3.413   0.816   4.611 -0.1257 -0.4567 -0.0313
 1147SOL     OW14902   0.497   3.495   7.576  0.0664  0.3624  0.5462
 1147SOL    HW114903   0.414   3.510   7.530  0.4231 -3.0641 -1.2137
 1147SOL    HW214904   0.557   3.546   7.522 -0.8887  1.1584  0.2128
 1148SOL     OW14905   3.194   0.842   2.630  0.5261  0.1264 -0.2151
 1148SOL    HW114906   3.205   0.933   2.656  1.3214  0.0023 -0.1177
 1148SOL    HW214907   3.158   0.870   2.546  0.9015  1.0491 -0.0605
 1149SOL     OW14908   2.001   2.859   2.388 -0.1549 -0.6789 -0.7278
 1149SOL    HW114909   1.982   2.770   2.417 -0.1081 -0.3949  0.1684
 1149SOL    HW214910   2.090   2.870   2.420  0.0948 -0.3701 -1.5283
 1150SOL     OW14911   3.745   0.896  14.028  0.1364 -0.2814  0.2259
 1150SOL    HW114912   3.745   0.876  13.934 -3.2677 -0.9406  0.3573
 1150SOL    HW214913   3.837   0.923  14.024 -0.1060  0.6512  1.2306
 1151SOL     OW14914   0.179   1.842   7.794  0.7049  0.1947 -0.1368
 1151SOL    HW114915   0.084   1.843   7.806  0.7276  0.7761  0.0074
 1151SOL    HW214916   0.194   1.775   7.861  2.6088  1.1855  0.4535
 1152SOL     OW14917   3.721   1.796   8.187  0.5382 -0.2736 -0.2478
 1152SOL    HW114918   3.764   1.713   8.206  0.2586  0.0001  1.5958
 1152SOL    HW214919   3.698   1.822   8.276 -0.7221 -1.4513 -0.2159
 1153SOL     OW14920   3.312   4.598  17.102 -0.0298  0.0376 -0.6420
 1153SOL    HW114921   3.335   4.590  17.194 -2.8690 -1.9731 -0.1026
 1153SOL    HW214922   3.223   4.633  17.113 -0.1685 -0.5591  0.1326
 1154SOL     OW14923   3.081   3.877   3.060  0.7815  0.3344 -0.0183
 1154SOL    HW114924   3.055   3.809   3.123 -2.1613  0.2091 -1.3314
 1154SOL    HW214925   3.048   3.837   2.980  2.4627  0.1231 -0.6053
 1155SOL     OW14926   0.668   3.981   1.430  0.5651 -0.7376  0.1669
 1155SOL    HW114927   0.608   3.991   1.356  0.4484 -1.2020  0.2004
 1155SOL    HW214928   0.748   3.964   1.381  1.1560 -1.2599  1.3210
 1156SOL     OW14929   3.160   1.403  10.464 -0.1599  0.0918 -0.3878
 1156SOL    HW114930   3.230   1.465  10.485  1.7664 -2.8826  1.8673
 1156SOL    HW214931   3.141   1.371  10.552 -0.5327 -0.1577 -0.5583
 1157SOL     OW14932   0.696   2.097   2.343  0.1790 -0.3751  0.1300
 1157SOL    HW114933   0.773   2.040   2.339  1.2574  1.0451  0.5385
 1157SOL    HW214934   0.726   2.178   2.301 -1.4046  0.3194  0.3615
 1158SOL     OW14935   2.623   1.027   5.218 -0.1283 -0.0371  0.4096
 1158SOL    HW114936   2.699   1.077   5.249 -0.5610  1.1096 -0.3944
 1158SOL    HW214937   2.577   1.031   5.302 -0.0572  2.5685  0.3257
 1159SOL     OW14938   4.603   2.665  16.417  0.3377  0.2554 -0.2777
 1159SOL    HW114939   4.628   2.746  16.462 -0.9717  0.5834 -0.1594
 1159SOL    HW214940   4.510   2.670  16.439  0.3623 -1.4965  0.2588
 1160SOL     OW14941   4.486   1.458   4.022 -0.4631 -0.2897  0.0009
 1160SOL    HW114942   4.422   1.458   3.951 -1.7963  1.4553  1.1645
 1160SOL    HW214943   4.540   1.389   3.985  0.2641 -0.7489  1.8900
 1161SOL     OW14944   2.000   1.861   3.503 -0.0366  0.0557  0.0836
 1161SOL    HW114945   1.989   1.838   3.595 -0.2744 -0.3988 -0.0617
 1161SOL    HW214946   2.016   1.777   3.459  1.7796  0.0078  0.8768
 1162SOL     OW14947   1.756   4.266   6.602 -0.3916  0.0539  0.0877
 1162SOL    HW114948   1.716   4.241   6.519  0.8590  3.3735 -1.4966
 1162SOL    HW214949   1.708   4.344   6.629 -1.2024 -0.6211  0.6277
 1163SOL     OW14950   4.181   1.173  10.973 -0.4938 -0.1029  0.3348
 1163SOL    HW114951   4.207   1.095  11.022  0.2202  0.0732  0.2350
 1163SOL    HW214952   4.134   1.124  10.906 -2.0964  2.1720 -0.1786
 1164SOL     OW14953   3.084   1.595   6.991 -0.6757 -0.2376 -0.0253
 1164SOL    HW114954   3.010   1.604   6.932  0.9775  1.2954 -1.8576
 1164SOL    HW214955   3.157   1.614   6.931 -1.2449  1.4187 -0.1761
 1165SOL     OW14956   3.094   4.650   4.614 -0.0136  0.6747  0.2058
 1165SOL    HW114957   3.168   4.677   4.559 -1.2683  1.4050 -1.1255
 1165SOL    HW214958   3.020   4.681   4.562  0.8750  0.0759 -1.4551
 1166SOL     OW14959   4.561   4.427   6.453 -0.7652 -0.2844  0.5246
 1166SOL    HW114960   4.525   4.367   6.518 -3.1204  0.4200 -0.1543
 1166SOL    HW214961   4.483   4.443   6.401 -0.4504  2.3961  0.9000
 1167SOL     OW14962   3.501   1.088  13.649 -0.5147  0.7179  0.4895
 1167SOL    HW114963   3.588   1.069  13.614 -1.8450  0.5858 -2.8058
 1167SOL    HW214964   3.479   1.170  13.603 -0.4948 -0.3329 -1.3764
 1168SOL     OW14965   3.513   2.031   0.016  0.4162 -0.1444  0.3368
 1168SOL    HW114966   3.455   1.960  17.685  1.0942 -0.3344 -0.5876
 1168SOL    HW214967   3.590   1.984  17.683  1.2589  0.5690  1.3732
 1169SOL     OW14968   2.534   2.085   7.278 -0.0811 -0.1418  0.0460
 1169SOL    HW114969   2.614   2.074   7.226  0.8486 -0.0520  1.4610
 1169SOL    HW214970   2.520   2.180   7.274  0.8200  0.0674  1.6804
 1170SOL     OW14971   3.325   2.627   7.394 -0.2110 -0.5540 -0.4869
 1170SOL    HW114972   3.291   2.682   7.323 -0.0060  0.8282  0.4942
 1170SOL    HW214973   3.249   2.569   7.404  0.1575 -1.0765 -0.7364
 1171SOL     OW14974   3.733   3.163   1.491 -0.1190  0.0757  0.5529
 1171SOL    HW114975   3.783   3.091   1.452 -0.1012 -0.2865  1.2584
 1171SOL    HW214976   3.648   3.120   1.480  1.9370 -3.4897 -1.6659
 1172SOL     OW14977   2.347   0.391   6.318 -0.0519 -0.1435  0.1676
 1172SOL    HW114978   2.300   0.322   6.365 -2.6368  0.1371 -2.0238
 1172SOL    HW214979   2.432   0.348   6.304 -0.2874 -0.6675  0.3610
 1173SOL     OW14980   3.297   2.808   0.130 -0.2266  0.3449  0.3901
 1173SOL    HW114981   3.233   2.816   0.059 -2.3854  1.8849  2.5085
 1173SOL    HW214982   3.310   2.891   0.176  0.0465 -0.3062  1.4821
 1174SOL     OW14983   2.862   3.376   6.896  0.1006 -0.0736 -0.1285
 1174SOL    HW114984   2.944   3.369   6.944  0.3132  0.4738 -0.4163
 1174SOL    HW214985   2.891   3.355   6.807  2.6380 -1.9047  1.1416
 1175SOL     OW14986   0.442   1.659  11.001  0.3357 -0.0790  0.1955
 1175SOL    HW114987   0.397   1.707  10.932  1.5389  1.5400  0.5214
 1175SOL    HW214988   0.479   1.588  10.949  0.3861 -0.4531  0.7540
 1176SOL     OW14989   1.086   3.792   3.908  0.1135  0.3646  0.3507
 1176SOL    HW114990   1.058   3.883   3.910  0.8226  0.6019 -0.1620
 1176SOL    HW214991   1.081   3.763   3.816 -2.3067  0.1377  0.5628
 1177SOL     OW14992   4.303   1.723   7.498 -0.0851 -0.1810 -0.5068
 1177SOL    HW114993   4.339   1.682   7.419  0.5351 -0.3258 -0.1421
 1177SOL    HW214994   4.386   1.758   7.531 -1.3065 -0.5467  2.9114
 1178SOL     OW14995   0.074   2.726   2.875  0.0843  0.1569 -0.6250
 1178SOL    HW114996   0.093   2.818   2.855 -0.4356  0.1854 -1.0048
 1178SOL    HW214997   0.153   2.686   2.838  2.2100  1.5581  2.3349
 1179SOL     OW14998   0.513   2.575   6.869  0.2598 -0.5680 -0.2988
 1179SOL    HW114999   0.535   2.641   6.935 -2.2024 -0.8683  0.8318
 1179SOL    HW215000   0.581   2.509   6.882 -0.3116 -1.3215 -1.1560
 1180SOL     OW15001   0.932   3.257  15.108  0.6694  0.2192  0.3661
 1180SOL    HW115002   0.882   3.246  15.189  1.7397  2.8093  1.3662
 1180SOL    HW215003   0.996   3.321  15.140  0.8932  0.4308 -0.5290
 1181SOL     OW15004   1.794   2.266   4.284  0.4104 -0.4987  0.2750
 1181SOL    HW115005   1.838   2.329   4.228 -0.4695 -1.4308 -1.4917
 1181SOL    HW215006   1.703   2.291   4.268  1.1431  1.7865 -0.1774
 1182SOL     OW15007   0.807   1.499   7.134 -0.6075 -0.5151  0.3358
 1182SOL    HW115008   0.833   1.410   7.158  2.2574 -0.6444 -3.3207
 1182SOL    HW215009   0.713   1.497   7.154 -0.6261  1.3036  0.3761
 1183SOL     OW15010   1.897   3.146   3.497 -0.4871 -0.0475 -0.1385
 1183SOL    HW115011   1.922   3.211   3.432  1.4268  1.7804  2.4414
 1183SOL    HW215012   1.953   3.163   3.572  1.6744  0.3844 -1.8666
 1184SOL     OW15013   0.312   3.825  15.335  0.2127 -0.0450  0.1562
 1184SOL    HW115014   0.252   3.899  15.346  1.1509  0.8058 -0.5066
 1184SOL    HW215015   0.281   3.802  15.247 -0.8526 -1.8614  1.0038
 1185SOL     OW15016   3.108   1.522   9.390  0.1575 -0.4536 -0.0196
 1185SOL    HW115017   3.176   1.493   9.330  2.7868  0.6586  2.4100
 1185SOL    HW215018   3.165   1.578   9.442  1.2656 -0.7521 -0.9078
 1186SOL     OW15019   4.004   0.865   3.024 -0.2922 -0.3304 -0.6099
 1186SOL    HW115020   4.045   0.870   3.110 -1.1976 -0.8993 -0.1424
 1186SOL    HW215021   4.078   0.823   2.981 -0.6445 -1.9672  0.3901
 1187SOL     OW15022   2.938   0.420   3.528 -0.2243 -0.1299 -0.5439
 1187SOL    HW115023   2.880   0.460   3.593  1.3325  1.4556 -0.1320
 1187SOL    HW215024   2.998   0.366   3.581 -0.9257 -0.7892 -0.4180
 1188SOL     OW15025   3.887   4.530   2.064  0.1960  0.2044 -0.1773
 1188SOL    HW115026   3.941   4.484   2.000  1.0365 -1.0900  1.4579
 1188SOL    HW215027   3.957   4.563   2.120 -0.0678 -0.2160  0.4045
 1189SOL     OW15028   3.261   2.436   8.555  0.2941 -0.0265 -0.6177
 1189SOL    HW115029   3.243   2.414   8.646 -0.4135  0.3570 -0.6679
 1189SOL    HW215030   3.309   2.519   8.564 -1.0116  0.7202 -0.5238
 1190SOL     OW15031   1.332   1.053  16.543 -0.3279  0.2248  0.0532
 1190SOL    HW115032   1.351   1.128  16.486 -1.5780  0.3886 -0.1594
 1190SOL    HW215033   1.333   0.989  16.471  0.8636  0.8492 -0.4833
 1191SOL     OW15034   2.741   0.049   6.101  0.1180  0.5036 -0.7474
 1191SOL    HW115035   2.790   0.013   6.174  0.4529 -1.3940 -1.9146
 1191SOL    HW215036   2.722   4.699   6.043  3.7208  0.5965 -2.0797
 1192SOL     OW15037   1.633   0.749  14.465  0.1353  0.0999 -0.6771
 1192SOL    HW115038   1.684   0.674  14.435 -1.3226 -0.1627 -2.5612
 1192SOL    HW215039   1.677   0.805  14.401  0.7638 -0.3785 -0.6613
 1193SOL     OW15040   2.911   1.555   3.164 -0.6369  0.3048  0.2270
 1193SOL    HW115041   3.001   1.575   3.189 -0.2634  0.5721 -1.3688
 1193SOL    HW215042   2.877   1.643   3.147  0.0329  0.1198 -2.0415
 1194SOL     OW15043   2.995   0.473   2.847  0.7653  0.4400 -0.2083
 1194SOL    HW115044   3.041   0.512   2.773 -1.9328 -0.9185 -2.6084
 1194SOL    HW215045   2.906   0.496   2.820  0.4519  0.0786  0.5209
 1195SOL     OW15046   3.236   1.070   4.921 -0.0012 -0.4131 -0.2717
 1195SOL    HW115047   3.174   1.084   4.850  0.5688 -1.4863 -0.9810
 1195SOL    HW215048   3.182   1.052   4.998  0.6465 -1.7931 -0.1356
 1196SOL     OW15049   3.444   2.682   1.625  0.0518  0.3372 -0.5566
 1196SOL    HW115050   3.481   2.656   1.710 -1.0730  2.3061  0.5359
 1196SOL    HW215051   3.355   2.648   1.631  0.2714 -0.1804 -0.1805
 1197SOL     OW15052   2.548   4.467   2.915  0.1881  0.2645 -0.5728
 1197SOL    HW115053   2.492   4.436   2.986  1.6454 -1.8974 -0.3787
 1197SOL    HW215054   2.573   4.554   2.946  3.2820 -0.8441  0.0583
 1198SOL     OW15055   0.037   1.919   2.721  0.1319  0.0533  0.7962
 1198SOL    HW115056   4.705   1.992   2.694 -0.6228 -1.0080 -0.5436
 1198SOL    HW215057   4.718   1.884   2.800 -0.2697 -0.2754  0.4370
 1199SOL     OW15058   4.002   3.074   6.490 -0.5643  0.1717  0.2435
 1199SOL    HW115059   4.061   3.111   6.425 -0.4201 -1.1005 -0.3468
 1199SOL    HW215060   4.056   3.072   6.569  2.0494 -0.3907 -1.5754
 1200SOL     OW15061   0.225   4.100   7.621  0.6461 -0.2202 -0.8131
 1200SOL    HW115062   0.147   4.093   7.677  1.0924 -1.9267 -0.4003
 1200SOL    HW215063   0.291   4.090   7.689  0.6392  3.0976 -0.3322
 1201SOL     OW15064   1.984   2.471  16.304 -0.1011 -0.0999 -0.3029
 1201SOL    HW115065   2.034   2.546  16.272 -3.0650  1.4260 -1.3821
 1201SOL    HW215066   1.941   2.515  16.378 -0.2203 -2.2111  0.8782
 1202SOL     OW15067   0.246   3.455   1.750 -0.1901 -0.0309  0.3753
 1202SOL    HW115068   0.157   3.447   1.713 -0.7193 -1.8133  2.0594
 1202SOL    HW215069   0.285   3.501   1.675  1.2175  0.7910  1.6201
 1203SOL     OW15070   1.483   1.245   6.128 -0.3980 -0.6165 -0.7521
 1203SOL    HW115071   1.485   1.265   6.034 -2.7169  0.6686 -0.5274
 1203SOL    HW215072   1.428   1.167   6.119 -3.1589  1.0862  1.4547
 1204SOL     OW15073   2.500   1.318  17.043 -0.2189  0.3059  0.4648
 1204SOL    HW115074   2.405   1.302  17.041 -0.2696  0.7001 -0.4886
 1204SOL    HW215075   2.524   1.227  17.030 -0.4354  0.3198 -0.0378
 1205SOL     OW15076   3.212   2.347   3.000 -0.6019  0.2457  0.5681
 1205SOL    HW115077   3.226   2.253   3.013  0.0435  0.3130  0.3583
 1205SOL    HW215078   3.215   2.369   3.093  1.2926 -1.9918  1.0440
 1206SOL     OW15079   3.403   3.343   5.158  0.6095 -0.7035 -0.3072
 1206SOL    HW115080   3.494   3.313   5.159  0.3291 -1.5188  0.1459
 1206SOL    HW215081   3.408   3.420   5.101 -3.1854 -0.4408 -0.2851
 1207SOL     OW15082   2.056   0.123  10.682 -0.1871  0.2806 -0.0309
 1207SOL    HW115083   2.150   0.106  10.693  0.4844  3.5894 -0.7602
 1207SOL    HW215084   2.049   0.188  10.752  2.2711  0.1150  0.3670
 1208SOL     OW15085   4.713   4.457  13.076  0.1582  0.3541 -0.3228
 1208SOL    HW115086   4.662   4.436  12.998  2.0147  0.3904 -1.5571
 1208SOL    HW215087   0.036   4.534  13.044  1.5471 -0.7346 -0.9405
 1209SOL     OW15088   1.172   2.209  13.581 -0.2205  0.3530  0.0001
 1209SOL    HW115089   1.260   2.187  13.611 -1.5466 -1.4865  2.5192
 1209SOL    HW215090   1.115   2.147  13.626  2.1172 -1.7079  0.1109
 1210SOL     OW15091   3.102   1.354  16.128  0.3458 -1.1499 -0.2530
 1210SOL    HW115092   3.168   1.349  16.197 -0.3857  3.7980  0.8278
 1210SOL    HW215093   3.056   1.270  16.121 -0.0395 -0.9045 -0.7268
 1211SOL     OW15094   2.073   4.533   2.535  0.4508  0.3177 -0.5022
 1211SOL    HW115095   2.133   4.536   2.461 -0.8104 -1.8710 -1.6020
 1211SOL    HW215096   2.117   4.473   2.595  0.4582  1.0472  0.2366
 1212SOL     OW15097   0.555   3.953   1.962 -0.0909  0.2839 -0.2325
 1212SOL    HW115098   0.551   3.891   1.889 -0.4070  1.7812 -1.4892
 1212SOL    HW215099   0.619   4.012   1.923  0.0863  0.7391  0.7515
 1213SOL     OW15100   2.466   3.132   7.497 -0.2451  0.3018 -0.0326
 1213SOL    HW115101   2.379   3.096   7.517 -1.0798  1.5072 -1.4859
 1213SOL    HW215102   2.484   3.200   7.561  2.0086  1.3662 -1.8024
 1214SOL     OW15103   2.530   0.696   1.040 -0.1291  0.2190  0.2228
 1214SOL    HW115104   2.527   0.729   0.950  2.2262 -1.4297 -0.4756
 1214SOL    HW215105   2.567   0.607   1.045 -0.1909  0.1327 -0.7978
 1215SOL     OW15106   3.558   1.130   7.850 -0.6513 -0.5829 -0.1269
 1215SOL    HW115107   3.525   1.184   7.922 -1.9499  1.1675 -2.0365
 1215SOL    HW215108   3.599   1.189   7.786  1.0969  0.0048  1.5245
 1216SOL     OW15109   3.460   1.607  10.362 -0.6096 -0.0719  0.0627
 1216SOL    HW115110   3.535   1.567  10.318 -1.1993 -1.0205 -0.0817
 1216SOL    HW215111   3.471   1.569  10.450 -2.0291 -0.8184 -0.0809
 1217SOL     OW15112   3.654   0.717   9.432  0.6768 -0.2797  0.2523
 1217SOL    HW115113   3.604   0.756   9.504 -1.9178  0.3653 -1.9182
 1217SOL    HW215114   3.727   0.779   9.428 -0.2557  0.7288 -1.0513
 1218SOL     OW15115   1.033   0.830  10.426 -0.7173 -0.0351  0.1756
 1218SOL    HW115116   1.123   0.833  10.391 -1.5871 -0.5619 -2.0975
 1218SOL    HW215117   0.986   0.847  10.344 -0.7776  1.0206  0.4293
 1219SOL     OW15118   2.075   4.283   7.547  0.1800 -0.0375 -0.3024
 1219SOL    HW115119   1.979   4.276   7.549 -0.0059  2.9133  2.5337
 1219SOL    HW215120   2.093   4.209   7.605  0.2206  0.3542  0.1960
 1220SOL     OW15121   3.035   3.835   7.663 -0.5864 -0.2503 -0.1269
 1220SOL    HW115122   2.960   3.786   7.696 -1.3953  0.1865 -1.3015
 1220SOL    HW215123   3.002   3.877   7.583  0.6454 -0.1137 -0.5621
 1221SOL     OW15124   1.541   4.473   6.638 -0.6186 -0.1412 -0.5672
 1221SOL    HW115125   1.558   4.565   6.658  0.6219 -0.2406 -1.1928
 1221SOL    HW215126   1.457   4.455   6.682 -0.5845 -0.0415 -0.4616
 1222SOL     OW15127   0.232   2.076   8.967 -0.0157  0.1473 -0.1581
 1222SOL    HW115128   0.242   2.064   8.872 -1.0005 -1.0666 -0.1129
 1222SOL    HW215129   0.194   1.991   8.991  0.4406  0.2582  0.9527
 1223SOL     OW15130   1.437   0.156   8.093 -0.1101  0.3319 -0.1192
 1223SOL    HW115131   1.440   0.249   8.072  2.0636  0.3154  0.1941
 1223SOL    HW215132   1.362   0.129   8.041 -0.6823 -0.7929  1.2863
 1224SOL     OW15133   1.559   1.344   6.781  0.0327  0.3312 -0.0113
 1224SOL    HW115134   1.633   1.304   6.827 -0.3515 -1.8153 -1.2469
 1224SOL    HW215135   1.556   1.433   6.817 -0.9678 -0.4974  1.9135
 1225SOL     OW15136   2.560   4.365  11.712  0.4368 -0.1741  0.3084
 1225SOL    HW115137   2.600   4.285  11.747  1.6617 -0.3907 -1.5916
 1225SOL    HW215138   2.586   4.365  11.620 -1.6322 -0.2801 -0.2729
 1226SOL     OW15139   1.533   3.371  13.014  0.0906 -0.5839 -0.1217
 1226SOL    HW115140   1.580   3.444  12.974  0.0817  0.0849  1.0983
 1226SOL    HW215141   1.474   3.396  13.085  0.1793 -1.0293  0.1060
 1227SOL     OW15142   0.120   3.171   2.892 -0.3849  0.1836  0.3015
 1227SOL    HW115143   0.135   3.128   2.976  3.0098 -2.5127 -1.6932
 1227SOL    HW215144   0.169   3.111   2.836  0.4202  0.8496  0.2838
 1228SOL     OW15145   3.745   3.050   4.164 -0.0805 -0.4374  0.0488
 1228SOL    HW115146   3.778   3.139   4.178  2.0445 -1.3552  0.9310
 1228SOL    HW215147   3.766   3.014   4.250 -2.3364 -3.3900 -0.6471
 1229SOL     OW15148   3.835   3.337   3.560 -0.0334 -0.0994  0.3449
 1229SOL    HW115149   3.838   3.413   3.619  0.0391 -0.2498  0.5311
 1229SOL    HW215150   3.740   3.332   3.547 -0.0466  0.4848  0.1892
 1230SOL     OW15151   3.358   3.870   5.651 -0.1195  0.2573  0.1244
 1230SOL    HW115152   3.297   3.890   5.580  1.2173 -1.0527 -1.4080
 1230SOL    HW215153   3.369   3.951   5.701  1.8859 -0.8483  1.5074
 1231SOL     OW15154   3.925   0.610   2.461 -0.2717  0.3551 -0.0014
 1231SOL    HW115155   3.918   0.551   2.385 -0.7594 -0.8418  0.9721
 1231SOL    HW215156   3.840   0.652   2.457  0.4065  1.6405 -1.1524
 1232SOL     OW15157   1.755   4.164   8.390  0.0832  0.0193 -0.7966
 1232SOL    HW115158   1.821   4.225   8.421 -0.5219 -0.4724  1.4849
 1232SOL    HW215159   1.721   4.214   8.316 -0.6127  1.4959  0.5336
 1233SOL     OW15160   3.446   1.924   2.575 -0.2072 -0.0038  0.3364
 1233SOL    HW115161   3.376   1.861   2.560  1.3867 -1.5402 -0.7070
 1233SOL    HW215162   3.510   1.859   2.603 -0.4612  0.3088  1.6219
 1234SOL     OW15163   3.898   1.483   8.973  0.1897  0.1512 -0.1251
 1234SOL    HW115164   3.930   1.528   8.895  0.7878 -1.6403 -0.9333
 1234SOL    HW215165   3.808   1.510   8.991 -0.7414 -2.6660 -0.4454
 1235SOL     OW15166   3.164   0.141   9.310 -0.4086  0.0012  0.4002
 1235SOL    HW115167   3.154   0.171   9.401 -0.8882  1.0000  0.0134
 1235SOL    HW215168   3.144   0.214   9.251 -2.3527 -1.3863 -0.6462
 1236SOL     OW15169   3.934   3.372   2.657 -0.1319 -0.8469  0.0683
 1236SOL    HW115170   3.893   3.292   2.688 -2.3326  0.1249 -0.3665
 1236SOL    HW215171   3.861   3.425   2.627  0.0402 -0.4727  0.3099
 1237SOL     OW15172   0.706   3.943   9.942  0.0531 -0.3104 -0.0355
 1237SOL    HW115173   0.711   4.033   9.910  0.1804  0.1217  1.1811
 1237SOL    HW215174   0.796   3.914   9.930  0.8512  0.9167  2.9366
 1238SOL     OW15175   1.795   1.517   3.629  0.2351 -0.6804  0.1637
 1238SOL    HW115176   1.884   1.503   3.597  0.0169 -1.5355 -0.0909
 1238SOL    HW215177   1.804   1.550   3.718  0.2877  0.8973 -0.4227
 1239SOL     OW15178   3.845   1.673   4.636 -0.5433  0.4996  1.1833
 1239SOL    HW115179   3.781   1.685   4.706 -0.5225  3.3853  0.7386
 1239SOL    HW215180   3.854   1.578   4.630 -0.2570  0.5768  0.3627
 1240SOL     OW15181   4.302   0.466   8.561  0.4474  0.1301 -0.0929
 1240SOL    HW115182   4.248   0.390   8.581  0.0491 -0.0919 -1.9799
 1240SOL    HW215183   4.288   0.482   8.468  1.3217 -1.5543 -0.5099
 1241SOL     OW15184   2.945   1.934   2.523  0.0588  0.7325  0.2444
 1241SOL    HW115185   2.863   1.941   2.474  1.1279  0.6082 -1.5620
 1241SOL    HW215186   3.005   1.939   2.449 -0.2976  1.6660  0.0217
 1242SOL     OW15187   3.459   0.577   2.377  0.8418  0.1086 -0.0200
 1242SOL    HW115188   3.369   0.544   2.374  1.4970 -1.4754 -2.0902
 1242SOL    HW215189   3.515   0.505   2.345 -0.0859 -0.4167 -0.4631
 1243SOL     OW15190   0.799   1.178   2.446  0.0329  0.8339 -0.0687
 1243SOL    HW115191   0.779   1.122   2.521 -1.3961  0.6579 -0.5867
 1243SOL    HW215192   0.711   1.196   2.413  0.8792  2.5309 -1.4359
 1244SOL     OW15193   2.822   2.580  14.814 -0.1198 -0.5426  0.3356
 1244SOL    HW115194   2.770   2.637  14.871  0.0966 -0.9391  0.9238
 1244SOL    HW215195   2.755   2.521  14.780 -0.9585  0.5178  0.1239
 1245SOL     OW15196   1.919   0.343  10.800  0.4800 -0.6078  0.5048
 1245SOL    HW115197   1.906   0.270  10.862 -0.8119 -1.5087 -0.8522
 1245SOL    HW215198   1.882   0.415  10.851 -0.6955  0.0154 -1.2477
 1246SOL     OW15199   2.848   2.538   4.572  0.7060  0.0214  0.8380
 1246SOL    HW115200   2.832   2.466   4.634  2.9135  0.2076  1.6201
 1246SOL    HW215201   2.774   2.594   4.595 -0.5249 -1.0937 -0.4451
 1247SOL     OW15202   1.104   0.722   6.551 -0.4969 -0.7610 -0.5489
 1247SOL    HW115203   1.148   0.692   6.631  0.7581  0.2821 -0.8523
 1247SOL    HW215204   1.055   0.643   6.525  0.7845 -1.7430 -0.0078
 1248SOL     OW15205   2.769   3.450   9.044 -0.5657  0.0773  0.1763
 1248SOL    HW115206   2.681   3.457   9.082 -0.9937  0.5415 -0.8918
 1248SOL    HW215207   2.745   3.426   8.954 -1.1648  0.2419  0.2945
 1249SOL     OW15208   4.072   0.889   7.936  0.4137 -0.0527 -0.1006
 1249SOL    HW115209   4.119   0.904   7.854 -0.4552 -1.6708 -0.8889
 1249SOL    HW215210   3.984   0.866   7.908  0.3741  0.5994 -0.5193
 1250SOL     OW15211   2.677   0.128   7.654  0.3263  0.0193  0.1290
 1250SOL    HW115212   2.760   0.132   7.608 -1.4826 -1.4746 -3.2694
 1250SOL    HW215213   2.618   0.148   7.582 -0.3591  0.3606  0.7816
 1251SOL     OW15214   2.493   2.178   2.684  0.6588 -0.3555  0.3252
 1251SOL    HW115215   2.451   2.094   2.701  0.5736 -0.2497  0.6371
 1251SOL    HW215216   2.479   2.180   2.590 -3.1682  1.7698  0.9391
 1252SOL     OW15217   2.375   1.073   8.919  0.0918  0.5647  0.2908
 1252SOL    HW115218   2.345   0.983   8.908 -2.6259  1.5941 -0.6287
 1252SOL    HW215219   2.453   1.051   8.970  2.3288  1.2380 -2.8598
 1253SOL     OW15220   0.554   4.286  10.492 -0.7841  0.5180 -0.3337
 1253SOL    HW115221   0.601   4.351  10.544  0.4921 -2.2059  1.9177
 1253SOL    HW215222   0.526   4.232  10.566 -0.0289 -1.6059 -1.6028
 1254SOL     OW15223   3.325   1.697  13.025  1.3339 -0.6461 -0.1013
 1254SOL    HW115224   3.304   1.675  12.935 -1.1875 -0.7014  0.4897
 1254SOL    HW215225   3.420   1.704  13.027  1.2934 -0.3812  1.4076
 1255SOL     OW15226   1.355   1.611  11.273 -0.1428 -0.3929  0.1275
 1255SOL    HW115227   1.348   1.558  11.193 -2.2171  1.8578 -1.2057
 1255SOL    HW215228   1.318   1.558  11.343 -1.0968  1.8867  1.3412
 1256SOL     OW15229   2.443   0.298   1.702 -0.3133 -0.2805 -0.2393
 1256SOL    HW115230   2.451   0.331   1.791 -0.4288  1.1313 -0.7543
 1256SOL    HW215231   2.359   0.335   1.678  0.6948  0.5598 -2.4649
 1257SOL     OW15232   3.855   2.313   2.103  0.1025 -0.1842  0.5410
 1257SOL    HW115233   3.794   2.382   2.076 -0.4858 -1.0883 -0.4143
 1257SOL    HW215234   3.892   2.343   2.186 -2.8745 -1.9203  2.5099
 1258SOL     OW15235   4.162   3.935   5.879  0.4997 -0.3690  0.3097
 1258SOL    HW115236   4.196   3.886   5.954  3.7441 -0.0355 -0.9634
 1258SOL    HW215237   4.101   3.994   5.925 -2.0531 -2.7830 -0.0180
 1259SOL     OW15238   2.240   0.497  13.670 -0.5078  0.3850 -0.2734
 1259SOL    HW115239   2.328   0.509  13.706 -1.2156  1.1152  1.2478
 1259SOL    HW215240   2.257   0.471  13.580  0.7991  2.7786 -0.7065
 1260SOL     OW15241   1.677   3.833   8.026 -0.4503  0.3796 -0.4115
 1260SOL    HW115242   1.736   3.766   8.059 -1.1770  0.0583  0.2303
 1260SOL    HW215243   1.614   3.835   8.099 -0.3701 -2.0665 -0.3042
 1261SOL     OW15244   2.422   0.267   9.716  0.3981  0.3663  0.0364
 1261SOL    HW115245   2.482   0.203   9.756  2.8085  0.8081 -2.8319
 1261SOL    HW215246   2.469   0.350   9.718 -0.8107  0.9963  1.8965
 1262SOL     OW15247   4.608   3.635   5.057 -0.3363 -0.1987  0.5508
 1262SOL    HW115248   4.643   3.565   5.112 -0.2941 -2.7499 -2.7382
 1262SOL    HW215249   4.579   3.580   4.985 -1.2966  0.7911  0.1715
 1263SOL     OW15250   2.240   2.702   2.198  0.0291  0.2082  0.9075
 1263SOL    HW115251   2.280   2.768   2.141 -1.9170  1.0327  0.4886
 1263SOL    HW215252   2.184   2.662   2.131  0.5938 -0.2424  0.7053
 1264SOL     OW15253   4.555   0.973   2.439 -0.0682  0.5912  0.4471
 1264SOL    HW115254   4.640   0.938   2.468 -1.0996 -3.0732 -0.9278
 1264SOL    HW215255   4.537   0.945   2.349 -0.9193  0.4127  0.6740
 1265SOL     OW15256   0.211   1.648   5.543  0.0618 -0.0910  0.2104
 1265SOL    HW115257   0.289   1.600   5.571 -0.7038 -0.1395  2.2280
 1265SOL    HW215258   0.255   1.730   5.523  0.6533 -0.5511 -0.3930
 1266SOL     OW15259   2.557   2.871   7.564  0.4452 -0.3312  0.7399
 1266SOL    HW115260   2.606   2.899   7.642 -0.3471  0.7366  0.8578
 1266SOL    HW215261   2.492   2.941   7.554  2.1235  0.9956 -0.7896
 1267SOL     OW15262   2.447   3.535   9.463  0.2994 -0.0006 -0.9081
 1267SOL    HW115263   2.432   3.604   9.398 -1.4318  0.6107  0.1477
 1267SOL    HW215264   2.356   3.507   9.473  0.2786  0.5661  0.6069
 1268SOL     OW15265   3.577   1.694   7.219 -0.0361 -0.4314  0.1570
 1268SOL    HW115266   3.574   1.768   7.159 -0.5541  0.6744  1.5339
 1268SOL    HW215267   3.670   1.673   7.221  0.6083  2.4872  0.0975
 1269SOL     OW15268   0.010   1.265  11.722  0.1653 -0.3164 -0.3901
 1269SOL    HW115269   4.653   1.307  11.753  0.5480 -0.3373  0.6324
 1269SOL    HW215270   0.068   1.293  11.793 -0.4670  1.1126 -0.4395
 1270SOL     OW15271   0.546   2.657   3.138 -0.5115 -0.6423 -0.4626
 1270SOL    HW115272   0.474   2.719   3.127  0.3679  1.0299  3.3528
 1270SOL    HW215273   0.555   2.649   3.233  2.5669  0.4594 -0.6701
 1271SOL     OW15274   1.855   2.703   5.236  0.4648  0.0910 -0.4371
 1271SOL    HW115275   1.876   2.796   5.224  1.1250 -0.1942 -1.4912
 1271SOL    HW215276   1.785   2.688   5.173  1.1872  0.1101 -1.2498
 1272SOL     OW15277   0.781   1.022  11.921  0.3667 -0.8745 -0.0430
 1272SOL    HW115278   0.744   1.074  11.993  0.2864  0.8561 -1.3262
 1272SOL    HW215279   0.726   1.057  11.851  0.0037 -0.5262  0.4127
 1273SOL     OW15280   3.823   2.928  16.576  0.1508 -0.1639 -0.2832
 1273SOL    HW115281   3.872   2.988  16.632  1.5532 -2.1718  0.6529
 1273SOL    HW215282   3.773   2.877  16.641  0.8190 -2.1046 -1.3056
 1274SOL     OW15283   3.126   4.414   3.833  0.4710 -0.6619 -0.1088
 1274SOL    HW115284   3.117   4.324   3.800  0.1923  0.1547 -2.3115
 1274SOL    HW215285   3.051   4.420   3.893  1.4806 -0.6138  1.1342
 1275SOL     OW15286   1.160   3.774   7.651  0.5860 -0.0772  0.3899
 1275SOL    HW115287   1.184   3.864   7.672 -0.4936  0.0266  1.1966
 1275SOL    HW215288   1.148   3.782   7.556  1.4445  0.4931  0.3295
 1276SOL     OW15289   2.016   2.833  15.066  0.0601  0.3959 -0.0099
 1276SOL    HW115290   2.090   2.804  15.120 -0.6218  1.7410  1.6246
 1276SOL    HW215291   2.047   2.794  14.984 -0.9616 -0.6919  0.1217
 1277SOL     OW15292   0.321   1.565  13.963  0.4884  0.1921  0.3809
 1277SOL    HW115293   0.259   1.613  14.018 -0.6307 -1.3099  0.4170
 1277SOL    HW215294   0.376   1.517  14.025 -2.1797 -3.6150 -0.1652
 1278SOL     OW15295   3.401   1.381   9.965  0.0500 -0.0826  0.0033
 1278SOL    HW115296   3.328   1.404  10.022 -0.2920 -0.5495 -0.2439
 1278SOL    HW215297   3.427   1.464   9.925 -4.2560  0.8768 -0.7983
 1279SOL     OW15298   2.061   1.264   7.378 -0.4090 -0.5268  0.0226
 1279SOL    HW115299   2.025   1.183   7.343 -0.9168  0.7586 -2.3998
 1279SOL    HW215300   2.142   1.232   7.418  0.0437  0.4828 -0.0789
 1280SOL     OW15301   0.815   3.392   5.005 -0.1562 -0.0358 -0.1042
 1280SOL    HW115302   0.826   3.467   5.063 -2.1886  1.3525 -1.5013
 1280SOL    HW215303   0.719   3.385   5.001  0.0807 -1.8970 -2.8060
 1281SOL     OW15304   2.257   1.042   5.175 -0.0380 -0.3892  0.0949
 1281SOL    HW115305   2.203   1.059   5.097  1.4004  0.3939 -0.7305
 1281SOL    HW215306   2.345   1.055   5.140 -0.9848 -1.4422 -2.7157
 1282SOL     OW15307   1.643   1.578   2.406 -0.0041  0.5921  0.1139
 1282SOL    HW115308   1.619   1.617   2.490 -1.7488  1.0204 -0.5775
 1282SOL    HW215309   1.598   1.636   2.344 -0.9079 -0.5092 -0.2691
 1283SOL     OW15310   2.771   0.547   3.711  0.7683  0.0682 -0.1577
 1283SOL    HW115311   2.687   0.560   3.668  0.3249 -1.0895  0.3547
 1283SOL    HW215312   2.743   0.495   3.786  0.9978 -1.2555 -0.9931
 1284SOL     OW15313   4.001   1.211  16.433 -0.1604  0.6792  0.5363
 1284SOL    HW115314   3.955   1.227  16.516 -1.0704  0.2665  0.1067
 1284SOL    HW215315   3.930   1.200  16.370  0.7192 -1.0368 -0.1382
 1285SOL     OW15316   3.348   2.972   2.548 -0.3534 -0.3673 -0.1456
 1285SOL    HW115317   3.317   2.911   2.615 -1.0705  1.4296  1.1693
 1285SOL    HW215318   3.282   2.966   2.480 -1.2472 -1.8474  0.8489
 1286SOL     OW15319   3.593   0.482  16.483  0.2284 -0.5101  0.0780
 1286SOL    HW115320   3.633   0.396  16.500 -0.3570 -1.1031 -1.5786
 1286SOL    HW215321   3.665   0.535  16.518 -0.0974 -0.7749  1.1695
 1287SOL     OW15322   0.715   0.955   6.908  0.2138 -0.3028 -0.7277
 1287SOL    HW115323   0.752   0.919   6.828 -1.9817 -0.6134 -1.5929
 1287SOL    HW215324   0.804   0.978   6.935 -0.0285  0.0835 -0.2632
 1288SOL     OW15325   1.567   1.867  10.657 -0.3375 -0.0482  0.0858
 1288SOL    HW115326   1.505   1.809  10.612  0.6148 -1.4334  0.5385
 1288SOL    HW215327   1.586   1.812  10.733 -0.9097 -1.8164 -1.0539
 1289SOL     OW15328   1.848   2.909   3.340  0.5151 -0.1617  0.0999
 1289SOL    HW115329   1.764   2.925   3.383  0.9499  0.7595  0.6043
 1289SOL    HW215330   1.903   2.976   3.380  0.8346  0.4996 -1.4342
 1290SOL     OW15331   4.275   3.239   5.739 -0.9385  0.0539 -0.3253
 1290SOL    HW115332   4.205   3.293   5.702 -0.1865  1.2003 -0.0834
 1290SOL    HW215333   4.298   3.193   5.659 -0.4122  0.8058 -0.6094
 1291SOL     OW15334   0.090   3.077   8.086 -0.2140  0.6706  0.1959
 1291SOL    HW115335   4.722   3.101   8.081 -0.0946  1.1248  0.1933
 1291SOL    HW215336   0.099   3.037   8.173  0.6102 -1.9239 -1.0702
 1292SOL     OW15337   4.274   4.241   8.296 -0.5062 -0.1508 -0.3723
 1292SOL    HW115338   4.179   4.252   8.298 -0.3744  0.6262  1.4804
 1292SOL    HW215339   4.299   4.318   8.347 -1.0822 -0.8255  0.9092
 1293SOL     OW15340   1.278   4.440   7.215  0.1147  0.5914  0.3191
 1293SOL    HW115341   1.195   4.454   7.261 -0.5028 -1.3127 -0.2194
 1293SOL    HW215342   1.241   4.409   7.132 -0.9860  2.3134  0.1566
 1294SOL     OW15343   0.410   2.448   8.819  0.4492 -0.4168  0.6072
 1294SOL    HW115344   0.382   2.519   8.877  2.4808  1.5527 -0.7853
 1294SOL    HW215345   0.325   2.406   8.807 -0.0437  1.1178 -1.3210
 1295SOL     OW15346   2.799   3.213  11.276  0.5355  0.9708  0.2384
 1295SOL    HW115347   2.852   3.164  11.213 -1.3765 -1.1185  0.2709
 1295SOL    HW215348   2.727   3.152  11.291  1.2554 -0.6564 -2.8982
 1296SOL     OW15349   3.149   4.347   5.101 -0.4638  0.0668 -0.0509
 1296SOL    HW115350   3.074   4.387   5.143 -0.2436 -0.8590  1.2250
 1296SOL    HW215351   3.214   4.343   5.171  1.3026  0.6869 -1.6296
 1297SOL     OW15352   0.608   3.993   5.221 -0.0115  0.5268  0.1057
 1297SOL    HW115353   0.540   4.025   5.162 -0.4366  0.8885  0.7869
 1297SOL    HW215354   0.674   4.060   5.209  0.0049  0.1804 -1.6630
 1298SOL     OW15355   3.771   1.686   0.352 -0.2571 -0.2243  0.3123
 1298SOL    HW115356   3.708   1.747   0.312 -0.1784 -1.1323 -1.1950
 1298SOL    HW215357   3.741   1.609   0.304 -2.4384  1.6647 -1.3871
 1299SOL     OW15358   0.096   4.682  16.211  0.7090  0.4491  0.0879
 1299SOL    HW115359   0.114   0.043  16.170 -0.8045 -0.2699 -2.0509
 1299SOL    HW215360   0.029   4.649  16.151  1.3260 -0.6477  0.0016
 1300SOL     OW15361   0.779   0.637   9.162 -0.2834  0.0179 -0.0086
 1300SOL    HW115362   0.821   0.639   9.248  0.1747  1.7765 -0.2894
 1300SOL    HW215363   0.813   0.555   9.125 -0.5994  0.2712 -0.8494
 1301SOL     OW15364   3.557   1.393   5.446  0.1279 -0.6030  0.6799
 1301SOL    HW115365   3.582   1.302   5.456 -0.2727 -0.5521  2.1451
 1301SOL    HW215366   3.597   1.414   5.530 -0.5895 -1.0193  1.1184
 1302SOL     OW15367   1.027   3.724   6.517  0.3825 -0.3407  0.3247
 1302SOL    HW115368   1.079   3.672   6.455  2.8905 -1.0692  3.0420
 1302SOL    HW215369   1.065   3.721   6.605  1.4216 -1.7128 -0.1708
 1303SOL     OW15370   3.433   2.815  10.497 -0.5440 -0.0524  0.0351
 1303SOL    HW115371   3.401   2.894  10.453  0.2217  0.4839  0.4387
 1303SOL    HW215372   3.348   2.774  10.510 -1.6269  2.1887 -0.0071
 1304SOL     OW15373   3.584   0.765  12.630  0.4360 -0.9833 -0.2166
 1304SOL    HW115374   3.675   0.747  12.606  0.4442  2.1060 -2.5965
 1304SOL    HW215375   3.564   0.842  12.576  0.0979 -1.3718 -0.6432
 1305SOL     OW15376   4.389   4.257   9.155  0.4460 -0.4425 -0.2838
 1305SOL    HW115377   4.335   4.334   9.171  0.2327 -0.4190 -1.0920
 1305SOL    HW215378   4.480   4.285   9.169 -0.6592  2.2802  1.4057
 1306SOL     OW15379   3.053   3.212   5.329  0.0333 -0.1866 -0.4586
 1306SOL    HW115380   2.982   3.153   5.353  1.4944 -1.0897  1.6596
 1306SOL    HW215381   3.131   3.158   5.340 -0.3176 -0.7525 -0.7527
 1307SOL     OW15382   1.836   4.097   7.600  0.6194 -0.1734  0.4705
 1307SOL    HW115383   1.796   4.149   7.531 -0.1366 -0.0378  1.0059
 1307SOL    HW215384   1.764   4.100   7.664  2.1675  1.2206  2.1579
 1308SOL     OW15385   4.623   3.408   1.420  0.3742  0.2683 -0.1129
 1308SOL    HW115386   4.540   3.397   1.467  0.4339  1.2893  0.2211
 1308SOL    HW215387   4.638   3.326   1.373  0.0027 -1.4687  2.8175
 1309SOL     OW15388   3.511   0.086   1.916 -0.5361 -0.5010  0.2342
 1309SOL    HW115389   3.510   0.156   1.851 -2.7759  0.5044  1.3373
 1309SOL    HW215390   3.602   0.103   1.938 -0.7863  1.5792 -0.3511
 1310SOL     OW15391   3.086   2.181   1.148 -0.3911  0.3045 -0.1122
 1310SOL    HW115392   3.148   2.253   1.162  0.1646 -0.2670  0.4339
 1310SOL    HW215393   3.036   2.210   1.073 -0.4368  1.4754  0.3748
 1311SOL     OW15394   1.603   4.312  10.062  0.2838 -0.1805  0.6434
 1311SOL    HW115395   1.601   4.221  10.033 -1.6552  0.4974 -1.3604
 1311SOL    HW215396   1.554   4.361   9.996 -0.7951 -0.6933  1.0631
 1312SOL     OW15397   4.434   0.094   0.386  0.0508  0.1160  0.0206
 1312SOL    HW115398   4.469   0.013   0.348  1.1652 -0.0544  1.4511
 1312SOL    HW215399   4.508   0.135   0.431 -1.2789  1.1806  1.2428
 1313SOL     OW15400   0.649   1.784   5.384 -0.5613  0.5355  0.2450
 1313SOL    HW115401   0.668   1.706   5.333 -3.3319 -0.7339  1.1403
 1313SOL    HW215402   0.628   1.841   5.310  1.0405  1.5480  0.5789
 1314SOL     OW15403   2.243   3.890   9.462 -0.1230  0.0870  0.2804
 1314SOL    HW115404   2.231   3.968   9.516 -2.9922 -0.3627  0.3161
 1314SOL    HW215405   2.233   3.820   9.527  1.1489  0.7244  1.1415
 1315SOL     OW15406   2.266   0.250  16.757  0.2634  0.2874  0.0012
 1315SOL    HW115407   2.211   0.308  16.704 -2.1748 -2.4077 -0.3639
 1315SOL    HW215408   2.206   0.179  16.780 -0.0673  0.9424  1.1865
 1316SOL     OW15409   3.262   3.210   3.603 -0.6115  0.1777  0.4685
 1316SOL    HW115410   3.334   3.221   3.541 -1.7123  1.5337 -0.5892
 1316SOL    HW215411   3.277   3.120   3.630  0.5945  0.7068  1.5575
 1317SOL     OW15412   3.177   4.701   6.706 -0.5532  0.4251 -0.0376
 1317SOL    HW115413   3.183   0.072   6.715 -2.1315  0.7154 -2.0145
 1317SOL    HW215414   3.218   4.697   6.619 -1.0875  1.5791 -0.3336
 1318SOL     OW15415   0.626   2.680   8.280 -0.3267  0.2335  0.0553
 1318SOL    HW115416   0.546   2.695   8.229  2.4744 -0.1262 -4.4523
 1318SOL    HW215417   0.665   2.630   8.209 -1.3366  0.1561 -0.4547
 1319SOL     OW15418   0.210   1.779   8.718 -0.6661  0.4388 -0.1683
 1319SOL    HW115419   0.249   1.716   8.779 -0.4265  0.5889 -0.1693
 1319SOL    HW215420   0.116   1.773   8.738 -0.7301 -0.7193 -0.8116
 1320SOL     OW15421   0.262   2.047   7.354 -0.6578  0.3851 -0.8141
 1320SOL    HW115422   0.185   2.089   7.393 -0.6761  0.2085 -0.6557
 1320SOL    HW215423   0.213   1.974   7.314 -0.9497  0.5147 -0.6919
 1321SOL     OW15424   2.413   3.171  13.506  0.0703  0.2664 -0.1769
 1321SOL    HW115425   2.499   3.189  13.544 -0.0740 -0.3438  0.4304
 1321SOL    HW215426   2.439   3.134  13.422  1.6167 -0.1439  0.4815
 1322SOL     OW15427   2.295   3.890   4.411 -0.1475 -0.2148 -0.2769
 1322SOL    HW115428   2.252   3.973   4.429 -0.4043 -0.4757  0.3154
 1322SOL    HW215429   2.260   3.835   4.481  1.0979  1.7488  1.8664
 1323SOL     OW15430   3.302   1.023  14.941 -0.3779 -0.2309  0.4519
 1323SOL    HW115431   3.345   1.083  15.002  0.4940 -2.1583  1.7288
 1323SOL    HW215432   3.363   1.026  14.867  0.2621 -0.3477  0.9844
 1324SOL     OW15433   3.722   1.898  17.010 -0.1576  0.9076 -0.2863
 1324SOL    HW115434   3.784   1.895  17.083 -0.2968 -1.0857 -0.2331
 1324SOL    HW215435   3.635   1.876  17.043  0.3565 -1.1857 -0.3012
 1325SOL     OW15436   1.619   2.811   7.048 -0.6607 -0.1822  0.1115
 1325SOL    HW115437   1.686   2.870   7.013 -0.1082 -1.1153 -0.3840
 1325SOL    HW215438   1.638   2.801   7.141 -1.6650  2.6207  0.6154
 1326SOL     OW15439   3.837   2.749   9.230 -0.2965 -0.5129 -0.0018
 1326SOL    HW115440   3.837   2.749   9.326  1.1290  1.3961  0.0019
 1326SOL    HW215441   3.871   2.836   9.207  0.9144 -0.9890 -0.0133
 1327SOL     OW15442   0.847   2.387  11.633  0.2128  0.1481 -0.3618
 1327SOL    HW115443   0.832   2.308  11.686 -0.3374  0.5268  0.0375
 1327SOL    HW215444   0.760   2.389  11.594  0.3053 -3.4720 -0.8423
 1328SOL     OW15445   2.009   2.782   5.510  0.1723 -0.2502  0.0630
 1328SOL    HW115446   1.969   2.696   5.523 -1.0303 -0.2025 -3.4689
 1328SOL    HW215447   2.065   2.771   5.433  0.1820  1.2802 -0.1359
 1329SOL     OW15448   1.557   0.551   2.311  0.3538 -0.1018 -0.3457
 1329SOL    HW115449   1.571   0.460   2.339 -0.8858 -0.6949 -1.6426
 1329SOL    HW215450   1.637   0.559   2.259 -0.1603 -0.3232 -1.1800
 1330SOL     OW15451   1.955   2.413   3.525 -0.0587  0.5479 -0.3559
 1330SOL    HW115452   2.049   2.418   3.543 -0.1366 -1.0269  0.5078
 1330SOL    HW215453   1.921   2.495   3.560  0.2849 -0.0234  1.3439
 1331SOL     OW15454   1.695   3.960   3.314 -0.4147 -0.1096 -0.4133
 1331SOL    HW115455   1.634   3.955   3.242 -2.1796 -2.2438  1.2456
 1331SOL    HW215456   1.684   3.870   3.345 -1.6455  1.0447  2.4875
 1332SOL     OW15457   1.299   2.784   6.642 -0.3659  0.2419  0.1486
 1332SOL    HW115458   1.348   2.849   6.693  1.1784 -0.2371 -0.7322
 1332SOL    HW215459   1.320   2.699   6.680  1.7788  0.0564 -1.4795
 1333SOL     OW15460   4.123   0.195   7.895  0.1553 -0.7110  0.8533
 1333SOL    HW115461   4.134   0.104   7.867 -1.1902 -0.7610  0.4894
 1333SOL    HW215462   4.160   0.193   7.983 -1.4699 -0.2553  1.5571
 1334SOL     OW15463   2.259   4.439   9.618  0.2432 -1.0033 -0.1549
 1334SOL    HW115464   2.287   4.520   9.661  0.4252 -2.5490  2.6182
 1334SOL    HW215465   2.238   4.382   9.691  0.1173  0.5688  1.0423
 1335SOL     OW15466   4.664   0.869  16.149 -0.0857  0.0495  0.2614
 1335SOL    HW115467   0.012   0.887  16.088  0.4796  1.6870  1.4247
 1335SOL    HW215468   4.621   0.954  16.144  0.6260  0.4286  0.7408
 1336SOL     OW15469   0.350   1.090  14.545 -0.2376 -0.5262  0.5839
 1336SOL    HW115470   0.294   1.076  14.621  1.3937 -0.4567  1.8099
 1336SOL    HW215471   0.282   1.071  14.481  1.8108  0.2103 -1.8174
 1337SOL     OW15472   2.741   2.502   8.769  0.0946  0.2106  0.0648
 1337SOL    HW115473   2.777   2.422   8.808  1.1134  0.5048 -0.2904
 1337SOL    HW215474   2.771   2.570   8.829 -1.2274  0.0168  0.9473
 1338SOL     OW15475   2.201   4.564   8.976 -0.3088 -0.0758  0.1294
 1338SOL    HW115476   2.268   4.550   9.043 -1.6943  0.3361  1.5888
 1338SOL    HW215477   2.123   4.523   9.011 -0.7982  2.1184  1.6056
 1339SOL     OW15478   2.420   2.044   7.509  0.2457 -1.0753  0.4531
 1339SOL    HW115479   2.478   1.973   7.538  0.3508 -0.4581  1.7180
 1339SOL    HW215480   2.455   2.054   7.420  0.1389 -2.8882  0.2010
 1340SOL     OW15481   1.578   2.148  12.775 -0.1589  0.2483 -0.2690
 1340SOL    HW115482   1.520   2.165  12.700  1.1364  1.2293 -1.0583
 1340SOL    HW215483   1.523   2.132  12.852  3.2493 -1.7976  1.7417
 1341SOL     OW15484   2.856   0.166   5.674  0.7318 -0.3880  0.0486
 1341SOL    HW115485   2.773   0.179   5.719 -0.8184 -1.7541 -2.4069
 1341SOL    HW215486   2.915   0.142   5.746  0.6773 -0.3399  0.1089
 1342SOL     OW15487   4.337   4.011   4.310 -0.3011 -0.4102  0.0801
 1342SOL    HW115488   4.249   4.015   4.347 -0.1163 -0.9953  0.5890
 1342SOL    HW215489   4.360   3.919   4.324  0.0309 -0.0425  1.9194
 1343SOL     OW15490   2.321   2.556   7.711  0.0790  0.2979  0.1457
 1343SOL    HW115491   2.301   2.462   7.707  0.7988  0.0309  2.5639
 1343SOL    HW215492   2.240   2.607   7.716  0.5373  1.2716 -2.4802
 1344SOL     OW15493   4.708   4.585   5.941  0.1813  0.1979 -0.2356
 1344SOL    HW115494   4.658   4.639   5.879  0.9937  0.4804 -0.6481
 1344SOL    HW215495   4.646   4.584   6.014 -1.7444 -2.4208 -1.9086
 1345SOL     OW15496   3.144   0.728   5.142 -0.1944  0.0037  0.2790
 1345SOL    HW115497   3.109   0.816   5.144  0.2060  0.1690  0.0479
 1345SOL    HW215498   3.100   0.681   5.213 -0.0974 -0.0599  0.2979
 1346SOL     OW15499   2.988   0.592   4.364 -0.4628 -0.4353 -0.2930
 1346SOL    HW115500   3.015   0.672   4.320 -1.8215 -0.6840 -1.5723
 1346SOL    HW215501   2.894   0.599   4.344 -0.2231 -3.2044 -2.3595
 1347SOL     OW15502   2.907   1.998  10.777 -0.5339 -0.1869  0.5209
 1347SOL    HW115503   2.939   1.989  10.867 -0.9619 -1.1550  0.5681
 1347SOL    HW215504   2.813   1.985  10.789 -0.8578  2.9367  1.4825
 1348SOL     OW15505   2.828   0.391  13.270  0.1866 -0.1176 -0.0057
 1348SOL    HW115506   2.850   0.303  13.238 -0.8507 -1.5529  3.2123
 1348SOL    HW215507   2.912   0.411  13.311  0.3638  4.1643 -2.4934
 1349SOL     OW15508   1.888   4.104  17.218  0.0666 -0.5045 -0.0578
 1349SOL    HW115509   1.939   4.160  17.159 -4.0862  1.5013 -1.7487
 1349SOL    HW215510   1.823   4.068  17.158  0.4606 -1.7715  0.2783
 1350SOL     OW15511   1.231   1.173   2.243  0.1688  0.0126 -0.3545
 1350SOL    HW115512   1.248   1.102   2.181  0.6744 -0.1597 -0.0176
 1350SOL    HW215513   1.234   1.127   2.326 -1.3255 -1.5103 -1.1435
 1351SOL     OW15514   0.676   1.360  11.777  0.6353  0.7297  0.3328
 1351SOL    HW115515   0.682   1.354  11.682 -0.4076 -0.4453  0.3416
 1351SOL    HW215516   0.764   1.356  11.814  0.7281  1.5682  0.2204
 1352SOL     OW15517   2.196   3.493   3.793  0.3041  0.5739  0.2006
 1352SOL    HW115518   2.202   3.585   3.819 -0.1986  0.9241 -0.9145
 1352SOL    HW215519   2.186   3.459   3.882  0.1751  0.3849  0.1131
 1353SOL     OW15520   0.747   2.592  10.552 -0.4389  0.0383  0.2627
 1353SOL    HW115521   0.841   2.581  10.537 -0.0343  1.6519  1.5592
 1353SOL    HW215522   0.728   2.676  10.509 -1.8741 -0.5290 -0.2315
 1354SOL     OW15523   1.165   0.909   4.779  0.7704 -0.1141  0.2438
 1354SOL    HW115524   1.181   0.823   4.740 -0.8062 -0.1164 -0.3790
 1354SOL    HW215525   1.248   0.957   4.785  0.1253  1.0383 -0.2595
 1355SOL     OW15526   1.430   4.165   3.095  0.0742 -0.1458  0.2319
 1355SOL    HW115527   1.489   4.089   3.099  0.2537 -0.0285 -0.1941
 1355SOL    HW215528   1.383   4.148   3.013  2.0362 -0.0615 -0.9159
 1356SOL     OW15529   3.558   2.577   5.334  0.0264 -0.2070 -0.1122
 1356SOL    HW115530   3.465   2.589   5.317  0.0789  0.1856 -0.1330
 1356SOL    HW215531   3.561   2.526   5.415  0.9217  0.0809  0.0406
 1357SOL     OW15532   0.342   4.306   5.819 -0.3021 -0.3548  0.3921
 1357SOL    HW115533   0.429   4.309   5.779 -1.1098 -0.0925 -1.3577
 1357SOL    HW215534   0.330   4.398   5.843 -0.8786 -0.2103 -0.4496
 1358SOL     OW15535   4.695   1.872  13.748  0.1733  0.6959 -0.5739
 1358SOL    HW115536   0.005   1.914  13.827  0.3144  0.1023 -0.3256
 1358SOL    HW215537   4.715   1.779  13.757 -0.5233  0.6600  0.4960
 1359SOL     OW15538   4.652   2.054   6.032 -0.2093 -0.2741  0.1483
 1359SOL    HW115539   0.009   2.105   6.041 -0.4224  0.1644 -0.4453
 1359SOL    HW215540   4.599   2.106   5.972  1.4081  1.3076  0.0588
 1360SOL     OW15541   2.932   0.669   5.768  0.6472 -0.0202 -0.1975
 1360SOL    HW115542   3.009   0.640   5.719  1.2928  0.5483  0.5031
 1360SOL    HW215543   2.866   0.605   5.740 -1.6325  2.8119 -1.2905
 1361SOL     OW15544   1.121   2.709   6.956  0.0503  0.1138  0.1486
 1361SOL    HW115545   1.148   2.797   6.929  0.8928  0.0287  0.7225
 1361SOL    HW215546   1.107   2.726   7.049  3.7173  1.7692  0.3991
 1362SOL     OW15547   0.251   3.288   4.109 -0.2391 -0.0636  0.8196
 1362SOL    HW115548   0.293   3.298   4.194  0.9147 -0.8835  0.3446
 1362SOL    HW215549   0.157   3.288   4.127 -0.0647 -0.1548  1.7108
 1363SOL     OW15550   4.128   1.927   0.958 -0.1131 -0.2469 -0.0496
 1363SOL    HW115551   4.082   2.011   0.950 -0.2114 -0.2640  0.3519
 1363SOL    HW215552   4.212   1.935   0.914 -0.1017  3.1708  0.5789
 1364SOL     OW15553   3.066   1.898   1.681  0.1251 -0.4328 -0.3978
 1364SOL    HW115554   3.144   1.848   1.705  0.2100 -1.4028 -2.7297
 1364SOL    HW215555   2.997   1.847   1.722  0.0623 -0.0533 -0.0310
 1365SOL     OW15556   3.127   1.606   8.179 -0.2094  0.5218  0.3308
 1365SOL    HW115557   3.074   1.627   8.256  0.9762  0.1507  1.2571
 1365SOL    HW215558   3.215   1.589   8.214 -0.4884  0.7686  1.1525
 1366SOL     OW15559   4.137   0.520   5.714 -0.0712  0.0254  0.1425
 1366SOL    HW115560   4.126   0.435   5.671 -0.4379 -0.2935  0.8683
 1366SOL    HW215561   4.060   0.563   5.676  1.5647  1.9387 -1.0183
 1367SOL     OW15562   0.586   1.932   8.145  0.2589  0.0554  0.6112
 1367SOL    HW115563   0.514   1.986   8.111 -0.1168 -0.3578  0.7507
 1367SOL    HW215564   0.635   1.914   8.065 -0.6066  2.3779 -0.4667
 1368SOL     OW15565   4.361   2.250  13.042  0.1136  0.6209  0.6815
 1368SOL    HW115566   4.377   2.155  13.043 -0.4138  0.5110 -1.5903
 1368SOL    HW215567   4.401   2.267  12.957  3.1754  0.3470  2.0686
 1369SOL     OW15568   0.659   0.266   7.114  0.3718  0.2149 -0.0134
 1369SOL    HW115569   0.575   0.264   7.160  1.6121 -0.6987  2.2044
 1369SOL    HW215570   0.653   0.346   7.062  0.0245 -1.6184 -2.8039
 1370SOL     OW15571   3.540   0.419   1.958  0.0122 -0.4631 -0.5596
 1370SOL    HW115572   3.455   0.457   1.933 -0.5946 -1.4135  0.0288
 1370SOL    HW215573   3.504   0.359   2.024 -1.3616  2.2847  1.2065
 1371SOL     OW15574   0.839   3.036  17.434  0.5382 -0.6000  1.2854
 1371SOL    HW115575   0.806   3.057  17.521  1.1637  0.8831  1.1625
 1371SOL    HW215576   0.756   2.994  17.411 -0.9031  1.2616  3.1268
 1372SOL     OW15577   4.648   2.529   8.417  0.3614  0.0032  0.7899
 1372SOL    HW115578   4.635   2.586   8.493 -0.3775  1.6933 -0.6092
 1372SOL    HW215579   0.013   2.507   8.445  0.4693 -1.0385 -0.3493
 1373SOL     OW15580   2.191   1.290   2.272 -0.5776  0.3870 -0.1285
 1373SOL    HW115581   2.130   1.334   2.214  1.2674  1.6820 -1.0844
 1373SOL    HW215582   2.143   1.290   2.355  1.5611  1.6702  1.1115
 1374SOL     OW15583   1.690   0.159   4.933 -0.2613  0.2450  0.0221
 1374SOL    HW115584   1.666   0.243   4.897 -0.6141  0.5229  0.9049
 1374SOL    HW215585   1.751   0.130   4.864  0.6680 -0.2714  1.0479
 1375SOL     OW15586   0.344   0.964   0.715 -0.3338  0.1502  0.1459
 1375SOL    HW115587   0.262   0.923   0.686 -0.0227  0.9111 -1.8505
 1375SOL    HW215588   0.407   0.920   0.658 -2.1355 -1.1749 -0.8413
 1376SOL     OW15589   1.118   3.316  11.108  0.3564 -0.5074  0.2277
 1376SOL    HW115590   1.058   3.390  11.121  1.7620  1.0292 -2.1045
 1376SOL    HW215591   1.062   3.252  11.152 -0.8256  0.8938  0.7865
 1377SOL     OW15592   0.360   0.335   1.952 -0.3945 -0.6353  0.7259
 1377SOL    HW115593   0.404   0.278   2.016 -1.2922 -0.2459  1.6953
 1377SOL    HW215594   0.274   0.348   1.991 -1.2121 -0.6874 -1.0621
 1378SOL     OW15595   0.906   3.850   3.449  0.4828 -0.2020 -0.0440
 1378SOL    HW115596   0.861   3.768   3.428  0.9240 -0.1699 -1.1142
 1378SOL    HW215597   0.924   3.891   3.364  0.9843 -2.0411 -0.8204
 1379SOL     OW15598   2.645   3.790   3.888 -0.1278  1.2819 -0.1759
 1379SOL    HW115599   2.578   3.772   3.954 -0.2144 -0.1361 -0.6494
 1379SOL    HW215600   2.626   3.714   3.834 -1.6468  0.7624  1.0803
 1380SOL     OW15601   0.434   2.093  12.405  0.0533  0.0502 -0.7651
 1380SOL    HW115602   0.418   2.080  12.498  1.7654 -1.4390 -0.6952
 1380SOL    HW215603   0.500   2.163  12.405  0.4966 -0.3820  0.3540
 1381SOL     OW15604   1.743   1.249   3.695  0.2256 -0.2595 -0.0333
 1381SOL    HW115605   1.732   1.343   3.680 -0.1393 -0.6297 -2.0418
 1381SOL    HW215606   1.770   1.225   3.607  2.1632  2.8131 -0.2779
 1382SOL     OW15607   1.276   4.139   8.121 -0.1109  0.6042  0.0460
 1382SOL    HW115608   1.346   4.184   8.075 -0.6939  0.5024 -0.9288
 1382SOL    HW215609   1.337   4.105   8.186  0.6676  0.6108 -0.6825
 1383SOL     OW15610   3.716   0.825   4.773 -0.1330 -0.1158  0.0877
 1383SOL    HW115611   3.632   0.810   4.729  1.1911 -1.3693 -2.0080
 1383SOL    HW215612   3.776   0.771   4.720 -1.9392 -0.1651 -1.8997
 1384SOL     OW15613   0.598   2.518   6.358  0.2071 -0.2250  0.3430
 1384SOL    HW115614   0.617   2.609   6.379  0.0386  0.3016 -1.7820
 1384SOL    HW215615   0.676   2.465   6.375  0.8223  1.0772  1.5368
 1385SOL     OW15616   0.105   2.305   9.036 -0.1002  0.2556  0.2049
 1385SOL    HW115617   0.132   2.299   9.128  0.5402 -1.0174 -0.0625
 1385SOL    HW215618   0.164   2.238   9.001  2.3095  3.1597 -1.3518
 1386SOL     OW15619   4.694   2.580   9.188 -0.4769 -0.2115  0.0720
 1386SOL    HW115620   0.014   2.547   9.266  0.5512 -4.0262 -2.1262
 1386SOL    HW215621   4.705   2.513   9.120  2.3300  0.5801 -0.2621
 1387SOL     OW15622   1.655   2.350   2.803  0.3075 -0.3590 -0.4334
 1387SOL    HW115623   1.611   2.278   2.847  0.6456 -2.1436 -3.0073
 1387SOL    HW215624   1.604   2.351   2.722  0.4581  2.3822 -0.5040
 1388SOL     OW15625   0.766   2.876   7.639 -0.4954 -0.2335 -0.4732
 1388SOL    HW115626   0.744   2.836   7.723 -0.2341  1.2315  0.2897
 1388SOL    HW215627   0.736   2.808   7.578  0.2282 -0.6531 -0.3645
 1389SOL     OW15628   1.199   3.953  15.403  0.4792  0.6432 -0.3876
 1389SOL    HW115629   1.124   3.896  15.387 -0.1455  0.7638  1.9746
 1389SOL    HW215630   1.226   3.934  15.493 -0.9897 -0.2761 -0.1436
 1390SOL     OW15631   2.835   2.582   0.150 -0.4363  0.2113 -0.5370
 1390SOL    HW115632   2.779   2.529   0.207 -1.9094  0.3348 -1.9037
 1390SOL    HW215633   2.772   2.649   0.125 -0.5342  0.6480  0.8299
 1391SOL     OW15634   4.342   0.589   9.087  0.0713 -0.4013 -0.3268
 1391SOL    HW115635   4.283   0.561   9.017 -1.7253  0.4906  0.8089
 1391SOL    HW215636   4.358   0.683   9.078 -0.1474 -0.2932  0.4272
 1392SOL     OW15637   0.887   4.125  15.853  0.1178  0.4955 -0.5676
 1392SOL    HW115638   0.901   4.216  15.878  1.2473  0.5824 -1.5165
 1392SOL    HW215639   0.915   4.076  15.931 -2.2641  0.8194  0.5133
 1393SOL     OW15640   0.180   1.729   3.620  0.9508 -0.2576 -0.6719
 1393SOL    HW115641   0.246   1.778   3.572  0.8132 -0.9837 -1.5916
 1393SOL    HW215642   0.103   1.740   3.564  0.4220 -0.6525 -0.0249
 1394SOL     OW15643   0.934   0.658   4.442  0.3875 -0.1338 -0.1943
 1394SOL    HW115644   0.841   0.659   4.466  0.7986  0.6448  1.3344
 1394SOL    HW215645   0.953   0.749   4.421 -0.8724  0.7444  2.4806
 1395SOL     OW15646   0.648   4.015   7.946  0.3308 -0.1757 -0.1558
 1395SOL    HW115647   0.712   3.996   7.877  0.6455  0.8267 -0.1290
 1395SOL    HW215648   0.687   3.958   8.013  0.7120 -1.5290 -1.5100
 1396SOL     OW15649   2.326   2.739   0.454  0.1573  0.2001 -0.4178
 1396SOL    HW115650   2.414   2.761   0.485 -0.3384 -0.8037  1.7492
 1396SOL    HW215651   2.282   2.700   0.530  1.0213  1.9816  1.0033
 1397SOL     OW15652   2.205   0.549   2.245  0.2990 -0.7867  0.3164
 1397SOL    HW115653   2.211   0.624   2.304 -2.7011 -2.3707  2.5683
 1397SOL    HW215654   2.188   0.479   2.307 -1.3124  1.3614  2.2954
 1398SOL     OW15655   2.410   2.988   0.286  0.2978 -0.6791 -0.1153
 1398SOL    HW115656   2.378   3.002   0.197  0.9862 -1.8008 -0.5329
 1398SOL    HW215657   2.326   2.976   0.331  0.1436  3.2812  0.6381
 1399SOL     OW15658   4.536   0.807  10.744 -0.8064  0.1605 -0.3489
 1399SOL    HW115659   4.450   0.846  10.759 -1.2587 -0.3513 -1.6069
 1399SOL    HW215660   4.548   0.766  10.830  2.3874 -0.5994 -1.1544
 1400SOL     OW15661   3.990   2.711  16.820 -0.6958 -0.2922  0.1300
 1400SOL    HW115662   3.970   2.629  16.866 -0.6709  0.9293  2.3150
 1400SOL    HW215663   3.907   2.741  16.784 -1.1531 -2.1898 -0.4388
 1401SOL     OW15664   3.327   2.480   7.031  0.2105  0.5265 -0.3244
 1401SOL    HW115665   3.270   2.517   6.963 -0.1737 -1.2957 -0.9889
 1401SOL    HW215666   3.274   2.433   7.094 -0.2128  1.4350 -0.0108
 1402SOL     OW15667   1.442   3.418   4.028 -0.1900 -0.0023  0.4247
 1402SOL    HW115668   1.453   3.513   4.032  0.6897 -0.0528 -0.7754
 1402SOL    HW215669   1.534   3.396   4.015  0.0654 -0.4380  2.9539
 1403SOL     OW15670   1.950   0.331  14.770 -0.4000  0.5083  0.1614
 1403SOL    HW115671   1.905   0.310  14.852  2.8683  1.3741  2.1473
 1403SOL    HW215672   1.881   0.300  14.711 -0.0361  1.7704 -0.9092
 1404SOL     OW15673   0.585   3.789   8.648 -0.4080  0.1991  0.0812
 1404SOL    HW115674   0.566   3.733   8.723  1.4946 -2.6805 -1.5796
 1404SOL    HW215675   0.537   3.746   8.577  0.9159 -1.5575  0.2499
 1405SOL     OW15676   3.154   1.611   5.807  0.2911 -0.2154 -0.3781
 1405SOL    HW115677   3.165   1.521   5.775  1.2286  0.3174 -1.5312
 1405SOL    HW215678   3.119   1.653   5.729 -0.6963 -2.0130 -0.8999
 1406SOL     OW15679   3.014   1.416   9.916  0.2222  0.1438 -0.1010
 1406SOL    HW115680   2.926   1.382   9.899  1.0636 -3.5505  3.0547
 1406SOL    HW215681   3.037   1.470   9.840 -0.6116 -1.3977 -1.4404
 1407SOL     OW15682   4.197   2.027   3.190 -0.3249 -0.9173 -0.3286
 1407SOL    HW115683   4.130   1.961   3.176  0.5852 -1.8060 -0.5245
 1407SOL    HW215684   4.246   2.025   3.108  2.0692  1.3375  1.0351
 1408SOL     OW15685   4.081   1.164   3.363  0.2347  0.3155  0.0828
 1408SOL    HW115686   4.057   1.074   3.386  2.9628 -0.1820  0.9817
 1408SOL    HW215687   3.996   1.182   3.324  1.2064 -0.6008 -2.4960
 1409SOL     OW15688   2.369   3.526   0.796 -0.3988  0.6861  0.0054
 1409SOL    HW115689   2.453   3.551   0.833 -0.0630 -0.4800  0.0505
 1409SOL    HW215690   2.396   3.454   0.738 -1.0557  1.4984 -1.2989
 1410SOL     OW15691   4.721   2.785   5.994  0.5442 -0.5292  0.1791
 1410SOL    HW115692   0.077   2.750   5.955 -0.3493 -0.3182 -1.8337
 1410SOL    HW215693   4.678   2.710   6.035  0.6437 -1.1448 -0.8451
 1411SOL     OW15694   3.406   0.362  15.828  0.2766 -0.1369 -0.3072
 1411SOL    HW115695   3.430   0.424  15.897 -1.1137  0.3681 -0.2798
 1411SOL    HW215696   3.360   0.303  15.887 -1.2607  1.1072 -0.2607
 1412SOL     OW15697   4.640   3.735   8.327  0.2313  0.0078  0.7476
 1412SOL    HW115698   4.626   3.659   8.383 -2.0899  0.5861  0.9464
 1412SOL    HW215699   4.639   3.800   8.397 -1.8161 -0.4449  1.1459
 1413SOL     OW15700   3.119   1.042   5.968 -0.2899 -0.4659 -0.0518
 1413SOL    HW115701   3.168   0.977   5.917 -0.0418  0.2186 -0.6967
 1413SOL    HW215702   3.121   1.116   5.907 -2.1147  0.4135  0.9690
 1414SOL     OW15703   2.517   1.829  10.559  0.0286  0.3277  0.0397
 1414SOL    HW115704   2.595   1.780  10.586 -0.5258 -1.0806 -0.8819
 1414SOL    HW215705   2.556   1.916  10.561  0.1026  0.2615  1.3762
 1415SOL     OW15706   3.805   2.054  13.699  1.0366  0.2906  0.0857
 1415SOL    HW115707   3.710   2.054  13.713  0.5740  0.1856 -3.0303
 1415SOL    HW215708   3.833   1.977  13.749  0.2465 -1.2063 -1.7176
 1416SOL     OW15709   4.607   1.977   5.309  0.0311 -0.7651 -0.2581
 1416SOL    HW115710   4.640   1.905   5.255 -0.0397 -1.2363  0.3187
 1416SOL    HW215711   4.624   1.929   5.391  0.1920 -1.9875 -1.0144
 1417SOL     OW15712   1.357   0.935   2.450 -0.3095 -0.1759  0.5639
 1417SOL    HW115713   1.418   0.917   2.378  0.1311  1.5437  0.5032
 1417SOL    HW215714   1.410   0.994   2.504 -0.2996  0.6566 -0.3634
 1418SOL     OW15715   3.882   1.095   8.927  0.1874 -0.2797  0.0817
 1418SOL    HW115716   3.812   1.030   8.929  3.5049 -3.8193  1.2120
 1418SOL    HW215717   3.872   1.134   9.013  1.8956  2.0935 -0.7971
 1419SOL     OW15718   1.973   3.542   8.689  0.0062  0.0071 -0.4898
 1419SOL    HW115719   1.910   3.485   8.643 -1.1409  1.4200 -0.6589
 1419SOL    HW215720   1.929   3.626   8.684  1.4179  0.6910 -1.3312
 1420SOL     OW15721   4.292   2.990   3.539  0.8851  0.1387  0.6452
 1420SOL    HW115722   4.245   3.009   3.620  2.5991 -2.2704  2.2041
 1420SOL    HW215723   4.261   2.900   3.525  2.7723 -0.5637  0.9403
 1421SOL     OW15724   2.242   2.863  14.861 -0.1098 -0.0537 -0.1810
 1421SOL    HW115725   2.293   2.813  14.797  0.0424  1.8391 -1.5371
 1421SOL    HW215726   2.307   2.896  14.923  0.9894  1.5856 -2.1851
 1422SOL     OW15727   1.669   4.151  14.832  0.2513 -0.4289  0.2068
 1422SOL    HW115728   1.586   4.191  14.804  0.0819 -1.2210 -0.4407
 1422SOL    HW215729   1.691   4.204  14.909 -0.6356 -0.9501  0.8194
 1423SOL     OW15730   3.094   0.265   7.936 -0.4740 -0.0157  0.3891
 1423SOL    HW115731   3.117   0.244   8.026 -1.3201 -1.8647  0.1701
 1423SOL    HW215732   3.067   0.180   7.901 -0.5016  0.5650 -1.0108
 1424SOL     OW15733   2.909   0.311  14.931  0.9080  0.1586 -0.4338
 1424SOL    HW115734   2.914   0.342  15.022 -0.9085 -0.3672 -0.1568
 1424SOL    HW215735   2.922   0.216  14.939  0.1831  0.1085  0.1204
 1425SOL     OW15736   2.079   4.138   7.208 -0.6163 -0.2545  0.1526
 1425SOL    HW115737   2.083   4.064   7.267  0.1989 -0.0626  0.3419
 1425SOL    HW215738   2.167   4.174   7.222 -1.2932  1.5530 -0.1701
 1426SOL     OW15739   2.818   2.130   9.253  0.2670  0.1144 -0.1125
 1426SOL    HW115740   2.879   2.191   9.296 -0.6769 -0.1370  1.6033
 1426SOL    HW215741   2.864   2.049   9.273 -1.2705 -0.5386  0.7364
 1427SOL     OW15742   4.613   4.453   4.126 -0.1237  0.3270  0.0831
 1427SOL    HW115743   4.578   4.390   4.063  0.0273  1.2892 -0.9596
 1427SOL    HW215744   4.634   4.533   4.079  2.8123 -0.8509 -0.5741
 1428SOL     OW15745   4.227   3.379   4.709 -0.2622  0.3111  0.5575
 1428SOL    HW115746   4.178   3.312   4.661  1.6667 -1.1182  0.6201
 1428SOL    HW215747   4.156   3.399   4.770 -0.4062 -2.1773  1.1980
 1429SOL     OW15748   4.625   3.819   4.722 -0.0857 -0.1845 -0.3774
 1429SOL    HW115749   4.673   3.894   4.758  1.2271 -0.3260 -1.8312
 1429SOL    HW215750   4.699   3.772   4.683 -0.0097  0.1716 -0.6717
 1430SOL     OW15751   4.278   2.855  14.802 -0.7494 -0.5427  0.8409
 1430SOL    HW115752   4.234   2.930  14.842 -0.4619  0.1606 -0.1548
 1430SOL    HW215753   4.353   2.899  14.763 -1.5107  0.9628  1.0890
 1431SOL     OW15754   2.819   2.220   9.788 -0.1067  0.4984  0.1489
 1431SOL    HW115755   2.885   2.170   9.741 -0.2267 -0.4748  1.0152
 1431SOL    HW215756   2.804   2.159   9.861  1.2914  1.0247  0.8784
 1432SOL     OW15757   1.620   3.212   5.935  0.2407  0.2486 -0.1070
 1432SOL    HW115758   1.624   3.290   5.991 -1.5554  0.1417  0.1736
 1432SOL    HW215759   1.524   3.209   5.927  0.4785 -2.5787 -1.8807
 1433SOL     OW15760   2.596   2.712   3.176 -0.2406  0.8465  0.6108
 1433SOL    HW115761   2.545   2.790   3.198 -1.5551  0.2487 -0.3383
 1433SOL    HW215762   2.608   2.745   3.088 -1.5600 -1.0727 -0.2929
 1434SOL     OW15763   1.432   3.428   9.975  0.2387  0.4498  0.5082
 1434SOL    HW115764   1.527   3.444   9.971  0.2770  0.5912  1.9690
 1434SOL    HW215765   1.431   3.439  10.070  2.3965  0.8669  0.4881
 1435SOL     OW15766   2.829   3.445   3.609 -0.0760  0.1488 -0.5794
 1435SOL    HW115767   2.886   3.502   3.661 -0.4584 -1.2898  1.4023
 1435SOL    HW215768   2.769   3.513   3.577  0.4519  1.8724  2.1020
 1436SOL     OW15769   0.628   4.156   0.664  0.1539 -0.3796  0.2798
 1436SOL    HW115770   0.662   4.169   0.752 -0.3334  0.6255  0.3193
 1436SOL    HW215771   0.594   4.067   0.675  0.2357 -0.6330 -1.4424
 1437SOL     OW15772   3.609   0.708   6.057  0.1861  0.0148 -0.6597
 1437SOL    HW115773   3.560   0.738   6.134 -0.0350 -3.4425  0.5121
 1437SOL    HW215774   3.700   0.708   6.088  0.0987  0.6548 -0.3944
 1438SOL     OW15775   0.394   0.957   2.193 -0.5816 -0.3289  0.8891
 1438SOL    HW115776   0.390   0.913   2.278 -0.1649 -0.3674  0.8885
 1438SOL    HW215777   0.485   0.932   2.174 -0.0453  1.6173  0.8453
 1439SOL     OW15778   1.685   4.006   1.608  0.0114  0.8204  0.1924
 1439SOL    HW115779   1.755   3.950   1.577 -1.6819 -0.9630 -0.3864
 1439SOL    HW215780   1.708   4.085   1.558 -0.2579  0.7157 -0.0980
 1440SOL     OW15781   0.393   0.234   6.851 -0.3023  0.4088  0.3419
 1440SOL    HW115782   0.321   0.172   6.866 -1.2022  1.5089  0.6204
 1440SOL    HW215783   0.396   0.241   6.756  2.0496 -1.5719  0.2729
 1441SOL     OW15784   1.951   3.869   7.862  0.2089  0.1911 -0.0238
 1441SOL    HW115785   1.918   3.783   7.886 -2.1199  1.2823  0.6219
 1441SOL    HW215786   1.870   3.919   7.855  0.8559  1.2233 -0.1479
 1442SOL     OW15787   2.768   4.168   8.252 -0.3082 -0.4694  0.2962
 1442SOL    HW115788   2.843   4.211   8.212 -2.1293  1.5342 -0.9160
 1442SOL    HW215789   2.767   4.189   8.346  0.0237  1.4742 -0.1379
 1443SOL     OW15790   0.321   4.454   2.861  0.0393 -0.2463  0.3031
 1443SOL    HW115791   0.299   4.428   2.951 -0.2324 -0.5837  0.1396
 1443SOL    HW215792   0.410   4.490   2.868 -0.9226  1.7476  2.1734
 1444SOL     OW15793   1.003   0.331   3.060 -0.5259 -0.1529  0.3681
 1444SOL    HW115794   1.050   0.256   3.024  0.7648  1.8002 -2.0213
 1444SOL    HW215795   0.917   0.292   3.069 -0.1939 -0.9394  0.1047
 1445SOL     OW15796   0.616   4.252   9.265  0.3367 -0.0212  0.3545
 1445SOL    HW115797   0.635   4.346   9.274 -1.2329  0.2323  1.0074
 1445SOL    HW215798   0.691   4.230   9.210  0.9468  1.6356  0.5274
 1446SOL     OW15799   0.682   1.004   7.283  0.0715 -0.1905  0.4575
 1446SOL    HW115800   0.636   1.022   7.365  2.7694  0.1953  1.8926
 1446SOL    HW215801   0.743   0.939   7.318  0.0239  1.0082  2.8105
 1447SOL     OW15802   3.035   0.910  13.608 -0.3538 -0.2351 -0.0535
 1447SOL    HW115803   3.002   0.869  13.528  0.4468 -1.6763  0.3609
 1447SOL    HW215804   3.126   0.886  13.596 -1.1105 -2.5202 -1.2059
 1448SOL     OW15805   0.827   4.106   9.129  0.3189  0.7735 -0.4730
 1448SOL    HW115806   0.893   4.114   9.060  1.2834  0.1385  0.3685
 1448SOL    HW215807   0.867   4.055   9.200 -1.9489  0.4984  0.6249
 1449SOL     OW15808   4.013   1.787   7.988 -0.2052 -0.4479 -0.7397
 1449SOL    HW115809   4.051   1.738   8.061 -1.1319 -1.2203 -0.7719
 1449SOL    HW215810   4.060   1.870   7.983 -0.2758 -0.4300 -1.1008
 1450SOL     OW15811   1.316   4.067  10.221  0.0403 -0.1263 -0.5413
 1450SOL    HW115812   1.276   4.153  10.208  0.5811  0.3227  0.6698
 1450SOL    HW215813   1.371   4.073  10.300  1.4507  2.7031 -1.7328
 1451SOL     OW15814   4.721   3.818   4.385  0.7033 -0.1874  0.2627
 1451SOL    HW115815   4.691   3.855   4.302 -1.4105 -2.0258  0.1911
 1451SOL    HW215816   4.643   3.775   4.422  1.2128 -1.4392 -0.0990
 1452SOL     OW15817   0.779   4.260  17.405  0.2227  0.3059  0.5541
 1452SOL    HW115818   0.767   4.209  17.485 -1.5495 -3.6784 -2.2724
 1452SOL    HW215819   0.740   4.340  17.441 -0.9437 -0.1076  0.2332
 1453SOL     OW15820   1.742   2.796   6.522 -0.3170  0.8261 -0.5540
 1453SOL    HW115821   1.730   2.701   6.526  1.4690  0.6425  0.7166
 1453SOL    HW215822   1.828   2.820   6.557 -1.2755  0.6820  1.8956
 1454SOL     OW15823   2.821   3.178   8.574  0.6447 -0.8232  0.0338
 1454SOL    HW115824   2.871   3.146   8.649  2.0310  0.3510 -0.4059
 1454SOL    HW215825   2.796   3.263   8.610 -3.9722 -2.8987  1.7206
 1455SOL     OW15826   3.271   1.626   2.889  0.1505  0.3060 -0.1571
 1455SOL    HW115827   3.353   1.642   2.934 -0.4368  0.3095  0.9093
 1455SOL    HW215828   3.289   1.536   2.864  0.8550  1.1683 -2.7754
 1456SOL     OW15829   3.257   1.315   0.598 -0.6398 -0.2336  0.3029
 1456SOL    HW115830   3.314   1.340   0.671 -0.7052 -0.0654  0.2983
 1456SOL    HW215831   3.264   1.220   0.595 -1.8438 -0.3192  0.2938
 1457SOL     OW15832   3.663   2.832   2.124  0.2321  0.6614  0.4111
 1457SOL    HW115833   3.594   2.873   2.175 -2.3448  0.0145 -2.5824
 1457SOL    HW215834   3.671   2.894   2.051  1.6470 -0.5276 -0.4365
 1458SOL     OW15835   3.680   2.014   2.331 -0.2780  0.1521 -0.1682
 1458SOL    HW115836   3.623   1.954   2.379 -0.9078  1.2329  0.4347
 1458SOL    HW215837   3.683   2.080   2.401 -0.9636 -1.2129  1.1365
 1459SOL     OW15838   0.826   1.105   3.036  0.2037  0.1419 -0.3058
 1459SOL    HW115839   0.818   1.041   3.106 -1.8145  1.6702  0.8628
 1459SOL    HW215840   0.908   1.149   3.059 -0.0843  1.2655 -1.4221
 1460SOL     OW15841   2.535   2.435   7.329 -0.3240  0.1359 -0.0918
 1460SOL    HW115842   2.486   2.410   7.408  0.3639 -1.2238 -0.0981
 1460SOL    HW215843   2.607   2.487   7.365  1.0720 -2.0721  0.2838
 1461SOL     OW15844   3.022   1.607   4.313  0.3823  0.4248 -0.2726
 1461SOL    HW115845   3.023   1.586   4.220 -0.3503  1.0149 -0.4156
 1461SOL    HW215846   3.077   1.686   4.308  0.6047  0.2904  0.0682
 1462SOL     OW15847   1.905   0.471   8.097  0.1990 -0.5194 -0.1196
 1462SOL    HW115848   1.979   0.479   8.158  1.5870  1.9308 -2.0808
 1462SOL    HW215849   1.928   0.386   8.061  1.8487  0.2890 -0.9812
 1463SOL     OW15850   0.592   1.855   7.220 -0.2772  0.3816 -0.3818
 1463SOL    HW115851   0.582   1.846   7.314  2.7290 -0.3673 -0.1379
 1463SOL    HW215852   0.684   1.880   7.221 -0.0141 -0.5472 -1.3156
 1464SOL     OW15853   3.333   1.552   2.307 -0.1034  0.0393 -0.2071
 1464SOL    HW115854   3.252   1.573   2.259 -0.5918  0.0782  0.6421
 1464SOL    HW215855   3.347   1.459   2.291  0.3963  0.3460 -1.5511
 1465SOL     OW15856   2.941   4.606   4.152 -0.1541  0.9232  0.2322
 1465SOL    HW115857   2.948   4.614   4.247 -1.1333  0.5273  0.3400
 1465SOL    HW215858   3.005   4.673   4.128  2.5836 -1.5735  0.6314
 1466SOL     OW15859   0.935   3.468   4.389 -0.1427  0.2502  0.3023
 1466SOL    HW115860   1.029   3.478   4.376 -0.0154  2.6750  3.0101
 1466SOL    HW215861   0.911   3.559   4.408 -2.4751 -0.1351 -0.8435
 1467SOL     OW15862   3.871   0.867   7.166  0.6703  0.1243 -0.8277
 1467SOL    HW115863   3.776   0.870   7.178  0.4496 -0.2308 -2.3829
 1467SOL    HW215864   3.880   0.773   7.152  3.9249  0.5075 -1.1669
 1468SOL     OW15865   3.139   2.786   8.567 -0.7598 -0.3302  0.0052
 1468SOL    HW115866   3.168   2.840   8.641 -0.2089  0.8401 -1.0625
 1468SOL    HW215867   3.088   2.853   8.522  2.0620  1.0559 -1.1413
 1469SOL     OW15868   1.011   4.060   3.936 -0.2801  0.0805  0.4442
 1469SOL    HW115869   1.074   4.128   3.961 -0.1235  0.2989 -0.5333
 1469SOL    HW215870   0.965   4.037   4.016 -0.6162  1.9086  0.7825
 1470SOL     OW15871   0.411   2.516   3.408  0.6310 -0.4016 -0.1060
 1470SOL    HW115872   0.327   2.503   3.453  0.7595  0.1184  0.2814
 1470SOL    HW215873   0.394   2.450   3.341 -2.6268  0.5621 -0.1787
 1471SOL     OW15874   2.890   4.288  17.068 -0.4861 -0.0444  0.8683
 1471SOL    HW115875   2.798   4.262  17.075 -0.1659 -1.5711 -0.6449
 1471SOL    HW215876   2.928   4.204  17.042 -0.0204  0.2427  0.6424
 1472SOL     OW15877   3.361   0.313  11.862  0.4214 -0.2542 -0.5205
 1472SOL    HW115878   3.413   0.362  11.799  0.5084  1.5517  0.9593
 1472SOL    HW215879   3.412   0.318  11.943  0.0367 -1.7456 -0.1783
 1473SOL     OW15880   4.186   2.230   2.277  0.5122 -0.5324 -0.2593
 1473SOL    HW115881   4.152   2.154   2.231 -1.4341 -0.0111  0.3037
 1473SOL    HW215882   4.262   2.258   2.227  0.4970 -0.2244 -0.1131
 1474SOL     OW15883   3.972   1.971   8.935 -0.3883 -0.3300 -0.3593
 1474SOL    HW115884   3.934   1.905   8.993  0.1161 -1.3078 -1.1386
 1474SOL    HW215885   4.027   2.019   8.996 -1.3892 -1.3150  1.3283
 1475SOL     OW15886   2.425   2.426   2.500 -0.0940  0.0983 -0.0601
 1475SOL    HW115887   2.342   2.393   2.536  2.2674 -3.5635  1.9923
 1475SOL    HW215888   2.470   2.473   2.569  1.0738 -2.0995  0.6798
 1476SOL     OW15889   0.200   1.539  10.465 -0.0036  0.3293  0.6413
 1476SOL    HW115890   0.267   1.471  10.469  1.0784  1.2872 -1.0743
 1476SOL    HW215891   0.144   1.507  10.394 -0.5336  2.0161  0.2946
 1477SOL     OW15892   4.662   1.236   3.936  0.6237  0.0055  0.8179
 1477SOL    HW115893   4.664   1.155   3.988 -2.6385 -0.2748  0.5036
 1477SOL    HW215894   4.699   1.206   3.853  0.9340 -0.7512  1.2314
 1478SOL     OW15895   1.431   3.435  10.249  0.6208  0.3396  0.1497
 1478SOL    HW115896   1.516   3.446  10.291  0.5569  0.3479  0.2775
 1478SOL    HW215897   1.381   3.490  10.310  0.5742 -0.0692  0.4801
 1479SOL     OW15898   4.640   1.603   4.765 -0.0508  0.6736  0.7231
 1479SOL    HW115899   4.689   1.681   4.791  0.4444  0.2543  1.0519
 1479SOL    HW215900   4.616   1.621   4.674 -1.1600 -1.1227  0.6718
 1480SOL     OW15901   1.111   1.547   0.944  0.2833 -0.4964 -0.6233
 1480SOL    HW115902   1.094   1.573   1.034  1.3668 -0.3364 -0.4670
 1480SOL    HW215903   1.205   1.530   0.947  0.5939  1.1984 -1.0779
 1481SOL     OW15904   3.678   3.228   1.135 -0.4700 -0.2439  0.1205
 1481SOL    HW115905   3.597   3.198   1.094 -1.1188 -1.5693  2.3336
 1481SOL    HW215906   3.645   3.298   1.192 -1.1148  0.1809 -0.7890
 1482SOL     OW15907   4.488   4.208   8.071 -0.5300 -0.2520 -0.0621
 1482SOL    HW115908   4.547   4.190   8.145  0.9712  1.3860 -0.8515
 1482SOL    HW215909   4.402   4.190   8.109 -0.9844 -0.6045 -1.2745
 1483SOL     OW15910   0.659   1.896   4.537 -0.3907 -0.0427 -0.2828
 1483SOL    HW115911   0.683   1.969   4.594  0.4942 -1.7229  1.5054
 1483SOL    HW215912   0.569   1.922   4.521  0.2886  2.6477  0.1931
 1484SOL     OW15913   0.350   4.392   7.965 -0.3390  0.1900  0.3175
 1484SOL    HW115914   0.321   4.440   8.043 -1.5292 -0.0715  0.0437
 1484SOL    HW215915   0.396   4.315   7.997  1.4829  1.3326  0.4296
 1485SOL     OW15916   1.580   0.648  14.823 -0.2202 -0.2882  0.3175
 1485SOL    HW115917   1.591   0.561  14.785 -0.6461 -0.3259  0.2765
 1485SOL    HW215918   1.489   0.667  14.801  0.2919 -0.2093 -1.7400
 1486SOL     OW15919   3.219   2.729   6.139 -0.4947 -0.6389 -0.9727
 1486SOL    HW115920   3.173   2.648   6.161 -1.1939 -0.1537 -0.6521
 1486SOL    HW215921   3.280   2.728   6.213 -0.5900 -0.3456 -0.8899
 1487SOL     OW15922   1.796   4.005   0.994 -0.4456  0.0253 -0.1355
 1487SOL    HW115923   1.869   3.952   1.027 -0.5651  1.1104  1.8728
 1487SOL    HW215924   1.829   4.046   0.914 -1.0703 -1.3803 -1.1007
 1488SOL     OW15925   1.021   2.902   7.766 -0.5947 -0.1070  0.0913
 1488SOL    HW115926   0.994   2.915   7.857 -1.1397  0.7174 -0.1953
 1488SOL    HW215927   0.937   2.923   7.727  0.4080  2.6633 -0.5588
 1489SOL     OW15928   2.014   1.879  17.051 -0.4370  0.4734 -0.2394
 1489SOL    HW115929   2.007   1.972  17.029  0.9938 -0.2313 -3.7597
 1489SOL    HW215930   2.056   1.878  17.137  1.3494  0.4511 -1.1063
 1490SOL     OW15931   2.007   0.698  14.459 -0.3401  0.4202  0.3564
 1490SOL    HW115932   1.972   0.787  14.472  0.2256  0.7791 -0.5134
 1490SOL    HW215933   1.929   0.651  14.429  1.1597 -2.1525  0.5775
 1491SOL     OW15934   3.386   0.137   7.263 -0.1829 -0.3846 -0.2394
 1491SOL    HW115935   3.304   0.176   7.293 -0.7188 -0.7482 -1.2183
 1491SOL    HW215936   3.357   0.050   7.236 -0.0702 -0.5739  0.2455
 1492SOL     OW15937   1.132   1.309   6.369 -0.4667 -0.1901 -0.6828
 1492SOL    HW115938   1.208   1.342   6.322  0.2887  0.5926  1.0908
 1492SOL    HW215939   1.101   1.381   6.424 -0.6827 -0.8611  0.0809
 1493SOL     OW15940   1.081   0.215   4.217  0.6517 -0.5941  0.6566
 1493SOL    HW115941   1.021   0.172   4.156 -0.1320  0.2722  0.8180
 1493SOL    HW215942   1.139   0.143   4.243 -0.4391 -1.9060 -0.5617
 1494SOL     OW15943   2.157   3.767   3.854 -0.3279  0.3771 -0.0779
 1494SOL    HW115944   2.062   3.767   3.842 -0.1811 -0.0554 -1.2291
 1494SOL    HW215945   2.189   3.842   3.804 -0.6040  1.1851  0.9576
 1495SOL     OW15946   0.392   3.315   4.638 -0.0447 -0.3264 -0.0852
 1495SOL    HW115947   0.301   3.305   4.666 -0.0822  1.7801  0.5787
 1495SOL    HW215948   0.418   3.394   4.686 -0.2354  0.7141 -1.6874
 1496SOL     OW15949   0.569   1.557   1.397  0.0384  0.0527 -0.0810
 1496SOL    HW115950   0.597   1.553   1.305 -0.1470 -0.6824 -0.1107
 1496SOL    HW215951   0.556   1.650   1.416  4.8670  1.0474 -1.6176
 1497SOL     OW15952   3.066   1.160   0.425  0.0924 -0.6701  0.0270
 1497SOL    HW115953   3.085   1.157   0.519 -0.5012 -0.9286  0.1397
 1497SOL    HW215954   3.108   1.082   0.390 -0.4674 -0.2520 -1.5632
 1498SOL     OW15955   2.116   1.865   4.158  0.1233  0.3472 -0.2567
 1498SOL    HW115956   2.050   1.906   4.102  0.7142  1.7647  0.0969
 1498SOL    HW215957   2.198   1.900   4.123  2.9106 -1.8721  4.1560
 1499SOL     OW15958   0.679   3.182   9.949 -0.0666 -0.6753 -0.1782
 1499SOL    HW115959   0.767   3.220   9.948 -1.0553  1.4195 -4.1673
 1499SOL    HW215960   0.639   3.230   9.877 -1.7507 -1.4093  0.2702
 1500SOL     OW15961   0.680   2.089   2.613 -0.0037 -0.1689  0.0531
 1500SOL    HW115962   0.710   2.109   2.525 -0.2141 -2.0317 -0.4251
 1500SOL    HW215963   0.587   2.069   2.602  0.5426 -2.0121 -1.0660
 1501SOL     OW15964   2.980   2.170   5.827  0.2313 -0.1301 -0.2131
 1501SOL    HW115965   2.946   2.100   5.883 -2.4000  0.3726 -1.1979
 1501SOL    HW215966   2.923   2.179   5.750  0.7794  0.1478 -0.5871
 1502SOL     OW15967   1.418   3.607   1.865 -0.4334 -0.3635  0.2788
 1502SOL    HW115968   1.484   3.664   1.905 -0.3454 -1.4379  1.6624
 1502SOL    HW215969   1.364   3.669   1.817  0.9565  1.6884  1.3639
 1503SOL     OW15970   1.827   1.759   2.677 -0.0746 -0.2060  0.2236
 1503SOL    HW115971   1.776   1.801   2.746 -1.5210 -1.9347  0.1781
 1503SOL    HW215972   1.865   1.839   2.640  1.1313 -0.7067  0.3850
 1504SOL     OW15973   2.140   1.989   1.221 -0.3984  0.1893 -0.0924
 1504SOL    HW115974   2.163   1.947   1.138 -1.9640  1.1972 -1.0406
 1504SOL    HW215975   2.058   1.940   1.229 -2.0318  2.9460 -0.0751
 1505SOL     OW15976   0.493   0.660  13.657 -0.4064  0.8684 -0.1191
 1505SOL    HW115977   0.509   0.612  13.738 -1.2744 -1.3744 -1.2780
 1505SOL    HW215978   0.539   0.744  13.658  0.3126  0.5133 -3.0127
 1506SOL     OW15979   2.521   3.149   5.448 -0.6076  0.5195 -0.9335
 1506SOL    HW115980   2.517   3.172   5.541  2.4630  0.8312 -0.8659
 1506SOL    HW215981   2.588   3.209   5.415  1.9971 -1.8106  0.0897
 1507SOL     OW15982   3.595   0.455  12.448  0.3281 -0.3827  0.0223
 1507SOL    HW115983   3.562   0.376  12.406 -0.4308  1.1036 -2.1508
 1507SOL    HW215984   3.553   0.534  12.415  1.0427 -0.2863 -0.6450
 1508SOL     OW15985   1.465   0.470   3.688  0.0023  0.4844  0.8267
 1508SOL    HW115986   1.369   0.469   3.694  0.0379 -2.6172  0.8660
 1508SOL    HW215987   1.491   0.380   3.706 -0.9218  0.4354  1.9639
 1509SOL     OW15988   3.830   1.934   8.477  0.1224 -0.1321  1.0522
 1509SOL    HW115989   3.787   2.012   8.444  0.0962 -0.3731  0.5211
 1509SOL    HW215990   3.868   1.969   8.558 -1.1110  0.8825  1.1993
 1510SOL     OW15991   1.313   4.618   8.094 -0.7855 -0.2851  0.7203
 1510SOL    HW115992   1.254   4.648   8.164 -2.9222  0.3901 -1.3962
 1510SOL    HW215993   1.308   4.523   8.103 -0.8031 -0.4228 -0.7508
 1511SOL     OW15994   3.866   1.980   1.600 -0.2763 -0.6902  0.0186
 1511SOL    HW115995   3.940   1.986   1.659  0.6022 -0.2295 -1.1249
 1511SOL    HW215996   3.797   1.943   1.655  0.7472 -1.9422  0.4550
 1512SOL     OW15997   4.670   0.293   8.525 -0.1064  0.2842 -0.0624
 1512SOL    HW115998   4.612   0.232   8.480  1.1776  0.1807 -1.6196
 1512SOL    HW215999   4.659   0.379   8.485 -3.0286 -0.0268  0.1187
 1513SOL     OW16000   0.926   3.475   9.705 -0.2366 -0.3909  0.4350
 1513SOL    HW116001   0.950   3.530   9.779  0.3699 -0.8523  0.5786
 1513SOL    HW216002   0.938   3.543   9.637  0.1556 -0.6829  0.2118
 1514SOL     OW16003   0.692   3.928   3.778  0.4479 -0.2448  0.2763
 1514SOL    HW116004   0.659   3.946   3.865  2.4844 -0.8443  1.1787
 1514SOL    HW216005   0.784   3.956   3.779  0.1712  0.6814 -0.4724
 1515SOL     OW16006   0.267   2.199  12.233  0.0344 -0.1935 -0.3172
 1515SOL    HW116007   0.334   2.225  12.169 -1.4650  2.7354 -0.6732
 1515SOL    HW216008   0.320   2.146  12.293 -1.4712 -0.6665  0.5876
 1516SOL     OW16009   0.628   4.558   1.510 -0.2906  0.3447 -0.3889
 1516SOL    HW116010   0.537   4.584   1.496 -0.8681 -1.2022  0.4968
 1516SOL    HW216011   0.611   4.463   1.506  2.5967 -0.2089  0.2485
 1517SOL     OW16012   3.579   0.262   7.416 -0.0628  0.8069  0.3193
 1517SOL    HW116013   3.524   0.215   7.353  2.0109 -0.0042 -0.9030
 1517SOL    HW216014   3.563   0.214   7.497 -1.0726  0.6155  0.0087
 1518SOL     OW16015   3.852   2.917  13.334  0.1929 -0.4440  0.1634
 1518SOL    HW116016   3.802   2.837  13.353 -0.5401 -0.4208 -1.6764
 1518SOL    HW216017   3.928   2.904  13.391  0.3668  2.3131  0.5531
 1519SOL     OW16018   0.265   1.110   5.805  0.4948  0.5449 -0.3680
 1519SOL    HW116019   0.281   1.122   5.899 -0.1437 -0.1597 -0.1655
 1519SOL    HW216020   0.338   1.162   5.771  0.1419  0.4513 -1.2521
 1520SOL     OW16021   2.715   3.268   7.896  0.3006  0.0496  0.2686
 1520SOL    HW116022   2.762   3.198   7.941  2.7687  1.5212 -0.0223
 1520SOL    HW216023   2.776   3.340   7.910  0.0268 -0.2635  2.9383
 1521SOL     OW16024   4.686   3.380   3.824 -0.4988 -0.5076  0.4422
 1521SOL    HW116025   4.648   3.356   3.908  0.0723  1.8444  1.3704
 1521SOL    HW216026   4.709   3.294   3.788 -0.2071 -1.4968  3.0085
 1522SOL     OW16027   3.196   0.762  10.461 -0.1858  0.0985 -0.0907
 1522SOL    HW116028   3.151   0.713  10.392 -2.3571  0.2494  1.2451
 1522SOL    HW216029   3.146   0.732  10.536  0.1955 -2.0360 -0.6833
 1523SOL     OW16030   3.153   4.719   0.012  0.1276  0.5507 -0.3094
 1523SOL    HW116031   3.108   4.676   0.085  1.2531 -0.1528 -0.0252
 1523SOL    HW216032   3.092   4.707  17.637  0.3915 -1.4106 -0.2053
 1524SOL     OW16033   4.499   3.175  16.647  0.1286 -0.5796 -0.0176
 1524SOL    HW116034   4.444   3.143  16.719  0.1738  2.3338  1.2988
 1524SOL    HW216035   4.446   3.247  16.614  1.4905  0.8428  0.9284
 1525SOL     OW16036   2.154   2.383   2.127 -0.2607 -0.3648  0.0607
 1525SOL    HW116037   2.131   2.471   2.096 -1.2202 -1.7991 -3.3056
 1525SOL    HW216038   2.147   2.334   2.045  0.6010  1.7588 -1.3017
 1526SOL     OW16039   0.402   1.077   1.377  0.2993  0.2286 -0.0503
 1526SOL    HW116040   0.463   1.011   1.346  1.9549  2.7285 -2.1027
 1526SOL    HW216041   0.464   1.136   1.419 -0.0971  0.8719 -0.3668
 1527SOL     OW16042   0.675   0.117   2.707  0.0205 -0.3868 -0.1129
 1527SOL    HW116043   0.586   0.082   2.704  0.3450 -1.2959  0.7644
 1527SOL    HW216044   0.706   0.067   2.782  0.5110 -1.2508 -0.8974
 1528SOL     OW16045   0.337   2.208   2.105  0.4293 -0.3673 -0.5238
 1528SOL    HW116046   0.280   2.229   2.179  1.7510  0.7643  0.1582
 1528SOL    HW216047   0.278   2.165   2.043  0.6044 -1.1352 -0.1551
 1529SOL     OW16048   2.446   4.260   9.444 -0.1399 -0.2170  0.2960
 1529SOL    HW116049   2.492   4.258   9.360  0.0946  0.6328  0.4127
 1529SOL    HW216050   2.400   4.344   9.440  1.1272  0.5417  1.5952
 1530SOL     OW16051   3.950   0.243   6.361  0.2178 -0.6690 -0.1338
 1530SOL    HW116052   4.014   0.184   6.402  1.9831  1.4412  0.1740
 1530SOL    HW216053   3.873   0.218   6.411 -0.0619 -1.6598 -1.0707
 1531SOL     OW16054   4.646   2.348   5.488 -0.0563  0.4361 -0.5500
 1531SOL    HW116055   4.585   2.384   5.423  2.5366  1.0742 -2.6054
 1531SOL    HW216056   4.707   2.300   5.432  1.1201 -1.1169  2.0347
 1532SOL     OW16057   3.067   4.451   6.047 -0.0284 -0.0979  0.2253
 1532SOL    HW116058   3.155   4.451   6.086  0.2887 -2.5275 -0.5397
 1532SOL    HW216059   3.021   4.412   6.121 -1.3562 -0.4794 -0.8173
 1533SOL     OW16060   1.503   2.302   2.584  0.0238 -0.3737  0.1155
 1533SOL    HW116061   1.428   2.305   2.525  1.5645  1.1572 -1.7562
 1533SOL    HW216062   1.552   2.226   2.553 -0.5029  0.4744 -2.7440
 1534SOL     OW16063   4.390   3.758  16.561 -0.5359  0.1520 -0.0313
 1534SOL    HW116064   4.400   3.792  16.650  0.8472  1.1343 -0.5554
 1534SOL    HW216065   4.480   3.763  16.530 -0.2776 -0.4413  0.6240
 1535SOL     OW16066   0.910   4.604   0.557  0.5033  0.1005  0.3009
 1535SOL    HW116067   1.004   4.611   0.571  0.4569  0.8583  0.2007
 1535SOL    HW216068   0.882   4.692   0.583  1.2058  1.1070 -2.3977
 1536SOL     OW16069   4.054   1.962   2.446  0.2867 -0.4365  0.3316
 1536SOL    HW116070   3.975   1.912   2.467  0.4281 -1.5952 -1.9318
 1536SOL    HW216071   4.048   1.968   2.351 -0.8478 -0.5805  0.3973
 1537SOL     OW16072   2.959   1.780  13.348  0.7623 -0.3265 -0.0553
 1537SOL    HW116073   2.958   1.869  13.313 -0.7116 -0.0518  0.6636
 1537SOL    HW216074   3.011   1.735  13.282  1.9453  1.9546 -0.6711
 1538SOL     OW16075   3.794   2.197   5.991  0.2805  0.1710  0.1743
 1538SOL    HW116076   3.844   2.147   6.055  1.0862 -1.0183 -1.3969
 1538SOL    HW216077   3.773   2.278   6.038 -0.3527 -0.9720  1.8553
 1539SOL     OW16078   3.838   1.553   8.231 -0.1236  0.2412 -0.4017
 1539SOL    HW116079   3.797   1.503   8.301 -1.8577  1.9758 -0.1997
 1539SOL    HW216080   3.921   1.506   8.219 -0.6219 -0.6742 -0.3001
 1540SOL     OW16081   0.004   1.072  15.647 -0.0697 -0.9950 -0.4159
 1540SOL    HW116082   0.016   1.013  15.721  1.5928  0.6723  0.6390
 1540SOL    HW216083   0.086   1.122  15.646 -0.4139 -0.4378 -1.5055
 1541SOL     OW16084   4.499   1.537   1.420  0.5067 -0.1038 -0.3626
 1541SOL    HW116085   4.466   1.535   1.330 -0.1181 -0.3748 -0.1194
 1541SOL    HW216086   4.468   1.453   1.454 -1.3971  0.4275 -0.7954
 1542SOL     OW16087   3.310   2.481  10.410 -0.1315  0.4484  0.0549
 1542SOL    HW116088   3.337   2.508  10.498  1.5633 -0.6782 -0.1271
 1542SOL    HW216089   3.245   2.413  10.430 -0.2952  0.5454 -0.1364
 1543SOL     OW16090   3.909   3.482  10.918 -0.7313 -0.2300 -0.0874
 1543SOL    HW116091   3.956   3.426  10.857  0.9402  0.5909  0.4480
 1543SOL    HW216092   3.883   3.419  10.986  0.6607  1.9041  2.4436
 1544SOL     OW16093   4.320   3.507   2.898  0.2444 -0.8520  0.3319
 1544SOL    HW116094   4.246   3.554   2.861  0.6517 -0.5143 -0.0638
 1544SOL    HW216095   4.272   3.438   2.944  0.3820 -2.0049 -1.2440
 1545SOL     OW16096   3.552   1.699   8.007 -0.4011  0.4127 -0.1558
 1545SOL    HW116097   3.607   1.734   8.077 -0.6469  1.6329 -0.5706
 1545SOL    HW216098   3.616   1.689   7.936 -0.5059  0.1987 -0.2216
 1546SOL     OW16099   2.025   1.040   8.414  0.1769 -0.0328  0.6196
 1546SOL    HW116100   2.056   1.064   8.502  1.5757  0.9208 -0.1293
 1546SOL    HW216101   1.973   0.960   8.423  0.4111 -0.3155 -0.4960
 1547SOL     OW16102   2.579   3.892   4.476  0.0923  0.1242 -0.4586
 1547SOL    HW116103   2.665   3.851   4.482  0.0235  0.0610  0.0977
 1547SOL    HW216104   2.521   3.818   4.494  0.9656 -0.4487 -0.0188
 1548SOL     OW16105   0.028   0.062   3.076 -0.0248  0.1544  0.2684
 1548SOL    HW116106   4.711   4.702   3.099  0.8243  0.3977  2.7118
 1548SOL    HW216107   4.677   0.118   3.059  0.8904  1.1586 -0.4167
 1549SOL     OW16108   0.354   4.023   9.045 -0.3256  0.3742  0.5075
 1549SOL    HW116109   0.444   4.003   9.019 -1.1090 -5.9063  2.8128
 1549SOL    HW216110   0.352   4.085   9.118  0.5317  0.1769  0.6909
 1550SOL     OW16111   0.925   3.207   6.127  0.2963 -0.1615 -0.0658
 1550SOL    HW116112   0.879   3.164   6.054  0.2629 -0.8021  0.3311
 1550SOL    HW216113   0.984   3.137   6.156  2.1725  1.0657 -0.9785
 1551SOL     OW16114   2.004   3.848  17.036  0.1730  1.0995  0.3903
 1551SOL    HW116115   1.927   3.904  17.031 -0.6435 -0.2028 -1.8079
 1551SOL    HW216116   1.997   3.810  17.123 -1.3624 -0.3272 -0.3410
 1552SOL     OW16117   4.490   0.303   3.379 -0.6173 -0.5316  0.7876
 1552SOL    HW116118   4.473   0.284   3.286  3.4783  0.0659 -0.0698
 1552SOL    HW216119   4.585   0.309   3.386 -0.5455 -0.7293  0.0605
 1553SOL     OW16120   1.019   3.294   0.214  0.0188  0.4575  0.1986
 1553SOL    HW116121   0.928   3.272   0.232 -0.4601  1.0511 -1.5047
 1553SOL    HW216122   1.060   3.259   0.293 -1.6276  0.7175  1.1521
 1554SOL     OW16123   2.861   0.479  17.062  0.5394 -0.1343 -0.2254
 1554SOL    HW116124   2.901   0.565  17.055 -0.9218  0.5446 -0.3604
 1554SOL    HW216125   2.767   0.498  17.066  0.2877 -1.2839 -0.5655
 1555SOL     OW16126   1.419   3.187   4.334 -0.1065 -1.2682 -0.2010
 1555SOL    HW116127   1.508   3.210   4.305 -0.5956  1.4313  0.4444
 1555SOL    HW216128   1.417   3.233   4.417 -0.2344 -0.5097 -0.6272
 1556SOL     OW16129   1.156   4.685   5.739 -0.3937  0.0512  0.1256
 1556SOL    HW116130   1.091   0.005   5.794  0.4167  2.0792 -0.5244
 1556SOL    HW216131   1.140   4.603   5.785  0.5081 -0.6396 -0.8042
 1557SOL     OW16132   0.849   4.442   4.571 -0.0666 -0.1822  0.2062
 1557SOL    HW116133   0.936   4.481   4.561 -1.2930  2.2404 -1.0021
 1557SOL    HW216134   0.873   4.349   4.574 -1.0732 -0.3730  1.8982
 1558SOL     OW16135   3.830   0.576   7.559  0.1910 -0.6625  0.2513
 1558SOL    HW116136   3.920   0.554   7.584  0.8622  2.5322  0.6375
 1558SOL    HW216137   3.780   0.499   7.585 -1.6262 -0.4596 -2.6333
 1559SOL     OW16138   3.838   4.268  14.669 -0.2436 -0.7107 -0.4979
 1559SOL    HW116139   3.871   4.179  14.682  0.4877 -0.1228  1.8616
 1559SOL    HW216140   3.834   4.284  14.575 -0.1723  0.9330 -0.2324
 1560SOL     OW16141   3.001   1.175  11.384  0.3601 -0.4926 -0.2928
 1560SOL    HW116142   2.943   1.109  11.423 -1.0172  0.3675 -0.9070
 1560SOL    HW216143   3.087   1.147  11.414 -0.0374 -3.1312 -1.6051
 1561SOL     OW16144   2.855   2.084  16.725 -0.7105  0.5720  0.4846
 1561SOL    HW116145   2.854   2.021  16.652 -0.3679  1.6181 -0.4271
 1561SOL    HW216146   2.866   2.016  16.791  1.8859  1.0204  0.5185
 1562SOL     OW16147   1.852   2.548   7.978  0.0427  0.0286  0.0979
 1562SOL    HW116148   1.879   2.526   7.888 -0.2222 -2.8438  0.7452
 1562SOL    HW216149   1.908   2.490   8.028 -0.3896 -1.4299 -1.1013
 1563SOL     OW16150   4.106   1.312   0.807 -0.5310  0.3275 -0.3629
 1563SOL    HW116151   4.032   1.323   0.747  0.0334  2.3930 -0.6817
 1563SOL    HW216152   4.171   1.295   0.739 -1.5028 -0.3645 -1.1246
 1564SOL     OW16153   3.349   3.154  16.710 -0.7611 -0.0811  0.0237
 1564SOL    HW116154   3.283   3.162  16.641  1.5379 -0.9638 -2.2585
 1564SOL    HW216155   3.420   3.203  16.670 -0.0034 -1.2457 -0.0682
 1565SOL     OW16156   1.058   3.239  17.576  0.0954  0.5419  0.0231
 1565SOL    HW116157   1.004   3.161  17.590 -0.9173  1.2975  0.3495
 1565SOL    HW216158   1.007   3.295  17.517  0.2611  0.7509  0.0765
 1566SOL     OW16159   3.277   4.089   4.204  0.5276 -0.4181  0.3180
 1566SOL    HW116160   3.184   4.069   4.206  0.6019 -0.6912  0.9647
 1566SOL    HW216161   3.280   4.151   4.277 -0.1180 -1.1849  0.9879
 1567SOL     OW16162   3.569   0.246   6.746 -0.0249 -0.7011 -0.2463
 1567SOL    HW116163   3.499   0.304   6.717  0.6878 -0.5642 -1.6853
 1567SOL    HW216164   3.606   0.290   6.823 -0.0552  4.3785 -3.1555
 1568SOL     OW16165   2.879   0.893   8.600  0.3231 -0.8588 -0.2896
 1568SOL    HW116166   2.804   0.907   8.541 -1.1187 -1.1017  1.4810
 1568SOL    HW216167   2.871   0.800   8.618 -0.7026 -0.5864  0.6894
 1569SOL     OW16168   3.426   2.661   8.582 -0.1252 -0.0713 -0.0933
 1569SOL    HW116169   3.385   2.739   8.545 -0.2987 -0.6519 -1.1010
 1569SOL    HW216170   3.520   2.683   8.584 -0.0042 -0.5265 -0.7787
 1570SOL     OW16171   1.981   2.393   2.330 -0.1649 -0.0273  0.5015
 1570SOL    HW116172   1.980   2.468   2.390 -0.7205  0.0433  0.4016
 1570SOL    HW216173   2.055   2.421   2.276 -0.5032 -0.1455 -0.0206
 1571SOL     OW16174   3.688   2.619   1.462 -0.2083  0.1886 -0.6744
 1571SOL    HW116175   3.595   2.635   1.478  0.2763  0.7396  1.7105
 1571SOL    HW216176   3.710   2.685   1.396  2.1764 -0.6245 -0.6796
 1572SOL     OW16177   0.898   4.244  16.928  0.7475 -0.6163  0.3955
 1572SOL    HW116178   0.844   4.225  17.005 -0.4375 -1.5811 -0.7018
 1572SOL    HW216179   0.869   4.179  16.865  1.6220  0.4258 -1.0807
 1573SOL     OW16180   4.374   1.026  11.305 -0.0667 -0.3752 -0.2721
 1573SOL    HW116181   4.461   1.002  11.339  0.3988  1.9441  0.1812
 1573SOL    HW216182   4.320   1.042  11.382 -0.9421  0.8753 -1.1605
 1574SOL     OW16183   3.819   1.669  11.670 -0.5700 -0.2322  0.2033
 1574SOL    HW116184   3.801   1.763  11.678  0.4983  0.0074 -0.1608
 1574SOL    HW216185   3.907   1.674  11.633 -0.8855 -1.5163 -0.7158
 1575SOL     OW16186   4.547   4.370   5.876 -0.1041  0.5805 -0.3635
 1575SOL    HW116187   4.584   4.294   5.921 -0.6169  1.8460  2.1790
 1575SOL    HW216188   4.614   4.438   5.888 -0.4601  0.7040  0.8988
 1576SOL     OW16189   4.021   2.340  13.371  0.4407  0.3685 -0.3352
 1576SOL    HW116190   4.058   2.346  13.283  1.6087 -1.2942  0.0447
 1576SOL    HW216191   4.009   2.245  13.379 -0.8427  0.6214  0.5988
 1577SOL     OW16192   1.781   0.434   4.744 -0.6659 -0.2240 -0.4239
 1577SOL    HW116193   1.811   0.499   4.680 -0.0657  1.3133  1.4354
 1577SOL    HW216194   1.865   0.388   4.757 -1.0371 -0.5556  0.8120
 1578SOL     OW16195   2.205   3.523  11.801 -0.0806  0.2250  0.0334
 1578SOL    HW116196   2.222   3.568  11.718 -0.1402 -1.6367 -0.9926
 1578SOL    HW216197   2.220   3.598  11.858 -0.6036 -0.0084  0.4781
 1579SOL     OW16198   4.141   3.554  16.114  0.4893 -0.6392  0.0618
 1579SOL    HW116199   4.176   3.562  16.026 -0.3521 -0.0908 -0.2230
 1579SOL    HW216200   4.065   3.611  16.109  0.4822 -0.6186  0.3950
 1580SOL     OW16201   0.010   0.567  14.854 -0.3278  0.5146  0.0762
 1580SOL    HW116202   0.037   0.552  14.764  0.9067  0.0102  0.5369
 1580SOL    HW216203   4.638   0.570  14.844 -0.0301  3.4089 -1.7555
 1581SOL     OW16204   2.033   4.498   6.786 -0.2893 -0.3837 -0.1671
 1581SOL    HW116205   2.108   4.545   6.820 -2.8892  1.2791  3.2465
 1581SOL    HW216206   2.001   4.562   6.722  0.6960  0.6168  0.3565
 1582SOL     OW16207   2.732   2.562   8.235 -0.1221 -0.4443  0.0386
 1582SOL    HW116208   2.746   2.531   8.325 -0.4233  0.7129  0.4818
 1582SOL    HW216209   2.689   2.645   8.257 -0.0919 -0.6374  0.8119
 1583SOL     OW16210   0.881   0.520   3.226  0.2167 -0.7257 -0.3794
 1583SOL    HW116211   0.917   0.441   3.184 -1.5986 -1.0626 -1.3007
 1583SOL    HW216212   0.930   0.530   3.308  1.0869 -2.7981 -0.6366
 1584SOL     OW16213   3.950   3.905   0.381  0.5567 -0.3657  0.2551
 1584SOL    HW116214   3.912   3.826   0.419  0.9474 -0.1098  1.1551
 1584SOL    HW216215   3.905   3.978   0.423 -0.5979 -1.5533  1.0754
 1585SOL     OW16216   1.311   0.936   1.575  0.1695 -0.7152  0.6425
 1585SOL    HW116217   1.224   0.928   1.615 -0.0279 -1.4378  0.0635
 1585SOL    HW216218   1.316   0.851   1.531  2.9667 -0.0888 -0.2155
 1586SOL     OW16219   3.030   2.919   8.105 -0.1377 -0.0348 -0.1970
 1586SOL    HW116220   3.078   2.839   8.126 -1.1438 -1.0033 -1.5293
 1586SOL    HW216221   3.011   2.941   8.197 -0.5073  0.0738 -0.2981
 1587SOL     OW16222   0.767   1.692  16.077  0.2502 -0.7300  0.5418
 1587SOL    HW116223   0.820   1.628  16.028  0.7659 -0.3669  0.6261
 1587SOL    HW216224   0.804   1.770  16.036 -1.1038 -0.5517 -0.3384
 1588SOL     OW16225   1.493   2.758   8.154  0.2528  0.5098  0.1478
 1588SOL    HW116226   1.448   2.696   8.211 -2.6792 -0.0034 -2.7473
 1588SOL    HW216227   1.482   2.701   8.078  0.1768  0.0155  0.5326
 1589SOL     OW16228   0.665   4.529   1.000  0.1880 -0.1751  0.1231
 1589SOL    HW116229   0.704   4.532   1.088 -0.1874  0.7626  0.2567
 1589SOL    HW216230   0.728   4.481   0.946 -0.1348  1.4384 -1.6387
 1590SOL     OW16231   0.654   3.357   7.030 -0.1866  0.0392  0.4160
 1590SOL    HW116232   0.587   3.425   7.034  1.4856  1.8050 -2.2424
 1590SOL    HW216233   0.721   3.399   7.084 -0.1552  0.0769  0.3477
 1591SOL     OW16234   3.525   2.317   9.123 -0.4624  0.5746 -0.9746
 1591SOL    HW116235   3.496   2.242   9.071 -2.3301  0.6636 -0.0457
 1591SOL    HW216236   3.604   2.281   9.164 -2.3014 -2.4163 -0.0810
 1592SOL     OW16237   2.355   4.552   5.875  0.1488 -0.1282 -0.4707
 1592SOL    HW116238   2.320   4.489   5.937  1.1188  0.3977  0.6131
 1592SOL    HW216239   2.268   4.581   5.844  0.2476  1.6874  0.9458
 1593SOL     OW16240   3.199   1.104   2.737  0.2558  0.2252  0.5121
 1593SOL    HW116241   3.174   1.193   2.712 -0.8099 -0.0782  0.5174
 1593SOL    HW216242   3.132   1.076   2.799  0.8443 -0.3595  0.8874
 1594SOL     OW16243   2.219   1.486   4.773 -0.4303  0.2411 -0.2039
 1594SOL    HW116244   2.155   1.544   4.814 -0.2837  0.1322  0.1830
 1594SOL    HW216245   2.155   1.423   4.739 -0.6538  0.8054 -0.8409
 1595SOL     OW16246   1.474   4.349   3.832  0.2558 -0.1748 -0.4987
 1595SOL    HW116247   1.445   4.373   3.744 -0.0350 -0.5725 -0.5107
 1595SOL    HW216248   1.514   4.263   3.819 -0.6936 -0.4355 -1.6902
 1596SOL     OW16249   4.133   1.691   9.124  0.6123  0.1484 -0.4618
 1596SOL    HW116250   4.194   1.747   9.171 -1.2110  3.0808 -1.6116
 1596SOL    HW216251   4.051   1.689   9.174 -0.5508  1.6234 -2.3391
 1597SOL     OW16252   3.369   1.196  17.327 -0.2184  0.5493 -0.5023
 1597SOL    HW116253   3.391   1.284  17.357 -3.6928  0.7337  1.4850
 1597SOL    HW216254   3.274   1.193  17.337 -0.0635  0.1054  0.8276
 1598SOL     OW16255   0.593   3.441   7.840 -0.0209  0.1198  0.9407
 1598SOL    HW116256   0.571   3.452   7.748 -0.4216  0.1189  1.0352
 1598SOL    HW216257   0.584   3.347   7.860  1.2129 -0.3103 -0.5029
 1599SOL     OW16258   2.865   3.686   5.273 -0.1513  0.4210  0.8426
 1599SOL    HW116259   2.840   3.748   5.204 -0.4552  1.2881  1.7237
 1599SOL    HW216260   2.959   3.699   5.288 -0.0460  0.3698  0.2200
 1600SOL     OW16261   2.804   1.683   9.817  0.1997 -0.3418  0.2060
 1600SOL    HW116262   2.817   1.625   9.742 -0.9304  0.6786 -0.7931
 1600SOL    HW216263   2.892   1.719   9.827  0.1306 -0.5804  1.5659
 1601SOL     OW16264   2.792   0.443   2.555 -0.4633  0.1283  0.2992
 1601SOL    HW116265   2.718   0.390   2.525  0.0094 -0.4223  0.1182
 1601SOL    HW216266   2.780   0.518   2.497  1.0641  0.6279  0.6308
 1602SOL     OW16267   1.693   2.894   2.027 -0.1566  0.3218  0.4221
 1602SOL    HW116268   1.787   2.874   2.024 -0.0322  0.9404  0.1256
 1602SOL    HW216269   1.686   2.986   2.003 -0.7859  0.0732 -0.3790
 1603SOL     OW16270   0.609   2.621   5.490  0.5863  0.1650  0.0218
 1603SOL    HW116271   0.624   2.628   5.396 -1.0835 -2.5381 -0.4564
 1603SOL    HW216272   0.586   2.709   5.520  0.5205 -0.1782  0.9801
 1604SOL     OW16273   3.247   0.251   6.277 -0.5384  0.1407 -0.3491
 1604SOL    HW116274   3.342   0.254   6.289 -0.5011 -2.1976 -0.0963
 1604SOL    HW216275   3.218   0.160   6.279  1.1551 -0.3758  1.2821
 1605SOL     OW16276   0.124   0.811   8.339 -0.1141 -0.5965 -0.8517
 1605SOL    HW116277   0.078   0.813   8.423  4.4655 -0.4888  1.5947
 1605SOL    HW216278   0.058   0.855   8.284 -2.3561 -1.3425  1.2451
 1606SOL     OW16279   3.724   0.402   4.099  0.6366 -0.3387 -0.1538
 1606SOL    HW116280   3.772   0.406   4.182  0.6472  0.4808 -0.1977
 1606SOL    HW216281   3.721   0.493   4.071  0.5376  0.3448  2.0236
 1607SOL     OW16282   2.040   0.442   0.490 -0.0639  0.1427 -0.8334
 1607SOL    HW116283   2.104   0.403   0.431  0.3690 -1.1444  0.4659
 1607SOL    HW216284   2.017   0.363   0.539  0.1621 -0.5673 -1.8657
 1608SOL     OW16285   0.511   0.197   9.041  0.0158  0.1225 -1.0393
 1608SOL    HW116286   0.476   0.200   8.952 -0.1965  0.9917 -0.9281
 1608SOL    HW216287   0.432   0.199   9.095  0.2487  0.8812 -0.7365
 1609SOL     OW16288   1.584   2.384   9.988 -0.4271 -0.0209 -0.0968
 1609SOL    HW116289   1.575   2.379   9.893 -1.8624 -0.4947  0.0769
 1609SOL    HW216290   1.616   2.295  10.003  1.1576  0.8235  1.7400
 1610SOL     OW16291   2.102   4.212   4.904 -0.1978  0.0032  0.0742
 1610SOL    HW116292   2.163   4.224   4.976  0.3803 -0.5813 -0.3213
 1610SOL    HW216293   2.063   4.297   4.884  0.2478 -0.0331 -0.9238
 1611SOL     OW16294   0.849   2.650  16.806 -0.0577  0.7068  0.2858
 1611SOL    HW116295   0.794   2.721  16.774 -1.7249  0.0827  1.7825
 1611SOL    HW216296   0.868   2.679  16.896  0.1629 -0.4917  0.6318
 1612SOL     OW16297   1.950   1.170   7.761 -0.1595  0.5429 -0.2424
 1612SOL    HW116298   1.931   1.156   7.668  0.3523  0.1974 -0.2980
 1612SOL    HW216299   1.887   1.238   7.784 -1.0003  0.3243 -1.9332
 1613SOL     OW16300   0.459   2.654   5.791 -0.9269  0.6979  0.6113
 1613SOL    HW116301   0.378   2.658   5.842  0.6405 -1.2769  3.2522
 1613SOL    HW216302   0.438   2.582   5.731 -1.0674  0.3256  1.1061
 1614SOL     OW16303   2.486   3.463   2.332 -0.1379  0.7520 -0.2088
 1614SOL    HW116304   2.554   3.435   2.393  0.1641 -0.2121 -0.9882
 1614SOL    HW216305   2.413   3.410   2.363 -0.1866  1.2667  0.5473
 1615SOL     OW16306   4.679   3.133  14.360 -0.3423  0.3422 -0.2595
 1615SOL    HW116307   4.694   3.179  14.443 -0.7533  0.7841 -0.4333
 1615SOL    HW216308   0.000   3.050  14.379  0.4098  1.0770  1.1903
 1616SOL     OW16309   1.871   0.690  17.273  0.5438 -0.3398  0.8052
 1616SOL    HW116310   1.841   0.750  17.205 -2.2076 -0.9332  1.4859
 1616SOL    HW216311   1.786   0.674  17.314 -0.4901  2.0270 -0.4656
 1617SOL     OW16312   4.513   4.590   0.229 -0.2862  0.0401  0.0287
 1617SOL    HW116313   4.479   4.502   0.209 -3.7309  1.5263 -0.7451
 1617SOL    HW216314   4.577   4.569   0.297  0.6351 -0.8182 -1.1177
 1618SOL     OW16315   1.103   2.410   8.069 -0.1973 -0.6194  0.2030
 1618SOL    HW116316   1.185   2.402   8.021 -0.3039 -1.7123  0.1969
 1618SOL    HW216317   1.140   2.414   8.157 -0.6084  0.8966  0.3080
 1619SOL     OW16318   4.019   3.228   1.259 -0.5346  0.0142 -0.0281
 1619SOL    HW116319   4.038   3.140   1.292 -1.3906  0.1946  0.9338
 1619SOL    HW216320   3.978   3.202   1.177  1.8567 -1.7633 -0.6722
 1620SOL     OW16321   2.545   2.153   9.700  0.0168  0.1076 -0.0101
 1620SOL    HW116322   2.633   2.182   9.725 -0.0373 -0.0766  0.3942
 1620SOL    HW216323   2.546   2.058   9.712 -0.4064  0.1999  0.7559
 1621SOL     OW16324   1.892   1.892   4.403  0.2976 -0.0408 -0.2483
 1621SOL    HW116325   1.869   1.983   4.382  0.9031  0.5632  1.7027
 1621SOL    HW216326   1.982   1.918   4.424  0.3364 -0.5229  0.1794
 1622SOL     OW16327   0.690   0.395  17.443  0.3162 -0.2438  0.5609
 1622SOL    HW116328   0.656   0.431  17.361 -0.2962 -2.3996 -0.1376
 1622SOL    HW216329   0.619   0.336  17.468 -1.2179  0.9963 -0.8362
 1623SOL     OW16330   1.602   2.584   5.043 -0.4325 -0.1114 -0.4906
 1623SOL    HW116331   1.561   2.500   5.063  0.9882 -0.9150 -0.9573
 1623SOL    HW216332   1.693   2.555   5.034 -0.9545 -1.6236 -0.9564
 1624SOL     OW16333   0.307   2.826   8.861 -0.3216 -0.2788  0.2513
 1624SOL    HW116334   0.290   2.747   8.912  1.0940 -1.1401 -0.6032
 1624SOL    HW216335   0.399   2.845   8.878 -0.5033  2.6797 -2.0777
 1625SOL     OW16336   0.321   1.605   2.000 -0.2339  0.7249 -0.4879
 1625SOL    HW116337   0.342   1.527   2.050  0.3597  0.7687 -0.6674
 1625SOL    HW216338   0.366   1.666   2.058 -0.4265 -0.0595  0.4708
 1626SOL     OW16339   1.434   4.716   6.308 -0.0726 -0.2183 -0.2886
 1626SOL    HW116340   1.404   0.056   6.373  0.3280 -2.0258  1.6421
 1626SOL    HW216341   1.506   0.041   6.269 -0.3607  0.5250  0.1052
 1627SOL     OW16342   4.677   4.675   2.305  0.2411 -0.2581  0.0432
 1627SOL    HW116343   0.000   0.026   2.342  0.3208 -0.2366 -0.1053
 1627SOL    HW216344   0.016   4.606   2.328 -0.2461 -1.2275 -1.5568
 1628SOL     OW16345   1.434   2.102   2.842 -0.2400  0.5026  0.2620
 1628SOL    HW116346   1.353   2.052   2.855  0.5531 -0.3311  1.9601
 1628SOL    HW216347   1.399   2.172   2.787  0.3758  0.4644 -0.1772
 1629SOL     OW16348   2.329   1.308   9.018 -0.1696 -0.0298  0.4615
 1629SOL    HW116349   2.419   1.329   8.993 -0.2132 -0.2954  0.0872
 1629SOL    HW216350   2.328   1.221   8.980 -1.9338 -1.0670  2.8669
 1630SOL     OW16351   4.544   2.462  11.586 -0.7452 -0.1933 -0.2452
 1630SOL    HW116352   4.627   2.501  11.613 -0.3404 -1.0474 -0.2477
 1630SOL    HW216353   4.505   2.539  11.544 -1.5024  0.8208  2.3573
 1631SOL     OW16354   1.805   3.716   2.476  0.0847 -0.1113  0.1743
 1631SOL    HW116355   1.800   3.643   2.537  1.9903 -0.1138  0.3495
 1631SOL    HW216356   1.718   3.720   2.436 -0.0392 -0.0798  0.4522
 1632SOL     OW16357   2.859   0.390   7.989 -0.3890  0.8087 -0.0834
 1632SOL    HW116358   2.890   0.439   8.066  3.1922 -0.3713 -0.7804
 1632SOL    HW216359   2.939   0.345   7.962 -3.1002 -4.6355  0.8840
 1633SOL     OW16360   2.077   1.075  10.049  0.1209 -0.7377 -0.3967
 1633SOL    HW116361   2.139   1.032  10.108  0.7251  1.1954  0.3818
 1633SOL    HW216362   2.021   1.006  10.014  1.3421 -1.3332 -1.1775
 1634SOL     OW16363   4.424   3.299   5.963 -0.3485  0.1230  0.1500
 1634SOL    HW116364   4.378   3.290   5.880 -1.8228  0.2665  0.9443
 1634SOL    HW216365   4.473   3.218   5.976 -0.9907 -0.6991 -2.5511
 1635SOL     OW16366   1.830   3.992  17.534 -0.1962  0.1419  0.2837
 1635SOL    HW116367   1.879   3.918  17.570 -0.4030 -0.8518 -1.5372
 1635SOL    HW216368   1.817   4.044  17.614  0.9605 -2.0463  1.9058
 1636SOL     OW16369   2.340   4.225   7.269 -0.6077  0.1869 -0.2690
 1636SOL    HW116370   2.409   4.242   7.204 -1.9077  0.0554 -1.6954
 1636SOL    HW216371   2.376   4.153   7.321  0.5942  0.2407 -1.0172
 1637SOL     OW16372   3.429   1.299   3.865  0.2758  0.2676 -0.0092
 1637SOL    HW116373   3.472   1.227   3.819 -0.3291 -0.5886  0.7509
 1637SOL    HW216374   3.486   1.314   3.940  0.0850  0.1656  0.1572
 1638SOL     OW16375   1.915   3.919   6.771 -0.4295  0.0085 -0.1535
 1638SOL    HW116376   1.997   3.876   6.793 -0.9264 -1.0461 -0.3796
 1638SOL    HW216377   1.876   3.860   6.707 -0.0669  0.8601 -1.1549
 1639SOL     OW16378   2.393   3.765   7.775  0.5503 -0.0648 -0.2092
 1639SOL    HW116379   2.471   3.763   7.831  1.8984  0.6579 -2.0558
 1639SOL    HW216380   2.326   3.755   7.842  1.9210  0.1465  1.2037
 1640SOL     OW16381   1.243   2.552  10.046  0.2852  0.1040 -0.5290
 1640SOL    HW116382   1.166   2.534   9.992 -1.2349 -1.5990  2.1621
 1640SOL    HW216383   1.221   2.492  10.117  1.0012  2.0103  1.3257
 1641SOL     OW16384   2.318   3.003   0.032 -0.1837 -0.5813 -0.4606
 1641SOL    HW116385   2.395   3.031  17.678 -0.5271  0.5511 -0.3700
 1641SOL    HW216386   2.282   2.941  17.665  0.5087  0.8030 -2.2057
 1642SOL     OW16387   4.302   3.503   6.163  0.4504  0.4885  0.0421
 1642SOL    HW116388   4.364   3.452   6.110 -0.3073 -1.0290  0.6008
 1642SOL    HW216389   4.366   3.570   6.187 -0.4087  0.6237  1.8651
 1643SOL     OW16390   2.514   1.352   3.650 -0.1427  0.2975  0.1931
 1643SOL    HW116391   2.439   1.409   3.629  0.3956  1.5722  1.7493
 1643SOL    HW216392   2.533   1.380   3.739  0.4100 -0.2890  0.2538
 1644SOL     OW16393   1.600   1.279  12.458  0.0016  0.2978  0.7161
 1644SOL    HW116394   1.550   1.210  12.502  0.2197 -0.3893 -0.1140
 1644SOL    HW216395   1.656   1.321  12.523  0.7383  0.0454  0.2457
 1645SOL     OW16396   0.678   1.144   5.289 -0.1717 -0.2669 -0.0717
 1645SOL    HW116397   0.664   1.236   5.266 -1.1038 -0.5151 -0.5136
 1645SOL    HW216398   0.767   1.141   5.324 -0.6297 -1.7152  0.9380
 1646SOL     OW16399   2.165   4.149   8.098  0.0881 -0.1846  0.1249
 1646SOL    HW116400   2.226   4.197   8.043 -0.0933  1.0435  0.9926
 1646SOL    HW216401   2.086   4.166   8.046 -1.1573  1.8718  2.7273
 1647SOL     OW16402   3.427   0.075   2.807  0.3378  0.4464 -0.6015
 1647SOL    HW116403   3.346   0.126   2.801  0.7454  1.3550  1.6528
 1647SOL    HW216404   3.492   0.122   2.755 -1.5688  0.3183 -3.1379
 1648SOL     OW16405   4.719   2.889  10.075 -0.0547 -0.3133 -0.3442
 1648SOL    HW116406   4.699   2.800  10.045 -1.2507  0.0745 -0.6927
 1648SOL    HW216407   0.091   2.886  10.067  0.0447  0.5533  0.5940
 1649SOL     OW16408   3.047   2.811  12.460 -0.2379 -0.2872  0.1987
 1649SOL    HW116409   3.015   2.808  12.370  1.0602  0.8145 -0.3103
 1649SOL    HW216410   3.093   2.728  12.464  0.3470 -0.0265 -1.3554
 1650SOL     OW16411   3.427   3.895  16.282 -0.3373 -0.6012  0.0626
 1650SOL    HW116412   3.474   3.899  16.365  1.1018 -0.2318 -0.7595
 1650SOL    HW216413   3.343   3.859  16.310  0.6784 -3.2770 -0.3141
 1651SOL     OW16414   1.681   1.087   4.604  0.1967  0.5074  0.0217
 1651SOL    HW116415   1.746   1.112   4.539  2.7277 -1.9599  1.6102
 1651SOL    HW216416   1.676   1.173   4.645  0.2655  0.9886 -0.9909
 1652SOL     OW16417   1.346   3.265  11.725 -0.3723  0.7426 -0.6017
 1652SOL    HW116418   1.297   3.280  11.805 -1.1154 -1.8654 -0.5757
 1652SOL    HW216419   1.293   3.314  11.661 -2.7714 -0.4178  0.4859
 1653SOL     OW16420   4.331   1.983   1.559 -0.2753  0.2558 -0.3901
 1653SOL    HW116421   4.341   2.054   1.621 -0.5908 -1.3760  1.5286
 1653SOL    HW216422   4.396   1.996   1.490 -1.3017 -0.6553 -1.5524
 1654SOL     OW16423   3.535   1.062   9.570  0.1852 -0.3626  0.4579
 1654SOL    HW116424   3.506   1.099   9.654  2.4648  1.3131  0.4831
 1654SOL    HW216425   3.514   0.970   9.589  0.8858 -0.2474  1.8276
 1655SOL     OW16426   1.349   2.083   6.563 -0.6155 -0.0717 -0.2393
 1655SOL    HW116427   1.282   2.049   6.504  1.4438 -2.6154 -1.1299
 1655SOL    HW216428   1.374   2.163   6.516 -1.4651 -0.1002 -0.7350
 1656SOL     OW16429   0.445   3.894   9.954  0.5797  0.1813  0.1895
 1656SOL    HW116430   0.451   3.979   9.910 -1.5929 -0.5793 -1.5638
 1656SOL    HW216431   0.538   3.896   9.976  0.5709  0.3863  0.2032
 1657SOL     OW16432   3.599   1.621   4.293  0.6003 -0.0011 -0.2147
 1657SOL    HW116433   3.662   1.676   4.339  0.9598 -1.5006  1.0832
 1657SOL    HW216434   3.528   1.633   4.356 -1.1750 -0.9429 -2.0397
 1658SOL     OW16435   2.764   2.867   9.548 -0.3365 -0.0485 -0.1738
 1658SOL    HW116436   2.836   2.806   9.564  0.6443  1.0586 -0.3817
 1658SOL    HW216437   2.717   2.887   9.630 -1.1023 -1.0612 -0.3649
 1659SOL     OW16438   4.549   3.629   6.203 -0.1553 -0.5654  0.3198
 1659SOL    HW116439   4.619   3.630   6.137  0.8499  1.0024  1.4207
 1659SOL    HW216440   4.579   3.552   6.251  2.9381  1.6970  1.9683
 1660SOL     OW16441   3.498   1.621  15.408  0.0127  0.1608  0.7177
 1660SOL    HW116442   3.533   1.576  15.486  0.0266  1.4279  1.4396
 1660SOL    HW216443   3.436   1.686  15.441  0.3668  0.3323  1.0409
 1661SOL     OW16444   2.460   1.558   4.880  0.0687 -0.7313 -1.2160
 1661SOL    HW116445   2.381   1.536   4.832 -0.8934  2.7063 -1.2026
 1661SOL    HW216446   2.517   1.491   4.843  0.2478 -0.1808 -1.9441
 1662SOL     OW16447   3.835   1.454  10.449  0.7337  0.0877 -0.2041
 1662SOL    HW116448   3.874   1.541  10.442  1.1748 -0.1585 -0.7581
 1662SOL    HW216449   3.773   1.452  10.376  1.3377 -0.5539 -0.6987
 1663SOL     OW16450   2.784   3.576  13.629  0.2622 -0.5582 -0.0093
 1663SOL    HW116451   2.827   3.640  13.571  0.4252 -1.1410 -0.5308
 1663SOL    HW216452   2.836   3.496  13.621 -1.8347 -1.8728 -0.4249
 1664SOL     OW16453   2.086   2.810  16.534 -0.2898 -0.2286 -0.3750
 1664SOL    HW116454   2.135   2.794  16.453  0.9006  0.7672  0.1395
 1664SOL    HW216455   2.038   2.729  16.551  0.5923 -0.4842  0.8902
 1665SOL     OW16456   0.987   0.694   9.357  0.4801  0.4116  0.1530
 1665SOL    HW116457   0.926   0.766   9.343  0.8987  1.2605  2.6542
 1665SOL    HW216458   1.042   0.713   9.281  0.1045 -1.4810 -0.6058
 1666SOL     OW16459   1.055   3.999  16.442 -0.7513 -0.2319  0.0196
 1666SOL    HW116460   1.052   4.094  16.459 -0.8640  0.2245 -2.5172
 1666SOL    HW216461   0.971   3.970  16.476  0.8424 -2.3211  2.1540
 1667SOL     OW16462   1.539   1.384   9.562  0.5738  0.3250  0.9756
 1667SOL    HW116463   1.503   1.318   9.622  1.0944 -0.1764  0.7241
 1667SOL    HW216464   1.467   1.391   9.500 -0.1606  2.0552  2.0050
 1668SOL     OW16465   1.895   0.610   2.346  0.1158  0.4074  0.1136
 1668SOL    HW116466   1.959   0.674   2.314 -0.5577  1.6466  1.2384
 1668SOL    HW216467   1.899   0.531   2.291  2.9642  0.7594 -0.1872
 1669SOL     OW16468   1.937   2.681   3.651 -0.0725  0.0019 -0.3014
 1669SOL    HW116469   1.907   2.754   3.598 -1.3026 -0.4154 -0.1781
 1669SOL    HW216470   1.973   2.727   3.727  0.6501 -1.8001  0.4367
 1670SOL     OW16471   3.809   4.559  14.503 -0.6727 -0.2434  0.5253
 1670SOL    HW116472   3.739   4.584  14.563 -3.0394 -0.1410 -2.2730
 1670SOL    HW216473   3.880   4.618  14.525 -0.1441 -1.8690  3.1550
 1671SOL     OW16474   1.809   0.292  12.289  0.1157  0.0909  0.4118
 1671SOL    HW116475   1.815   0.219  12.228 -0.4506  1.8796 -1.8242
 1671SOL    HW216476   1.784   0.367  12.235 -2.0411 -1.7759 -1.2013
 1672SOL     OW16477   3.948   3.115   9.380  0.1816 -0.0450 -0.2003
 1672SOL    HW116478   4.041   3.112   9.355  0.3285  1.0113  0.1983
 1672SOL    HW216479   3.929   3.209   9.378  1.4274  0.1455 -2.7877
 1673SOL     OW16480   2.551   2.533   7.982  0.1558  0.1204  0.0825
 1673SOL    HW116481   2.570   2.578   7.900  0.3907 -2.4195 -1.2545
 1673SOL    HW216482   2.634   2.554   8.025 -0.6769 -0.1365  1.8176
 1674SOL     OW16483   2.504   2.233   6.281 -0.0840 -0.6072 -0.6184
 1674SOL    HW116484   2.443   2.279   6.223 -0.2703 -0.6293 -0.4414
 1674SOL    HW216485   2.465   2.257   6.365 -0.1250 -0.5610 -0.6507
 1675SOL     OW16486   1.091   3.932   2.249 -0.2914  0.1344 -0.8311
 1675SOL    HW116487   1.175   3.922   2.205  0.8442 -0.4345  1.4533
 1675SOL    HW216488   1.046   3.856   2.214  2.1661 -1.7701  0.2045
 1676SOL     OW16489   4.675   1.937   9.133  0.0978  0.0833 -0.4396
 1676SOL    HW116490   4.658   2.015   9.185 -1.5006 -0.4228 -0.2021
 1676SOL    HW216491   4.700   1.883   9.208  1.5961 -0.6287 -1.4379
 1677SOL     OW16492   1.006   1.629   4.341 -0.6940  0.2697  0.1153
 1677SOL    HW116493   1.087   1.656   4.300 -0.3688 -0.8909  0.0053
 1677SOL    HW216494   1.005   1.700   4.406  0.9534  1.0837 -0.7783
 1678SOL     OW16495   4.602   3.451  16.688 -0.3657 -0.1109  0.4819
 1678SOL    HW116496   4.604   3.376  16.748 -1.3596  0.4313  1.1984
 1678SOL    HW216497   4.530   3.420  16.632 -1.4470  1.5585  0.9524
 1679SOL     OW16498   4.049   4.370  10.991  0.0081  0.1685 -0.3803
 1679SOL    HW116499   4.069   4.367  10.898 -0.3935 -1.8486 -0.4119
 1679SOL    HW216500   4.107   4.434  11.031 -0.5788  0.3339  0.2162
 1680SOL     OW16501   0.480   1.875   6.108  0.1613 -0.0241  0.0223
 1680SOL    HW116502   0.509   1.964   6.087 -0.3150 -0.5862 -2.9786
 1680SOL    HW216503   0.398   1.888   6.156 -0.2199  2.0358 -1.1738
 1681SOL     OW16504   2.956   1.989   0.827 -0.4512 -0.0659 -0.0561
 1681SOL    HW116505   3.010   1.914   0.852 -1.5581 -0.9306 -0.2668
 1681SOL    HW216506   2.969   1.990   0.733  1.0457  1.2218  0.1644
 1682SOL     OW16507   4.398   0.392   7.345 -0.0581 -0.1918  0.4254
 1682SOL    HW116508   4.304   0.403   7.358 -0.3636 -2.9167  0.5179
 1682SOL    HW216509   4.397   0.395   7.249 -0.0868 -0.0253  0.4309
 1683SOL     OW16510   1.855   1.536   6.133  0.2934 -0.0218 -0.2423
 1683SOL    HW116511   1.793   1.531   6.060  1.5770  0.4486 -1.3703
 1683SOL    HW216512   1.803   1.488   6.198  1.0406  1.4019  1.4047
 1684SOL     OW16513   4.253   3.077  13.528  0.1224 -0.0550  0.4900
 1684SOL    HW116514   4.228   3.169  13.516 -1.7462 -0.4589  1.4448
 1684SOL    HW216515   4.331   3.058  13.475 -0.6275 -2.1880  0.1628
 1685SOL     OW16516   0.261   0.863   0.994 -0.2361  0.4875 -0.2335
 1685SOL    HW116517   0.261   0.952   1.030  0.5007 -0.4300  2.0162
 1685SOL    HW216518   0.278   0.878   0.901  0.1286  1.1168 -0.0624
 1686SOL     OW16519   0.987   4.236  13.799  0.4330 -0.1088 -0.5704
 1686SOL    HW116520   0.979   4.223  13.894 -0.1188  0.8064 -0.4951
 1686SOL    HW216521   1.082   4.249  13.793  0.6004 -1.5331 -0.8741
 1687SOL     OW16522   0.512   4.546  15.818 -0.1294 -0.2355 -0.2396
 1687SOL    HW116523   0.446   4.592  15.868  0.3509  1.9333 -1.6078
 1687SOL    HW216524   0.458   4.509  15.749  2.4572  0.3277 -2.5909
 1688SOL     OW16525   0.247   1.439   6.356  0.0171  0.2129 -0.1094
 1688SOL    HW116526   0.170   1.469   6.308 -2.7449 -2.4901  2.6095
 1688SOL    HW216527   0.266   1.507   6.420 -0.8789  1.0705 -0.7563
 1689SOL     OW16528   3.849   0.707   6.165  0.2302 -0.0259  0.1559
 1689SOL    HW116529   3.875   0.616   6.182  1.3646  0.5690  1.6730
 1689SOL    HW216530   3.918   0.757   6.209  0.9383 -0.9846  0.1507
 1690SOL     OW16531   3.177   0.764   8.834 -0.1193 -0.2443 -0.6101
 1690SOL    HW116532   3.196   0.703   8.762 -0.2548 -1.8740  0.7550
 1690SOL    HW216533   3.224   0.722   8.905 -2.7007 -1.4370  0.3999
 1691SOL     OW16534   3.795   3.562   3.766  0.0555 -0.0479  0.1193
 1691SOL    HW116535   3.741   3.640   3.755  1.1778  0.4006 -2.2525
 1691SOL    HW216536   3.763   3.518   3.845 -0.0793 -0.3341 -0.0941
 1692SOL     OW16537   2.681   1.429   4.130 -0.1551  0.2185  0.5732
 1692SOL    HW116538   2.685   1.497   4.197 -0.2781 -0.6858  1.5131
 1692SOL    HW216539   2.719   1.359   4.183 -1.1172 -0.8913 -0.1990
 1693SOL     OW16540   1.016   2.473   9.488  0.0610 -0.0942  0.3518
 1693SOL    HW116541   0.920   2.466   9.482 -0.0030 -1.8090  3.8293
 1693SOL    HW216542   1.016   2.479   9.583  0.0168 -0.2376  0.3603
 1694SOL     OW16543   2.139   3.141   8.561  0.5060 -0.0793 -0.1729
 1694SOL    HW116544   2.186   3.201   8.619  0.2612 -0.0324 -0.0208
 1694SOL    HW216545   2.105   3.202   8.495 -0.4717  0.0943  0.4910
 1695SOL     OW16546   3.407   2.865   1.265  0.8378 -0.0648  0.2065
 1695SOL    HW116547   3.318   2.861   1.302  0.9263  2.5589  0.6896
 1695SOL    HW216548   3.431   2.775   1.246 -1.7540 -0.7296  0.0466
 1696SOL     OW16549   2.362   1.898  10.855 -0.0379  0.7869  0.3610
 1696SOL    HW116550   2.328   1.952  10.927 -2.8906  0.4761 -0.7387
 1696SOL    HW216551   2.441   1.944  10.828  0.7860 -1.1266 -0.4995
 1697SOL     OW16552   1.820   3.742   7.276  0.2523  0.0345  0.3141
 1697SOL    HW116553   1.850   3.780   7.194 -2.0582  2.0881  0.4229
 1697SOL    HW216554   1.884   3.771   7.341 -0.5730  2.7322 -0.1094
 1698SOL     OW16555   3.042   1.447   6.184 -0.2406 -0.0948 -0.1091
 1698SOL    HW116556   3.102   1.504   6.136  0.0453 -0.5161 -0.2466
 1698SOL    HW216557   2.966   1.505   6.178  0.3154  0.6155 -0.3379
 1699SOL     OW16558   2.537   3.744  12.007 -0.2090  0.2955 -0.1084
 1699SOL    HW116559   2.514   3.727  12.098 -1.5822  0.9691 -0.3348
 1699SOL    HW216560   2.457   3.759  11.957  0.3587 -0.8257 -1.3737
 1700SOL     OW16561   4.283   0.487   2.525 -0.5820 -0.7559  0.3346
 1700SOL    HW116562   4.372   0.452   2.514  0.3949  2.1244 -1.0224
 1700SOL    HW216563   4.300   0.570   2.570  1.2636 -1.1070  0.3112
 1701SOL     OW16564   4.474   4.093  11.097  0.0711 -0.3976  0.0523
 1701SOL    HW116565   4.479   4.147  11.017 -1.9317 -2.3280 -1.3895
 1701SOL    HW216566   4.488   4.160  11.164 -0.2384 -1.5101  1.2029
 1702SOL     OW16567   1.228   2.443   5.502  0.3164  0.6555 -0.1867
 1702SOL    HW116568   1.203   2.406   5.586 -0.4546  1.4238 -0.0783
 1702SOL    HW216569   1.314   2.404   5.488  0.8785  1.5400  0.8224
 1703SOL     OW16570   4.310   2.427   1.541 -0.0915 -0.2464 -0.4864
 1703SOL    HW116571   4.244   2.357   1.544 -0.7174  0.2344 -3.1085
 1703SOL    HW216572   4.372   2.396   1.606  0.3084  1.8153  0.0983
 1704SOL     OW16573   4.692   3.288   6.575 -0.2201  0.6568 -0.4728
 1704SOL    HW116574   4.631   3.215   6.589 -1.8634  1.8377 -1.4843
 1704SOL    HW216575   0.046   3.255   6.619 -0.5991  1.0865  0.5218
 1705SOL     OW16576   1.584   2.409   7.286  0.0588  0.1185  0.0083
 1705SOL    HW116577   1.661   2.413   7.342  0.7943  2.4886 -1.1630
 1705SOL    HW216578   1.612   2.348   7.219  0.7323  2.2712 -1.6761
 1706SOL     OW16579   2.653   1.529   6.680 -0.2936  0.0872 -0.4252
 1706SOL    HW116580   2.614   1.605   6.636  1.2826  0.8505 -0.5209
 1706SOL    HW216581   2.686   1.485   6.602  0.1759  0.5861 -0.5122
 1707SOL     OW16582   1.139   0.183   1.346 -0.1294  0.2277 -0.1902
 1707SOL    HW116583   1.129   0.225   1.261  0.8548 -1.2244 -1.0078
 1707SOL    HW216584   1.068   0.219   1.399 -1.4333  1.0213 -2.4679
 1708SOL     OW16585   1.809   2.992   2.550 -0.9754 -0.1639 -0.1668
 1708SOL    HW116586   1.858   2.943   2.484  0.8205  1.5458 -0.0953
 1708SOL    HW216587   1.733   2.934   2.557  0.5641 -2.3403 -1.5840
 1709SOL     OW16588   0.424   2.038   6.812 -0.3616 -0.3650  0.9262
 1709SOL    HW116589   0.428   2.059   6.905  2.4746 -1.1122  0.9746
 1709SOL    HW216590   0.507   1.992   6.796  1.1515  1.3933  3.7310
 1710SOL     OW16591   0.242   1.488  14.508 -0.2470  0.5034 -0.0426
 1710SOL    HW116592   0.168   1.443  14.548 -0.8360  1.3273 -0.2192
 1710SOL    HW216593   0.298   1.523  14.577  0.4682  0.4076 -0.5752
 1711SOL     OW16594   1.960   4.036  10.353 -0.3505 -0.3515 -0.6045
 1711SOL    HW116595   1.901   4.032  10.277 -3.3966  2.0141  1.6312
 1711SOL    HW216596   1.962   4.129  10.376  2.8631 -0.2995 -1.1121
 1712SOL     OW16597   0.780   4.582   7.777  0.0861  0.2641  0.0575
 1712SOL    HW116598   0.822   4.630   7.849 -2.1336  1.8613  0.2955
 1712SOL    HW216599   0.797   4.494   7.809  0.5215 -0.1308 -1.2870
 1713SOL     OW16600   3.303   1.644  15.173  0.4070  0.4721  0.1645
 1713SOL    HW116601   3.380   1.692  15.204  0.4620  1.2710 -1.1938
 1713SOL    HW216602   3.238   1.672  15.237  1.4762  2.0622  0.5493
 1714SOL     OW16603   0.079   4.288   1.074  0.3984  0.2502 -0.3005
 1714SOL    HW116604   0.028   4.348   1.019  0.1857  1.5833  1.3541
 1714SOL    HW216605   0.133   4.239   1.013 -1.3513 -2.4699  0.3236
 1715SOL     OW16606   4.145   0.419  10.888 -0.4818  0.5040  0.2265
 1715SOL    HW116607   4.209   0.451  10.824 -2.0519  0.5716 -1.3262
 1715SOL    HW216608   4.093   0.496  10.868  0.4089  1.2155  0.6324
 1716SOL     OW16609   3.409   0.452   7.225 -0.2780 -0.5829 -0.9286
 1716SOL    HW116610   3.397   0.459   7.320  0.8921 -0.7545 -0.7680
 1716SOL    HW216611   3.431   0.543   7.202  3.4295 -0.7939  1.7050
 1717SOL     OW16612   4.543   3.590   4.126 -0.0626 -0.3232  0.1544
 1717SOL    HW116613   4.575   3.663   4.072  0.4313 -1.3472 -0.9410
 1717SOL    HW216614   4.626   3.567   4.169  0.3886 -0.4268 -0.7673
 1718SOL     OW16615   0.751   1.798   7.467 -0.0523  0.4902 -0.6691
 1718SOL    HW116616   0.828   1.801   7.523 -0.5521  2.5207 -0.0714
 1718SOL    HW216617   0.773   1.712   7.431 -1.2458  0.3598 -1.0832
 1719SOL     OW16618   0.677   0.783   2.203 -0.3085  0.2223  0.1578
 1719SOL    HW116619   0.606   0.720   2.216  1.7253 -2.0871  0.1957
 1719SOL    HW216620   0.692   0.796   2.297 -0.1730  0.7851  0.0594
 1720SOL     OW16621   2.957   2.591   8.474 -0.5619 -0.1559 -0.5131
 1720SOL    HW116622   2.870   2.619   8.500 -0.1080  0.8127 -0.0416
 1720SOL    HW216623   3.020   2.647   8.520  1.7665 -0.0129 -3.8671
 1721SOL     OW16624   2.926   1.688   1.333  0.0234 -0.4246  0.1195
 1721SOL    HW116625   2.897   1.625   1.266 -2.4413  1.4662 -0.5891
 1721SOL    HW216626   2.944   1.764   1.279 -2.2667  1.1473  1.5844
 1722SOL     OW16627   1.660   4.492   1.966  0.3162  0.7690 -0.0561
 1722SOL    HW116628   1.576   4.461   2.000  1.3364 -0.2864  1.4801
 1722SOL    HW216629   1.688   4.401   1.952  2.7865  1.3802  0.8656
 1723SOL     OW16630   1.879   1.337  13.122  0.0853  0.1597  0.0278
 1723SOL    HW116631   1.938   1.378  13.186  1.6348 -2.8389  0.5302
 1723SOL    HW216632   1.955   1.289  13.089  1.5203  1.1670  1.8322
 1724SOL     OW16633   2.879   4.338   0.548 -0.1274  0.2769  0.3170
 1724SOL    HW116634   2.899   4.424   0.511 -1.1626  0.6283  0.6089
 1724SOL    HW216635   2.784   4.334   0.540  0.1324  0.5444 -2.9767
 1725SOL     OW16636   3.787   3.150   3.746 -0.1454 -0.0240  0.5500
 1725SOL    HW116637   3.694   3.168   3.758 -0.0863 -0.3305  1.5059
 1725SOL    HW216638   3.811   3.208   3.673 -1.0205 -1.2505 -0.7010
 1726SOL     OW16639   1.410   1.550   0.197 -0.2651 -0.0922 -0.3361
 1726SOL    HW116640   1.429   1.605   0.273  0.5214 -1.1839  0.2402
 1726SOL    HW216641   1.403   1.613   0.125 -1.6101 -0.5273 -0.5918
 1727SOL     OW16642   3.441   2.245   2.075  0.3128  0.0624  0.8106
 1727SOL    HW116643   3.536   2.235   2.068  0.3247  1.1795 -0.6934
 1727SOL    HW216644   3.410   2.271   1.988  0.4979  2.6741  1.5487
 1728SOL     OW16645   1.304   1.839   7.649  0.1677 -0.0423 -0.0428
 1728SOL    HW116646   1.363   1.898   7.695  0.0221  1.7330 -2.1619
 1728SOL    HW216647   1.360   1.761   7.656  0.8349  0.5304  0.9269
 1729SOL     OW16648   2.387   2.799   7.934  0.5492 -0.2815  0.2600
 1729SOL    HW116649   2.427   2.866   7.879 -1.2575 -0.4938 -1.2969
 1729SOL    HW216650   2.424   2.718   7.900  2.0060  0.3069  0.4095
 1730SOL     OW16651   4.218   0.850   3.817 -0.9033 -0.0566  0.2271
 1730SOL    HW116652   4.228   0.916   3.748  0.1136 -1.1500 -0.6697
 1730SOL    HW216653   4.200   0.774   3.762  1.8608  1.6663 -3.0861
 1731SOL     OW16654   2.836   1.768  16.274 -0.2972 -0.8052  0.3861
 1731SOL    HW116655   2.792   1.685  16.290  2.2655 -1.8801  1.8200
 1731SOL    HW216656   2.911   1.732  16.228 -1.1001 -0.1364 -1.4372
 1732SOL     OW16657   4.184   3.640   7.142 -0.5285  0.2926 -0.3929
 1732SOL    HW116658   4.219   3.552   7.156  1.0165  0.9950  0.1093
 1732SOL    HW216659   4.259   3.684   7.181 -1.4346  1.4765  0.0530
 1733SOL     OW16660   0.574   0.692  11.917 -0.8356  0.2400  0.4685
 1733SOL    HW116661   0.597   0.623  11.978  2.4690 -1.0830 -2.3033
 1733SOL    HW216662   0.654   0.742  11.902 -0.5322 -0.2167  0.5626
 1734SOL     OW16663   1.970   2.136  17.235  0.0188 -0.1692 -0.4574
 1734SOL    HW116664   1.966   2.120  17.141  0.9223 -0.3234 -0.4699
 1734SOL    HW216665   2.046   2.080  17.251 -1.3284 -1.1808  2.4421
 1735SOL     OW16666   0.130   3.327   7.030 -0.5591  0.2359 -0.6094
 1735SOL    HW116667   0.221   3.323   7.003 -1.1783 -2.0862 -2.3490
 1735SOL    HW216668   0.098   3.239   7.049 -0.4591  0.0494 -1.2873
 1736SOL     OW16669   3.421   0.623  12.328  0.4392  0.2760 -0.3538
 1736SOL    HW116670   3.357   0.588  12.266  1.5316  0.1982 -1.4407
 1736SOL    HW216671   3.404   0.717  12.328 -0.4697  0.1096 -0.9711
 1737SOL     OW16672   1.193   4.413   2.919  0.2642 -0.0833 -0.2921
 1737SOL    HW116673   1.209   4.431   2.826 -0.1727 -0.9369 -0.5295
 1737SOL    HW216674   1.275   4.443   2.958  0.8116 -1.3214 -0.4898
 1738SOL     OW16675   4.722   2.119   4.916  0.0638  0.3364  0.1057
 1738SOL    HW116676   0.015   2.193   4.857 -1.1160  1.5364  1.2580
 1738SOL    HW216677   4.692   2.166   4.994 -1.7195 -0.1827 -0.2741
 1739SOL     OW16678   4.457   2.893   2.963  0.1163  0.0771  0.2449
 1739SOL    HW116679   4.507   2.888   2.882 -1.9736 -1.5308 -0.9089
 1739SOL    HW216680   4.371   2.922   2.935  0.3152  0.6601  0.2301
 1740SOL     OW16681   0.811   1.109   1.495  0.0540 -0.4258 -0.3976
 1740SOL    HW116682   0.741   1.174   1.502 -0.2207 -0.7244 -0.3549
 1740SOL    HW216683   0.785   1.044   1.429 -2.7750  0.0140  0.2661
 1741SOL     OW16684   4.084   1.687  12.910 -0.2095 -0.1024  0.1023
 1741SOL    HW116685   4.076   1.634  12.831 -1.3483 -2.5052  1.8450
 1741SOL    HW216686   4.179   1.680  12.924 -0.1499  2.3562  0.9362
 1742SOL     OW16687   2.213   3.450   2.686 -0.4522  0.3300  0.0399
 1742SOL    HW116688   2.166   3.379   2.730  1.3138 -2.4937 -2.6202
 1742SOL    HW216689   2.301   3.416   2.672 -0.8503 -0.2838 -0.9798
 1743SOL     OW16690   2.831   0.785   1.909 -0.0308  0.0788 -0.0105
 1743SOL    HW116691   2.842   0.859   1.850 -1.1540  0.4791  0.2970
 1743SOL    HW216692   2.865   0.713   1.856  1.1100 -0.0146  0.8329
 1744SOL     OW16693   1.279   0.408  16.029  0.2165  0.1850  0.2454
 1744SOL    HW116694   1.285   0.398  15.934 -1.2726  1.9535 -0.0368
 1744SOL    HW216695   1.184   0.395  16.036  0.2152  1.0968  1.7409
 1745SOL     OW16696   4.481   4.555  16.335  0.1086  0.0415 -0.1788
 1745SOL    HW116697   4.514   4.644  16.346  0.1556  0.1168 -0.9465
 1745SOL    HW216698   4.537   4.524  16.264 -1.0335 -1.1024 -0.5802
 1746SOL     OW16699   1.039   0.732  14.939 -0.7279  0.5070  0.0004
 1746SOL    HW116700   1.025   0.639  14.954  1.4667  0.1443 -0.1079
 1746SOL    HW216701   1.053   0.750  15.032 -0.5176 -1.9471  0.4310
 1747SOL     OW16702   3.469   1.743   0.483 -0.1685  0.6205 -0.3919
 1747SOL    HW116703   3.466   1.662   0.432  2.7817  1.4107 -1.8681
 1747SOL    HW216704   3.507   1.807   0.422  0.5487  1.0811  0.5455
 1748SOL     OW16705   0.449   0.909   1.671  0.0426 -0.8693 -0.3303
 1748SOL    HW116706   0.442   0.993   1.718  0.9869 -0.4707 -0.8933
 1748SOL    HW216707   0.542   0.891   1.686 -0.2396 -1.2305  1.0223
 1749SOL     OW16708   0.387   1.408   6.686  0.3744  0.0534 -0.3953
 1749SOL    HW116709   0.422   1.347   6.751  0.1893 -1.1524 -1.4420
 1749SOL    HW216710   0.428   1.492   6.708  1.2181 -0.0965 -1.4404
 1750SOL     OW16711   0.485   1.522   8.081 -0.2997  0.5772  0.2698
 1750SOL    HW116712   0.577   1.504   8.062 -0.0119  0.5461  1.6901
 1750SOL    HW216713   0.445   1.439   8.108 -2.7023  1.9997  1.0048
 1751SOL     OW16714   0.471   3.179   3.043 -0.1394 -0.3435 -0.1012
 1751SOL    HW116715   0.504   3.211   3.127 -0.0279  0.5439 -0.4790
 1751SOL    HW216716   0.410   3.252   3.030 -1.8243 -1.6637  0.3901
 1752SOL     OW16717   1.629   4.210   5.276  0.0370 -0.5623  0.2759
 1752SOL    HW116718   1.697   4.272   5.249 -0.1716 -0.1465  0.6935
 1752SOL    HW216719   1.551   4.258   5.248 -0.1254  0.2441  2.1472
 1753SOL     OW16720   1.445   1.251  14.224 -0.3319 -0.3252 -0.8708
 1753SOL    HW116721   1.350   1.258  14.213 -0.0603  4.1944 -0.1037
 1753SOL    HW216722   1.458   1.252  14.319  1.3565 -1.2755 -1.0870
 1754SOL     OW16723   1.292   0.854  15.875  0.6030  0.4761  0.2118
 1754SOL    HW116724   1.263   0.794  15.944  1.9305 -0.8500 -0.3868
 1754SOL    HW216725   1.202   0.876  15.848 -0.0157 -1.7750  0.4233
 1755SOL     OW16726   3.970   1.117  17.487 -0.2514 -0.0542 -0.4401
 1755SOL    HW116727   3.995   1.027  17.510 -0.2991 -0.4820 -2.0234
 1755SOL    HW216728   3.878   1.121  17.514 -0.2800  0.0990 -0.5616
 1756SOL     OW16729   3.795   3.615   6.351  0.0816 -0.0676 -0.1848
 1756SOL    HW116730   3.709   3.632   6.314 -0.2486  1.7967  1.4529
 1756SOL    HW216731   3.847   3.673   6.295 -0.0545 -1.2274 -1.5186
 1757SOL     OW16732   4.488   3.751   2.026 -0.0865  0.1926 -0.4092
 1757SOL    HW116733   4.503   3.844   2.010  2.7056 -0.0511  0.8707
 1757SOL    HW216734   4.393   3.756   2.040 -0.0887 -0.6083 -0.1874
 1758SOL     OW16735   3.987   3.614   5.057  0.6074  0.5678 -0.7411
 1758SOL    HW116736   4.067   3.657   5.086  2.3125 -1.5378 -2.2597
 1758SOL    HW216737   3.916   3.674   5.079 -1.2265 -1.1677 -1.8998
 1759SOL     OW16738   4.633   2.073   3.659 -0.3302 -0.2436  0.5281
 1759SOL    HW116739   4.699   2.117   3.712  1.7391 -2.1490 -0.4903
 1759SOL    HW216740   4.691   2.009   3.617  0.5439  0.6068  0.4563
 1760SOL     OW16741   4.400   3.485   0.657 -0.0288 -0.3183 -0.4387
 1760SOL    HW116742   4.494   3.494   0.639 -0.0703  0.0483 -0.4766
 1760SOL    HW216743   4.389   3.491   0.751  0.3228 -0.3812 -0.3935
 1761SOL     OW16744   2.367   4.234  13.279  0.3016  0.5896 -0.1048
 1761SOL    HW116745   2.283   4.212  13.319 -0.3625  0.8075 -1.3668
 1761SOL    HW216746   2.396   4.149  13.244  0.9805  0.9793 -0.4938
 1762SOL     OW16747   0.124   0.780   4.362  0.3441  0.4803 -0.3487
 1762SOL    HW116748   0.108   0.743   4.275 -0.2642  0.0120 -0.0426
 1762SOL    HW216749   0.167   0.863   4.340 -1.3790  1.3524 -0.4680
 1763SOL     OW16750   3.075   3.828  15.680  0.1332 -0.1197  0.2466
 1763SOL    HW116751   3.126   3.781  15.614  2.3237  1.1734  1.0152
 1763SOL    HW216752   3.140   3.895  15.702 -0.3339  0.1278  0.8843
 1764SOL     OW16753   1.530   0.798   4.239 -0.4512 -0.4689 -0.3698
 1764SOL    HW116754   1.497   0.757   4.319 -0.4228  0.1968 -0.0146
 1764SOL    HW216755   1.458   0.842   4.195 -1.3719  2.4869  4.1306
 1765SOL     OW16756   1.448   0.923   0.005  0.4027 -0.0357 -0.2526
 1765SOL    HW116757   1.446   0.874   0.088 -1.1639 -0.3489 -0.4752
 1765SOL    HW216758   1.541   0.918  17.680 -0.0508 -1.4943 -1.8203
 1766SOL     OW16759   0.059   0.724  11.398  0.1903  0.0917  0.2872
 1766SOL    HW116760   0.094   0.656  11.341  1.4803  1.4766 -0.5928
 1766SOL    HW216761   0.113   0.722  11.476  0.6109  1.5841  0.0417
 1767SOL     OW16762   2.904   1.097   9.234 -0.6865  0.5685 -0.3644
 1767SOL    HW116763   2.934   1.188   9.228  1.1365  0.1032  1.8430
 1767SOL    HW216764   2.876   1.088   9.143  0.5615 -1.0305 -0.5946
 1768SOL     OW16765   3.249   3.471  14.874 -0.0021  0.2136  0.0430
 1768SOL    HW116766   3.214   3.440  14.790 -0.4826  3.6718 -1.0052
 1768SOL    HW216767   3.284   3.557  14.852  0.5669 -0.4883 -1.8529
 1769SOL     OW16768   0.611   4.419   7.224  0.3151  0.0900 -0.3173
 1769SOL    HW116769   0.618   4.474   7.147 -2.0553 -0.5001 -0.9481
 1769SOL    HW216770   0.581   4.483   7.289  1.7924  0.8422 -0.3641
 1770SOL     OW16771   2.942   1.004   4.374 -0.3367 -0.4564 -0.2028
 1770SOL    HW116772   3.015   0.968   4.424  0.4686 -0.0028 -1.0628
 1770SOL    HW216773   2.935   0.939   4.304  1.7290 -2.1380  1.1609
 1771SOL     OW16774   3.117   2.007   7.432 -0.7219  0.2620  0.5132
 1771SOL    HW116775   3.141   1.919   7.461  1.5575  1.0102  0.8715
 1771SOL    HW216776   3.168   2.023   7.353 -1.2345  1.8971  0.5117
 1772SOL     OW16777   0.023   4.507  15.119 -0.4453 -0.4581 -0.5020
 1772SOL    HW116778   0.065   4.592  15.109 -2.3840  0.8339  2.3315
 1772SOL    HW216779   0.098   4.448  15.108 -0.0625 -0.0100 -0.2819
 1773SOL     OW16780   2.093   3.251   2.841  0.7094 -0.1274 -0.2190
 1773SOL    HW116781   2.001   3.230   2.828 -0.4214  3.3057  2.5089
 1773SOL    HW216782   2.126   3.167   2.873  1.4745  0.4618  0.5362
 1774SOL     OW16783   2.734   1.439   3.516 -0.4108 -0.3149 -0.2630
 1774SOL    HW116784   2.703   1.506   3.455  0.1473 -0.7530 -1.0268
 1774SOL    HW216785   2.656   1.399   3.556 -2.6123  2.2071 -2.0105
 1775SOL     OW16786   2.680   3.867   6.449  0.1846 -0.4653 -0.2684
 1775SOL    HW116787   2.670   3.836   6.539 -0.6171 -0.4425 -0.3475
 1775SOL    HW216788   2.632   3.798   6.402  0.1107 -2.0747  2.1398
 1776SOL     OW16789   3.538   1.031   5.846 -0.4452 -0.0385 -0.2822
 1776SOL    HW116790   3.528   0.954   5.790  0.6186  0.6602 -1.4223
 1776SOL    HW216791   3.520   0.986   5.929 -0.0306  1.1605  0.4511
 1777SOL     OW16792   1.331   3.338   6.740  0.5724  0.2480  0.3039
 1777SOL    HW116793   1.338   3.410   6.803  3.0556 -2.5857  3.2049
 1777SOL    HW216794   1.395   3.363   6.674  0.3261 -2.6142 -1.0140
 1778SOL     OW16795   4.336   4.536   4.454  0.0182 -0.2894  0.1100
 1778SOL    HW116796   4.420   4.491   4.445 -1.8730 -3.4389 -1.8966
 1778SOL    HW216797   4.303   4.492   4.532  0.0665 -0.3530  0.0947
 1779SOL     OW16798   3.824   1.390   1.404  0.3677  0.1981  0.5235
 1779SOL    HW116799   3.750   1.382   1.344 -0.7362  2.1212  1.6538
 1779SOL    HW216800   3.875   1.452   1.352 -1.2339  1.1808  0.1299
 1780SOL     OW16801   3.753   3.719  12.205  0.3490  0.6023  0.0722
 1780SOL    HW116802   3.764   3.796  12.150  1.5166 -0.0919 -0.6730
 1780SOL    HW216803   3.846   3.716  12.231 -0.2929  0.4789  2.3827
 1781SOL     OW16804   4.335   1.909   3.427  0.1085 -0.9397  0.5502
 1781SOL    HW116805   4.272   1.949   3.368  1.2362 -0.1873 -0.1392
 1781SOL    HW216806   4.399   1.887   3.359  1.5809  0.8425  1.3449
 1782SOL     OW16807   3.368   2.054   4.983  0.2485  0.5242  0.5381
 1782SOL    HW116808   3.299   1.995   5.014 -0.0049 -0.6959 -2.3598
 1782SOL    HW216809   3.374   2.119   5.053 -0.4182 -1.1372  2.1238
 1783SOL     OW16810   1.506   3.900   5.497 -0.3403  1.1924 -0.3675
 1783SOL    HW116811   1.565   3.842   5.450 -1.2786  1.2968 -1.6790
 1783SOL    HW216812   1.464   3.932   5.417  0.4557  0.6183 -0.9985
 1784SOL     OW16813   3.710   4.094  16.253 -0.5190 -0.6742 -0.3135
 1784SOL    HW116814   3.630   4.043  16.271 -3.3564  3.7560 -0.3866
 1784SOL    HW216815   3.674   4.181  16.236  0.9987  0.1788  0.9226
 1785SOL     OW16816   4.579   0.438   9.006  0.3078 -0.1690  0.0142
 1785SOL    HW116817   4.560   0.405   8.919 -1.8287  0.6148  0.1755
 1785SOL    HW216818   4.495   0.479   9.027  0.5001  0.4660 -0.4549
 1786SOL     OW16819   2.011   3.174   2.059 -0.2566 -0.4060  0.0858
 1786SOL    HW116820   2.032   3.135   1.974 -0.3783 -3.1588  1.3202
 1786SOL    HW216821   2.085   3.157   2.117  0.6799 -0.5614 -1.1601
 1787SOL     OW16822   4.321   1.116   9.485 -0.0743 -0.7608  0.2553
 1787SOL    HW116823   4.329   1.124   9.390  0.1460  0.7495  0.4108
 1787SOL    HW216824   4.372   1.190   9.517 -1.1547 -0.0025  0.2020
 1788SOL     OW16825   0.763   0.298   5.480  0.4988  0.4473 -0.3610
 1788SOL    HW116826   0.821   0.223   5.464  0.6374  0.2562  1.0885
 1788SOL    HW216827   0.764   0.290   5.575  1.4851  1.9499 -0.2405
 1789SOL     OW16828   0.521   2.807   4.454  0.4761 -0.1642  0.5665
 1789SOL    HW116829   0.467   2.886   4.446  0.4754 -0.3117 -1.0062
 1789SOL    HW216830   0.601   2.843   4.492 -1.7184  0.7594  4.2721
 1790SOL     OW16831   0.860   2.149   3.527 -0.3250  0.4630 -0.4419
 1790SOL    HW116832   0.847   2.136   3.621  2.2366  0.7191 -0.0572
 1790SOL    HW216833   0.898   2.237   3.518 -2.3326  1.2971 -0.7518
 1791SOL     OW16834   3.229   3.291   2.517  0.0579  0.4465 -0.4833
 1791SOL    HW116835   3.316   3.315   2.485  0.1141  3.1414  1.7353
 1791SOL    HW216836   3.182   3.268   2.437 -0.1651 -2.3725  0.4423
 1792SOL     OW16837   1.430   3.718   3.776  0.2600 -0.0939  0.1542
 1792SOL    HW116838   1.437   3.632   3.733  0.6088 -0.6629  1.3502
 1792SOL    HW216839   1.380   3.766   3.710 -2.3725 -0.2053  2.0724
 1793SOL     OW16840   1.382   1.033   4.095  0.0945 -0.2570 -0.4829
 1793SOL    HW116841   1.328   1.103   4.058 -0.6056 -1.3813 -1.5983
 1793SOL    HW216842   1.314   0.970   4.118  0.1377  0.2042  0.9398
 1794SOL     OW16843   0.622   1.325  14.840 -0.3205 -0.4773 -0.0659
 1794SOL    HW116844   0.662   1.378  14.771  0.1168 -0.0921  0.4850
 1794SOL    HW216845   0.694   1.279  14.882  1.0406  1.8551  0.1452
 1795SOL     OW16846   4.021   3.133  16.471 -0.5770  0.1938  0.5183
 1795SOL    HW116847   4.116   3.132  16.472 -0.5719  0.6601  0.4444
 1795SOL    HW216848   3.993   3.149  16.561  4.3715 -1.4408  2.3352
 1796SOL     OW16849   0.631   0.490  10.016  0.4805  0.5000  0.2187
 1796SOL    HW116850   0.708   0.437   9.997  0.3011  0.2050  0.3206
 1796SOL    HW216851   0.596   0.495   9.926  1.2295 -0.5619 -0.1351
 1797SOL     OW16852   4.626   4.006   4.141  0.1662  0.2494 -0.3233
 1797SOL    HW116853   4.717   3.995   4.116  0.3624  3.3714 -0.9745
 1797SOL    HW216854   4.576   3.942   4.091 -0.5529  0.2352  0.4127
 1798SOL     OW16855   3.619   1.364   8.388 -0.5828 -0.0697  0.0033
 1798SOL    HW116856   3.637   1.271   8.403  0.6791  0.0704 -0.6395
 1798SOL    HW216857   3.534   1.366   8.433 -0.4495 -2.7009  0.3947
 1799SOL     OW16858   1.399   2.694   6.902 -0.1461 -0.0944  0.5481
 1799SOL    HW116859   1.304   2.687   6.912 -0.0916 -0.6362  0.6785
 1799SOL    HW216860   1.422   2.740   6.982 -1.5443  0.8684  0.3999
 1800SOL     OW16861   0.538   4.304  10.907 -0.0839  0.2344 -0.5546
 1800SOL    HW116862   0.589   4.277  10.831  1.8294 -0.3998  0.9468
 1800SOL    HW216863   0.464   4.251  10.880  0.9372 -1.2509 -0.4413
 1801SOL     OW16864   3.507   0.595   7.668  0.7734  0.2241 -0.4364
 1801SOL    HW116865   3.589   0.547   7.663  1.3251  1.4139 -2.8494
 1801SOL    HW216866   3.543   0.683   7.653  2.6232 -0.1306  2.0620
 1802SOL     OW16867   2.035   2.799   8.384 -0.2414  0.5962  0.1483
 1802SOL    HW116868   1.940   2.796   8.379 -0.1926 -0.8542  0.1430
 1802SOL    HW216869   2.046   2.831   8.474  0.1564  1.5567 -0.2437
 1803SOL     OW16870   2.602   4.243  13.713 -0.2551 -0.0263 -0.5508
 1803SOL    HW116871   2.698   4.248  13.720 -0.3308 -1.0441  1.2505
 1803SOL    HW216872   2.576   4.334  13.721  0.2488 -0.2668  3.4938
 1804SOL     OW16873   2.822   2.469   3.395  0.4881 -0.0332  0.5551
 1804SOL    HW116874   2.778   2.552   3.415 -0.3077 -0.9606  2.6186
 1804SOL    HW216875   2.764   2.447   3.322 -0.3105 -1.1314  1.5215
 1805SOL     OW16876   2.285   0.083   5.473 -0.1255  0.1563 -0.7538
 1805SOL    HW116877   2.243   4.722   5.490  0.9114  0.1464  1.8160
 1805SOL    HW216878   2.367   0.064   5.519 -0.7032  0.1404  0.2796
 1806SOL     OW16879   2.244   2.554  11.827 -0.2027 -0.4404 -0.3625
 1806SOL    HW116880   2.307   2.521  11.891 -0.4409 -0.4706 -0.1418
 1806SOL    HW216881   2.278   2.641  11.805 -1.4780  0.6715  2.0433
 1807SOL     OW16882   3.899   1.781  11.269  0.7091 -0.1459  0.2014
 1807SOL    HW116883   3.841   1.839  11.220  0.4537 -1.8925 -1.5664
 1807SOL    HW216884   3.883   1.824  11.354 -0.2767  1.0555 -0.5896
 1808SOL     OW16885   1.925   4.341   9.255 -0.2725  0.5561 -0.4138
 1808SOL    HW116886   1.867   4.267   9.240 -1.1868  0.9784  1.0298
 1808SOL    HW216887   1.863   4.407   9.289  2.5683  1.8215  2.3981
 1809SOL     OW16888   4.281   1.784   1.328 -0.0497 -0.6868  0.2288
 1809SOL    HW116889   4.333   1.863   1.312 -2.9709  0.8348 -1.6680
 1809SOL    HW216890   4.343   1.713   1.313  0.7907  0.3902 -1.4462
 1810SOL     OW16891   3.721   3.022   5.813 -0.4253  0.4939  0.2006
 1810SOL    HW116892   3.737   2.946   5.757  0.8630  1.1496 -0.3390
 1810SOL    HW216893   3.712   3.095   5.752  2.6642  0.1611 -0.6405
 1811SOL     OW16894   4.617   0.566   8.038 -0.1970 -0.1005  0.2191
 1811SOL    HW116895   4.570   0.484   8.053  0.7597 -0.7197 -0.2106
 1811SOL    HW216896   4.645   0.589   8.127  2.4187  2.4046 -1.2332
 1812SOL     OW16897   0.890   2.073   7.915  0.0578  0.0972  0.3390
 1812SOL    HW116898   0.849   2.063   7.829 -1.0456  0.2397  0.8392
 1812SOL    HW216899   0.966   2.015   7.910  0.7297  1.1992 -2.0543
 1813SOL     OW16900   0.098   3.448   2.838  0.0790  0.5426 -0.1605
 1813SOL    HW116901   0.094   3.358   2.870  1.4732  0.2233 -0.8483
 1813SOL    HW216902   0.191   3.469   2.828 -0.0623  1.6513  1.0080
 1814SOL     OW16903   4.380   0.265   2.096 -0.2662  0.3447  0.1859
 1814SOL    HW116904   4.339   0.268   2.182  2.4971 -1.8242  1.5786
 1814SOL    HW216905   4.315   0.270   2.026  0.0409  1.5312 -0.0062
 1815SOL     OW16906   3.242   1.542  10.184  0.2424 -0.3568 -0.3620
 1815SOL    HW116907   3.172   1.502  10.236 -0.5546  1.0694 -0.3454
 1815SOL    HW216908   3.298   1.578  10.253  0.2915 -0.2795 -0.4420
 1816SOL     OW16909   4.226   4.254   6.278 -0.2179  0.0459 -0.4130
 1816SOL    HW116910   4.276   4.198   6.218  0.5555  0.4596 -0.1617
 1816SOL    HW216911   4.211   4.192   6.349  0.8613  0.0532 -0.1744
 1817SOL     OW16912   3.143   0.050   2.144  0.1009 -0.2543  0.1170
 1817SOL    HW116913   3.131   0.127   2.089  2.2407 -0.7644 -1.0740
 1817SOL    HW216914   3.215   0.009   2.097 -0.4544  0.6213 -1.4976
 1818SOL     OW16915   1.215   0.517   4.159  0.2174 -0.1976  0.0095
 1818SOL    HW116916   1.191   0.425   4.145  0.1978 -0.2034  0.0857
 1818SOL    HW216917   1.290   0.514   4.100 -1.8353 -0.1677 -2.6388
 1819SOL     OW16918   1.814   1.104   5.169 -0.2604 -0.1613 -0.1831
 1819SOL    HW116919   1.867   1.145   5.101 -1.9892  0.2333 -1.2922
 1819SOL    HW216920   1.883   1.105   5.236  0.4177 -1.3006 -0.8678
 1820SOL     OW16921   2.972   0.370  13.687  0.0745  0.3188 -0.3658
 1820SOL    HW116922   2.983   0.405  13.599 -1.5358  5.2721  1.3874
 1820SOL    HW216923   2.995   0.450  13.733  5.5385 -0.7054 -1.3172
 1821SOL     OW16924   3.785   2.590   4.454  0.3811  0.1404  0.2650
 1821SOL    HW116925   3.806   2.535   4.379  1.4583  1.0626 -0.0944
 1821SOL    HW216926   3.716   2.537   4.495 -0.0157  1.2415  1.0155
 1822SOL     OW16927   4.608   3.881   6.947 -0.4610  0.3263  0.2646
 1822SOL    HW116928   4.658   3.839   6.877 -1.6609 -2.1233  0.8768
 1822SOL    HW216929   4.617   3.973   6.922  0.5132  0.3509  0.6720
 1823SOL     OW16930   2.926   1.110   9.586 -0.7492  0.4745 -0.7018
 1823SOL    HW116931   2.922   1.157   9.670 -0.9870 -1.4502  0.3638
 1823SOL    HW216932   2.986   1.161   9.532 -1.5481 -0.8085 -2.7732
 1824SOL     OW16933   1.027   2.689   3.807  0.6182 -0.5284  0.1590
 1824SOL    HW116934   1.085   2.710   3.733 -0.3499 -0.5033 -0.5935
 1824SOL    HW216935   1.050   2.756   3.870  0.6602  1.5242 -2.0269
 1825SOL     OW16936   0.328   1.172   9.802  0.3750  0.0473  0.0509
 1825SOL    HW116937   0.379   1.163   9.722 -1.2476  0.8293 -1.0626
 1825SOL    HW216938   0.391   1.153   9.872  1.4073  0.4587 -0.7725
 1826SOL     OW16939   2.541   0.527   3.559 -0.0782  0.0571 -0.1904
 1826SOL    HW116940   2.533   0.598   3.495 -2.2936 -1.7459 -1.9167
 1826SOL    HW216941   2.525   0.461   3.491 -2.0913 -0.1056  0.4434
 1827SOL     OW16942   0.416   4.429  17.680  0.3496  0.2138  0.0151
 1827SOL    HW116943   0.398   4.513  17.638  1.1531  1.0373  1.3098
 1827SOL    HW216944   0.433   4.457   0.073  2.4819  1.8534 -0.8770
 1828SOL     OW16945   3.346   0.905  17.609  0.3595 -0.0698  0.1296
 1828SOL    HW116946   3.286   0.941  17.673  0.4111 -0.1286  0.2117
 1828SOL    HW216947   3.432   0.914  17.652 -0.0097  0.6111  0.7167
 1829SOL     OW16948   1.432   2.751   6.210 -0.6037 -0.0453 -0.9034
 1829SOL    HW116949   1.347   2.791   6.198 -0.0947  1.5660  0.7996
 1829SOL    HW216950   1.477   2.817   6.263 -1.1275 -0.5359  0.1654
 1830SOL     OW16951   1.511   0.059  11.262  0.0693 -0.1174  0.5629
 1830SOL    HW116952   1.492   0.134  11.319  2.2750 -0.3338  1.5981
 1830SOL    HW216953   1.481   0.101  11.182 -3.0284 -1.0417  1.2374
 1831SOL     OW16954   0.382   0.751   3.983  0.4059  0.0536 -0.1753
 1831SOL    HW116955   0.358   0.667   4.020  1.2019  0.3347  0.9558
 1831SOL    HW216956   0.297   0.797   3.982 -0.0743 -0.8329  0.4135
 1832SOL     OW16957   3.526   3.017   9.334 -0.2830 -0.8960  0.0572
 1832SOL    HW116958   3.543   2.960   9.409 -0.3313  0.0986  0.8232
 1832SOL    HW216959   3.557   3.099   9.372  0.1107 -1.9563  2.0309
 1833SOL     OW16960   2.914   0.275  10.718  0.5848  0.4810  0.2525
 1833SOL    HW116961   2.985   0.329  10.753  0.6870  1.8192 -1.9938
 1833SOL    HW216962   2.881   0.230  10.795  0.9137 -0.8859 -0.4058
 1834SOL     OW16963   3.342   2.136   1.561  0.2949 -0.2981  0.4265
 1834SOL    HW116964   3.432   2.163   1.541 -0.4678  1.9372  0.0517
 1834SOL    HW216965   3.291   2.133   1.480 -1.1280 -0.1789  1.3196
 1835SOL     OW16966   3.766   3.606   8.981 -0.5824  0.3105  0.8756
 1835SOL    HW116967   3.746   3.690   8.939  0.3176  0.8032  1.4502
 1835SOL    HW216968   3.686   3.577   9.026  1.0219 -0.1361  3.3944
 1836SOL     OW16969   1.067   2.922   1.275 -0.5040 -0.0593  0.7615
 1836SOL    HW116970   1.143   2.870   1.300 -1.2656 -1.7829 -0.5496
 1836SOL    HW216971   0.995   2.901   1.335  0.0019 -0.2252  1.3069
 1837SOL     OW16972   1.804   0.695  10.160 -0.2059  0.2024  0.2127
 1837SOL    HW116973   1.787   0.613  10.205  0.5120  0.3312  0.7128
 1837SOL    HW216974   1.769   0.759  10.221 -2.4470 -0.3447 -0.5108
 1838SOL     OW16975   0.436   3.625  16.259 -0.7912 -0.5152 -0.0078
 1838SOL    HW116976   0.354   3.579  16.279 -2.1449  1.0697 -1.9230
 1838SOL    HW216977   0.473   3.583  16.182 -0.8683  0.9235 -0.8290
 1839SOL     OW16978   3.073   4.371  17.285  0.3303 -0.4232 -0.3202
 1839SOL    HW116979   3.018   4.347  17.211 -0.2289 -2.0298  0.6149
 1839SOL    HW216980   3.137   4.300  17.293  2.1858  1.2657  0.0165
 1840SOL     OW16981   0.773   0.023   7.039 -0.1407  0.1107  0.2163
 1840SOL    HW116982   0.742   0.112   7.057  1.0058  0.3375  1.1056
 1840SOL    HW216983   0.698   4.688   7.035  1.4155 -1.9305  0.9232
 1841SOL     OW16984   2.810   0.987  10.950 -0.1436 -0.1206 -0.3683
 1841SOL    HW116985   2.841   1.057  11.008  1.1178  2.1041 -3.6843
 1841SOL    HW216986   2.720   0.972  10.979 -0.2106  1.3548  0.2242
 1842SOL     OW16987   0.116   2.861   4.565  1.1549 -0.1951  0.0246
 1842SOL    HW116988   0.114   2.766   4.552 -0.1445  0.1707 -2.5188
 1842SOL    HW216989   0.151   2.888   4.480  1.8313  1.9720  0.9823
 1843SOL     OW16990   0.751   3.044   3.120 -0.4218 -0.3157  0.0331
 1843SOL    HW116991   0.835   3.043   3.073 -0.6244 -2.6373 -0.2621
 1843SOL    HW216992   0.767   2.975   3.184 -2.9360 -0.2846  0.7067
 1844SOL     OW16993   2.897   0.552  16.084 -0.3916  0.6115  0.1858
 1844SOL    HW116994   2.960   0.513  16.023  0.2486 -1.2012  2.0111
 1844SOL    HW216995   2.811   0.544  16.043 -1.6514  1.2450  2.7248
 1845SOL     OW16996   1.547   3.730   6.494 -0.0054  0.0031 -0.2268
 1845SOL    HW116997   1.637   3.732   6.527  0.3227 -0.9014 -1.0627
 1845SOL    HW216998   1.557   3.681   6.413  1.9580 -0.5898  0.3530
 1846SOL     OW16999   1.042   0.248   7.162 -0.3372  0.5717  0.1675
 1846SOL    HW117000   0.999   0.260   7.077 -0.0395 -1.2200 -0.2365
 1846SOL    HW217001   1.119   0.299   7.139 -1.0876  1.9682  0.7216
 1847SOL     OW17002   4.319   4.155  12.848 -0.2660  0.7957 -0.1729
 1847SOL    HW117003   4.257   4.219  12.883 -0.9681 -0.1477  0.3012
 1847SOL    HW217004   4.372   4.132  12.924 -2.2445 -2.0618  0.3243
 1848SOL     OW17005   3.088   2.366   3.296 -0.1136  0.2643 -0.3057
 1848SOL    HW117006   3.138   2.289   3.323  0.6600  0.6503 -0.6587
 1848SOL    HW217007   3.007   2.345   3.343 -0.4398 -2.3902 -2.0411
 1849SOL     OW17008   3.291   3.734   2.281  0.5812 -0.4732 -0.2142
 1849SOL    HW117009   3.245   3.650   2.274 -2.6599  1.3208 -0.8126
 1849SOL    HW217010   3.221   3.787   2.319 -1.2194 -2.6107 -0.4743
 1850SOL     OW17011   1.119   0.999  14.990  0.6448 -0.6760 -0.8166
 1850SOL    HW117012   1.115   1.083  14.945  1.2829  0.2876  0.8882
 1850SOL    HW217013   1.039   0.996  15.041  0.6190  2.1620 -0.6704
 1851SOL     OW17014   0.672   2.248   4.772 -0.0206  0.2483 -0.6046
 1851SOL    HW117015   0.651   2.273   4.682 -1.0505 -2.5975 -1.1550
 1851SOL    HW217016   0.762   2.216   4.762 -0.5325 -1.2456 -0.4991
 1852SOL     OW17017   0.619   0.722   2.898  0.7894  0.3665  0.5545
 1852SOL    HW117018   0.627   0.766   2.983 -2.5615  1.3537  0.3582
 1852SOL    HW217019   0.689   0.657   2.907 -1.5809 -2.2755 -0.2232
 1853SOL     OW17020   2.334   1.204   1.334 -0.0709  0.1433  0.4378
 1853SOL    HW117021   2.369   1.133   1.281 -1.2093  1.9481 -2.7484
 1853SOL    HW217022   2.384   1.274   1.291  0.1285 -0.2829 -0.0242
 1854SOL     OW17023   1.365   0.787   3.016 -0.1098  0.6172  0.2996
 1854SOL    HW117024   1.291   0.825   2.969  1.2194  0.1156 -2.2406
 1854SOL    HW217025   1.337   0.698   3.039 -0.1874  0.9233  1.3536
 1855SOL     OW17026   1.369   4.043   7.212  0.0125 -0.2559 -0.3741
 1855SOL    HW117027   1.457   4.015   7.187  0.3366  1.5630 -1.3087
 1855SOL    HW217028   1.363   4.107   7.140 -0.3096  0.3807  0.2140
 1856SOL     OW17029   1.215   4.201  15.519  0.0178  0.7711  0.0228
 1856SOL    HW117030   1.256   4.146  15.453 -1.0931 -0.6235  0.4768
 1856SOL    HW217031   1.165   4.141  15.575  0.2185 -0.4172 -1.0858
 1857SOL     OW17032   0.122   4.298   0.523 -0.0751 -0.0467  0.3003
 1857SOL    HW117033   0.207   4.334   0.549 -0.0266  0.2557 -0.2816
 1857SOL    HW217034   0.079   4.301   0.609  1.0372  0.2602  0.8454
 1858SOL     OW17035   4.181   1.091  10.550 -0.4198 -0.4982  0.0647
 1858SOL    HW117036   4.192   1.075  10.456 -2.5445  1.0468 -0.4508
 1858SOL    HW217037   4.132   1.173  10.553  1.6896  0.7662 -0.1838
 1859SOL     OW17038   4.047   0.181  14.808 -0.6743  0.3582 -0.1751
 1859SOL    HW117039   4.043   0.256  14.867  0.4675 -1.8089  2.6898
 1859SOL    HW217040   4.008   0.220  14.730 -0.1477  2.1451  0.4685
 1860SOL     OW17041   2.045   3.490   2.251  0.0412  0.1304  0.2092
 1860SOL    HW117042   1.982   3.429   2.214 -0.6019  1.8229 -1.5042
 1860SOL    HW217043   2.015   3.477   2.341 -1.0367  0.2369 -0.1278
 1861SOL     OW17044   0.596   2.520   7.871  0.1563 -0.0261 -0.0110
 1861SOL    HW117045   0.584   2.615   7.878  0.5894  0.1362 -1.6599
 1861SOL    HW217046   0.642   2.513   7.788 -0.4923 -0.2961 -0.3464
 1862SOL     OW17047   1.331   2.493   4.748  0.0649 -0.3564 -0.0624
 1862SOL    HW117048   1.279   2.561   4.791 -0.4230 -1.7601  1.5651
 1862SOL    HW217049   1.350   2.537   4.665 -1.5733 -0.7886 -0.6724
 1863SOL     OW17050   3.297   0.177  15.999  0.4449  0.6754  0.0595
 1863SOL    HW117051   3.237   0.102  15.999  1.3055 -0.0084  1.3410
 1863SOL    HW217052   3.276   0.220  16.082 -0.9015 -1.4680  0.8534
 1864SOL     OW17053   2.963   1.942   1.193  0.5272  0.0057  0.2196
 1864SOL    HW117054   3.026   2.002   1.154  1.2138  0.4501  2.0370
 1864SOL    HW217055   2.878   1.980   1.171  0.3907  0.0034  0.7400
 1865SOL     OW17056   2.165   3.777   7.259  0.4083  0.2354  0.0244
 1865SOL    HW117057   2.198   3.857   7.300 -2.2568  0.7796  1.0744
 1865SOL    HW217058   2.203   3.717   7.323 -1.6985 -0.0580  0.9867
 1866SOL     OW17059   4.585   2.600   7.419  0.2540 -0.0043  0.4508
 1866SOL    HW117060   4.656   2.653   7.453  1.9373 -0.8538 -1.7347
 1866SOL    HW217061   4.642   2.527   7.397  0.5550  0.6933 -1.0563
 1867SOL     OW17062   1.284   0.000   7.585  0.1846  0.3577 -0.3850
 1867SOL    HW117063   1.256   0.035   7.500  0.8092 -0.7115 -1.0268
 1867SOL    HW217064   1.371   0.038   7.595 -0.2251  0.8834  1.1557
 1868SOL     OW17065   0.890   3.109   7.486  0.0465 -0.3729 -0.3872
 1868SOL    HW117066   0.808   3.061   7.501  0.6283 -1.6566 -1.2586
 1868SOL    HW217067   0.868   3.190   7.531  0.1292  0.2688 -1.4921
 1869SOL     OW17068   0.711   2.284  11.110  0.3288 -0.2730  0.2551
 1869SOL    HW117069   0.676   2.288  11.199 -1.7833 -0.6618 -0.5517
 1869SOL    HW217070   0.805   2.268  11.120  0.1993 -0.2477  1.5769
 1870SOL     OW17071   3.305   1.813   7.954 -0.5813 -0.2493  0.5389
 1870SOL    HW117072   3.385   1.760   7.953 -1.0971 -0.9878 -1.2707
 1870SOL    HW217073   3.305   1.862   8.037 -0.5989 -1.7828  1.4414
 1871SOL     OW17074   1.355   1.311   7.942  0.2225 -0.4897  0.3059
 1871SOL    HW117075   1.278   1.254   7.946 -0.9623  1.3290  3.7437
 1871SOL    HW217076   1.424   1.258   7.903 -1.1094 -1.0930 -1.2527
 1872SOL     OW17077   3.197   0.894   3.284 -0.3283 -0.2542  0.2556
 1872SOL    HW117078   3.173   0.973   3.332 -0.6085  0.0299 -0.3548
 1872SOL    HW217079   3.116   0.845   3.297  1.1774 -2.5510  1.1739
 1873SOL     OW17080   3.899   0.507   4.327 -0.1994 -0.4044 -0.6145
 1873SOL    HW117081   3.959   0.569   4.369 -3.0791  1.6900  0.4435
 1873SOL    HW217082   3.926   0.423   4.365 -0.5125 -0.5169 -0.6405
 1874SOL     OW17083   0.899   2.588   2.079 -0.1798  0.1488  0.0689
 1874SOL    HW117084   0.857   2.584   1.994  1.5677  2.5582 -0.8914
 1874SOL    HW217085   0.964   2.518   2.068 -0.5411  0.0702 -1.5732
 1875SOL     OW17086   2.071   3.239   1.561  0.3225 -0.2273 -0.2058
 1875SOL    HW117087   2.162   3.220   1.538  0.9062  0.1042  1.8857
 1875SOL    HW217088   2.089   3.320   1.608  0.3301 -0.6673  0.5421
 1876SOL     OW17089   0.440   1.611  13.733  0.5898 -0.5310 -0.5690
 1876SOL    HW117090   0.463   1.522  13.757 -3.9365 -1.7751 -0.8543
 1876SOL    HW217091   0.402   1.628  13.819 -0.1616 -0.5178 -0.8998
 1877SOL     OW17092   3.841   2.696  13.626 -0.2653 -0.0275  0.2172
 1877SOL    HW117093   3.902   2.753  13.580 -0.4261 -0.0224  0.0100
 1877SOL    HW217094   3.786   2.766  13.663 -0.7334  0.1674 -0.8584
 1878SOL     OW17095   0.610   0.470   3.529 -0.5651  0.8974  0.2999
 1878SOL    HW117096   0.558   0.525   3.587 -0.0826 -1.3294  2.8409
 1878SOL    HW217097   0.701   0.484   3.554  0.0380  0.7329 -1.7796
 1879SOL     OW17098   0.523   3.286   6.475 -0.0822 -0.3318  0.3877
 1879SOL    HW117099   0.559   3.197   6.484  0.4794 -0.0462  0.9904
 1879SOL    HW217100   0.529   3.317   6.566  1.1187 -0.8578  0.4927
 1880SOL     OW17101   4.509   0.996   4.489 -0.6534  0.1020 -0.2798
 1880SOL    HW117102   4.502   1.012   4.395  2.7377  2.6576 -0.0779
 1880SOL    HW217103   4.600   1.025   4.492 -1.0703  1.5637 -1.6507
 1881SOL     OW17104   4.071   1.938   4.337  0.0058  0.0740 -0.5331
 1881SOL    HW117105   4.058   1.964   4.246  0.9090 -1.5825 -1.1458
 1881SOL    HW217106   4.150   1.989   4.356 -0.5327  0.2313  1.3061
 1882SOL     OW17107   2.280   3.865   6.546  0.5373  0.4498  0.0953
 1882SOL    HW117108   2.264   3.797   6.481 -0.4447 -0.4426  1.2799
 1882SOL    HW217109   2.296   3.945   6.496 -0.2784  0.8661  0.4959
 1883SOL     OW17110   1.721   1.876   4.615  0.1297 -0.2192  0.2185
 1883SOL    HW117111   1.719   1.971   4.603 -1.2618 -0.2319  0.4516
 1883SOL    HW217112   1.800   1.861   4.563  0.1865  1.1022 -0.0847
 1884SOL     OW17113   0.544   1.976   1.355 -0.6019  0.0623  0.0366
 1884SOL    HW117114   0.468   1.918   1.358 -0.5683 -0.0148 -0.6823
 1884SOL    HW217115   0.615   1.914   1.338 -1.0828 -0.4979  0.0857
 1885SOL     OW17116   0.257   1.121   1.125 -0.0319 -0.2422  0.0068
 1885SOL    HW117117   0.319   1.117   1.198  0.7926 -0.9804 -0.7323
 1885SOL    HW217118   0.178   1.154   1.168  0.0069  0.2714 -0.3086
 1886SOL     OW17119   2.410   1.084   6.454  0.0055 -0.4464  0.5719
 1886SOL    HW117120   2.408   1.033   6.374 -0.7314  0.5955 -0.0725
 1886SOL    HW217121   2.476   1.048   6.514  0.3642 -1.4880 -0.4520
 1887SOL     OW17122   1.106   0.636   2.188  0.4053  0.6102  0.1589
 1887SOL    HW117123   1.191   0.668   2.157 -0.1427  2.5138  0.6334
 1887SOL    HW217124   1.038   0.686   2.143  0.8310  0.5028 -0.5937
 1888SOL     OW17125   2.270   1.682   8.344  0.0205 -0.0828 -0.4703
 1888SOL    HW117126   2.197   1.713   8.398  1.0000  2.0088 -0.3498
 1888SOL    HW217127   2.280   1.597   8.386  1.9384  0.0158 -0.7413
 1889SOL     OW17128   1.244   0.852   5.665 -0.0859 -0.5010 -0.0492
 1889SOL    HW117129   1.227   0.781   5.603 -0.2944 -0.3977 -0.1119
 1889SOL    HW217130   1.337   0.837   5.678  0.1403 -0.9031 -2.1051
 1890SOL     OW17131   4.441   1.140   2.610 -0.5984 -0.0513 -0.4093
 1890SOL    HW117132   4.494   1.102   2.541  1.5407 -0.2689  1.3758
 1890SOL    HW217133   4.491   1.107   2.685 -0.2803 -0.9031 -1.0033
 1891SOL     OW17134   2.912   0.820   1.440 -0.4029  0.1362  0.1857
 1891SOL    HW117135   2.841   0.851   1.384 -2.9222 -4.1803  0.9926
 1891SOL    HW217136   2.899   0.726   1.431 -0.5867  0.1966 -0.1829
 1892SOL     OW17137   1.759   1.243  14.168  0.4773 -0.4973  0.1316
 1892SOL    HW117138   1.808   1.312  14.124 -2.0110  1.6711  0.7498
 1892SOL    HW217139   1.805   1.163  14.143 -0.9904 -0.8999 -1.3466
 1893SOL     OW17140   3.794   1.092   0.728  0.0911 -0.7641 -0.1774
 1893SOL    HW117141   3.822   1.182   0.711  0.5718 -1.4209 -2.7589
 1893SOL    HW217142   3.699   1.104   0.739 -0.0864 -2.5832  0.2862
 1894SOL     OW17143   3.982   1.649   6.709 -0.6236  0.5917  0.2157
 1894SOL    HW117144   4.008   1.735   6.743 -1.2466  1.2906 -1.0622
 1894SOL    HW217145   3.949   1.602   6.785 -2.7860  1.1742 -0.3638
 1895SOL     OW17146   4.467   2.575  14.596  0.2930  0.0292 -0.7751
 1895SOL    HW117147   4.533   2.632  14.635  1.0491 -0.3578 -1.4917
 1895SOL    HW217148   4.386   2.622  14.618 -0.0266 -0.8429 -0.0830
 1896SOL     OW17149   1.607   0.802   8.670 -0.1879 -0.1617  0.3868
 1896SOL    HW117150   1.545   0.843   8.610 -2.0124 -3.7054 -0.1645
 1896SOL    HW217151   1.568   0.834   8.752  1.3073  1.6352  0.3884
 1897SOL     OW17152   2.921   2.367   8.940 -0.5368  0.4254 -0.5767
 1897SOL    HW117153   2.907   2.274   8.957 -1.5757  0.4473 -1.3468
 1897SOL    HW217154   2.981   2.364   8.866  0.2474 -0.4043  0.0869
 1898SOL     OW17155   0.386   2.813  13.232  0.4207 -0.4393 -0.6546
 1898SOL    HW117156   0.312   2.838  13.177 -2.1078 -0.9851  2.5352
 1898SOL    HW217157   0.389   2.719  13.217 -1.0538 -0.6692  0.4913
 1899SOL     OW17158   0.896   2.301  10.070  0.3056 -0.0738  0.1786
 1899SOL    HW117159   0.806   2.277  10.047  0.1477  1.7235 -1.0734
 1899SOL    HW217160   0.933   2.290   9.983 -2.1037 -0.5346 -0.7817
 1900SOL     OW17161   1.898   3.974   9.805  0.0176 -0.1483  0.1897
 1900SOL    HW117162   1.950   3.899   9.833  1.2558 -0.8608 -4.0818
 1900SOL    HW217163   1.858   3.947   9.722  1.2385  1.7375 -1.0217
 1901SOL     OW17164   3.067   3.869   6.718  0.3382  0.0178 -0.7024
 1901SOL    HW117165   3.001   3.938   6.723  0.5910  0.1431  0.9713
 1901SOL    HW217166   3.082   3.860   6.812 -3.3430 -0.6777 -0.2125
 1902SOL     OW17167   3.812   3.848   2.849 -0.4573 -0.4824 -0.3009
 1902SOL    HW117168   3.814   3.891   2.934 -0.7196 -0.1048 -0.4847
 1902SOL    HW217169   3.719   3.866   2.834 -0.4918  0.9461  1.6430
 1903SOL     OW17170   2.798   3.171  14.190 -0.4464  0.2723 -0.2362
 1903SOL    HW117171   2.739   3.226  14.242  0.5334 -0.6301  1.8638
 1903SOL    HW217172   2.849   3.234  14.139 -0.1677 -0.0559 -0.3623
 1904SOL     OW17173   0.236   0.994   8.983  0.1601 -0.1839 -0.5482
 1904SOL    HW117174   0.172   1.052   9.025  0.3760 -1.0677  1.0017
 1904SOL    HW217175   0.271   0.944   9.057 -1.7167  1.8253  1.6976
 1905SOL     OW17176   1.388   0.036   2.358  0.3838  0.7466  0.1308
 1905SOL    HW117177   1.294   0.031   2.341  0.2196  1.7630  0.7573
 1905SOL    HW217178   1.409   0.129   2.361  0.9258  0.5777  1.6424
 1906SOL     OW17179   0.723   3.377   3.747  0.2392  0.5138 -0.1172
 1906SOL    HW117180   0.721   3.454   3.803 -2.7009 -0.8892  1.6740
 1906SOL    HW217181   0.635   3.389   3.712  0.6571  2.4355 -0.4891
 1907SOL     OW17182   3.820   0.894  15.854 -0.4359 -0.3965  0.1962
 1907SOL    HW117183   3.889   0.911  15.918 -1.5159  0.7453  1.0319
 1907SOL    HW217184   3.837   0.937  15.769  0.2330  0.7845  0.9259
 1908SOL     OW17185   3.403   2.831   6.894 -0.5795 -0.2254 -0.2048
 1908SOL    HW117186   3.454   2.757   6.926  0.7893  0.9026  0.2481
 1908SOL    HW217187   3.415   2.889   6.969 -1.7792 -0.2689  0.0173
 1909SOL     OW17188   3.266   1.316  11.246  0.6339 -0.3014  0.5161
 1909SOL    HW117189   3.358   1.290  11.241  0.7400  0.5069 -1.8041
 1909SOL    HW217190   3.241   1.251  11.313  1.7268 -1.4752 -0.2079
 1910SOL     OW17191   1.126   2.600  17.511 -0.2351  1.0010 -0.2562
 1910SOL    HW117192   1.174   2.518  17.499 -1.0658  0.1946  1.9521
 1910SOL    HW217193   1.078   2.578  17.592 -1.1539 -0.8868 -1.3100
 1911SOL     OW17194   0.547   0.353   2.698  0.0648 -0.2034  0.2571
 1911SOL    HW117195   0.602   0.276   2.681  0.9168  0.1515  1.4145
 1911SOL    HW217196   0.509   0.336   2.784 -0.0440  1.4398  0.5220
 1912SOL     OW17197   4.179   0.228   3.104 -0.4276  0.1205  0.1767
 1912SOL    HW117198   4.159   0.294   3.038  1.6962 -1.3256 -1.9221
 1912SOL    HW217199   4.104   0.171   3.087  0.1490 -0.7197  0.4692
 1913SOL     OW17200   1.505   0.269  12.044  0.0602 -0.3444 -0.4530
 1913SOL    HW117201   1.459   0.186  12.027  1.2854 -1.1234  0.0332
 1913SOL    HW217202   1.595   0.246  12.019 -0.9472 -2.7338 -1.8895
 1914SOL     OW17203   3.059   4.134   2.512 -0.3676 -0.3346 -0.1798
 1914SOL    HW117204   3.069   4.229   2.509  0.1097 -0.4195 -1.3110
 1914SOL    HW217205   3.061   4.113   2.418 -0.1534 -0.5818 -0.1204
 1915SOL     OW17206   0.026   1.110   4.440  1.0333 -0.3740  0.4723
 1915SOL    HW117207   0.078   1.105   4.360  1.8019  3.0574  0.7515
 1915SOL    HW217208   0.087   1.059   4.493  1.6010 -1.7908 -1.5308
 1916SOL     OW17209   3.365   3.877   3.797 -0.2931  0.3775  0.5025
 1916SOL    HW117210   3.351   3.900   3.705  0.3652 -1.3964 -0.0286
 1916SOL    HW217211   3.273   3.888   3.824 -0.0742 -3.3709  2.6145
 1917SOL     OW17212   2.300   4.384  15.272  0.2050 -0.1460  0.0272
 1917SOL    HW117213   2.320   4.396  15.179  1.1805  0.8377  0.3702
 1917SOL    HW217214   2.266   4.471  15.294 -1.1881 -0.2388 -1.7042
 1918SOL     OW17215   1.731   2.267   3.636  0.3685  0.3002  0.8325
 1918SOL    HW117216   1.733   2.192   3.576 -0.1240  0.4481  0.6259
 1918SOL    HW217217   1.801   2.319   3.597  1.5041 -1.0951  1.0467
 1919SOL     OW17218   4.574   0.626  11.762  0.9129 -0.0345  0.1054
 1919SOL    HW117219   4.655   0.673  11.781  0.3494 -0.3808  3.5063
 1919SOL    HW217220   4.597   0.548  11.713  0.1263  0.7288 -1.4675
 1920SOL     OW17221   0.514   0.620   6.818 -0.1754  0.4152  0.0490
 1920SOL    HW117222   0.514   0.620   6.914  0.6553 -2.2776  0.0498
 1920SOL    HW217223   0.462   0.698   6.798  0.5913  0.5599 -1.3489
 1921SOL     OW17224   4.323   0.103   2.813  0.4505 -0.3942 -0.0547
 1921SOL    HW117225   4.374   0.110   2.732  0.5749 -0.4813  0.0154
 1921SOL    HW217226   4.244   0.139   2.774  0.8626  0.9859  0.4111
 1922SOL     OW17227   1.458   4.103   2.306 -0.1273  0.3414 -0.0038
 1922SOL    HW117228   1.386   4.164   2.291 -1.2292 -1.2361 -1.0593
 1922SOL    HW217229   1.418   4.017   2.314 -1.3536  0.9340  0.1536
 1923SOL     OW17230   2.355   3.745  13.999 -0.1180  0.0864 -0.2679
 1923SOL    HW117231   2.404   3.693  14.063 -2.1713  1.7286  2.5944
 1923SOL    HW217232   2.298   3.801  14.051 -1.3846 -1.5940  0.1820
 1924SOL     OW17233   3.553   1.718   7.699 -0.2526 -0.1423 -0.1719
 1924SOL    HW117234   3.587   1.645   7.647  0.8917 -0.0423  0.4219
 1924SOL    HW217235   3.639   1.731   7.739  0.5569  1.6296 -2.4324
 1925SOL     OW17236   1.131   4.600   4.105  0.2638 -0.1768 -0.0384
 1925SOL    HW117237   1.066   4.603   4.175  1.1856  0.0587  0.7927
 1925SOL    HW217238   1.090   4.671   4.055  0.1434 -0.2006  0.0269
 1926SOL     OW17239   4.304   1.471   2.033 -0.1486  0.0123 -0.0843
 1926SOL    HW117240   4.248   1.440   2.105  0.0753 -0.4775 -0.1252
 1926SOL    HW217241   4.382   1.480   2.087  0.1267 -0.6711 -0.3753
 1927SOL     OW17242   3.111   0.989   8.694 -0.3901 -0.2496 -0.4414
 1927SOL    HW117243   3.034   0.967   8.642 -2.1036  1.0851  1.5227
 1927SOL    HW217244   3.124   0.912   8.750 -0.2420  0.3702  0.3844
 1928SOL     OW17245   1.742   0.486  15.210  0.3406 -0.0257  0.3301
 1928SOL    HW117246   1.704   0.565  15.171  1.1363 -0.2731 -0.9202
 1928SOL    HW217247   1.662   0.434  15.215  0.4831 -0.2704  0.0076
 1929SOL     OW17248   3.302   0.522   1.914  0.1571 -0.2272 -0.2574
 1929SOL    HW117249   3.213   0.494   1.934 -0.8086  2.3009 -1.0423
 1929SOL    HW217250   3.294   0.615   1.890  1.3166 -0.5359 -1.8327
 1930SOL     OW17251   3.965   4.515   3.397 -0.2503 -0.2065  0.3848
 1930SOL    HW117252   4.043   4.460   3.395  0.8227  1.3474 -0.7139
 1930SOL    HW217253   3.907   4.440   3.413 -1.6485  1.0613  1.2878
 1931SOL     OW17254   2.405   4.459   9.153 -0.1614  0.0017 -0.4432
 1931SOL    HW117255   2.369   4.481   9.239 -0.6606 -0.5969 -0.4947
 1931SOL    HW217256   2.433   4.368   9.164 -0.8589 -0.0231  1.2430
 1932SOL     OW17257   0.940   3.579  11.116  0.2572 -0.1642  0.3107
 1932SOL    HW117258   1.011   3.612  11.061 -1.1533 -0.1830 -1.4970
 1932SOL    HW217259   0.873   3.647  11.105  0.6032  0.0162 -0.7018
 1933SOL     OW17260   2.837   2.027   7.484  0.5532  0.0154  0.2782
 1933SOL    HW117261   2.822   2.118   7.457 -1.1213 -0.3508 -0.0507
 1933SOL    HW217262   2.930   2.024   7.465  0.3155  0.7382 -0.9856
 1934SOL     OW17263   4.187   3.146   6.701  0.1385 -0.0314 -0.2453
 1934SOL    HW117264   4.126   3.085   6.743  0.7164 -1.6730 -1.8143
 1934SOL    HW217265   4.261   3.125   6.757 -0.3520 -1.0870  0.0105
 1935SOL     OW17266   0.528   4.472   5.437 -0.2304  0.3802  0.2694
 1935SOL    HW117267   0.506   4.409   5.506  0.4550  0.4217  0.5296
 1935SOL    HW217268   0.613   4.506   5.465 -0.2424 -0.2619  1.0863
 1936SOL     OW17269   2.791   2.624   0.505 -0.0481  0.2362 -0.1722
 1936SOL    HW117270   2.784   2.535   0.472 -2.4653 -0.4730  2.2564
 1936SOL    HW217271   2.869   2.654   0.459  0.2828  0.9351  0.8297
 1937SOL     OW17272   2.995   1.427  11.274  0.1988  0.5622  0.2083
 1937SOL    HW117273   2.899   1.430  11.276  0.1258 -0.2282 -1.6759
 1937SOL    HW217274   3.002   1.336  11.303  0.1782 -0.3484 -2.6709
 1938SOL     OW17275   0.217   0.287   8.308  0.1625 -0.0366  0.1270
 1938SOL    HW117276   0.222   0.323   8.396 -2.1014  2.6560 -0.8181
 1938SOL    HW217277   0.187   0.371   8.271 -0.1294 -0.5758 -0.8607
 1939SOL     OW17278   2.598   0.876   1.771  0.1235  0.5222  0.2004
 1939SOL    HW117279   2.624   0.789   1.803  1.9802  0.9971  0.0013
 1939SOL    HW217280   2.511   0.851   1.739  0.4144 -2.6912  1.9007
 1940SOL     OW17281   4.253   2.596   6.867 -1.0508  0.0552 -0.2075
 1940SOL    HW117282   4.323   2.661   6.864 -0.8961 -0.3467 -5.1653
 1940SOL    HW217283   4.265   2.560   6.954 -0.7616 -1.0769 -0.7193
 1941SOL     OW17284   2.234   4.530   3.389 -0.0542 -0.1642  0.4617
 1941SOL    HW117285   2.155   4.581   3.377 -0.8750 -1.0819  1.9309
 1941SOL    HW217286   2.240   4.536   3.485 -0.4280  0.1529  0.4639
 1942SOL     OW17287   1.811   4.474   8.776 -0.5425 -0.1671 -0.4926
 1942SOL    HW117288   1.857   4.533   8.716 -0.6219  0.0320 -0.3544
 1942SOL    HW217289   1.897   4.445   8.809 -1.2884 -2.4209 -0.5308
 1943SOL     OW17290   3.086   3.071   1.551 -0.2714 -0.1203  0.3146
 1943SOL    HW117291   3.055   3.139   1.612  0.2446  0.2529  0.1573
 1943SOL    HW217292   3.176   3.059   1.581 -0.1670 -0.7479 -0.2492
 1944SOL     OW17293   2.541   4.304   5.084  0.1609  0.1952  0.3278
 1944SOL    HW117294   2.632   4.302   5.113  1.6404  2.6869 -4.2089
 1944SOL    HW217295   2.492   4.340   5.158 -0.0259 -0.7730  0.6850
 1945SOL     OW17296   1.079   1.992   7.641  0.0162 -0.8504  0.1087
 1945SOL    HW117297   1.043   1.975   7.553 -2.0525 -0.5144  0.9080
 1945SOL    HW217298   1.152   1.931   7.632  0.7529  0.1574 -0.7817
 1946SOL     OW17299   4.634   3.683  12.390 -0.2145 -0.2605 -0.1872
 1946SOL    HW117300   4.652   3.614  12.454 -0.5849  0.8952  1.1677
 1946SOL    HW217301   4.620   3.751  12.455  1.0454 -0.8591  0.6981
 1947SOL     OW17302   3.701   1.790   1.327 -0.9164  0.4832 -0.6007
 1947SOL    HW117303   3.641   1.788   1.252  0.4866  0.2920 -1.7278
 1947SOL    HW217304   3.651   1.744   1.394  1.2646 -0.6190  0.2534
 1948SOL     OW17305   3.067   1.672   2.274 -0.0340 -0.1329 -0.4544
 1948SOL    HW117306   3.061   1.764   2.300 -3.6420 -0.3668 -0.4231
 1948SOL    HW217307   3.060   1.686   2.179  1.7154  1.1967 -0.3959
 1949SOL     OW17308   3.143   4.533  16.642 -0.5360 -0.3963 -0.0941
 1949SOL    HW117309   3.203   4.607  16.638  1.4014 -2.1262 -2.3866
 1949SOL    HW217310   3.114   4.526  16.733 -0.6744  2.5685  0.0724
 1950SOL     OW17311   3.938   4.500   6.085  0.1768  0.3418 -0.5185
 1950SOL    HW117312   3.875   4.454   6.140 -1.6030  0.3945 -2.5459
 1950SOL    HW217313   3.947   4.586   6.126 -2.0127 -1.1201  3.0289
 1951SOL     OW17314   1.077   4.419   8.527 -0.3417  0.2101 -0.4750
 1951SOL    HW117315   1.031   4.488   8.574  1.6948  1.1095  0.2107
 1951SOL    HW217316   1.161   4.420   8.574 -1.1389  1.0565  0.9152
 1952SOL     OW17317   4.076   2.574   6.349 -0.9596  0.0841 -0.1780
 1952SOL    HW117318   4.020   2.618   6.284  0.8230  0.8659 -1.1825
 1952SOL    HW217319   4.067   2.635   6.422 -1.2568  0.6207 -0.6636
 1953SOL     OW17320   3.996   2.931   1.035  0.1336  0.2223 -0.4339
 1953SOL    HW117321   3.998   2.854   1.093  1.0849 -0.1184 -0.9130
 1953SOL    HW217322   4.064   2.989   1.069 -0.4405 -0.1049  1.2718
 1954SOL     OW17323   4.052   1.815   5.159  0.0476 -0.1197  0.1356
 1954SOL    HW117324   4.037   1.897   5.206 -2.3093  0.4728 -1.5914
 1954SOL    HW217325   4.129   1.783   5.205 -1.5735 -0.6427  2.4551
 1955SOL     OW17326   4.513   1.093   8.451 -0.6602 -0.4434 -0.4556
 1955SOL    HW117327   4.433   1.145   8.453  1.2353  2.3908  1.9715
 1955SOL    HW217328   4.495   1.029   8.382  0.0197 -1.5475  0.3996
 1956SOL     OW17329   3.135   0.338   8.851  0.2923  0.4251 -0.5800
 1956SOL    HW117330   3.122   0.302   8.764 -0.0871 -1.2802  0.1855
 1956SOL    HW217331   3.218   0.294   8.872  0.2187  1.1516  1.2198
 1957SOL     OW17332   0.152   1.104   8.156 -0.3166  0.3560  0.5520
 1957SOL    HW117333   0.146   1.118   8.250 -1.5115  0.4961  0.4514
 1957SOL    HW217334   0.063   1.071   8.146  0.6481 -1.3019 -2.6473
 1958SOL     OW17335   2.600   0.603  17.097  0.1747  0.2746  0.4324
 1958SOL    HW117336   2.562   0.515  17.099 -1.0594  0.8874  3.8757
 1958SOL    HW217337   2.521   0.639  17.136  0.4601  1.8480 -0.4478
 1959SOL     OW17338   0.383   3.799   8.041 -0.7338  0.5377 -0.2663
 1959SOL    HW117339   0.302   3.790   8.090 -0.6089 -0.4146 -0.2447
 1959SOL    HW217340   0.414   3.881   8.079  1.1397 -0.2946  0.0261
 1960SOL     OW17341   4.313   0.317   8.288  0.4765 -0.2561  0.0709
 1960SOL    HW117342   4.387   0.288   8.341  0.9349  0.5303 -0.1420
 1960SOL    HW217343   4.300   0.239   8.234  1.3039 -0.9208  0.8293
 1961SOL     OW17344   1.216   1.110   5.689 -0.4031  0.0927  0.2903
 1961SOL    HW117345   1.212   1.015   5.675 -1.6414  0.1574  0.2223
 1961SOL    HW217346   1.297   1.124   5.641  0.7768  1.6123  2.6878
 1962SOL     OW17347   3.944   2.949  13.020 -0.6995  0.0085  0.0170
 1962SOL    HW117348   3.969   2.856  13.021  1.6774  0.6815  2.5261
 1962SOL    HW217349   4.003   2.988  13.084 -0.6394 -1.0055  0.5771
 1963SOL     OW17350   0.731   0.590   8.055  0.4839 -0.3273 -0.1003
 1963SOL    HW117351   0.668   0.647   8.099 -0.4128 -0.7513 -0.8359
 1963SOL    HW217352   0.810   0.594   8.110 -0.9094  1.1235  1.7738
 1964SOL     OW17353   1.970   1.072   4.644  0.3563  0.1558 -0.4283
 1964SOL    HW117354   1.913   0.996   4.631 -0.5722  1.1449 -2.1708
 1964SOL    HW217355   2.056   1.038   4.672  0.4672  0.9427  0.1971
 1965SOL     OW17356   2.765   1.107  16.715 -0.3581  0.4037 -0.3605
 1965SOL    HW117357   2.708   1.031  16.704 -1.0949  0.8327  0.5326
 1965SOL    HW217358   2.817   1.094  16.635  0.6190  1.4487  0.1075
 1966SOL     OW17359   3.008   0.995   2.431 -0.1829 -0.0248 -0.0917
 1966SOL    HW117360   2.992   0.934   2.359  2.0895 -1.0119  0.2295
 1966SOL    HW217361   2.925   0.997   2.479  0.2978 -0.9276  0.7730
 1967SOL     OW17362   3.332   1.883  14.928 -0.2206  0.0346  0.0654
 1967SOL    HW117363   3.409   1.909  14.877 -0.6306 -0.4558 -0.8103
 1967SOL    HW217364   3.364   1.877  15.018 -1.1872  0.6002  0.4476
 1968SOL     OW17365   2.390   2.907   3.265 -0.4822 -0.0543 -0.0818
 1968SOL    HW117366   2.342   2.956   3.331 -1.9525 -1.5482 -0.0367
 1968SOL    HW217367   2.321   2.867   3.212 -0.9851  0.9896 -0.2036
 1969SOL     OW17368   3.599   0.463   4.628 -0.1924 -0.4582  0.2369
 1969SOL    HW117369   3.530   0.495   4.686  0.0455 -0.4140  0.4975
 1969SOL    HW217370   3.585   0.524   4.556  0.6832  1.1350  1.4119
 1970SOL     OW17371   3.044   3.796  17.123  0.7489 -0.7620 -0.0929
 1970SOL    HW117372   3.025   3.745  17.045 -0.0187 -1.1187  0.3264
 1970SOL    HW217373   3.090   3.738  17.183 -0.0295  1.0107  2.2353
 1971SOL     OW17374   1.567   3.798   2.022 -0.1075 -0.7640 -0.1297
 1971SOL    HW117375   1.611   3.728   2.072 -0.9380 -0.1872  1.3944
 1971SOL    HW217376   1.633   3.867   2.027 -0.0667 -0.8175  0.0594
 1972SOL     OW17377   4.302   0.467   4.913 -0.3978 -0.3379  0.4470
 1972SOL    HW117378   4.364   0.540   4.910  0.8684 -1.5027 -2.0354
 1972SOL    HW217379   4.271   0.473   4.822 -0.7871 -0.7875  0.5491
 1973SOL     OW17380   4.587   2.658   7.863 -0.1035 -0.3230  0.1499
 1973SOL    HW117381   4.577   2.568   7.832  0.0800  0.0677 -1.0580
 1973SOL    HW217382   4.649   2.644   7.935  0.4126 -0.0709 -0.2431
 1974SOL     OW17383   3.845   3.647   5.669  0.5665 -0.3485 -0.4594
 1974SOL    HW117384   3.784   3.720   5.664  2.1047  0.9749  0.1634
 1974SOL    HW217385   3.788   3.578   5.703  3.2010 -2.0597  0.5323
 1975SOL     OW17386   4.650   3.401   5.849  0.2591 -0.4875 -0.4936
 1975SOL    HW117387   4.554   3.396   5.853  0.2034  1.7085  0.9534
 1975SOL    HW217388   4.675   3.346   5.923 -3.1532 -2.2004 -0.6216
 1976SOL     OW17389   2.966   0.830  16.118 -0.2760 -0.0573  0.2786
 1976SOL    HW117390   2.953   0.736  16.130 -1.2362  0.1534  0.9461
 1976SOL    HW217391   3.001   0.824  16.030  1.6612  0.0472  1.0533
 1977SOL     OW17392   2.200   3.423  12.510  0.1073  0.0892 -0.2979
 1977SOL    HW117393   2.129   3.364  12.531 -0.2473  0.0016 -1.7148
 1977SOL    HW217394   2.246   3.373  12.442 -2.7910 -1.7081 -0.8887
 1978SOL     OW17395   0.693   1.928   6.795  0.4954 -0.3386  0.5285
 1978SOL    HW117396   0.747   1.888   6.863  1.2212 -0.1506  0.0573
 1978SOL    HW217397   0.733   2.011   6.771  1.4184 -0.7004  0.8252
 1979SOL     OW17398   1.018   3.139  14.155 -0.5188  0.0502 -0.1415
 1979SOL    HW117399   0.958   3.143  14.081  0.1539 -0.8806 -0.7302
 1979SOL    HW217400   0.984   3.195  14.225  0.1615  0.5561 -0.2123
 1980SOL     OW17401   1.499   1.531   3.128 -0.2249 -0.1045 -0.1363
 1980SOL    HW117402   1.411   1.502   3.108  0.6108 -1.9543 -1.1674
 1980SOL    HW217403   1.497   1.521   3.223 -1.5267  0.4693 -0.1097
 1981SOL     OW17404   3.183   1.004   5.556  0.1497  0.3070 -0.3921
 1981SOL    HW117405   3.139   1.059   5.620 -0.1609  0.6430 -0.8906
 1981SOL    HW217406   3.106   0.966   5.513  2.7524 -1.8106 -3.2477
 1982SOL     OW17407   4.484   2.865   7.326  0.4737  0.8936 -0.2698
 1982SOL    HW117408   4.397   2.859   7.365  0.3764 -1.1903 -0.8065
 1982SOL    HW217409   4.528   2.786   7.356  0.4906  0.2807 -1.8733
 1983SOL     OW17410   0.480   4.684   4.412 -0.2427  0.2518  0.3414
 1983SOL    HW117411   0.444   0.009   4.485 -2.0843 -2.2247  1.0708
 1983SOL    HW217412   0.414   4.619   4.392 -2.4420  2.4021  0.6490
 1984SOL     OW17413   2.646   3.471   8.261 -0.1192  0.3674 -0.3916
 1984SOL    HW117414   2.682   3.384   8.278 -0.2167  0.4486  0.2652
 1984SOL    HW217415   2.705   3.517   8.321 -0.0468 -0.6975  0.3506
 1985SOL     OW17416   3.511   4.540   2.433  0.5814  0.2041 -0.0868
 1985SOL    HW117417   3.432   4.531   2.380  0.4868  0.4074  0.0194
 1985SOL    HW217418   3.471   4.557   2.518 -1.3563  3.3432 -1.6033
 1986SOL     OW17419   0.386   4.209   1.267  0.2089  0.5501 -0.0464
 1986SOL    HW117420   0.307   4.256   1.294  1.3053  1.9035  0.7904
 1986SOL    HW217421   0.424   4.268   1.201 -0.9911  1.2640 -0.1043
 1987SOL     OW17422   1.419   4.299   5.105 -0.1961  0.4157 -0.0522
 1987SOL    HW117423   1.351   4.273   5.167  0.6665  1.6209  1.4081
 1987SOL    HW217424   1.395   4.389   5.083 -2.0846  0.3911  1.9263
 1988SOL     OW17425   1.416   2.093  13.709 -0.3324 -0.2967 -0.2452
 1988SOL    HW117426   1.489   2.085  13.647  1.2642 -0.2173  1.6548
 1988SOL    HW217427   1.424   2.002  13.738  0.6191 -0.7322 -1.8623
 1989SOL     OW17428   0.500   0.708  11.656 -0.4268 -0.0276 -0.4041
 1989SOL    HW117429   0.566   0.777  11.644  0.7693 -0.8950  1.1126
 1989SOL    HW217430   0.525   0.675  11.743 -1.9721 -0.3870 -0.0937
 1990SOL     OW17431   3.968   2.456   6.753  0.6015 -0.1568  0.6582
 1990SOL    HW117432   3.952   2.478   6.845 -0.1571 -1.0402  0.7312
 1990SOL    HW217433   4.059   2.486   6.750 -0.0330  1.6240 -1.5270
 1991SOL     OW17434   3.446   0.474   6.688 -0.1823  0.0472  0.9970
 1991SOL    HW117435   3.383   0.513   6.749  0.4410 -1.1652  2.3906
 1991SOL    HW217436   3.510   0.545   6.692 -1.7651  1.5674 -0.4311
 1992SOL     OW17437   3.358   3.712  14.795  0.1971  0.0847  0.6285
 1992SOL    HW117438   3.448   3.728  14.767  1.7167 -1.5782  4.5282
 1992SOL    HW217439   3.303   3.785  14.766  0.3584 -0.1200 -0.2095
 1993SOL     OW17440   2.017   0.482   6.898 -0.1156 -0.2583  0.5723
 1993SOL    HW117441   2.035   0.389   6.885  0.5032  0.1991 -1.8499
 1993SOL    HW217442   1.962   0.470   6.975  1.9939  1.1963  2.3044
 1994SOL     OW17443   1.182   1.719   3.749  0.5280 -0.3561 -0.2863
 1994SOL    HW117444   1.157   1.728   3.841  1.8553  2.6353 -0.2232
 1994SOL    HW217445   1.167   1.810   3.723 -0.3467 -0.7021 -0.9903
 1995SOL     OW17446   1.758   4.009  17.007 -0.2651 -0.0402 -0.3013
 1995SOL    HW117447   1.769   4.087  16.952  1.5835 -0.6297 -0.7682
 1995SOL    HW217448   1.667   3.983  16.995  0.8403 -3.1601 -1.9273
 1996SOL     OW17449   2.852   0.701   7.436 -0.4225  0.5301 -0.3255
 1996SOL    HW117450   2.811   0.781   7.403  0.3839  0.9356 -0.3345
 1996SOL    HW217451   2.789   0.638   7.400  0.0040 -1.0437  1.7236
 1997SOL     OW17452   2.442   2.219   8.215 -0.2041 -0.2243  0.5493
 1997SOL    HW117453   2.428   2.165   8.137  0.1177  0.3250  0.1118
 1997SOL    HW217454   2.410   2.300   8.177  0.0546  0.4858  1.8537
 1998SOL     OW17455   2.058   1.963   2.126 -0.6927  0.2512 -0.2641
 1998SOL    HW117456   2.015   2.018   2.060 -0.5494  1.8334  0.9309
 1998SOL    HW217457   2.112   2.025   2.176 -1.1215  0.2299  0.2291
 1999SOL     OW17458   3.870   2.451   7.717 -0.3019 -0.3441  0.3511
 1999SOL    HW117459   3.829   2.377   7.762  0.5610 -0.6954  0.5608
 1999SOL    HW217460   3.915   2.406   7.645 -0.0649 -0.6189  0.6697
 2000SOL     OW17461   2.444   0.622  14.531  0.3457 -0.2492 -0.1503
 2000SOL    HW117462   2.520   0.597  14.478  1.1699 -1.4232  1.6079
 2000SOL    HW217463   2.475   0.694  14.585  0.7497 -2.2984  2.3173
 2001SOL     OW17464   2.575   0.592  12.143 -0.3083  0.4331 -0.2968
 2001SOL    HW117465   2.617   0.510  12.167 -1.4301  0.1023  0.5419
 2001SOL    HW217466   2.487   0.566  12.119 -0.1664 -1.1142  0.8706
 2002SOL     OW17467   3.121   1.613   1.498  0.3549  0.0388 -0.1222
 2002SOL    HW117468   3.059   1.647   1.434 -0.4889 -3.0181 -0.9148
 2002SOL    HW217469   3.186   1.682   1.486 -0.2794  0.3483 -1.8024
 2003SOL     OW17470   3.960   0.521   6.328  0.1095 -0.0384  0.1009
 2003SOL    HW117471   3.985   0.431   6.346 -0.7361 -0.5486 -1.3437
 2003SOL    HW217472   4.048   0.559   6.325  0.3134 -0.3891  1.3532
 2004SOL     OW17473   0.402   3.321  10.036  0.1455 -0.5845 -0.3040
 2004SOL    HW117474   0.331   3.330   9.973 -0.1568  3.3638  0.6006
 2004SOL    HW217475   0.386   3.231  10.061  2.1239 -0.7594  0.3435
 2005SOL     OW17476   3.216   1.252   6.586  0.4015 -0.3093  0.2772
 2005SOL    HW117477   3.213   1.242   6.681 -0.8208  1.2651  0.3987
 2005SOL    HW217478   3.294   1.307   6.580 -1.4074  2.1972 -0.1352
 2006SOL     OW17479   3.904   1.707  13.107 -0.0911  0.0109  0.1717
 2006SOL    HW117480   3.972   1.688  13.044  1.2602  3.3014  0.6490
 2006SOL    HW217481   3.890   1.629  13.161 -2.7039  0.4804  0.2034
 2007SOL     OW17482   3.536   4.703  16.481  0.6331  0.2449  0.7784
 2007SOL    HW117483   3.585   4.662  16.410 -0.9918  0.4652 -0.4702
 2007SOL    HW217484   3.457   4.651  16.495  0.5478  0.0694 -0.3976
 2008SOL     OW17485   0.547   2.533  16.588 -0.4875 -0.3101  0.7625
 2008SOL    HW117486   0.561   2.532  16.682 -0.2250  0.4959  0.7281
 2008SOL    HW217487   0.457   2.567  16.590 -0.3963  0.1103 -1.8230
 2009SOL     OW17488   3.329   3.524   2.995 -0.6132  0.0027 -0.1961
 2009SOL    HW117489   3.257   3.542   2.934 -1.0066 -1.0182 -0.0425
 2009SOL    HW217490   3.319   3.430   3.011 -0.6448  0.2531  1.1874
 2010SOL     OW17491   3.191   4.393   6.309 -0.1775  0.0232 -0.9805
 2010SOL    HW117492   3.113   4.433   6.347 -0.5529  1.5443 -3.3793
 2010SOL    HW217493   3.155   4.306   6.290  0.2286 -0.1040 -1.1735
 2011SOL     OW17494   1.194   4.116   9.777 -0.1248 -0.1883 -0.3053
 2011SOL    HW117495   1.149   4.064   9.844  0.6711 -0.0038  0.3634
 2011SOL    HW217496   1.138   4.100   9.700 -1.7493 -0.4581  0.9350
 2012SOL     OW17497   3.822   0.928   6.466 -0.1080 -0.7858 -0.1412
 2012SOL    HW117498   3.897   0.929   6.406  0.3126  0.4636  0.4033
 2012SOL    HW217499   3.817   0.837   6.495  0.8519  0.1529  2.9716
 2013SOL     OW17500   1.839   3.219   2.763 -0.4117 -0.2326  0.2777
 2013SOL    HW117501   1.776   3.195   2.831  3.4157  0.5211  4.1457
 2013SOL    HW217502   1.799   3.213   2.677 -1.2675  0.0657  0.6547
 2014SOL     OW17503   1.384   0.062   6.777  0.5855 -0.7518  0.3732
 2014SOL    HW117504   1.374   0.110   6.859  0.0932  1.3072 -0.9113
 2014SOL    HW217505   1.475   0.036   6.788  0.6495 -0.4854  0.4657
 2015SOL     OW17506   2.250   2.469   3.024  0.3557  0.2757 -0.1364
 2015SOL    HW117507   2.315   2.417   2.976  2.1969 -1.3033  4.0934
 2015SOL    HW217508   2.193   2.398   3.052  0.9747  0.3442  1.3238
 2016SOL     OW17509   3.188   1.153   3.928  0.3397 -0.5271 -0.5039
 2016SOL    HW117510   3.132   1.197   3.992  0.9703  1.9471 -1.6673
 2016SOL    HW217511   3.269   1.204   3.928 -0.0134  0.0391 -1.1236
 2017SOL     OW17512   4.468   3.847   5.597 -0.3770  0.2108 -0.0988
 2017SOL    HW117513   4.416   3.823   5.674 -3.4582  3.5340 -1.1457
 2017SOL    HW217514   4.477   3.762   5.554 -1.1016 -0.9899  2.1033
 2018SOL     OW17515   4.311   3.858   0.171 -0.1966 -0.4339 -0.4078
 2018SOL    HW117516   4.349   3.785   0.123  2.7531  1.3747 -0.8084
 2018SOL    HW217517   4.372   3.927   0.145  0.7994 -2.1114 -2.5259
 2019SOL     OW17518   1.577   2.600   6.041 -0.1775  0.1978 -0.3092
 2019SOL    HW117519   1.528   2.645   6.110  1.8485 -2.1703  2.6847
 2019SOL    HW217520   1.656   2.610   6.095  0.4677  1.5615 -1.4882
 2020SOL     OW17521   4.065   2.692  13.913 -0.0874 -0.0701 -0.4450
 2020SOL    HW117522   3.999   2.760  13.923 -0.0786 -0.0038 -0.8210
 2020SOL    HW217523   4.131   2.748  13.872 -0.0923  0.7510  0.6613
 2021SOL     OW17524   1.498   0.019  15.972  0.2097 -0.0576 -0.3349
 2021SOL    HW117525   1.590   0.024  15.949  0.1252 -0.4194 -0.7569
 2021SOL    HW217526   1.500   4.664  16.026 -1.2909  1.3340  1.7724
 2022SOL     OW17527   3.643   1.930   9.733  0.1102 -0.0887  0.3030
 2022SOL    HW117528   3.668   2.018   9.706  1.0742 -0.9498 -1.6100
 2022SOL    HW217529   3.627   1.887   9.649 -0.7201  0.5363  0.1358
 2023SOL     OW17530   4.570   0.721   7.428  0.9689 -0.0187 -0.1370
 2023SOL    HW117531   4.616   0.665   7.365  1.6853  0.7903 -0.3378
 2023SOL    HW217532   4.535   0.785   7.366 -0.4467  0.6170  1.3297
 2024SOL     OW17533   0.631   4.135   3.581  0.5587  0.0641 -0.6482
 2024SOL    HW117534   0.677   4.107   3.660  1.3409  1.8293 -0.4711
 2024SOL    HW217535   0.555   4.178   3.620  0.9832  0.6997 -0.4999
 2025SOL     OW17536   4.506   2.878  12.758  0.0868 -0.3674  0.6050
 2025SOL    HW117537   4.570   2.808  12.774  0.1642  0.2332  2.9591
 2025SOL    HW217538   4.568   2.942  12.723 -0.0844 -0.9284 -0.7411
 2026SOL     OW17539   1.597   0.309  15.758 -0.0696  0.5704  0.7234
 2026SOL    HW117540   1.552   0.388  15.728 -0.0791 -0.9075 -3.1138
 2026SOL    HW217541   1.520   0.256  15.778  0.7442 -0.4818  1.1140
 2027SOL     OW17542   1.850   2.274  11.825  0.4216 -0.0622  0.1466
 2027SOL    HW117543   1.808   2.229  11.898 -0.7876 -0.6694 -0.9305
 2027SOL    HW217544   1.895   2.341  11.877  0.2911  0.7226 -0.7486
 2028SOL     OW17545   1.555   4.453  13.728 -0.1110 -0.8144 -0.0078
 2028SOL    HW117546   1.516   4.494  13.806  2.1497  1.0784  0.1262
 2028SOL    HW217547   1.647   4.461  13.751 -0.7250 -0.5248  2.3968
 2029SOL     OW17548   3.743   1.996  11.448 -0.0887 -0.2507  0.6128
 2029SOL    HW117549   3.738   2.091  11.437  0.9559 -0.1680  0.8106
 2029SOL    HW217550   3.802   1.991  11.524  0.5875  0.6781  0.1589
 2030SOL     OW17551   3.142   0.952  13.262  0.4091  0.2191  0.2059
 2030SOL    HW117552   3.077   0.975  13.196 -0.0372 -0.1199  0.5295
 2030SOL    HW217553   3.094   0.896  13.323  0.8705  0.1153  0.4714
 2031SOL     OW17554   4.500   4.657   4.863 -0.4073  0.3288 -0.0085
 2031SOL    HW117555   4.565   4.713   4.822  0.5408  0.4537  1.6683
 2031SOL    HW217556   4.547   4.603   4.927 -1.7562 -0.9220 -0.0656
 2032SOL     OW17557   1.602   1.606  15.687  0.0603 -0.2954  0.1384
 2032SOL    HW117558   1.622   1.689  15.730 -0.0494  0.7056 -1.7412
 2032SOL    HW217559   1.517   1.616  15.646  0.5611  0.5500 -0.6842
 2033SOL     OW17560   0.553   1.306   8.603  0.9260  0.1742 -0.4123
 2033SOL    HW117561   0.491   1.271   8.539  2.0558 -2.8545  0.1374
 2033SOL    HW217562   0.493   1.352   8.662  1.5480 -1.0074  1.1594
 2034SOL     OW17563   2.752   3.943  11.895 -0.4434  0.0275  0.0005
 2034SOL    HW117564   2.697   4.003  11.845  0.5609  2.1907  1.4710
 2034SOL    HW217565   2.679   3.885  11.920  1.3321 -2.7389 -1.3002
 2035SOL     OW17566   1.993   4.253   8.691  0.6526  0.2769 -0.1488
 2035SOL    HW117567   1.942   4.242   8.772 -0.0056 -2.5264 -0.9540
 2035SOL    HW217568   1.996   4.167   8.649 -0.7441 -0.2450  0.8164
 2036SOL     OW17569   2.143   1.994   7.210 -0.2165  0.6931 -0.6109
 2036SOL    HW117570   2.188   1.923   7.255  0.6959  0.6905 -1.5261
 2036SOL    HW217571   2.132   2.056   7.283 -0.1566  0.8520 -0.7363
 2037SOL     OW17572   3.576   3.277  11.104  0.0180  0.3480 -0.1473
 2037SOL    HW117573   3.591   3.204  11.044 -0.0609 -1.9523  2.6320
 2037SOL    HW217574   3.525   3.240  11.177  2.2756  0.3442  1.4441
 2038SOL     OW17575   2.154   3.477   1.668 -0.0254  0.5281  0.2670
 2038SOL    HW117576   2.191   3.565   1.672  0.4477  0.3323  0.2024
 2038SOL    HW217577   2.115   3.476   1.756 -0.7224  0.5530 -0.0453
 2039SOL     OW17578   3.528   3.046  13.273 -0.2568  0.0306  0.1293
 2039SOL    HW117579   3.506   3.023  13.364  2.6945  0.1313  0.8479
 2039SOL    HW217580   3.496   3.136  13.264 -0.4338 -0.0307  0.1345
 2040SOL     OW17581   4.079   3.517   2.224 -0.4345  0.1864  0.2137
 2040SOL    HW117582   4.101   3.480   2.309 -1.7760 -0.7110  0.1681
 2040SOL    HW217583   3.983   3.523   2.223 -0.6288 -3.1558  0.4299
 2041SOL     OW17584   1.096   3.977   3.162  0.1409  0.1525  0.1008
 2041SOL    HW117585   1.133   3.999   3.248  2.9573 -2.9002 -0.3140
 2041SOL    HW217586   1.134   4.045   3.107  0.0739  1.0362  1.1607
 2042SOL     OW17587   0.959   1.166   2.209  0.2568  0.8438  0.2967
 2042SOL    HW117588   1.054   1.162   2.221  0.5396  3.4912 -0.8955
 2042SOL    HW217589   0.926   1.160   2.299 -1.1074  1.1671 -0.1817
 2043SOL     OW17590   0.151   4.091   9.388 -0.4415 -0.0962 -0.0492
 2043SOL    HW117591   0.185   4.154   9.325  1.3112 -0.7584  0.2339
 2043SOL    HW217592   0.114   4.020   9.335  1.2416 -0.6730 -0.4516
 2044SOL     OW17593   0.682   4.399   2.078 -0.7785 -0.6760  0.4482
 2044SOL    HW117594   0.657   4.489   2.057  1.1517 -0.6606 -1.7939
 2044SOL    HW217595   0.762   4.407   2.130 -1.9386  0.2537  2.1031
 2045SOL     OW17596   3.541   4.624   7.899 -0.6604  0.8513 -0.3287
 2045SOL    HW117597   3.534   4.713   7.933 -1.9688  0.5401  0.2344
 2045SOL    HW217598   3.636   4.614   7.892 -0.5076  2.3398 -0.4203
 2046SOL     OW17599   2.821   1.024   5.825 -0.2596  0.0153 -0.0646
 2046SOL    HW117600   2.905   1.024   5.872 -0.4332 -0.5078  0.2524
 2046SOL    HW217601   2.819   1.116   5.798  0.5442  0.0505 -0.0095
 2047SOL     OW17602   1.651   1.065  16.544  0.0007  0.2257  0.4989
 2047SOL    HW117603   1.589   1.106  16.484 -1.7796 -3.0630  0.0948
 2047SOL    HW217604   1.736   1.094  16.512 -0.1703 -0.1029 -0.2661
 2048SOL     OW17605   3.149   2.627   3.347 -0.4741 -0.1978  0.4759
 2048SOL    HW117606   3.144   2.531   3.343 -1.5615 -0.1253  0.1732
 2048SOL    HW217607   3.181   2.643   3.436  1.5297  0.3439 -0.3279
 2049SOL     OW17608   4.221   4.020   2.514 -0.1812 -0.0603  0.4727
 2049SOL    HW117609   4.286   4.090   2.509 -0.1635 -0.0086  1.4905
 2049SOL    HW217610   4.231   3.970   2.433 -0.3035 -1.2647  1.1923
 2050SOL     OW17611   3.696   0.619   5.261  0.0965 -0.1322 -0.2960
 2050SOL    HW117612   3.764   0.681   5.234  0.2702 -0.8683 -1.5383
 2050SOL    HW217613   3.623   0.680   5.273  0.1415 -0.3102  0.9111
 2051SOL     OW17614   1.940   3.773  13.785 -0.4041 -0.0466  0.1499
 2051SOL    HW117615   1.889   3.838  13.737  0.3504  0.4496  0.0136
 2051SOL    HW217616   2.002   3.756  13.714  0.3911  0.1661  0.7899
 2052SOL     OW17617   1.794   0.487  14.413  0.3691 -0.3766 -0.6225
 2052SOL    HW117618   1.814   0.406  14.366  4.3631  0.9148 -1.1681
 2052SOL    HW217619   1.699   0.484  14.400  0.4328  0.9204 -1.3962
 2053SOL     OW17620   1.415   3.767   3.380 -0.4830  0.4121 -0.3048
 2053SOL    HW117621   1.351   3.698   3.367 -0.5862  0.3469  0.5830
 2053SOL    HW217622   1.476   3.765   3.305 -1.4486 -0.6691 -1.0541
 2054SOL     OW17623   2.913   0.058   6.482  0.7329  0.0492  0.0120
 2054SOL    HW117624   2.920   0.026   6.392  2.0815  0.9308 -0.1974
 2054SOL    HW217625   2.899   4.701   6.531  0.1794 -0.7568 -1.4656
 2055SOL     OW17626   3.696   2.890   0.968 -0.5394  0.0557 -0.5028
 2055SOL    HW117627   3.692   2.979   0.934  0.1308 -0.0158 -0.7855
 2055SOL    HW217628   3.612   2.862   0.934  1.3351 -3.1502 -2.5315
 2056SOL     OW17629   2.180   0.472   8.614  0.0556 -0.0275 -0.4584
 2056SOL    HW117630   2.089   0.469   8.642  0.4678  0.0226  0.8928
 2056SOL    HW217631   2.176   0.562   8.580  0.9362  0.3507  0.4377
 2057SOL     OW17632   0.205   1.441  14.253  0.1381  0.2467 -0.2536
 2057SOL    HW117633   0.228   1.457  14.344 -1.7242 -1.2818  0.4833
 2057SOL    HW217634   0.295   1.411  14.242  0.0819  1.3553 -3.9606
 2058SOL     OW17635   3.362   2.203   9.312  0.1923 -0.2767 -0.9563
 2058SOL    HW117636   3.288   2.253   9.278  0.5438  1.2188  0.4287
 2058SOL    HW217637   3.429   2.249   9.261  1.2476 -0.4226  0.2969
 2059SOL     OW17638   1.053   0.364  14.666 -0.0183  0.4109 -0.1278
 2059SOL    HW117639   1.062   0.459  14.676 -0.3312  0.3534  0.6901
 2059SOL    HW217640   1.050   0.359  14.571  1.9279  2.2737 -0.2977
 2060SOL     OW17641   3.896   3.565   1.338  0.7668 -0.4890 -0.0213
 2060SOL    HW117642   3.912   3.509   1.413  0.5111 -2.1958 -1.2356
 2060SOL    HW217643   3.966   3.531   1.282 -0.4816 -1.8836 -0.7681
 2061SOL     OW17644   0.905   4.392   1.852  0.1558  0.7254 -0.0485
 2061SOL    HW117645   0.888   4.323   1.787  0.9916 -0.1697  0.6818
 2061SOL    HW217646   0.847   4.462   1.823 -0.4671 -0.0240 -0.6279
 2062SOL     OW17647   2.517   0.705   2.143 -0.5615  0.7264  0.0343
 2062SOL    HW117648   2.541   0.697   2.051 -0.4075  0.4845  0.0937
 2062SOL    HW217649   2.477   0.791   2.143  0.9812  1.4425 -0.1935
 2063SOL     OW17650   2.075   4.228   6.243 -0.6219  0.4411 -0.6257
 2063SOL    HW117651   2.082   4.258   6.333  0.7515 -0.7614 -0.3350
 2063SOL    HW217652   2.049   4.138   6.262 -0.4721  0.5551  0.0986
 2064SOL     OW17653   3.888   0.674   8.250  0.3881  0.4039  0.0728
 2064SOL    HW117654   3.897   0.692   8.344  0.5168  0.9604 -0.0457
 2064SOL    HW217655   3.969   0.632   8.225 -0.1957 -2.7191  3.4643
 2065SOL     OW17656   3.501   1.166   8.809 -0.5065 -0.2872 -0.2010
 2065SOL    HW117657   3.454   1.117   8.741 -2.3347  1.3731 -0.1258
 2065SOL    HW217658   3.577   1.198   8.761 -0.7218 -1.5876 -1.4185
 2066SOL     OW17659   2.653   0.242  10.166  0.3120 -0.2798 -0.3135
 2066SOL    HW117660   2.598   0.206  10.235 -1.7169 -0.3383 -1.9424
 2066SOL    HW217661   2.657   0.335  10.189  1.5274 -0.4584  0.1625
 2067SOL     OW17662   4.608   2.397  16.355 -0.0187 -0.1070 -0.3518
 2067SOL    HW117663   4.688   2.425  16.311  1.4504 -0.0802  2.3163
 2067SOL    HW217664   4.556   2.477  16.357  2.7751  1.6817  1.8207
 2068SOL     OW17665   1.444   1.717   0.424  0.2431 -0.3118 -0.5637
 2068SOL    HW117666   1.469   1.786   0.486  0.8261 -1.4802  0.4977
 2068SOL    HW217667   1.458   1.657   0.497  0.6336  1.8022  1.1049
 2069SOL     OW17668   1.453   3.607   1.480  0.2748  0.0145 -0.1955
 2069SOL    HW117669   1.407   3.660   1.415 -1.3729 -2.3081 -0.8982
 2069SOL    HW217670   1.488   3.541   1.421  0.9176  2.3080 -2.4006
 2070SOL     OW17671   0.235   3.563   7.455 -0.0124 -0.0267 -0.3386
 2070SOL    HW117672   0.238   3.658   7.469 -3.3725  0.2160 -1.3909
 2070SOL    HW217673   0.175   3.575   7.381 -0.8058  0.2608  0.3575
 2071SOL     OW17674   1.851   3.963  13.145 -0.6289 -0.8379 -0.3692
 2071SOL    HW117675   1.775   3.905  13.141  0.1795 -1.7825 -1.9394
 2071SOL    HW217676   1.922   3.900  13.146  0.7610  0.7108 -1.1164
 2072SOL     OW17677   4.465   0.379  11.059  0.8804  0.3728 -0.2063
 2072SOL    HW117678   4.497   0.312  10.999 -0.5387 -1.1518  0.7470
 2072SOL    HW217679   4.545   0.378  11.112 -0.1893  1.6108  1.4152
 2073SOL     OW17680   1.600   3.487   1.672 -0.3506  0.4569  0.4428
 2073SOL    HW117681   1.554   3.532   1.743 -0.5630  1.5139 -0.3592
 2073SOL    HW217682   1.548   3.523   1.600  0.6896  1.0904  0.0106
 2074SOL     OW17683   2.861   2.581  16.356  0.2325 -0.2304  0.2029
 2074SOL    HW117684   2.841   2.489  16.371 -0.0928 -0.0898  0.6163
 2074SOL    HW217685   2.931   2.578  16.290 -0.7943  0.4922 -0.9106
 2075SOL     OW17686   1.736   2.120   9.585  0.4709  0.0167 -0.3356
 2075SOL    HW117687   1.831   2.114   9.588  0.3422 -0.7394  1.7833
 2075SOL    HW217688   1.712   2.055   9.519  0.5588  0.5534 -0.8963
 2076SOL     OW17689   3.013   0.914   3.962  0.3084  0.1970 -0.8917
 2076SOL    HW117690   2.967   0.892   3.881 -1.0190 -1.6386  0.3729
 2076SOL    HW217691   3.074   0.978   3.925 -1.3754  0.4455 -3.2102
 2077SOL     OW17692   1.598   0.272   2.096 -0.2447 -0.5447  0.7677
 2077SOL    HW117693   1.612   0.267   2.191  3.1462  1.3439  0.3827
 2077SOL    HW217694   1.661   0.204   2.074 -0.5702 -0.3604 -0.7391
 2078SOL     OW17695   2.868   3.305  13.535 -0.5772 -0.0499  0.2596
 2078SOL    HW117696   2.925   3.370  13.494 -2.0453  0.9737 -0.1659
 2078SOL    HW217697   2.931   3.235  13.521  1.2010  1.6513 -0.2453
 2079SOL     OW17698   1.705   0.935   1.753 -0.1567 -0.1058 -0.6612
 2079SOL    HW117699   1.764   0.923   1.827  0.5566  1.0571 -1.0384
 2079SOL    HW217700   1.653   0.856   1.765  1.4908 -0.9872  0.6371
 2080SOL     OW17701   0.719   2.712   7.188 -0.5384 -0.0631  0.5717
 2080SOL    HW117702   0.707   2.618   7.203  1.5508 -0.3955  0.2507
 2080SOL    HW217703   0.632   2.746   7.169 -1.0154 -0.8339  1.3848
 2081SOL     OW17704   3.308   0.764   4.197 -0.0472  0.5828  0.0028
 2081SOL    HW117705   3.316   0.700   4.268 -3.2971  1.1648  0.8747
 2081SOL    HW217706   3.397   0.800   4.186 -0.9129  2.4798 -0.8173
 2082SOL     OW17707   4.522   3.107   8.121 -0.2011  0.1174  0.0307
 2082SOL    HW117708   4.431   3.107   8.091 -0.3551  1.4353  0.5108
 2082SOL    HW217709   4.512   3.063   8.206  0.6409 -0.6633 -0.2790
 2083SOL     OW17710   3.937   1.654  10.123 -0.2433 -0.2267  0.6129
 2083SOL    HW117711   3.937   1.559  10.111  0.7972 -0.4845  2.6683
 2083SOL    HW217712   3.992   1.670  10.200 -0.2852  0.5438  0.4877
 2084SOL     OW17713   0.230   4.409   3.686  0.1012 -0.0188  0.9693
 2084SOL    HW117714   0.194   4.464   3.755 -0.1422  0.5054  0.4295
 2084SOL    HW217715   0.321   4.438   3.683  0.9368 -2.9557 -1.6226
 2085SOL     OW17716   3.769   3.507   7.369  0.4035  0.7620  0.4150
 2085SOL    HW117717   3.732   3.593   7.349 -0.6094  0.0414 -0.8349
 2085SOL    HW217718   3.824   3.494   7.292 -0.7098  3.2558 -0.7859
 2086SOL     OW17719   2.007   3.594  16.416  0.3387 -0.1296 -0.5921
 2086SOL    HW117720   2.020   3.510  16.460 -3.2862 -1.1489 -1.4875
 2086SOL    HW217721   1.914   3.590  16.392 -0.0121  1.0608  0.5790
 2087SOL     OW17722   0.846   3.884   3.122  0.1439 -0.0410  0.0735
 2087SOL    HW117723   0.933   3.920   3.142  0.7053 -0.5109 -1.4551
 2087SOL    HW217724   0.872   3.835   3.044 -0.1619 -0.4577  0.2367
 2088SOL     OW17725   3.556   4.388   5.060 -0.1429  0.5896 -0.0447
 2088SOL    HW117726   3.642   4.423   5.038  0.3479 -0.1706  0.6738
 2088SOL    HW217727   3.517   4.365   4.976 -0.0339 -0.3409  0.1674
 2089SOL     OW17728   2.013   2.366   8.104  0.0001 -0.2572  0.1089
 2089SOL    HW117729   2.071   2.381   8.179  0.3421 -1.6531  0.1188
 2089SOL    HW217730   2.076   2.332   8.041 -0.1624  0.8078 -0.6433
 2090SOL     OW17731   2.368   0.131   7.327 -0.0900  0.4252  0.0937
 2090SOL    HW117732   2.454   0.168   7.348 -0.2585  0.2055  1.1857
 2090SOL    HW217733   2.379   0.085   7.244 -1.9793 -2.7086  1.6074
 2091SOL     OW17734   0.677   4.157  12.434  0.2248  0.2072 -0.1392
 2091SOL    HW117735   0.592   4.201  12.424  1.1014  1.9772  0.2841
 2091SOL    HW217736   0.685   4.159  12.529  1.1469  1.6889 -0.2558
 2092SOL     OW17737   2.177   2.008  11.033 -0.4561 -0.1099 -0.5308
 2092SOL    HW117738   2.158   1.957  11.111 -3.4947 -0.3282 -1.4187
 2092SOL    HW217739   2.089   2.033  11.006 -0.8500  0.7508  1.5306
 2093SOL     OW17740   0.760   0.926   4.377 -0.5992  0.0741  0.1129
 2093SOL    HW117741   0.791   0.914   4.467  1.3412  0.0059 -0.5663
 2093SOL    HW217742   0.710   1.007   4.389  0.2699  0.9450 -2.2671
 2094SOL     OW17743   2.370   1.618   7.097 -0.1410 -0.5236  0.2219
 2094SOL    HW117744   2.409   1.566   7.026 -0.9701 -2.1173  0.9225
 2094SOL    HW217745   2.288   1.641   7.055  0.3720  0.8461 -0.0066
 2095SOL     OW17746   1.816   0.031   7.545 -0.3790  0.3061 -0.5907
 2095SOL    HW117747   1.837   0.092   7.474 -1.2763  1.7821  0.4095
 2095SOL    HW217748   1.878   0.050   7.616 -0.6835 -1.4393  0.1397
 2096SOL     OW17749   2.075   1.009  12.837 -0.1168 -0.4491  0.3828
 2096SOL    HW117750   2.100   0.935  12.892 -1.8429 -2.0883 -1.0382
 2096SOL    HW217751   2.138   0.980  12.771  0.6096  0.5828  0.6168
 2097SOL     OW17752   2.066   2.389  11.924  0.2374 -0.3126  0.3120
 2097SOL    HW117753   2.117   2.452  11.874 -1.0022  0.2504 -0.2558
 2097SOL    HW217754   2.051   2.445  12.001  2.9636  0.3526  0.3554
 2098SOL     OW17755   4.513   1.075   6.075 -0.0934 -0.2399 -0.0017
 2098SOL    HW117756   4.426   1.109   6.094 -0.5595 -0.7926 -1.1160
 2098SOL    HW217757   4.546   1.156   6.037  1.0246  0.0348  1.5558
 2099SOL     OW17758   0.194   3.666   6.344 -0.7305  0.0436  0.8468
 2099SOL    HW117759   0.232   3.708   6.421 -0.1952 -0.3586  0.8045
 2099SOL    HW217760   0.227   3.721   6.273  2.8399 -1.2839  1.5213
 2100SOL     OW17761   1.512   3.449   6.054 -0.2890  0.1629  0.2464
 2100SOL    HW117762   1.517   3.529   6.003 -0.6298 -0.0255 -0.0871
 2100SOL    HW217763   1.432   3.415   6.014 -0.9010  1.2141  0.5724
 2101SOL     OW17764   1.285   1.670   2.417 -0.5485  0.6855 -0.5789
 2101SOL    HW117765   1.298   1.734   2.486 -0.1723  0.4626 -0.4459
 2101SOL    HW217766   1.355   1.697   2.358  0.8339 -0.2681  0.6354
 2102SOL     OW17767   1.276   2.520   3.153 -0.2976  0.3423 -0.1184
 2102SOL    HW117768   1.305   2.591   3.094  1.5152  0.0957  0.4848
 2102SOL    HW217769   1.340   2.535   3.222 -0.4880  3.0453 -0.5157
 2103SOL     OW17770   3.045   1.161   9.857 -0.5718  0.5904 -0.2945
 2103SOL    HW117771   3.048   1.253   9.882 -0.2598 -0.0418  2.0023
 2103SOL    HW217772   2.970   1.127   9.907 -0.6105  2.4506  0.9291
 2104SOL     OW17773   1.926   0.829   7.871 -0.4509  0.0252  0.3346
 2104SOL    HW117774   1.884   0.854   7.789  0.4690 -1.4044 -0.5828
 2104SOL    HW217775   2.010   0.799   7.837 -0.1280  1.3869 -0.0572
 2105SOL     OW17776   0.183   4.561   1.000  0.2841  0.0725  0.1797
 2105SOL    HW117777   0.150   4.588   1.086 -1.7149 -2.3121  0.1683
 2105SOL    HW217778   0.107   4.517   0.961  1.7103 -0.9959 -1.3933
 2106SOL     OW17779   3.192   2.240   9.597 -0.3846  0.2187 -0.0415
 2106SOL    HW117780   3.272   2.196   9.568 -1.3760 -2.0386  0.6232
 2106SOL    HW217781   3.162   2.159   9.639 -0.7314  0.8856  0.9676
 2107SOL     OW17782   1.247   4.154   3.320  0.3285  0.4147  0.5189
 2107SOL    HW117783   1.306   4.144   3.395 -1.7078  0.0321  2.0634
 2107SOL    HW217784   1.316   4.161   3.254  0.4175  2.8064  0.8458
 2108SOL     OW17785   4.182   3.347  12.156  0.1156  0.1173  0.0281
 2108SOL    HW117786   4.185   3.442  12.167  0.7020  0.1620 -0.4972
 2108SOL    HW217787   4.114   3.336  12.223  1.6868  0.7158  1.7213
 2109SOL     OW17788   2.763   0.633  16.338 -0.6296  0.4266 -0.3026
 2109SOL    HW117789   2.697   0.674  16.283 -0.0917  1.6612 -0.0345
 2109SOL    HW217790   2.828   0.602  16.274 -0.1356 -0.1520  0.4783
 2110SOL     OW17791   1.758   0.058   7.094 -0.9773 -0.4243  0.3802
 2110SOL    HW117792   1.763   0.101   7.009  0.4022  0.1863  0.7632
 2110SOL    HW217793   1.756   4.691   7.062 -2.8831 -0.8719  1.7529
 2111SOL     OW17794   0.062   0.580   1.900 -0.5549  0.1476  0.1342
 2111SOL    HW117795   4.714   0.539   1.948 -0.6951  0.3450  0.0922
 2111SOL    HW217796   0.068   0.533   1.817  0.1338  0.6490 -0.1026
 2112SOL     OW17797   0.357   1.328   3.143 -0.3854  0.1095  1.1949
 2112SOL    HW117798   0.280   1.290   3.101 -0.1914  1.2472 -0.2160
 2112SOL    HW217799   0.365   1.405   3.087  0.5396  0.6927  2.1227
 2113SOL     OW17800   1.299   3.924   2.037  0.1732 -0.3617 -0.1222
 2113SOL    HW117801   1.316   3.956   1.948  1.0307 -1.2336 -0.2716
 2113SOL    HW217802   1.384   3.882   2.051  1.4142  1.3222 -2.5540
 2114SOL     OW17803   3.513   1.298   1.946  0.0580 -0.1476 -0.1880
 2114SOL    HW117804   3.585   1.306   1.883  0.0336 -0.8051 -0.2922
 2114SOL    HW217805   3.487   1.390   1.958 -0.1873 -0.1799 -0.4785
 2115SOL     OW17806   4.320   3.673   3.104 -0.7528  0.1453  0.4506
 2115SOL    HW117807   4.313   3.619   3.025  0.7799  0.4138  0.1324
 2115SOL    HW217808   4.383   3.623   3.156 -1.8321 -1.4526  0.2414
 2116SOL     OW17809   1.988   1.397   5.426 -0.2197  0.0855 -0.0813
 2116SOL    HW117810   2.008   1.308   5.395  1.7864 -0.0623  1.6446
 2116SOL    HW217811   1.994   1.393   5.521  0.7327 -1.6826 -0.2220
 2117SOL     OW17812   0.766   2.981   1.095  0.1180  0.7594 -0.2178
 2117SOL    HW117813   0.786   3.054   1.153 -2.1679  0.9070  0.3514
 2117SOL    HW217814   0.723   3.032   1.027 -1.3385 -0.8034 -0.4767
 2118SOL     OW17815   1.667   4.524   3.911  0.3794  0.4900 -0.4054
 2118SOL    HW117816   1.593   4.469   3.886  0.6559  1.0230 -2.4161
 2118SOL    HW217817   1.727   4.450   3.923  1.4386  1.2668 -0.9599
 2119SOL     OW17818   3.315   0.553   8.116 -0.4162 -0.3473 -0.1931
 2119SOL    HW117819   3.368   0.623   8.079 -1.0737  0.5776  0.6244
 2119SOL    HW217820   3.363   0.471   8.101  0.2412 -0.1536  0.8674
 2120SOL     OW17821   2.895   0.802   3.747 -0.2022  0.2653  0.0401
 2120SOL    HW117822   2.809   0.825   3.712  0.8952  2.5881 -1.0786
 2120SOL    HW217823   2.886   0.707   3.749 -0.7637  0.2673 -2.6494
 2121SOL     OW17824   1.254   1.580   4.601  0.1517  0.2502 -0.1646
 2121SOL    HW117825   1.164   1.554   4.622  1.2583 -3.2887  0.2292
 2121SOL    HW217826   1.246   1.675   4.612 -0.1428  0.3806 -1.5471
 2122SOL     OW17827   1.452   0.980  10.705  0.3195  0.1977 -0.3578
 2122SOL    HW117828   1.430   0.898  10.660 -0.3988 -0.5739  1.3903
 2122SOL    HW217829   1.490   0.945  10.785 -0.6165 -0.9896 -0.4271
 2123SOL     OW17830   4.179   1.262  14.212 -0.1816 -0.4430  0.0116
 2123SOL    HW117831   4.257   1.282  14.161 -0.1193 -2.3133 -0.6341
 2123SOL    HW217832   4.213   1.233  14.297  1.1081 -0.1962 -0.4219
 2124SOL     OW17833   1.666   2.171   7.905  0.2117  0.0658  0.5157
 2124SOL    HW117834   1.693   2.129   7.987  1.1637 -0.6994 -0.1908
 2124SOL    HW217835   1.607   2.237   7.941 -1.2327 -1.3626  0.7881
 2125SOL     OW17836   1.208   2.969   2.235 -0.4931 -0.4845 -0.0031
 2125SOL    HW117837   1.245   3.031   2.173 -1.0274  0.3879  0.5460
 2125SOL    HW217838   1.195   2.894   2.177  1.0237  0.0416 -1.0077
 2126SOL     OW17839   2.030   0.785   4.398  0.1330  0.6592  0.0384
 2126SOL    HW117840   2.063   0.695   4.405  0.0571  0.6920  0.8029
 2126SOL    HW217841   2.011   0.804   4.306 -0.6520  0.7148  0.2157
 2127SOL     OW17842   4.210   4.531   9.091 -0.2101  0.0065 -0.2008
 2127SOL    HW117843   4.248   4.606   9.045  2.2549 -0.7568  0.5842
 2127SOL    HW217844   4.134   4.575   9.130 -0.3608 -0.5999  0.2018
 2128SOL     OW17845   0.593   4.304   3.908  0.2856 -0.3762 -0.1311
 2128SOL    HW117846   0.612   4.338   3.995 -0.4680 -1.9740  0.6691
 2128SOL    HW217847   0.682   4.285   3.880  0.6102  0.7435  0.1430
 2129SOL     OW17848   0.821   1.770   1.967 -0.6097  0.1398 -0.2850
 2129SOL    HW117849   0.768   1.835   2.012  2.4172  0.8191  2.2763
 2129SOL    HW217850   0.781   1.691   2.004 -2.1816  1.4370  0.7430
 2130SOL     OW17851   1.308   2.237   3.079  0.5587 -0.4684  0.3317
 2130SOL    HW117852   1.293   2.322   3.120  0.9972 -0.2333  0.0097
 2130SOL    HW217853   1.326   2.262   2.988 -0.0564  0.9262  0.5914
 2131SOL     OW17854   0.788   3.633  11.548  0.4883 -0.6410 -0.3098
 2131SOL    HW117855   0.745   3.555  11.584  0.2140 -0.2268  0.2625
 2131SOL    HW217856   0.719   3.669  11.491  0.3062  0.5671  0.6886
 2132SOL     OW17857   1.912   2.481  11.345 -0.4797  0.6164  0.0810
 2132SOL    HW117858   1.876   2.456  11.260 -2.1875 -0.9145  1.2501
 2132SOL    HW217859   1.840   2.449  11.399  0.5159  1.1702  1.7620
 2133SOL     OW17860   1.997   0.111   6.670 -0.1966 -0.1643 -0.1721
 2133SOL    HW117861   2.035   0.188   6.629  0.4883 -0.8532 -0.8214
 2133SOL    HW217862   1.960   0.067   6.593  0.1951  0.7200 -0.8635
 2134SOL     OW17863   0.497   4.422  14.303 -0.9952  0.6592  0.1718
 2134SOL    HW117864   0.548   4.452  14.227 -2.2327 -1.6019 -1.5470
 2134SOL    HW217865   0.435   4.495  14.303  0.0633  1.5614  0.4059
 2135SOL     OW17866   3.035   1.633  16.193  0.6924  0.3088 -0.6620
 2135SOL    HW117867   3.064   1.552  16.150 -1.4436 -0.9616  0.2302
 2135SOL    HW217868   3.087   1.631  16.273  1.2424 -1.4765 -1.0535
 2136SOL     OW17869   2.704   0.658   5.996 -0.1172  0.4312 -0.1291
 2136SOL    HW117870   2.613   0.629   5.991  0.1252 -0.4133  0.4482
 2136SOL    HW217871   2.685   0.752   6.006  0.2068  0.4021  0.7421
 2137SOL     OW17872   4.445   2.389   5.693 -0.1173  0.0748 -0.4139
 2137SOL    HW117873   4.478   2.372   5.605 -0.0121 -0.8278 -0.1976
 2137SOL    HW217874   4.360   2.426   5.673 -0.2750 -0.7219 -1.2066
 2138SOL     OW17875   2.222   4.398   4.086 -0.4824 -0.2492  0.0071
 2138SOL    HW117876   2.215   4.336   4.013 -2.1034 -0.5900  0.4587
 2138SOL    HW217877   2.318   4.398   4.092 -0.6058  0.1748  2.0784
 2139SOL     OW17878   2.990   4.287  16.123 -0.0681  0.0961 -0.2648
 2139SOL    HW117879   2.936   4.321  16.194  0.1415  0.0385 -0.0777
 2139SOL    HW217880   3.067   4.287  16.181  0.8072  0.7776 -1.4207
 2140SOL     OW17881   4.187   3.671  10.014  0.2778 -0.3203 -0.0569
 2140SOL    HW117882   4.119   3.613   9.981  1.2801 -1.5164 -0.0003
 2140SOL    HW217883   4.165   3.663  10.107  0.5978 -1.3386 -0.0670
 2141SOL     OW17884   3.306   4.324   4.706  0.1239  0.0926  0.2356
 2141SOL    HW117885   3.400   4.342   4.698  0.1441  0.0050  0.2724
 2141SOL    HW217886   3.309   4.263   4.779 -3.6667  0.6096  0.8299
 2142SOL     OW17887   0.923   2.874   2.546 -0.0820  0.4438 -0.2424
 2142SOL    HW117888   0.982   2.813   2.502 -0.4200 -1.2771  1.6563
 2142SOL    HW217889   0.958   2.952   2.505 -0.9948  0.8750 -0.2104
 2143SOL     OW17890   2.832   3.522   2.129 -0.8224 -0.7656 -0.1821
 2143SOL    HW117891   2.744   3.554   2.109 -0.8137 -0.4373  0.3182
 2143SOL    HW217892   2.870   3.518   2.041  1.4480  0.2408  0.7775
 2144SOL     OW17893   2.549   0.738   3.391  0.5150 -0.2719 -0.2158
 2144SOL    HW117894   2.601   0.799   3.339  1.4610 -1.5795 -0.8255
 2144SOL    HW217895   2.500   0.795   3.450  0.7734  0.1245 -0.3838
 2145SOL     OW17896   2.435   0.639   5.995 -0.3969 -0.0316  0.5671
 2145SOL    HW117897   2.405   0.664   5.908 -1.0943 -1.2680  0.4561
 2145SOL    HW217898   2.354   0.621   6.042 -0.0580  0.5802  1.3889
 2146SOL     OW17899   0.409   4.324   0.539  0.3781 -1.1451 -0.0493
 2146SOL    HW117900   0.399   4.254   0.475 -1.3605 -0.3631 -0.6358
 2146SOL    HW217901   0.466   4.279   0.601  0.0740 -0.8269  0.4572
 2147SOL     OW17902   1.234   3.253   9.851  0.2198  0.3455 -0.1690
 2147SOL    HW117903   1.224   3.271   9.757  0.5378  2.5175  0.1933
 2147SOL    HW217904   1.303   3.317   9.869  0.7554 -0.6274  1.1938
 2148SOL     OW17905   0.469   1.352   7.808 -0.3998  0.2312  0.2237
 2148SOL    HW117906   0.377   1.341   7.785  0.1915 -2.5367 -0.8815
 2148SOL    HW217907   0.460   1.427   7.867  0.3029  0.7540 -0.3354
 2149SOL     OW17908   1.037   1.828   1.795  0.0659 -0.5652  0.5936
 2149SOL    HW117909   0.965   1.819   1.857 -1.8955  1.6894 -1.3545
 2149SOL    HW217910   1.116   1.835   1.849  1.3593 -2.3838 -1.0517
 2150SOL     OW17911   3.286   4.296  14.792 -0.2229  0.1356 -0.1025
 2150SOL    HW117912   3.317   4.277  14.881  0.2782  0.1599 -0.2721
 2150SOL    HW217913   3.193   4.311  14.809 -0.7344 -1.8989 -1.1021
 2151SOL     OW17914   0.080   2.784   8.726  0.0497  0.5492 -0.5251
 2151SOL    HW117915   0.102   2.859   8.781 -1.2471  0.9946 -0.6249
 2151SOL    HW217916   0.168   2.748   8.710 -0.0998 -1.1227  2.3334
 2152SOL     OW17917   2.174   0.021   2.012 -0.1381  0.3229  0.4957
 2152SOL    HW117918   2.189   0.064   1.928  1.0176 -2.3391 -0.6754
 2152SOL    HW217919   2.200   4.658   1.981  0.4795  0.2102  1.3322
 2153SOL     OW17920   1.012   1.951   2.497  0.4873 -0.3031  0.5908
 2153SOL    HW117921   1.014   1.945   2.402  1.0015 -1.3959  0.6722
 2153SOL    HW217922   1.010   1.859   2.525 -0.2448 -0.1878  0.9295
 2154SOL     OW17923   1.005   3.439  13.632  0.0552  0.3922  0.5440
 2154SOL    HW117924   1.034   3.492  13.706  2.2393  0.3171 -0.2373
 2154SOL    HW217925   0.920   3.420  13.671  0.1072  2.2945  1.5675
 2155SOL     OW17926   4.707   3.180   3.406  0.0278  0.1478 -1.1815
 2155SOL    HW117927   4.654   3.110   3.446 -1.2468  2.4963  1.2282
 2155SOL    HW217928   0.068   3.154   3.443  0.1034 -0.1315 -1.5568
 2156SOL     OW17929   1.568   3.510  16.163  0.0570  0.7785  0.0097
 2156SOL    HW117930   1.590   3.424  16.126  1.8168  1.4971 -0.5923
 2156SOL    HW217931   1.472   3.502  16.159 -0.0712  0.6528  3.4006
 2157SOL     OW17932   2.193   2.086  14.483 -0.4991  0.5551 -0.2031
 2157SOL    HW117933   2.216   2.028  14.555 -0.1761  0.3863 -0.4400
 2157SOL    HW217934   2.177   2.170  14.524  0.3153 -0.3571  1.9577
 2158SOL     OW17935   1.669   3.156  10.528 -1.1037  0.6839  0.3547
 2158SOL    HW117936   1.689   3.187  10.440 -0.1824  2.2712  1.1361
 2158SOL    HW217937   1.630   3.068  10.522  0.1831  0.4422 -4.5642
 2159SOL     OW17938   3.404   2.617  15.559  0.4290  0.3168 -0.2933
 2159SOL    HW117939   3.336   2.655  15.503  2.3329  2.8764 -0.8941
 2159SOL    HW217940   3.458   2.694  15.577  2.2042 -1.4962  2.0708
 2160SOL     OW17941   3.569   0.833   5.664 -0.0209  0.3241 -0.0464
 2160SOL    HW117942   3.560   0.739   5.646 -0.4690  0.4536 -0.5090
 2160SOL    HW217943   3.493   0.869   5.618  1.2998  1.1827 -1.5268
 2161SOL     OW17944   2.832   3.805   4.596  0.0969 -0.8254  0.2572
 2161SOL    HW117945   2.908   3.768   4.550 -1.0526 -1.7577 -0.9149
 2161SOL    HW217946   2.832   3.900   4.584 -1.1612 -0.8454  0.1337
 2162SOL     OW17947   4.136   2.113   9.135  0.6693  0.8616 -0.1261
 2162SOL    HW117948   4.204   2.052   9.164  2.2658  2.8983  0.3848
 2162SOL    HW217949   4.155   2.197   9.178  0.5346  0.1038  1.4076
 2163SOL     OW17950   4.661   3.713   9.636 -0.1715  0.7267  0.2633
 2163SOL    HW117951   4.642   3.676   9.722  0.5592 -1.1938 -0.4065
 2163SOL    HW217952   4.715   3.645   9.596 -1.4451  0.4143 -0.8973
 2164SOL     OW17953   0.758   4.170  17.671 -0.0259 -0.7434 -0.6356
 2164SOL    HW117954   0.680   4.179   0.028  1.3211 -1.3767  1.4038
 2164SOL    HW217955   0.820   4.220   0.027  1.5805 -0.8993 -2.3475
 2165SOL     OW17956   1.255   0.366  11.669  0.3756  0.1280  0.0694
 2165SOL    HW117957   1.251   0.393  11.577 -2.1036  0.2063  0.2105
 2165SOL    HW217958   1.169   0.326  11.680  0.7965 -0.8761 -0.3682
 2166SOL     OW17959   0.001   3.934   5.507  0.4545  0.3319  0.0590
 2166SOL    HW117960   4.647   3.901   5.553 -0.2554  1.0746 -0.6059
 2166SOL    HW217961   0.076   3.947   5.566 -0.7326  2.2715  1.1653
 2167SOL     OW17962   2.039   4.584   7.204 -0.0732  0.0105  0.0194
 2167SOL    HW117963   2.101   4.528   7.252 -0.9605 -1.0481 -0.0824
 2167SOL    HW217964   2.003   4.520   7.142 -0.9610  2.0836 -1.6014
 2168SOL     OW17965   3.179   2.609   1.689  0.0182 -0.0376  0.5758
 2168SOL    HW117966   3.090   2.627   1.719 -0.5614  0.4817 -1.4376
 2168SOL    HW217967   3.164   2.531   1.636  0.0870 -0.6180  1.4119
 2169SOL     OW17968   2.798   0.548   1.393  0.4750 -0.1690  0.0188
 2169SOL    HW117969   2.773   0.463   1.431  0.3181  0.8378  2.1796
 2169SOL    HW217970   2.717   0.595   1.375  0.0244 -0.6253  0.8617
 2170SOL     OW17971   1.246   1.270   2.594 -0.4484  0.9157 -0.2160
 2170SOL    HW117972   1.216   1.320   2.518  4.1920  4.8484  0.4777
 2170SOL    HW217973   1.232   1.332   2.666 -0.3083  0.4516  0.2077
 2171SOL     OW17974   2.091   1.266  12.939 -0.2930 -0.0899 -0.4850
 2171SOL    HW117975   2.106   1.176  12.911  0.4016 -0.5553  1.3418
 2171SOL    HW217976   2.171   1.311  12.912 -0.9907  0.9316 -0.8183
 2172SOL     OW17977   0.326   3.962   0.766 -0.1155 -0.5783  0.3653
 2172SOL    HW117978   0.372   3.923   0.692 -0.9836 -1.0291  0.0659
 2172SOL    HW217979   0.235   3.977   0.741  1.3258 -0.3629 -4.9194
 2173SOL     OW17980   1.101   0.051   0.342 -0.3382 -0.1341 -0.1735
 2173SOL    HW117981   1.185   0.009   0.322 -0.4893 -0.6314  0.2449
 2173SOL    HW217982   1.044   0.007   0.280  0.1373  0.1805 -0.8396
 2174SOL     OW17983   4.606   3.385   7.985  0.0598 -0.4128  0.3336
 2174SOL    HW117984   4.546   3.313   8.002 -0.0084 -0.5983 -0.6784
 2174SOL    HW217985   4.562   3.460   8.026 -0.3303 -1.7146  2.2689
 2175SOL     OW17986   3.931   2.234   3.823  0.3223  0.2631 -0.2452
 2175SOL    HW117987   3.969   2.294   3.760  0.8335  0.9995  0.7657
 2175SOL    HW217988   4.002   2.172   3.845 -1.6098 -1.9225 -0.1711
 2176SOL     OW17989   1.510   1.843   3.897  0.4284  0.5781 -0.3526
 2176SOL    HW117990   1.519   1.760   3.850  1.1326  1.0923 -1.1216
 2176SOL    HW217991   1.432   1.882   3.857 -1.0838 -1.8114  0.3103
 2177SOL     OW17992   3.960   3.894   0.122  0.4672 -0.7728 -0.8713
 2177SOL    HW117993   3.958   3.892   0.218 -0.5281 -1.1285 -0.8955
 2177SOL    HW217994   3.957   3.990   0.112  0.7694 -0.7299 -0.5477
 2178SOL     OW17995   0.567   2.408   5.262  0.2964 -0.0978 -0.1435
 2178SOL    HW117996   0.524   2.365   5.189  0.6818 -3.3148  1.4987
 2178SOL    HW217997   0.541   2.499   5.251 -5.2598 -1.6886 -0.2207
 2179SOL     OW17998   0.030   4.705   6.742 -0.7182 -0.1024 -0.1137
 2179SOL    HW117999   0.049   0.051   6.804  0.7777 -1.1783  0.6307
 2179SOL    HW218000   0.111   4.655   6.751 -0.9783 -0.3139  1.0420
 2180SOL     OW18001   1.248   1.024  15.314 -0.7540 -0.1967 -0.7063
 2180SOL    HW118002   1.211   1.112  15.317  0.3947  0.1421  3.8111
 2180SOL    HW218003   1.169   0.978  15.342 -0.5999 -0.6891 -1.0770
 2181SOL     OW18004   0.310   2.063   1.776  0.2480  0.3875  0.0367
 2181SOL    HW118005   0.389   2.088   1.729 -1.1910  2.7422 -1.1042
 2181SOL    HW218006   0.267   2.008   1.711 -0.6645 -0.0980  1.0351
 2182SOL     OW18007   1.073   4.408   3.760 -0.0777  0.4358  0.7644
 2182SOL    HW118008   1.142   4.380   3.700 -0.4680 -2.9260  1.8806
 2182SOL    HW218009   1.095   4.365   3.843  1.3912 -0.0478  0.1208
 2183SOL     OW18010   0.987   4.638   4.330 -0.1904  0.1810  0.1149
 2183SOL    HW118011   1.027   4.604   4.410 -0.3079  1.5364  0.7372
 2183SOL    HW218012   0.907   4.679   4.363  1.5229  3.6321 -0.0655
 2184SOL     OW18013   2.142   4.480   5.451  0.0510  0.6950 -0.2852
 2184SOL    HW118014   2.070   4.539   5.427 -0.4350  0.0286 -0.4454
 2184SOL    HW218015   2.099   4.401   5.417  1.0542  0.3961 -0.8419
 2185SOL     OW18016   4.455   1.715   9.323  0.2906  0.3492 -0.3996
 2185SOL    HW118017   4.426   1.679   9.407 -0.8406  2.7485  0.2377
 2185SOL    HW218018   4.548   1.691   9.324 -0.0592 -1.1210 -2.7551
 2186SOL     OW18019   1.000   3.212   4.939 -0.0647 -1.1321  0.0817
 2186SOL    HW118020   1.000   3.176   4.850  1.5054  2.4871 -1.3805
 2186SOL    HW218021   0.933   3.281   4.941  1.7554  0.6682 -1.2876
 2187SOL     OW18022   1.805   3.446   9.736  0.2382 -0.0148  0.8270
 2187SOL    HW118023   1.723   3.433   9.687 -1.3927  0.6261  3.4043
 2187SOL    HW218024   1.771   3.439   9.825 -0.8941 -0.1878  0.3902
 2188SOL     OW18025   4.214   4.421   3.293 -0.4302  0.2900 -0.2149
 2188SOL    HW118026   4.262   4.502   3.311  0.5491 -0.3181 -0.0813
 2188SOL    HW218027   4.256   4.380   3.217  0.4977 -0.3913  0.6588
 2189SOL     OW18028   3.744   1.133   1.011 -0.1212  0.7342 -0.1879
 2189SOL    HW118029   3.782   1.128   0.924 -0.3063 -5.8690  0.1682
 2189SOL    HW218030   3.771   1.051   1.052 -1.9735 -0.2595 -0.9850
 2190SOL     OW18031   0.833   0.916   9.351 -0.0425 -0.6712 -0.2682
 2190SOL    HW118032   0.811   0.948   9.264 -0.3951 -1.4558 -0.4676
 2190SOL    HW218033   0.748   0.930   9.391 -0.0689  0.9104 -0.8932
 2191SOL     OW18034   1.458   0.732  10.478 -0.3338  0.1853  0.0496
 2191SOL    HW118035   1.390   0.776  10.427 -0.7271  0.0199  0.4330
 2191SOL    HW218036   1.527   0.770  10.423 -1.3510  0.2727 -1.1359
 2192SOL     OW18037   2.689   3.549   3.205 -0.4862  0.4272 -0.7395
 2192SOL    HW118038   2.649   3.481   3.259  0.6746  0.0807 -0.3182
 2192SOL    HW218039   2.707   3.490   3.131  1.7921 -0.3057  0.3972
 2193SOL     OW18040   2.395   4.146   5.490 -0.7243  1.2650 -0.1022
 2193SOL    HW118041   2.390   4.224   5.545 -0.8796 -0.8171  2.7973
 2193SOL    HW218042   2.307   4.112   5.505 -0.4606 -0.7182 -2.9208
 2194SOL     OW18043   2.584   4.476   4.397  0.2646 -0.2932 -0.0633
 2194SOL    HW118044   2.537   4.539   4.343  0.6513  1.0426  1.1599
 2194SOL    HW218045   2.583   4.535   4.473  0.8259  1.4148 -1.4017
 2195SOL     OW18046   4.503   3.078  13.407  0.0805  0.3243 -0.2569
 2195SOL    HW118047   4.562   3.065  13.333 -0.5415 -2.2893 -0.3182
 2195SOL    HW218048   4.516   3.170  13.428 -0.1981  0.6993 -1.6812
 2196SOL     OW18049   3.736   2.261   5.734  0.2367  0.1880  0.1112
 2196SOL    HW118050   3.648   2.223   5.744  0.0575  0.3800 -0.7028
 2196SOL    HW218051   3.770   2.254   5.823  0.6061 -0.4337 -0.0746
 2197SOL     OW18052   0.240   1.878   3.292 -0.5117 -0.0059 -0.5515
 2197SOL    HW118053   0.211   1.970   3.292 -1.1965 -0.2318  1.6041
 2197SOL    HW218054   0.271   1.860   3.380 -1.2540 -0.3902 -0.3654
 2198SOL     OW18055   2.942   2.817  16.041 -0.1516  0.0726  0.2631
 2198SOL    HW118056   2.969   2.743  16.097 -0.0774 -0.2101 -0.1494
 2198SOL    HW218057   2.863   2.846  16.087 -0.7971 -0.4162 -0.5236
 2199SOL     OW18058   1.245   4.381  12.242 -0.3569 -0.2074  0.8182
 2199SOL    HW118059   1.151   4.365  12.235  0.2693 -3.1759 -0.5826
 2199SOL    HW218060   1.283   4.309  12.191 -2.7639 -0.1210 -1.1185
 2200SOL     OW18061   1.969   2.339   7.333  0.3143  0.1826 -0.1283
 2200SOL    HW118062   2.024   2.413   7.361 -0.8828  1.0555 -0.0525
 2200SOL    HW218063   2.029   2.265   7.331  2.9617  2.2845  1.1925
 2201SOL     OW18064   3.629   3.332   0.401 -0.0284  0.5005  0.5184
 2201SOL    HW118065   3.599   3.383   0.326 -0.3673  0.8911  0.9188
 2201SOL    HW218066   3.621   3.401   0.467 -0.5121  0.3974  0.5629
 2202SOL     OW18067   4.114   1.725   4.518 -0.1696 -0.0654 -0.1405
 2202SOL    HW118068   4.119   1.790   4.448  0.6761  0.9450  0.8591
 2202SOL    HW218069   4.022   1.729   4.542  0.4960 -0.8760  2.5299
 2203SOL     OW18070   0.938   1.866   6.929  0.3439 -0.3290  0.0840
 2203SOL    HW118071   1.006   1.855   6.862  0.0366 -0.6264 -0.1845
 2203SOL    HW218072   0.947   1.951   6.970 -0.3663 -1.4359  2.5148
 2204SOL     OW18073   0.274   2.049   4.951 -0.6951 -0.1874  0.2364
 2204SOL    HW118074   0.180   2.065   4.947 -0.6293 -0.2782 -1.4590
 2204SOL    HW218075   0.269   1.955   4.931  1.8602  0.1816 -2.0669
 2205SOL     OW18076   3.526   0.145   7.670  0.1542 -0.0649 -0.3086
 2205SOL    HW118077   3.448   0.090   7.675 -0.3385  0.8231  1.8344
 2205SOL    HW218078   3.532   0.152   7.765 -0.2763  0.1313 -0.2933
 2206SOL     OW18079   3.542   4.346   7.896  0.3818 -0.3741 -0.3759
 2206SOL    HW118080   3.533   4.337   7.801 -0.0734 -2.4906 -0.1333
 2206SOL    HW218081   3.537   4.440   7.910 -1.8795 -0.4703 -0.5549
 2207SOL     OW18082   3.046   3.570   7.504 -0.0037 -0.2364 -0.0455
 2207SOL    HW118083   3.037   3.546   7.596 -0.0506 -2.2855 -0.5804
 2207SOL    HW218084   3.142   3.562   7.499  0.2833  2.9209  0.1563
 2208SOL     OW18085   2.028   4.510   4.934 -0.0594 -0.0827 -0.2874
 2208SOL    HW118086   2.092   4.546   4.872  2.1094 -0.4218  1.7695
 2208SOL    HW218087   1.975   4.581   4.970 -1.7091 -1.7112  0.4600
 2209SOL     OW18088   4.521   4.260   7.758 -0.0723  0.0478 -0.0877
 2209SOL    HW118089   4.580   4.336   7.748 -0.4422  0.0246 -2.4808
 2209SOL    HW218090   4.510   4.251   7.852 -1.0804 -2.6489 -0.4726
 2210SOL     OW18091   3.699   2.795   2.698  0.3411 -0.1902 -0.9957
 2210SOL    HW118092   3.652   2.829   2.621  0.2410 -0.0624 -0.8775
 2210SOL    HW218093   3.636   2.724   2.707  1.2126 -0.7908  0.3572
 2211SOL     OW18094   2.503   0.173  11.795 -0.4299 -0.8086  0.0547
 2211SOL    HW118095   2.495   0.192  11.889 -1.0953  0.4748 -0.2602
 2211SOL    HW218096   2.527   0.081  11.792 -0.3567 -0.7130 -2.4491
 2212SOL     OW18097   4.525   4.234  11.319  0.0820 -0.1770 -0.0739
 2212SOL    HW118098   4.481   4.232  11.404 -2.0696 -1.0156 -1.2002
 2212SOL    HW218099   4.601   4.282  11.351 -0.3885  0.9184 -0.5821
 2213SOL     OW18100   3.841   1.440   5.537 -0.4286  0.3191  0.4589
 2213SOL    HW118101   3.924   1.469   5.575  0.3315 -3.4097  1.5881
 2213SOL    HW218102   3.868   1.422   5.447 -2.4660 -1.7146  0.2601
 2214SOL     OW18103   2.636   4.624   6.971 -0.0786  0.3049  0.6061
 2214SOL    HW118104   2.607   4.571   6.897 -0.5066  1.0244  0.2488
 2214SOL    HW218105   2.725   4.648   6.945 -0.7382  1.3077 -0.7366
 2215SOL     OW18106   0.896   0.135  14.716  0.1970 -0.0879 -0.4666
 2215SOL    HW118107   0.923   0.218  14.677 -1.7976  0.4961 -0.5848
 2215SOL    HW218108   0.885   0.071  14.646  0.6059 -1.2708  0.5616
 2216SOL     OW18109   2.728   3.444   2.474 -0.0587  0.2260 -0.5539
 2216SOL    HW118110   2.758   3.533   2.460  0.4297  0.3533  1.2014
 2216SOL    HW218111   2.810   3.411   2.512 -2.3828 -1.5831  2.9719
 2217SOL     OW18112   4.547   4.070   5.889 -0.4697 -0.0683 -0.0054
 2217SOL    HW118113   4.498   4.063   5.807  2.7375  0.2852 -1.9441
 2217SOL    HW218114   4.625   4.023   5.858 -0.3982  0.2726 -0.3437
 2218SOL     OW18115   1.481   1.150   7.754  0.4310 -0.0757  0.0916
 2218SOL    HW118116   1.411   1.104   7.708 -0.0533  0.9835 -0.2307
 2218SOL    HW218117   1.521   1.204   7.686  0.5137  0.2486  0.3947
 2219SOL     OW18118   3.008   4.466  17.539 -0.2073 -0.2749  0.4753
 2219SOL    HW118119   3.037   4.443  17.450 -0.0105 -0.9074  0.7014
 2219SOL    HW218120   2.994   4.560  17.538 -0.4767 -0.3076  2.0423
 2220SOL     OW18121   1.009   3.061   3.021 -0.0198  0.2645 -0.4072
 2220SOL    HW118122   1.012   2.991   2.956  1.7880 -0.7149  0.7588
 2220SOL    HW218123   1.070   3.026   3.086  0.7343  1.8363 -0.2707
 2221SOL     OW18124   4.013   2.159   6.890  0.5336 -0.5662  0.2437
 2221SOL    HW118125   4.040   2.194   6.975 -1.6676  0.9487  0.3097
 2221SOL    HW218126   3.979   2.243   6.860  2.8387 -0.1091 -1.0859
 2222SOL     OW18127   2.167   3.228   6.393  0.1598  0.5730 -0.1840
 2222SOL    HW118128   2.170   3.134   6.377 -1.2043  0.5087 -0.0308
 2222SOL    HW218129   2.188   3.237   6.486 -1.4174  2.3685 -0.0095
 2223SOL     OW18130   3.811   4.635  10.641 -0.3637  0.1526 -0.4556
 2223SOL    HW118131   3.791   4.613  10.732  1.2468  1.6949  0.2861
 2223SOL    HW218132   3.895   4.676  10.664  0.5084 -1.4775 -0.6957
 2224SOL     OW18133   2.074   3.054   1.823 -0.1266  0.0234 -0.4960
 2224SOL    HW118134   2.002   3.020   1.771 -1.0930 -1.9110  2.1448
 2224SOL    HW218135   2.107   3.116   1.758 -0.6874  0.1201 -0.6826
 2225SOL     OW18136   0.659   3.135   0.906 -0.6892 -0.0245  0.6746
 2225SOL    HW118137   0.623   3.099   0.825  0.4235  1.9354 -0.6565
 2225SOL    HW218138   0.704   3.216   0.884 -0.4124 -0.6952 -1.1969
 2226SOL     OW18139   2.344   0.733   0.158  0.3473 -0.8116  0.4360
 2226SOL    HW118140   2.306   0.647   0.140  1.7230 -1.2847 -0.2058
 2226SOL    HW218141   2.422   0.732   0.103  0.3617 -0.7689  0.4559
 2227SOL     OW18142   1.235   0.358   7.003  0.0857  0.4386  0.6665
 2227SOL    HW118143   1.178   0.348   6.926  0.6401 -0.2368  0.3421
 2227SOL    HW218144   1.321   0.356   6.961 -1.6147 -2.8027 -2.6890
 2228SOL     OW18145   1.122   3.276   3.365  0.5522  0.0612  0.0823
 2228SOL    HW118146   1.058   3.205   3.358  2.9093 -2.3146  2.4210
 2228SOL    HW218147   1.064   3.349   3.385  0.6233  0.7178 -2.0807
 2229SOL     OW18148   0.383   0.796   3.319  0.2761 -0.3829  0.3749
 2229SOL    HW118149   0.464   0.799   3.371  1.6079  0.0224 -1.7402
 2229SOL    HW218150   0.320   0.783   3.390 -0.1106  3.5874  0.7611
 2230SOL     OW18151   0.704   2.449   5.839 -0.4019  0.2299  0.4983
 2230SOL    HW118152   0.695   2.532   5.791 -1.7021 -0.0167  0.3195
 2230SOL    HW218153   0.631   2.453   5.900  0.5308  1.4301  1.5393
 2231SOL     OW18154   3.746   4.104   5.660  0.3923 -0.3498 -0.7045
 2231SOL    HW118155   3.686   4.117   5.733  0.0892 -1.6727 -0.7074
 2231SOL    HW218156   3.819   4.159   5.688  0.6657  0.1948 -2.4921
 2232SOL     OW18157   0.118   2.238   5.734 -0.2510 -0.3985 -0.4711
 2232SOL    HW118158   0.035   2.281   5.714 -0.4811  0.1664  1.7244
 2232SOL    HW218159   0.098   2.144   5.731 -0.8893 -0.3381  1.8394
 2233SOL     OW18160   0.401   1.977   7.067 -0.1057 -0.4940 -0.0277
 2233SOL    HW118161   0.478   1.936   7.105  0.8970  3.5582  2.3921
 2233SOL    HW218162   0.372   2.031   7.141  2.8473 -0.9659  1.4785
 2234SOL     OW18163   4.533   2.582   0.069 -0.4185 -0.1155 -0.2943
 2234SOL    HW118164   4.584   2.501   0.071 -0.9519 -0.4842 -1.4226
 2234SOL    HW218165   4.520   2.602   0.162  2.4180 -3.3471  0.7700
 2235SOL     OW18166   4.316   3.903  13.401 -0.1442 -0.2581 -0.7302
 2235SOL    HW118167   4.377   3.834  13.374  0.7645  0.3635 -0.2841
 2235SOL    HW218168   4.323   3.895  13.496  2.4863 -2.0648 -1.0810
 2236SOL     OW18169   3.121   4.082   4.990 -0.0248 -0.4127  0.6911
 2236SOL    HW118170   3.205   4.056   4.950 -0.9557  0.0896 -1.5984
 2236SOL    HW218171   3.132   4.175   5.005  1.1720 -0.0207 -2.5206
 2237SOL     OW18172   0.955   3.838   4.206 -0.2868  0.2728  0.1092
 2237SOL    HW118173   1.021   3.884   4.257 -1.5637  0.9697  1.1555
 2237SOL    HW218174   0.913   3.911   4.159  1.8490  1.6477  0.3216
 2238SOL     OW18175   4.099   2.187   2.912 -0.3235  0.0518 -0.0946
 2238SOL    HW118176   4.059   2.229   2.988  0.7177 -1.1692  1.1325
 2238SOL    HW218177   4.052   2.104   2.907 -0.2623 -0.1871  3.1674
 2239SOL     OW18178   3.990   2.729   2.777 -0.1918  0.2539 -0.4914
 2239SOL    HW118179   4.009   2.737   2.684 -2.0604  2.3455 -0.7092
 2239SOL    HW218180   3.895   2.736   2.763 -0.6150 -1.1339  1.6474
 2240SOL     OW18181   3.568   0.385   8.117 -0.5169 -0.3808 -0.3583
 2240SOL    HW118182   3.657   0.414   8.096 -0.8448  0.3300 -0.7750
 2240SOL    HW218183   3.563   0.400   8.212 -0.5617 -1.8161 -0.1425
 2241SOL     OW18184   2.565   4.287  15.331 -0.3143 -0.0144  0.3064
 2241SOL    HW118185   2.533   4.236  15.406 -0.4208  0.8403  0.8522
 2241SOL    HW218186   2.482   4.330  15.312 -0.5659 -0.3253  0.7064
 2242SOL     OW18187   0.103   2.491   6.159  0.0280 -0.1203 -0.2918
 2242SOL    HW118188   0.015   2.483   6.120 -1.0991 -0.6388  2.3773
 2242SOL    HW218189   0.081   2.475   6.251  0.6370  1.1148  0.0608
 2243SOL     OW18190   1.400   4.567   3.356  0.0811  0.1697 -0.3939
 2243SOL    HW118191   1.403   4.538   3.265  0.1355  0.3109 -0.4372
 2243SOL    HW218192   1.488   4.596   3.378 -0.1259 -1.0344  2.0151
 2244SOL     OW18193   1.585   1.675   9.942 -0.0539 -0.3091 -0.5296
 2244SOL    HW118194   1.575   1.672  10.037 -2.0000  0.7909 -0.6929
 2244SOL    HW218195   1.511   1.620   9.913 -0.2336  0.0960 -0.8434
 2245SOL     OW18196   1.429   3.516  13.290 -0.4856  0.3145 -0.2987
 2245SOL    HW118197   1.360   3.566  13.334  0.7832  2.8212 -1.1576
 2245SOL    HW218198   1.503   3.576  13.287  0.2141 -0.3835  3.0196
 2246SOL     OW18199   2.947   0.429   3.104 -0.3999  0.2290  0.1807
 2246SOL    HW118200   2.858   0.459   3.087 -0.7951 -0.4531  1.0140
 2246SOL    HW218201   2.983   0.439   3.016  1.1524 -0.9825  0.6812
 2247SOL     OW18202   0.603   3.959   6.346 -0.3485 -0.4096 -0.0256
 2247SOL    HW118203   0.569   3.911   6.271  0.9619 -1.7947  0.2774
 2247SOL    HW218204   0.587   3.879   6.396 -1.0778 -1.2389 -1.5743
 2248SOL     OW18205   2.162   1.463  11.517  0.8133  0.3377 -0.3010
 2248SOL    HW118206   2.161   1.558  11.505 -0.4300  0.0030 -2.9729
 2248SOL    HW218207   2.139   1.458  11.610  1.3632 -1.0400 -0.2276
 2249SOL     OW18208   4.583   3.937   8.785  0.1842 -0.4368 -0.2101
 2249SOL    HW118209   4.636   3.971   8.856 -0.8777 -0.1209  0.4306
 2249SOL    HW218210   4.563   3.853   8.827 -3.0090  0.2471 -0.3236
 2250SOL     OW18211   4.201   4.346   3.695  0.1820 -0.0794 -0.2642
 2250SOL    HW118212   4.212   4.310   3.783  1.1890  0.2417 -0.2591
 2250SOL    HW218213   4.118   4.312   3.660 -0.6884 -1.0794  2.7984
 2251SOL     OW18214   2.300   4.270  12.938 -0.1377 -0.2642 -0.0845
 2251SOL    HW118215   2.298   4.346  12.996 -1.4184 -1.5009  1.4958
 2251SOL    HW218216   2.321   4.196  12.994  1.7663  1.7751  1.9311
 2252SOL     OW18217   1.963   2.185   8.386 -0.2590 -0.1344 -0.5554
 2252SOL    HW118218   1.981   2.258   8.326 -1.5556  0.4855 -0.1934
 2252SOL    HW218219   1.873   2.208   8.409 -0.6310 -0.8088 -1.3295
 2253SOL     OW18220   2.661   2.861   0.226  0.6196 -0.0435  0.8512
 2253SOL    HW118221   2.574   2.898   0.212  1.5461  1.3230 -1.2574
 2253SOL    HW218222   2.723   2.929   0.200  0.5588 -0.0441  0.7059
 2254SOL     OW18223   0.983   2.967  16.052 -0.3652 -0.4015 -0.4276
 2254SOL    HW118224   1.002   3.041  16.109  2.4878 -1.0855 -0.4892
 2254SOL    HW218225   0.896   2.987  16.017  1.0554  2.1061 -2.5203
 2255SOL     OW18226   4.591   2.319   8.704  1.1137  0.2063 -0.2057
 2255SOL    HW118227   4.681   2.305   8.734  0.9725 -0.2999 -0.0070
 2255SOL    HW218228   4.587   2.404   8.748  0.8338  0.2318 -0.2818
 2256SOL     OW18229   4.154   1.639   4.159  0.8063  0.2619  0.6116
 2256SOL    HW118230   4.229   1.675   4.111  0.8242  0.1982  0.5917
 2256SOL    HW218231   4.086   1.693   4.120  2.3231  0.3246 -1.9460
 2257SOL     OW18232   1.872   3.277  13.583 -0.0429  0.3462  0.0705
 2257SOL    HW118233   1.866   3.261  13.678  0.2682  0.8636  0.1782
 2257SOL    HW218234   1.965   3.275  13.561  0.1496  0.0287  0.9238
 2258SOL     OW18235   0.743   3.117  17.690  0.1849 -0.0716  0.3470
 2258SOL    HW118236   0.677   3.183   0.014  0.1169  0.5521 -1.8665
 2258SOL    HW218237   0.789   3.114   0.078 -0.4552 -1.0808  0.6658
 2259SOL     OW18238   2.155   3.434   4.403  0.3018  0.1199 -0.1914
 2259SOL    HW118239   2.073   3.385   4.408  1.0034 -1.0939 -0.5753
 2259SOL    HW218240   2.200   3.384   4.472  2.0235  0.0366 -1.3805
 2260SOL     OW18241   1.111   3.269   2.486  0.2370 -0.0891 -0.0911
 2260SOL    HW118242   1.067   3.329   2.546  3.1959  2.1743 -0.1615
 2260SOL    HW218243   1.039   3.212   2.462  0.3718  0.0154 -0.7227
 2261SOL     OW18244   3.273   1.929   1.891  0.8342 -0.4883 -0.1568
 2261SOL    HW118245   3.277   2.009   1.839  0.0589  0.5309  1.3710
 2261SOL    HW218246   3.356   1.923   1.938  0.4109  1.1773  0.7897
 2262SOL     OW18247   3.856   2.477   8.446  0.0545 -0.0909 -0.2591
 2262SOL    HW118248   3.799   2.552   8.429 -1.5314 -0.8583  1.7169
 2262SOL    HW218249   3.807   2.436   8.517  0.3248  1.7800  1.0090
 2263SOL     OW18250   1.503   1.040   2.019  0.3612 -0.3314 -0.5407
 2263SOL    HW118251   1.504   1.086   1.935  1.3973 -0.4833 -0.6111
 2263SOL    HW218252   1.412   1.051   2.046  0.6673  0.6289  0.1042
 2264SOL     OW18253   4.057   0.470   6.015 -0.4269 -0.1112  0.0534
 2264SOL    HW118254   4.106   0.469   5.933 -0.4310  0.6614  0.0377
 2264SOL    HW218255   4.128   0.462   6.079 -0.9590 -3.2552  0.2420
 2265SOL     OW18256   2.337   3.490   3.207 -0.1665 -0.2112 -0.1555
 2265SOL    HW118257   2.374   3.457   3.289 -1.6019  1.7782  1.3077
 2265SOL    HW218258   2.376   3.435   3.140 -0.8819  0.2571 -0.9569
 2266SOL     OW18259   4.465   2.169   7.265 -0.2361  0.4433  0.1862
 2266SOL    HW118260   4.511   2.213   7.337 -0.3097 -1.3748  1.3454
 2266SOL    HW218261   4.472   2.078   7.292  1.1667  0.6926  0.6736
 2267SOL     OW18262   4.187   1.500   6.514  0.5120  0.2271  0.1638
 2267SOL    HW118263   4.104   1.527   6.553  0.5594  0.5293  0.0511
 2267SOL    HW218264   4.239   1.485   6.593 -1.4079 -0.3581  1.3161
 2268SOL     OW18265   4.193   1.578   0.743  0.1894  0.3561 -0.2333
 2268SOL    HW118266   4.131   1.630   0.793 -0.1258 -0.2194 -0.0372
 2268SOL    HW218267   4.195   1.498   0.795  0.2571  1.0886  0.8958
 2269SOL     OW18268   2.303   2.641   6.766  0.1264 -0.1983  0.2799
 2269SOL    HW118269   2.382   2.673   6.809 -0.5916 -1.0623  2.2564
 2269SOL    HW218270   2.280   2.579   6.836  2.5676 -1.5698 -0.1396
 2270SOL     OW18271   4.169   4.306  13.028 -0.3359  0.0906 -0.3685
 2270SOL    HW118272   4.144   4.269  13.113 -0.2240  0.5172 -0.1532
 2270SOL    HW218273   4.160   4.401  13.032  0.8440  0.2520 -1.4860
 2271SOL     OW18274   0.296   4.049  12.628 -0.1167 -0.3227  0.3964
 2271SOL    HW118275   0.324   3.958  12.639  1.4093  0.1945  0.7870
 2271SOL    HW218276   0.282   4.070  12.720  1.4875  0.8684  0.3760
 2272SOL     OW18277   3.472   0.930   2.890 -0.2787  0.0205  0.3746
 2272SOL    HW118278   3.558   0.891   2.903  0.8389  2.2314 -0.3545
 2272SOL    HW218279   3.486   1.015   2.848  0.1021 -0.1154  0.2344
 2273SOL     OW18280   3.809   2.088   5.504 -0.6957 -0.5715  0.2058
 2273SOL    HW118281   3.783   2.100   5.595 -1.2395 -1.0374  0.1142
 2273SOL    HW218282   3.840   1.997   5.509  0.9375 -0.1432 -1.9384
 2274SOL     OW18283   1.077   4.014   7.324 -0.3526  0.1435 -0.5385
 2274SOL    HW118284   1.052   3.923   7.337 -0.5510  0.2001 -0.5177
 2274SOL    HW218285   1.166   4.009   7.290  0.2782 -0.4194  1.2197
 2275SOL     OW18286   4.507   2.859   5.034  0.4100  0.5203 -0.5676
 2275SOL    HW118287   4.427   2.827   5.076  0.1079  2.0805  0.0356
 2275SOL    HW218288   4.490   2.953   5.021 -0.2501  0.2401 -1.7681
 2276SOL     OW18289   3.934   3.303   4.475  0.2454 -0.4497  0.1659
 2276SOL    HW118290   4.018   3.289   4.432  0.7315  3.2693 -0.1269
 2276SOL    HW218291   3.918   3.226   4.530  0.5987 -0.7566 -0.1645
 2277SOL     OW18292   0.256   2.730   9.796 -0.2406 -0.2916  0.5010
 2277SOL    HW118293   0.210   2.715   9.713  2.8718 -0.0074 -1.2580
 2277SOL    HW218294   0.257   2.645   9.840  3.0171  0.3788  1.6802
 2278SOL     OW18295   1.972   2.680   3.240 -0.0639 -0.0701 -0.4694
 2278SOL    HW118296   1.921   2.752   3.278 -1.4379 -0.6213 -1.2798
 2278SOL    HW218297   2.047   2.730   3.208  0.0252  1.2334  1.7475
 2279SOL     OW18298   1.797   0.617   7.625  0.0886  0.0950  0.2224
 2279SOL    HW118299   1.753   0.534   7.645  1.0305 -0.0986  1.4573
 2279SOL    HW218300   1.735   0.674   7.670  0.5868 -0.5454  1.7052
 2280SOL     OW18301   0.641   2.135  13.098 -0.1217 -0.1975 -0.5982
 2280SOL    HW118302   0.717   2.102  13.147 -0.0324  1.3635  0.2845
 2280SOL    HW218303   0.685   2.197  13.039  3.2632 -2.3752 -0.4128
 2281SOL     OW18304   2.938   1.982   1.986 -0.4584  0.4790  0.3826
 2281SOL    HW118305   2.873   1.937   1.932 -0.3206 -1.9218  2.2117
 2281SOL    HW218306   2.914   2.075   1.980 -0.6577  0.4303  0.4394
 2282SOL     OW18307   3.650   3.516   5.836 -0.0300 -0.3098 -0.0602
 2282SOL    HW118308   3.711   3.442   5.840  0.1068 -0.1496  1.0124
 2282SOL    HW218309   3.568   3.469   5.817 -1.6475  2.2779  0.5315
 2283SOL     OW18310   1.712   2.171   7.145  0.4367  0.7329 -0.3719
 2283SOL    HW118311   1.784   2.114   7.120 -0.0708 -1.2606  2.7472
 2283SOL    HW218312   1.741   2.252   7.104  0.2937  0.8310 -0.2794
 2284SOL     OW18313   2.895   1.039  15.752 -0.0174 -0.0172 -0.3636
 2284SOL    HW118314   2.844   1.076  15.680 -1.1920  0.3803  0.6642
 2284SOL    HW218315   2.940   1.115  15.792  1.3615 -0.5036 -0.9936
 2285SOL     OW18316   1.828   0.767   5.075  0.8340 -0.7757  0.4756
 2285SOL    HW118317   1.857   0.789   5.163 -2.1182  0.7535  1.0452
 2285SOL    HW218318   1.746   0.726   5.102  0.0431 -0.0901 -0.8977
 2286SOL     OW18319   3.617   0.582   3.120 -0.2979 -0.0203 -0.3150
 2286SOL    HW118320   3.572   0.505   3.085 -0.7568  0.0671  0.0761
 2286SOL    HW218321   3.548   0.648   3.115 -1.4136 -1.0850  0.8278
 2287SOL     OW18322   2.201   2.162   2.279 -0.0459  0.1368 -0.6892
 2287SOL    HW118323   2.202   2.195   2.369  1.0898 -2.5135  0.2516
 2287SOL    HW218324   2.210   2.245   2.232 -0.5658  0.5590 -0.0537
 2288SOL     OW18325   4.147   2.911   8.453 -0.1182 -0.2208 -0.0767
 2288SOL    HW118326   4.052   2.903   8.443 -0.2553  1.1099  0.1471
 2288SOL    HW218327   4.159   3.003   8.429 -1.7001 -0.8981 -3.5103
 2289SOL     OW18328   3.120   2.720   4.112 -0.2982  0.2287  0.7391
 2289SOL    HW118329   3.029   2.720   4.141 -0.8182  3.6728 -0.9038
 2289SOL    HW218330   3.162   2.643   4.150 -0.5138 -0.8085 -1.1234
 2290SOL     OW18331   1.779   0.384   6.629  0.2619  0.5958  0.3638
 2290SOL    HW118332   1.867   0.387   6.591 -0.1485 -1.2886 -0.7497
 2290SOL    HW218333   1.727   0.349   6.557  0.5840 -0.9310  0.8819
 2291SOL     OW18334   3.475   2.965  11.193 -0.2527  0.4632 -0.4606
 2291SOL    HW118335   3.507   3.009  11.115 -1.9572 -0.7450 -1.8461
 2291SOL    HW218336   3.524   2.884  11.180 -1.3213  0.2381 -2.9745
 2292SOL     OW18337   3.252   1.383  13.289  0.1890 -0.0205  0.2543
 2292SOL    HW118338   3.265   1.364  13.196 -2.8544 -0.6576 -0.0173
 2292SOL    HW218339   3.279   1.296  13.320 -0.9330  0.0242  1.3503
 2293SOL     OW18340   4.532   0.139   8.366  0.2330 -0.0091  0.5959
 2293SOL    HW118341   4.606   0.099   8.319 -1.3799 -2.4733  0.1440
 2293SOL    HW218342   4.484   0.066   8.407  1.3304 -1.3429 -0.4849
 2294SOL     OW18343   0.099   0.142   0.802 -0.5366  0.3315 -0.2631
 2294SOL    HW118344   0.027   0.203   0.821  0.3416  1.1421  0.4371
 2294SOL    HW218345   0.048   0.062   0.814 -2.0080  1.3341  0.1953
 2295SOL     OW18346   3.836   0.557   8.904  0.7615  0.4034 -0.3456
 2295SOL    HW118347   3.903   0.549   8.971  1.4703 -0.7390 -1.1922
 2295SOL    HW218348   3.797   0.640   8.930  0.9142  0.2364  0.4041
 2296SOL     OW18349   2.597   0.760   8.346  0.4850 -0.0499 -0.2300
 2296SOL    HW118350   2.561   0.697   8.408 -0.0399 -0.2383 -0.7237
 2296SOL    HW218351   2.671   0.714   8.305 -1.4060 -3.0630 -0.2884
 2297SOL     OW18352   1.378   2.533  16.057  0.0477 -0.3302  0.1027
 2297SOL    HW118353   1.383   2.621  16.021  0.3636 -1.9145 -3.6780
 2297SOL    HW218354   1.292   2.546  16.097  0.0937 -1.1963  0.4697
 2298SOL     OW18355   4.203   0.227   0.230  0.4705  0.5383  0.0838
 2298SOL    HW118356   4.272   0.211   0.295 -0.8648  1.2178  1.6714
 2298SOL    HW218357   4.216   0.149   0.175 -0.4113  1.7624 -1.8327
 2299SOL     OW18358   4.235   1.434   8.763  0.4090  0.1874  0.1683
 2299SOL    HW118359   4.187   1.358   8.795  1.8721 -0.4275  0.8804
 2299SOL    HW218360   4.179   1.471   8.695 -0.5312  1.3167  1.5613
 2300SOL     OW18361   0.061   3.270   2.285 -0.4987  0.6797  0.2763
 2300SOL    HW118362   0.123   3.237   2.350  1.8031  1.4670 -1.5320
 2300SOL    HW218363   4.723   3.315   2.343 -0.1181 -0.0604  1.2426
 2301SOL     OW18364   2.374   2.670   3.745  0.5286 -0.3786  0.5223
 2301SOL    HW118365   2.451   2.653   3.800  0.9193 -1.5651 -0.4049
 2301SOL    HW218366   2.407   2.697   3.660 -1.8634  3.4746  0.8123
 2302SOL     OW18367   2.444   1.645   5.337 -0.4018  0.2038 -0.0204
 2302SOL    HW118368   2.411   1.557   5.320 -0.3833  0.0163  0.9105
 2302SOL    HW218369   2.501   1.648   5.260 -0.7103  1.1447 -0.2153
 2303SOL     OW18370   3.990   0.139  11.004  0.1152 -0.1792 -0.5963
 2303SOL    HW118371   3.985   0.213  10.943 -1.6267  0.0900 -0.1373
 2303SOL    HW218372   4.069   0.174  11.046 -0.6890 -1.2457  1.8073
 2304SOL     OW18373   1.643   3.181   6.626  0.3369  0.0835 -0.4594
 2304SOL    HW118374   1.607   3.249   6.569  3.8607  1.6642 -0.8313
 2304SOL    HW218375   1.698   3.242   6.675 -0.8697  0.9631 -0.1961
 2305SOL     OW18376   1.279   0.734  14.777  0.4431 -0.1516  0.2932
 2305SOL    HW118377   1.218   0.699  14.712  1.0898 -0.4674 -0.1294
 2305SOL    HW218378   1.218   0.743  14.851 -1.4687  0.0030 -1.2999
 2306SOL     OW18379   0.372   2.315   8.348 -0.2807 -0.7811  0.2922
 2306SOL    HW118380   0.465   2.317   8.326 -0.4596 -1.9953 -0.6035
 2306SOL    HW218381   0.365   2.233   8.396  2.7006 -0.9410  0.4398
 2307SOL     OW18382   1.479   2.369   6.833  0.2171 -0.6877 -0.0577
 2307SOL    HW118383   1.428   2.396   6.757  0.3529  2.4784  0.9872
 2307SOL    HW218384   1.531   2.447   6.849  1.7243 -2.0259  1.5410
 2308SOL     OW18385   3.052   3.069   4.765  0.5588 -0.2960  0.0428
 2308SOL    HW118386   3.002   3.119   4.700 -1.2685 -2.1594 -0.0060
 2308SOL    HW218387   3.116   3.137   4.784 -2.5354  2.9062 -1.0364
 2309SOL     OW18388   3.359   0.277   2.129 -0.2950  0.3684  0.1912
 2309SOL    HW118389   3.312   0.259   2.047  0.4264  0.4868 -0.2546
 2309SOL    HW218390   3.297   0.329   2.180 -0.7359 -2.0933  2.1617
 2310SOL     OW18391   1.229   1.405   3.090 -0.2596  0.5484 -0.1996
 2310SOL    HW118392   1.138   1.380   3.109  0.2289 -1.3503 -0.3517
 2310SOL    HW218393   1.279   1.341   3.141 -0.0586  0.4149 -0.5635
 2311SOL     OW18394   1.348   3.238   7.948 -0.1275  0.0603 -0.3522
 2311SOL    HW118395   1.293   3.197   8.015 -1.6855  0.1380 -1.5828
 2311SOL    HW218396   1.395   3.163   7.912  2.2484  1.2079  0.3637
 2312SOL     OW18397   0.896   4.281   5.774 -0.1239  0.1013 -0.3381
 2312SOL    HW118398   0.935   4.357   5.817 -0.5031  0.6160 -0.9142
 2312SOL    HW218399   0.898   4.216   5.844 -1.2798  0.7569  0.3001
 2313SOL     OW18400   2.772   3.498   4.489  0.2455 -0.0077  0.2557
 2313SOL    HW118401   2.825   3.576   4.501  0.3890 -0.3432  1.8074
 2313SOL    HW218402   2.684   3.529   4.512  0.5056  0.3402  0.7589
 2314SOL     OW18403   0.655   3.922   7.467 -0.2758 -0.2062 -0.8801
 2314SOL    HW118404   0.625   4.005   7.503 -0.4135  0.3962 -2.3741
 2314SOL    HW218405   0.694   3.879   7.543  0.7812  1.1115 -0.6832
 2315SOL     OW18406   2.046   3.581  16.931 -0.7214  0.2387  0.3400
 2315SOL    HW118407   2.017   3.660  16.976 -2.6512 -0.9831  1.2280
 2315SOL    HW218408   1.991   3.586  16.853  0.6847 -1.0700 -0.7366
 2316SOL     OW18409   3.239   3.812   6.506 -0.0219  0.5806  0.1768
 2316SOL    HW118410   3.165   3.841   6.559  0.2839  0.7513  0.5153
 2316SOL    HW218411   3.305   3.798   6.574  1.0715 -3.3639 -1.6533
 2317SOL     OW18412   1.067   0.338  15.485  0.0987  0.0628  0.2225
 2317SOL    HW118413   0.994   0.365  15.542 -0.1947 -1.3656  0.5160
 2317SOL    HW218414   1.030   0.368  15.402  0.4082  0.0378  0.0775
 2318SOL     OW18415   1.462   2.637  17.403  0.3566 -0.3144  0.6965
 2318SOL    HW118416   1.407   2.595  17.337  0.5338  0.2522  0.1836
 2318SOL    HW218417   1.504   2.569  17.455  1.0794  0.6773  1.4158
 2319SOL     OW18418   0.968   2.850   2.839  0.3883  0.4223 -0.0110
 2319SOL    HW118419   0.888   2.813   2.877 -0.3489  1.6016 -0.4451
 2319SOL    HW218420   0.951   2.865   2.746 -3.1451 -0.6144  0.4802
 2320SOL     OW18421   4.688   1.743   1.496  0.5590 -0.1589 -0.1069
 2320SOL    HW118422   4.644   1.765   1.579 -2.3195 -0.1127 -1.6250
 2320SOL    HW218423   4.651   1.655   1.497 -1.9222  0.8627 -0.2386
 2321SOL     OW18424   0.024   1.054   6.226 -0.0470  0.2963 -0.0928
 2321SOL    HW118425   4.679   1.059   6.159 -1.5898 -1.7913  1.3229
 2321SOL    HW218426   0.001   1.123   6.289 -0.3693  0.1839 -0.0843
 2322SOL     OW18427   4.620   1.297   8.792  0.1449 -0.0894  0.4367
 2322SOL    HW118428   4.571   1.380   8.796 -1.7390 -1.2392  1.2150
 2322SOL    HW218429   4.599   1.245   8.869 -2.0167 -0.8571 -0.6703
 2323SOL     OW18430   0.439   1.356  14.093 -0.0701 -0.0458  0.3351
 2323SOL    HW118431   0.449   1.331  14.001  0.9578 -2.1974  1.0158
 2323SOL    HW218432   0.534   1.345  14.107  0.2728  2.1613 -0.3597
 2324SOL     OW18433   3.987   4.546   7.608 -1.0001  0.6093  0.2853
 2324SOL    HW118434   3.946   4.484   7.669 -0.2869  0.0777  0.2260
 2324SOL    HW218435   3.926   4.544   7.535 -2.7450 -0.5197  1.7804
 2325SOL     OW18436   4.372   2.476  16.922 -0.3570  0.2829 -0.2776
 2325SOL    HW118437   4.394   2.395  16.967 -1.7354  0.2640  0.3411
 2325SOL    HW218438   4.332   2.446  16.840 -2.4411 -0.2395  0.9428
 2326SOL     OW18439   1.716   4.224   7.406  0.2017 -0.4817 -0.2399
 2326SOL    HW118440   1.778   4.293   7.381 -0.6213 -0.2776 -1.7635
 2326SOL    HW218441   1.715   4.169   7.328  2.4991  0.1779 -0.7198
 2327SOL     OW18442   1.269   1.761   8.483 -0.7904 -0.6948  0.1797
 2327SOL    HW118443   1.249   1.839   8.535 -0.2752 -1.0388  0.9040
 2327SOL    HW218444   1.189   1.709   8.497 -0.6176 -1.2578 -1.0091
 2328SOL     OW18445   3.981   2.252   7.552 -0.4376  0.0348  0.4896
 2328SOL    HW118446   3.917   2.186   7.525  2.2909 -0.9926 -3.4298
 2328SOL    HW218447   4.043   2.252   7.480 -2.0938 -0.4915 -0.9371
 2329SOL     OW18448   2.144   0.003   9.300 -0.2252  0.2286 -0.1153
 2329SOL    HW118449   2.214   4.662   9.310 -0.1368  0.2068 -0.8817
 2329SOL    HW218450   2.079   4.690   9.359 -1.0292  0.3451 -0.9270
 2330SOL     OW18451   1.330   4.358   9.888 -0.3816  0.2441  0.2570
 2330SOL    HW118452   1.294   4.356   9.977 -1.2854  0.0994 -0.1171
 2330SOL    HW218453   1.288   4.286   9.843 -1.7468  0.7152  0.7925
 2331SOL     OW18454   1.475   0.041   9.406  0.1700  0.4338  0.0563
 2331SOL    HW118455   1.503   4.676   9.383 -2.2707 -0.3243  0.0045
 2331SOL    HW218456   1.433   0.029   9.492  0.1465 -0.0852 -0.0299
 2332SOL     OW18457   0.308   3.121   4.919 -0.3377 -0.0863  0.3122
 2332SOL    HW118458   0.252   3.162   4.853 -1.0820 -0.1946  0.8692
 2332SOL    HW218459   0.241   3.096   4.983 -0.0641  0.6300  0.8760
 2333SOL     OW18460   3.854   0.678   6.551  0.0996 -0.5318  0.0354
 2333SOL    HW118461   3.871   0.601   6.604  0.1529 -2.1644 -2.3157
 2333SOL    HW218462   3.891   0.654   6.466  0.2244 -1.3047  0.3177
 2334SOL     OW18463   0.523   2.862   5.581 -0.3089  0.3578  0.0024
 2334SOL    HW118464   0.512   2.810   5.660  0.5058  0.4224  0.1565
 2334SOL    HW218465   0.516   2.952   5.614 -1.2447  0.5892 -0.8539
 2335SOL     OW18466   0.779   3.142  11.708 -0.1384  0.2276 -0.6672
 2335SOL    HW118467   0.774   3.064  11.653  0.5382 -2.0125  2.4266
 2335SOL    HW218468   0.736   3.211  11.657 -0.6643 -0.3579 -1.0183
 2336SOL     OW18469   0.953   4.215   7.491 -0.1482 -0.4379  0.1305
 2336SOL    HW118470   1.029   4.243   7.542  0.1022  1.1848 -1.1314
 2336SOL    HW218471   0.999   4.148   7.440  0.4228  0.3983 -0.4522
 2337SOL     OW18472   1.926   4.661   8.609  0.3126  0.0038  0.1446
 2337SOL    HW118473   1.840   4.682   8.573  0.5218 -1.8653 -1.5031
 2337SOL    HW218474   1.933   0.009   8.671 -1.8638  0.3916 -0.0617
 2338SOL     OW18475   1.820   1.415   9.690  0.1902  0.0336 -0.6384
 2338SOL    HW118476   1.726   1.426   9.678  0.1751  1.8681  1.0082
 2338SOL    HW218477   1.836   1.465   9.771 -0.3028 -0.5616 -0.1732
 2339SOL     OW18478   0.099   3.981  14.987 -0.3096  0.0696  0.6243
 2339SOL    HW118479   0.107   4.037  15.064  1.7470  0.6724 -0.0242
 2339SOL    HW218480   0.005   3.964  14.978  0.0038 -2.0695  1.3707
 2340SOL     OW18481   1.225   1.447   7.731 -0.2577  0.2706  0.4821
 2340SOL    HW118482   1.246   1.383   7.799  0.3475  0.7077  0.7116
 2340SOL    HW218483   1.276   1.524   7.757  0.8800 -1.2418  2.7485
 2341SOL     OW18484   2.406   2.040   8.015  0.4075  0.4693  0.2210
 2341SOL    HW118485   2.344   1.968   8.031  2.0772 -0.6949  1.3348
 2341SOL    HW218486   2.460   1.989   7.955  1.2884  0.3456  1.1179
 2342SOL     OW18487   1.317   4.607   5.355 -0.2010 -0.8311 -0.5161
 2342SOL    HW118488   1.305   4.651   5.271 -2.5914 -2.8960 -1.2491
 2342SOL    HW218489   1.413   4.608   5.363 -0.4231 -0.1870  2.2060
 2343SOL     OW18490   3.711   4.384   2.521 -0.0166 -0.2201  0.1878
 2343SOL    HW118491   3.641   4.443   2.492 -0.1039 -0.6556 -0.4863
 2343SOL    HW218492   3.659   4.317   2.566  2.1813 -0.9858  1.5883
 2344SOL     OW18493   3.658   1.035   4.529  0.2937  0.5296  0.0650
 2344SOL    HW118494   3.652   0.947   4.492 -1.0808  0.0462  1.4472
 2344SOL    HW218495   3.738   1.029   4.581  0.0730 -0.2621  0.3152
 2345SOL     OW18496   1.751   2.294  16.277  0.4366 -0.3288 -0.2632
 2345SOL    HW118497   1.686   2.337  16.332  0.8051  0.3534 -0.3508
 2345SOL    HW218498   1.830   2.347  16.290  0.4698 -0.4477  0.0005
 2346SOL     OW18499   0.994   1.636   1.530 -0.2511 -0.3505 -0.8216
 2346SOL    HW118500   1.074   1.584   1.527 -0.4667 -0.7053 -0.4352
 2346SOL    HW218501   0.925   1.572   1.544 -1.5761  1.1843 -0.3511
 2347SOL     OW18502   2.062   1.122  15.648  0.4927  0.2430 -0.0781
 2347SOL    HW118503   2.139   1.126  15.706  1.7446  0.0131 -1.7117
 2347SOL    HW218504   2.003   1.187  15.685  0.5314 -0.6304  1.4929
 2348SOL     OW18505   4.221   4.451   7.493 -0.4843 -0.1627  0.0131
 2348SOL    HW118506   4.270   4.445   7.575 -0.4517  0.9116  0.0746
 2348SOL    HW218507   4.136   4.480   7.525 -0.9813 -0.1586 -1.2995
 2349SOL     OW18508   3.521   2.923   8.196  0.0872  0.5523 -0.0465
 2349SOL    HW118509   3.464   2.847   8.192  3.3899 -1.9222  0.3560
 2349SOL    HW218510   3.514   2.939   8.290 -3.0682 -0.1020 -0.1493
 2350SOL     OW18511   3.400   0.361   8.615 -0.3166  0.1789  0.3322
 2350SOL    HW118512   3.376   0.445   8.655 -2.2650 -0.3620  0.2865
 2350SOL    HW218513   3.466   0.384   8.550 -1.5476  0.4059 -0.8399
 2351SOL     OW18514   2.438   1.654  16.724  0.1577 -0.5995  0.1713
 2351SOL    HW118515   2.412   1.629  16.636  1.1112 -1.8810  0.2391
 2351SOL    HW218516   2.533   1.642  16.723  0.1901 -0.2759 -0.5372
 2352SOL     OW18517   1.299   0.618   8.169  0.1436  0.3198  0.7727
 2352SOL    HW118518   1.214   0.588   8.139 -0.7391  3.6639 -0.1292
 2352SOL    HW218519   1.356   0.546   8.143 -2.3612 -2.2596  2.5455
 2353SOL     OW18520   1.427   2.265   9.042  0.1861 -0.3472  0.0312
 2353SOL    HW118521   1.498   2.228   9.095  0.6530  1.2163  0.5063
 2353SOL    HW218522   1.349   2.212   9.060  1.2459 -1.8042  0.3607
 2354SOL     OW18523   4.328   0.275  14.617 -0.1941 -0.4028 -0.3218
 2354SOL    HW118524   4.370   0.211  14.558 -1.4917 -2.1769  0.6904
 2354SOL    HW218525   4.408   0.297  14.664 -0.1240 -0.5709 -0.3595
 2355SOL     OW18526   3.513   1.775   4.051  0.2592 -0.2672 -0.5762
 2355SOL    HW118527   3.561   1.853   4.079 -0.1171 -0.5917  1.0086
 2355SOL    HW218528   3.498   1.731   4.135  1.1087 -0.9432 -0.7846
 2356SOL     OW18529   1.397   1.532   4.827  0.2285 -0.1240 -0.1790
 2356SOL    HW118530   1.355   1.539   4.741 -2.6405 -0.0289  1.2406
 2356SOL    HW218531   1.479   1.574   4.803 -0.5520  0.7202 -1.3384
 2357SOL     OW18532   3.753   4.552  10.905  0.1945 -0.2238  0.5724
 2357SOL    HW118533   3.835   4.506  10.925 -0.0358 -0.6234  0.5865
 2357SOL    HW218534   3.712   4.550  10.992  0.1535 -0.1802  0.5540
 2358SOL     OW18535   0.202   0.369   4.393 -0.6896 -0.3041  0.2443
 2358SOL    HW118536   0.117   0.396   4.359 -0.9091 -0.8399  0.3705
 2358SOL    HW218537   0.201   0.413   4.478 -4.0789  0.5073 -0.2162
 2359SOL     OW18538   0.566   2.396   3.065 -0.4621  0.0366  0.1862
 2359SOL    HW118539   0.556   2.490   3.077  0.5729  0.5039 -2.6615
 2359SOL    HW218540   0.630   2.367   3.131  0.5609 -0.0535 -0.8490
 2360SOL     OW18541   4.593   0.161  13.802  0.0654 -0.1490  0.0136
 2360SOL    HW118542   4.638   0.242  13.777 -1.6919  0.6664 -0.4998
 2360SOL    HW218543   4.622   0.099  13.735  0.7329  2.5289 -2.2247
 2361SOL     OW18544   1.720   4.159   2.197 -0.4886 -0.0639 -0.0230
 2361SOL    HW118545   1.729   4.092   2.129 -2.4377 -0.4190  0.0760
 2361SOL    HW218546   1.649   4.121   2.249  0.8083 -1.3741  0.7915
 2362SOL     OW18547   1.999   1.372   6.576  0.3567 -0.2803 -0.8608
 2362SOL    HW118548   2.092   1.381   6.597 -0.0730  1.0390  0.4557
 2362SOL    HW218549   2.022   1.300   6.517  1.7684 -2.0068  1.8068
 2363SOL     OW18550   3.759   1.232   8.719  0.5076 -0.2207  0.1488
 2363SOL    HW118551   3.784   1.186   8.799  0.4576  0.2577  0.4447
 2363SOL    HW218552   3.829   1.219   8.656  0.4247 -0.5672  0.1278
 2364SOL     OW18553   4.399   4.205  10.056  0.2926  0.6664 -0.0669
 2364SOL    HW118554   4.351   4.250  10.125 -0.9799 -0.5302 -0.1620
 2364SOL    HW218555   4.446   4.140  10.107 -1.3547 -0.4393  0.0410
 2365SOL     OW18556   0.117   2.805   5.575 -0.1078  0.2876  0.4800
 2365SOL    HW118557   0.107   2.735   5.512 -0.6411 -0.8860  1.8718
 2365SOL    HW218558   0.093   2.749   5.649 -1.7170 -0.4334 -0.6034
 2366SOL     OW18559   0.044   4.685   0.573  0.3257  0.2588 -0.1216
 2366SOL    HW118560   0.002   4.603   0.546  1.9183 -1.3992  2.5494
 2366SOL    HW218561   0.002   4.694   0.658 -0.2352  0.8375 -0.4549
 2367SOL     OW18562   0.596   3.541   4.366  0.4321 -0.3922 -0.5076
 2367SOL    HW118563   0.530   3.610   4.359  1.8999  1.2816  2.2887
 2367SOL    HW218564   0.672   3.599   4.362 -0.1744  0.7153  4.2763
 2368SOL     OW18565   4.477   1.876   6.978 -0.5514  0.4986 -0.1368
 2368SOL    HW118566   4.397   1.922   7.003 -0.7326 -1.2510  2.5150
 2368SOL    HW218567   4.496   1.927   6.899  1.1763  1.9189  1.1902
 2369SOL     OW18568   3.406   1.098   3.297  0.1136  0.3326  0.9967
 2369SOL    HW118569   3.445   1.140   3.221 -1.1680  2.7623  1.7084
 2369SOL    HW218570   3.377   1.016   3.257  0.2650  0.0558  1.4524
 2370SOL     OW18571   1.719   4.492   3.181  0.5349  0.4525  0.1667
 2370SOL    HW118572   1.778   4.424   3.147 -1.5995 -1.3681  0.0909
 2370SOL    HW218573   1.707   4.451   3.266  1.7912  2.5450  1.3516
 2371SOL     OW18574   4.677   0.148   1.779  0.1794 -0.1233 -0.3301
 2371SOL    HW118575   4.647   0.143   1.869 -0.3915 -0.2882 -0.5271
 2371SOL    HW218576   0.048   0.149   1.787  0.0869  0.8379  0.5615
 2372SOL     OW18577   3.272   2.527   4.824  0.0583 -0.0049  0.0819
 2372SOL    HW118578   3.225   2.607   4.801  0.2798 -0.0240 -0.4469
 2372SOL    HW218579   3.252   2.513   4.916  0.7081 -0.2919  0.1824
 2373SOL     OW18580   2.200   2.104  14.213 -0.5588  0.3183  0.3833
 2373SOL    HW118581   2.126   2.149  14.174  0.1666  0.6813 -0.5792
 2373SOL    HW218582   2.180   2.091  14.306  0.4532 -1.0074  0.4193
 2374SOL     OW18583   3.784   1.371  11.386 -0.5421  0.0455  0.7241
 2374SOL    HW118584   3.811   1.279  11.379 -0.2385  0.1216  0.8811
 2374SOL    HW218585   3.865   1.418  11.364 -0.7263 -0.9274 -2.0327
 2375SOL     OW18586   3.122   1.634  13.196  0.3689 -0.1529  0.4206
 2375SOL    HW118587   3.201   1.650  13.144 -1.8479 -0.2378 -2.9959
 2375SOL    HW218588   3.158   1.564  13.250 -2.0441 -1.4418  0.3249
 2376SOL     OW18589   1.658   2.977   1.358 -0.2061  0.4086 -0.0852
 2376SOL    HW118590   1.566   2.964   1.337  0.7240 -3.2135 -1.8636
 2376SOL    HW218591   1.645   3.071   1.373 -0.0853  0.4410 -0.1803
 2377SOL     OW18592   2.626   0.834   4.343  0.0096 -0.3264 -0.0745
 2377SOL    HW118593   2.591   0.894   4.276 -0.6669  0.2992  0.8411
 2377SOL    HW218594   2.618   0.876   4.428 -1.4445 -2.3469  0.7928
 2378SOL     OW18595   2.678   3.790   4.201  0.0002  0.4306 -0.4384
 2378SOL    HW118596   2.748   3.839   4.244 -0.0471  2.0842 -2.2420
 2378SOL    HW218597   2.606   3.853   4.211  1.6967  2.0697  1.5590
 2379SOL     OW18598   3.965   0.590   2.007  0.8202  0.6464  0.0901
 2379SOL    HW118599   4.016   0.666   1.981 -0.5673  1.4028 -0.4341
 2379SOL    HW218600   3.905   0.599   1.933  1.7481 -1.1810 -0.8738
 2380SOL     OW18601   1.220   1.523   6.605 -0.3002 -1.0196 -0.3906
 2380SOL    HW118602   1.209   1.610   6.644 -0.6022 -1.8503  1.3455
 2380SOL    HW218603   1.209   1.529   6.510 -0.8599  3.2037 -0.0836
 2381SOL     OW18604   0.799   3.320   7.621 -0.5701  0.4504  0.3645
 2381SOL    HW118605   0.756   3.289   7.700 -1.1422  1.6111  0.5062
 2381SOL    HW218606   0.837   3.401   7.656  1.4401 -0.6817  0.7597
 2382SOL     OW18607   1.564   2.340   3.264 -0.6415  0.1461 -0.2856
 2382SOL    HW118608   1.575   2.252   3.300  2.5749  0.4760 -0.4124
 2382SOL    HW218609   1.654   2.370   3.250 -0.7644  1.1493  1.1200
 2383SOL     OW18610   3.871   4.079   4.228 -0.2425 -0.1115 -0.3297
 2383SOL    HW118611   3.783   4.091   4.264  0.0416  1.0150  0.0009
 2383SOL    HW218612   3.870   4.145   4.158  0.0539 -1.3904 -1.5330
 2384SOL     OW18613   4.196   4.254   2.863  0.2805  0.7936 -0.1794
 2384SOL    HW118614   4.182   4.161   2.845 -2.1621  0.7510  1.8956
 2384SOL    HW218615   4.104   4.279   2.870  0.3394  1.4076 -1.7998
 2385SOL     OW18616   4.655   2.270   4.545  0.1781  0.1745 -0.1548
 2385SOL    HW118617   0.012   2.252   4.594  0.1230 -0.9053 -0.4730
 2385SOL    HW218618   4.617   2.183   4.537 -0.1487  0.2005  1.1726
 2386SOL     OW18619   3.208   2.044   2.979 -0.1164 -0.2247  0.1226
 2386SOL    HW118620   3.179   1.982   2.912 -0.8812 -0.3409  0.5559
 2386SOL    HW218621   3.289   2.004   3.008  0.5092  1.2869  0.4477
 2387SOL     OW18622   4.018   2.239   8.438  0.0425  0.0307 -0.2307
 2387SOL    HW118623   4.044   2.159   8.393  0.9412  0.4161 -0.4004
 2387SOL    HW218624   3.922   2.238   8.435 -0.0166  0.7271  1.4118
 2388SOL     OW18625   2.660   1.434   5.280  0.1490 -0.0479 -0.5478
 2388SOL    HW118626   2.706   1.411   5.199 -0.3802 -1.2795 -0.4915
 2388SOL    HW218627   2.644   1.520   5.240  2.4031 -0.3106 -2.0072
 2389SOL     OW18628   2.387   2.441   5.445 -0.0394  0.1949  0.3609
 2389SOL    HW118629   2.434   2.512   5.488  2.1748  0.4819 -2.4920
 2389SOL    HW218630   2.448   2.370   5.465  0.9826  0.7138 -0.8763
 2390SOL     OW18631   3.190   0.897  12.885  0.1830  0.2191 -0.3419
 2390SOL    HW118632   3.113   0.900  12.941  0.2858  0.1572 -0.1967
 2390SOL    HW218633   3.259   0.905  12.951 -1.9561  2.3535  1.6118
 2391SOL     OW18634   2.532   1.592   8.243 -0.4470 -0.0396  0.6584
 2391SOL    HW118635   2.494   1.504   8.251 -0.3554 -0.1986 -0.7467
 2391SOL    HW218636   2.460   1.638   8.200  0.9893  0.2323 -1.4485
 2392SOL     OW18637   3.878   0.021  16.017  0.6962  0.1954  0.4610
 2392SOL    HW118638   3.954   0.024  15.958 -0.0883 -0.9870 -0.6105
 2392SOL    HW218639   3.811   0.055  15.958 -0.0465  1.0229  1.7886
 2393SOL     OW18640   2.698   1.732   8.087 -0.0624 -0.4502 -0.2131
 2393SOL    HW118641   2.724   1.809   8.138  0.1285 -1.4062  1.1566
 2393SOL    HW218642   2.670   1.666   8.151 -0.8278  0.2174  0.1465
 2394SOL     OW18643   3.193   2.932   2.346 -0.1956  1.0671 -0.0837
 2394SOL    HW118644   3.112   2.978   2.324  1.1843  2.2489 -2.7290
 2394SOL    HW218645   3.194   2.854   2.291  0.8951  0.7151  0.4451
 2395SOL     OW18646   3.316   1.913   0.862  0.0834  0.1694  0.5388
 2395SOL    HW118647   3.291   1.880   0.775  0.3049  1.5200 -0.0378
 2395SOL    HW218648   3.245   1.869   0.908 -0.9569 -1.9394 -3.0529
 2396SOL     OW18649   0.014   3.660   5.965 -0.3081  0.1881  0.3846
 2396SOL    HW118650   4.700   3.739   5.928  1.7463  1.0812  0.1564
 2396SOL    HW218651   4.701   3.590   5.911 -2.1749  0.2471  1.6242
 2397SOL     OW18652   2.618   3.948   7.193  0.2493  0.7152 -0.0636
 2397SOL    HW118653   2.703   3.908   7.176 -0.2518 -0.1947 -0.4279
 2397SOL    HW218654   2.574   3.904   7.120 -0.2022  0.7706  0.1755
 2398SOL     OW18655   3.541   2.694   3.743 -0.1391  0.2847  0.3474
 2398SOL    HW118656   3.459   2.745   3.745 -0.2250  0.1946 -0.8292
 2398SOL    HW218657   3.605   2.749   3.788 -0.9772  1.5815 -0.0338
 2399SOL     OW18658   0.456   2.861   9.177 -0.2864  0.4587  0.5399
 2399SOL    HW118659   0.371   2.901   9.161 -0.3958 -0.1068 -0.2838
 2399SOL    HW218660   0.475   2.899   9.263 -2.7271 -0.5206  1.5079
 2400SOL     OW18661   3.651   2.907   9.556  0.0800 -0.2542 -0.0074
 2400SOL    HW118662   3.738   2.884   9.523 -0.5564  0.2174 -1.9725
 2400SOL    HW218663   3.661   2.875   9.646 -0.3339 -0.1772  0.0638
 2401SOL     OW18664   4.462   1.161   0.070 -0.0150 -0.4791 -0.8895
 2401SOL    HW118665   4.445   1.155   0.164 -3.5511 -0.1729 -1.5278
 2401SOL    HW218666   4.481   1.254   0.061 -1.6000 -0.1265 -0.6072
 2402SOL     OW18667   1.587   1.256  17.458 -0.2072 -0.4474 -0.3628
 2402SOL    HW118668   1.661   1.282  17.514 -0.3691  0.2122 -0.4538
 2402SOL    HW218669   1.514   1.286  17.512  0.4879 -0.2867  0.4857
 2403SOL     OW18670   2.493   3.766   8.858 -0.1992  0.4372  0.2946
 2403SOL    HW118671   2.480   3.834   8.924 -0.4342 -0.5308  1.2264
 2403SOL    HW218672   2.417   3.710   8.871 -0.4215  1.3346  2.8295
 2404SOL     OW18673   1.349   0.436  10.666  0.4950  0.1102 -0.0142
 2404SOL    HW118674   1.337   0.358  10.720 -0.0230  0.1274 -0.1002
 2404SOL    HW218675   1.423   0.473  10.714  0.6920  1.0627 -1.0381
 2405SOL     OW18676   1.640   1.721   4.823  0.0431 -0.1020  0.0099
 2405SOL    HW118677   1.601   1.800   4.861  0.2355  0.0579 -0.1275
 2405SOL    HW218678   1.667   1.755   4.738  0.2556 -1.7455 -0.5875
 2406SOL     OW18679   2.924   1.379   1.663  0.0568  0.6167 -0.5289
 2406SOL    HW118680   2.889   1.414   1.745  1.5020 -1.0621  0.7979
 2406SOL    HW218681   2.845   1.340   1.626 -0.5130  1.9343 -0.6940
 2407SOL     OW18682   2.715   4.348   7.342 -0.0987  0.0337 -0.4999
 2407SOL    HW118683   2.704   4.313   7.253 -2.1660 -0.4783 -0.0584
 2407SOL    HW218684   2.644   4.413   7.346  0.4219  0.5100  0.9496
 2408SOL     OW18685   3.333   4.604   2.016 -0.5918  0.6280  0.1711
 2408SOL    HW118686   3.403   4.653   1.974  0.3985 -1.8578 -1.0166
 2408SOL    HW218687   3.277   4.589   1.940 -0.4267  1.4683 -0.1195
 2409SOL     OW18688   2.388   1.321   8.301  0.0402 -0.0647  0.4098
 2409SOL    HW118689   2.387   1.335   8.396  0.1180  2.0324  0.1050
 2409SOL    HW218690   2.369   1.228   8.313 -0.3429 -0.3127 -2.0027
 2410SOL     OW18691   1.052   4.196   5.522  0.3215  0.3943  0.3533
 2410SOL    HW118692   1.116   4.141   5.567  0.7195  1.1063  0.6538
 2410SOL    HW218693   1.010   4.243   5.594  0.5502  1.1725 -0.0212
 2411SOL     OW18694   4.605   2.388   7.140  0.3928  0.4800  0.1154
 2411SOL    HW118695   4.677   2.382   7.203  0.0624 -0.2694  0.4180
 2411SOL    HW218696   4.561   2.304   7.151  0.6484  0.5807  1.8265
 2412SOL     OW18697   3.274   4.038  12.015 -0.0151 -0.0959  0.3450
 2412SOL    HW118698   3.180   4.022  12.026 -0.0587 -0.8490 -1.2173
 2412SOL    HW218699   3.279   4.123  12.059 -0.1672 -1.1091  2.3027
 2413SOL     OW18700   3.103   4.182   5.758 -0.5402 -0.4034 -0.4369
 2413SOL    HW118701   3.106   4.173   5.663  0.3066 -0.0114 -0.4518
 2413SOL    HW218702   3.197   4.184   5.776 -0.7380  1.5113  0.3467
 2414SOL     OW18703   2.408   4.620   8.284  0.2179 -0.1888  0.0455
 2414SOL    HW118704   2.352   4.645   8.211  0.6205 -0.2814 -0.2932
 2414SOL    HW218705   2.480   4.584   8.233  1.1799 -0.3734  1.5154
 2415SOL     OW18706   1.270   4.370   6.338 -0.1168  0.1079  0.3328
 2415SOL    HW118707   1.202   4.303   6.349  0.3579  0.0242  2.7343
 2415SOL    HW218708   1.256   4.409   6.425  4.2933 -1.7045  1.8210
 2416SOL     OW18709   4.105   4.285   9.007 -0.1606  0.0022  0.8956
 2416SOL    HW118710   4.172   4.353   9.012  0.0051  0.0487 -1.8099
 2416SOL    HW218711   4.037   4.319   9.064  0.0906 -0.7034  1.6123
 2417SOL     OW18712   2.636   3.640  11.597  0.2902  0.1614 -0.0575
 2417SOL    HW118713   2.636   3.585  11.676 -0.4694 -0.3494 -0.4153
 2417SOL    HW218714   2.731   3.640  11.582 -0.0128 -2.6212 -1.8500
 2418SOL     OW18715   0.385   0.039  15.953  0.1239 -0.4392 -0.2454
 2418SOL    HW118716   0.470   0.078  15.973  0.5837 -0.3232 -2.3761
 2418SOL    HW218717   0.322   0.087  16.006 -0.0269  0.9422 -1.6631
 2419SOL     OW18718   0.946   1.860   3.098  0.6997 -0.4921 -0.0286
 2419SOL    HW118719   0.985   1.944   3.122  1.6937 -0.1540 -2.9341
 2419SOL    HW218720   0.889   1.858   3.175  1.2354  0.3969  0.3855
 2420SOL     OW18721   0.430   1.806   3.500  0.0302 -0.0984  0.2274
 2420SOL    HW118722   0.433   1.732   3.560  0.1901 -0.6718 -0.4849
 2420SOL    HW218723   0.486   1.769   3.431  0.9105 -0.1202  0.9476
 2421SOL     OW18724   3.130   3.048   3.342  0.0449 -0.5260 -0.1586
 2421SOL    HW118725   3.166   3.136   3.340 -1.3950  0.0920  2.3230
 2421SOL    HW218726   3.185   3.014   3.412  1.5985  0.8450 -0.7132
 2422SOL     OW18727   2.571   2.247   9.206 -0.1032 -0.3820  0.0582
 2422SOL    HW118728   2.606   2.332   9.177  0.0279 -0.5475 -0.2686
 2422SOL    HW218729   2.653   2.203   9.229  0.6877  0.8508 -0.3561
 2423SOL     OW18730   1.994   3.166   4.200  0.3712  0.1226  0.1631
 2423SOL    HW118731   1.945   3.221   4.261 -0.5466 -1.8620  1.2225
 2423SOL    HW218732   2.054   3.128   4.265 -1.0420 -1.6287  0.4332
 2424SOL     OW18733   4.307   4.007   7.793 -0.3790  0.6521 -0.1819
 2424SOL    HW118734   4.330   4.074   7.859  4.4158  0.1913 -1.4205
 2424SOL    HW218735   4.227   4.049   7.761  0.0022  1.5679  0.0496
 2425SOL     OW18736   2.661   2.652   1.636  0.1494 -0.3464 -0.1338
 2425SOL    HW118737   2.726   2.645   1.567 -1.7077  0.8072 -2.0191
 2425SOL    HW218738   2.634   2.560   1.635  1.6458 -0.7827 -0.0415
 2426SOL     OW18739   1.692   1.250   1.719 -0.3401  0.0602 -0.4668
 2426SOL    HW118740   1.679   1.169   1.769 -1.1934 -0.6368 -1.8118
 2426SOL    HW218741   1.603   1.260   1.687 -0.1623 -1.6037 -1.5137
 2427SOL     OW18742   1.521   1.778   2.611  0.4473  0.4831 -0.2012
 2427SOL    HW118743   1.432   1.815   2.616  0.1943  0.0492 -1.2761
 2427SOL    HW218744   1.575   1.857   2.617  1.7621 -0.3964 -0.5049
 2428SOL     OW18745   4.577   3.937   2.840 -0.3439  0.3957 -0.5636
 2428SOL    HW118746   4.637   3.975   2.904  0.0434 -0.6053 -0.3225
 2428SOL    HW218747   4.490   3.955   2.875  0.2314 -1.9483  2.0907
 2429SOL     OW18748   3.265   4.650  12.412  0.5791  0.6018 -0.0439
 2429SOL    HW118749   3.340   4.594  12.392  0.0268  0.2263 -1.1008
 2429SOL    HW218750   3.318   4.723  12.442 -0.7531 -0.2645  4.4265
 2430SOL     OW18751   3.141   3.431   6.654  0.2229 -0.0066 -0.0033
 2430SOL    HW118752   3.154   3.473   6.569  1.5581  2.0908  1.2421
 2430SOL    HW218753   3.054   3.394   6.636 -0.4663  2.2785 -1.4133
 2431SOL     OW18754   2.566   3.864   0.641 -0.1335  0.5535  0.2285
 2431SOL    HW118755   2.586   3.771   0.633 -1.2790  0.2830  0.5414
 2431SOL    HW218756   2.515   3.866   0.560  0.7913 -0.2483 -0.3666
 2432SOL     OW18757   1.227   2.752   4.183 -0.9990 -0.3878  0.8385
 2432SOL    HW118758   1.156   2.700   4.222 -1.0313 -1.1268 -0.2174
 2432SOL    HW218759   1.213   2.762   4.089 -0.5818 -1.9887  0.6116
 2433SOL     OW18760   1.154   2.195  16.634  0.2426  0.4829 -0.1017
 2433SOL    HW118761   1.160   2.155  16.547 -0.8469 -0.6353  0.3237
 2433SOL    HW218762   1.081   2.141  16.665  0.7388  0.9293  1.8366
 2434SOL     OW18763   0.189   2.633   5.309 -0.2651 -0.1410  0.0498
 2434SOL    HW118764   0.277   2.671   5.308  0.5646 -2.0418  2.3020
 2434SOL    HW218765   0.182   2.602   5.218 -0.3474 -1.7451  0.5977
 2435SOL     OW18766   0.718   4.706   6.223 -0.1914  0.4269  0.3918
 2435SOL    HW118767   0.695   4.613   6.212  1.5166 -0.3552  3.6299
 2435SOL    HW218768   0.637   0.032   6.215 -0.0517  0.8799  1.9562
 2436SOL     OW18769   4.532   3.748  13.329 -0.4985  0.0114 -0.1203
 2436SOL    HW118770   4.559   3.839  13.320  0.7600 -0.5183 -1.6437
 2436SOL    HW218771   4.541   3.738  13.234  0.5790 -0.0770 -0.0058
 2437SOL     OW18772   2.637   4.045   3.020  0.4289  0.5249  0.0284
 2437SOL    HW118773   2.607   4.060   2.930  0.1368 -0.2484  0.0044
 2437SOL    HW218774   2.677   3.959   3.030 -0.3614  0.1729  0.1203
 2438SOL     OW18775   0.716   1.553  10.628 -0.3388  0.0566  0.2125
 2438SOL    HW118776   0.735   1.622  10.565 -1.5917  0.4150  0.2201
 2438SOL    HW218777   0.777   1.490  10.590 -0.8952  1.3389 -2.8161
 2439SOL     OW18778   2.212   0.262   6.039 -0.0095  0.2112  0.7182
 2439SOL    HW118779   2.200   0.177   6.081  0.3557 -0.0128  0.3686
 2439SOL    HW218780   2.289   0.299   6.081  2.3590 -2.0972 -1.5612
 2440SOL     OW18781   1.670   1.379   2.750 -0.2121 -0.4616  0.4660
 2440SOL    HW118782   1.751   1.407   2.708  0.6706 -2.3135  0.9634
 2440SOL    HW218783   1.704   1.368   2.839  1.0428 -0.0930  0.0343
 2441SOL     OW18784   0.034   3.653   9.338  0.0743  0.4108 -0.1657
 2441SOL    HW118785   0.027   3.602   9.257 -0.6409  1.2647 -0.6493
 2441SOL    HW218786   4.665   3.673   9.350  0.5587  2.7394 -0.2765
 2442SOL     OW18787   3.369   1.274  10.304  0.3082  0.0389 -0.3603
 2442SOL    HW118788   3.437   1.254  10.241 -1.6144 -0.9622 -2.1390
 2442SOL    HW218789   3.417   1.297  10.384  1.1979 -0.4685 -0.7476
 2443SOL     OW18790   1.948   4.476  14.698 -0.7697  0.0256  0.5794
 2443SOL    HW118791   1.930   4.459  14.791  0.4229  1.1190  1.0117
 2443SOL    HW218792   2.001   4.400  14.673 -0.8237 -0.6153  2.3955
 2444SOL     OW18793   4.574   0.247  11.540 -0.3385  0.3643  0.2719
 2444SOL    HW118794   4.487   0.282  11.558  0.7739  3.0593  0.4752
 2444SOL    HW218795   4.624   0.291  11.608 -0.5413 -0.5395  1.0030
 2445SOL     OW18796   4.280   1.349   2.535 -0.4549 -0.4698 -0.2415
 2445SOL    HW118797   4.352   1.382   2.481 -0.5396 -0.6941 -0.4914
 2445SOL    HW218798   4.315   1.264   2.561 -1.1473 -0.1341  1.7597
 2446SOL     OW18799   2.097   3.765  10.091 -0.2047 -0.2302  0.3248
 2446SOL    HW118800   2.148   3.833  10.135  0.3188 -0.6891  0.4388
 2446SOL    HW218801   2.109   3.781   9.997 -0.5221 -1.6892  0.0282
 2447SOL     OW18802   3.631   3.551   5.465  0.5472 -0.0693  0.0984
 2447SOL    HW118803   3.545   3.513   5.480  0.3293  0.3869  0.0216
 2447SOL    HW218804   3.624   3.624   5.527 -0.1062  0.6806 -0.8435
 2448SOL     OW18805   0.779   1.808   1.665  0.1188  0.2269 -0.6378
 2448SOL    HW118806   0.788   1.738   1.729  0.3015  0.8235 -0.0125
 2448SOL    HW218807   0.715   1.870   1.701  2.6726  1.7710  1.2701
 2449SOL     OW18808   2.777   4.667  14.669  0.1548 -0.4431 -0.3398
 2449SOL    HW118809   2.843   4.606  14.636  0.7033 -1.1774  2.1062
 2449SOL    HW218810   2.742   4.708  14.590 -1.2661  0.6355  0.8581
 2450SOL     OW18811   1.519   2.095   6.772 -0.1795 -0.0488 -0.2450
 2450SOL    HW118812   1.512   2.176   6.822  0.6646 -0.7485  1.0267
 2450SOL    HW218813   1.455   2.107   6.702 -0.6353  0.4762  0.2712
 2451SOL     OW18814   2.425   0.365   1.979 -0.2645  1.0837  0.3932
 2451SOL    HW118815   2.338   0.403   1.994 -1.3618 -1.7541  1.1532
 2451SOL    HW218816   2.426   0.279   2.020  0.6814  0.7987 -0.2478
 2452SOL     OW18817   2.704   2.921   7.804  0.0875 -0.1139  0.0626
 2452SOL    HW118818   2.792   2.899   7.773 -0.7124  1.6603 -3.4781
 2452SOL    HW218819   2.705   2.945   7.896  0.1909 -0.5919  0.1831
 2453SOL     OW18820   4.554   4.367   5.337 -0.4171 -0.2295  0.2177
 2453SOL    HW118821   4.580   4.276   5.323  1.3107  0.4607 -1.0663
 2453SOL    HW218822   4.570   4.366   5.431 -0.9816  0.7425  0.3288
 2454SOL     OW18823   1.782   4.391  15.305 -0.5751 -0.3415 -0.9535
 2454SOL    HW118824   1.687   4.380  15.309 -0.1667 -3.0707  0.9565
 2454SOL    HW218825   1.801   4.327  15.237  1.6282  0.0089 -0.6692
 2455SOL     OW18826   0.047   0.280   3.426 -0.3641  0.5147  0.0829
 2455SOL    HW118827   0.053   0.373   3.449 -2.2453  0.4660  0.7543
 2455SOL    HW218828   0.101   0.283   3.348 -2.3951 -0.5511 -1.3721
 2456SOL     OW18829   4.606   1.936  11.712  0.1831  0.3607 -0.0766
 2456SOL    HW118830   4.562   1.954  11.795  0.6910  3.2435 -0.4260
 2456SOL    HW218831   4.670   1.875  11.749 -2.0152 -0.3335  2.5082
 2457SOL     OW18832   0.769   0.806   7.587 -0.4086  0.3992 -0.6604
 2457SOL    HW118833   0.733   0.769   7.668 -0.5958 -0.1743 -1.0048
 2457SOL    HW218834   0.826   0.736   7.555 -1.0940 -1.7094  2.7075
 2458SOL     OW18835   2.782   2.735   3.442  0.6262  0.1699 -0.2768
 2458SOL    HW118836   2.801   2.771   3.356  0.2617  1.6027  0.2404
 2458SOL    HW218837   2.767   2.808   3.503  1.7438  0.4754 -0.3716
 2459SOL     OW18838   0.164   1.430  15.039  0.7009 -0.6617  0.6622
 2459SOL    HW118839   0.200   1.514  15.068  0.4269 -0.7036  1.1187
 2459SOL    HW218840   0.227   1.398  14.975  0.7188  1.1968 -0.2439
 2460SOL     OW18841   2.371   0.232   0.580  0.3414  0.1680 -0.3783
 2460SOL    HW118842   2.324   0.150   0.566  0.9218 -0.1377 -0.5038
 2460SOL    HW218843   2.325   0.285   0.514 -1.4179 -0.3675  0.4016
 2461SOL     OW18844   4.719   3.895   5.077  0.2490 -0.3768  0.1552
 2461SOL    HW118845   0.000   3.935   4.990 -0.9106 -0.0244  0.2498
 2461SOL    HW218846   4.663   3.820   5.058 -0.7158  0.1442  0.9322
 2462SOL     OW18847   0.746   0.095   8.782  0.2598  0.6028  0.0443
 2462SOL    HW118848   0.696   0.023   8.744 -0.5481  1.5490 -0.6613
 2462SOL    HW218849   0.692   0.171   8.762  0.6292  0.2700 -2.1975
 2463SOL     OW18850   0.005   4.114  17.136 -0.2135  0.2565 -0.1037
 2463SOL    HW118851   4.658   4.051  17.151 -0.4929  0.8339  1.0384
 2463SOL    HW218852   0.035   4.139  17.223  1.5919  1.9938 -1.2375
 2464SOL     OW18853   1.907   4.686   3.937 -0.3730  0.1012  0.7097
 2464SOL    HW118854   1.958   4.681   3.856 -0.5559  1.0530  0.5342
 2464SOL    HW218855   1.820   4.668   3.900 -0.2995 -2.0149  1.5680
 2465SOL     OW18856   0.970   0.762  12.370  0.3753 -0.2246 -0.3124
 2465SOL    HW118857   1.039   0.695  12.373 -0.0664 -0.6662  0.1198
 2465SOL    HW218858   1.015   0.838  12.407 -4.5810  1.5966  1.9841
 2466SOL     OW18859   0.099   2.098   4.225  0.0695 -0.0852 -0.0944
 2466SOL    HW118860   0.064   2.101   4.136 -1.0580  1.2883  0.3899
 2466SOL    HW218861   0.173   2.040   4.208 -0.3795 -0.6808  0.0050
 2467SOL     OW18862   4.304   0.259   3.578  0.3283  0.8793  0.4912
 2467SOL    HW118863   4.320   0.165   3.568  1.3441  1.1964 -0.8726
 2467SOL    HW218864   4.364   0.286   3.508 -0.6533 -0.7042 -0.9694
 2468SOL     OW18865   3.102   2.183   1.689 -0.1370 -0.3797  0.2783
 2468SOL    HW118866   3.192   2.197   1.662 -0.3095 -0.0390 -0.1240
 2468SOL    HW218867   3.096   2.089   1.672  0.0613 -0.0271 -1.7042
 2469SOL     OW18868   2.947   0.757  17.019  0.0978 -0.4403 -0.5763
 2469SOL    HW118869   2.985   0.829  16.969  2.2486 -0.7494  0.6220
 2469SOL    HW218870   3.006   0.752  17.094  2.6463  0.1975 -2.5147
 2470SOL     OW18871   1.249   3.325   3.111 -0.3448  0.1935 -0.6194
 2470SOL    HW118872   1.177   3.377   3.076 -0.8076  0.3402  0.5659
 2470SOL    HW218873   1.210   3.299   3.194  0.5462  2.3088  0.4710
 2471SOL     OW18874   2.893   0.565   6.256 -0.0287 -0.2020  0.2388
 2471SOL    HW118875   2.942   0.509   6.195 -0.2759 -1.0789  0.8547
 2471SOL    HW218876   2.882   0.644   6.202  0.3027 -0.9098 -0.8825
 2472SOL     OW18877   3.565   4.104   6.975 -0.1599  0.1314  0.1631
 2472SOL    HW118878   3.645   4.057   6.950  0.0192 -0.6403  2.2163
 2472SOL    HW218879   3.505   4.075   6.906  2.3370  1.0392 -2.3519
 2473SOL     OW18880   4.481   2.276   0.332 -0.3655  0.2860  0.2784
 2473SOL    HW118881   4.401   2.242   0.291  0.5527 -0.5930 -0.7961
 2473SOL    HW218882   4.464   2.282   0.426 -0.6794 -1.8745  0.3678
 2474SOL     OW18883   1.481   3.849  14.688 -0.3412  0.6978  0.2495
 2474SOL    HW118884   1.526   3.855  14.604  1.0610 -1.4787  0.8208
 2474SOL    HW218885   1.396   3.891  14.676  0.3051  2.3484  1.4329
 2475SOL     OW18886   1.563   2.678  11.390 -0.1356 -0.4619  0.1313
 2475SOL    HW118887   1.483   2.634  11.418 -0.7293  0.8184  0.4654
 2475SOL    HW218888   1.549   2.693  11.297 -0.2887  1.7663  0.5209
 2476SOL     OW18889   2.453   3.982   4.210  0.3360 -0.1282 -0.4769
 2476SOL    HW118890   2.424   3.933   4.287 -0.3872 -0.1184 -0.7485
 2476SOL    HW218891   2.480   4.066   4.248  1.2991 -0.6994  0.1035
 2477SOL     OW18892   3.896   0.963  16.320  0.7045  0.5871  0.2503
 2477SOL    HW118893   3.806   0.994  16.310  0.7821  0.6429 -0.2756
 2477SOL    HW218894   3.896   0.991  16.412 -0.1240  2.5420 -0.3424
 2478SOL     OW18895   0.721   2.385   6.887  0.0372  0.1923 -0.4492
 2478SOL    HW118896   0.718   2.348   6.975 -1.8005  0.1042 -0.5501
 2478SOL    HW218897   0.794   2.447   6.892 -0.1828  0.3871  0.3672
 2479SOL     OW18898   4.050   2.614   7.845  0.3580 -0.2742  1.1864
 2479SOL    HW118899   4.006   2.532   7.821  0.4755  0.2702 -0.8767
 2479SOL    HW218900   4.132   2.602   7.797 -0.5158  1.5355 -0.7533
 2480SOL     OW18901   0.131   3.937   4.008  0.2587  0.3514  0.2754
 2480SOL    HW118902   0.171   3.850   4.017 -1.0124 -0.4037 -1.4759
 2480SOL    HW218903   0.144   3.953   3.915 -0.7850 -0.5302 -0.0235
 2481SOL     OW18904   0.671   1.516   3.555  0.4186  0.0422 -0.1583
 2481SOL    HW118905   0.640   1.473   3.475  0.3737  0.0282 -0.1333
 2481SOL    HW218906   0.590   1.510   3.606 -0.2194  1.4920 -0.9772
 2482SOL     OW18907   3.621   3.080   3.285  0.3571 -0.2856  0.4744
 2482SOL    HW118908   3.716   3.092   3.278  0.0272  2.6346  1.1688
 2482SOL    HW218909   3.598   3.144   3.352  3.4489 -1.0639  2.3062
 2483SOL     OW18910   1.577   2.996   0.036 -0.4340  0.6300 -0.1152
 2483SOL    HW118911   1.528   2.943   0.099 -0.2644  0.0756 -0.4402
 2483SOL    HW218912   1.569   3.076   0.087  0.9376  1.7107 -1.6092
 2484SOL     OW18913   0.588   2.251   3.553  0.1190 -0.4599 -0.6284
 2484SOL    HW118914   0.506   2.246   3.602  0.5885 -1.3692  0.0599
 2484SOL    HW218915   0.638   2.184   3.598 -2.1684 -0.2362  2.2427
 2485SOL     OW18916   1.298   4.359   1.055 -0.0554 -0.1876 -0.3159
 2485SOL    HW118917   1.235   4.407   1.110 -2.0817 -0.6487 -2.2434
 2485SOL    HW218918   1.234   4.331   0.990  0.1209  0.4213 -0.7540
 2486SOL     OW18919   1.688   0.494   8.274  0.1244  0.1120 -0.4506
 2486SOL    HW118920   1.717   0.420   8.327  0.5395 -1.8976 -3.4352
 2486SOL    HW218921   1.767   0.536   8.242 -0.8904  0.2061 -2.8765
 2487SOL     OW18922   1.755   2.630  11.589 -0.5034 -0.0661  0.0552
 2487SOL    HW118923   1.738   2.537  11.572  2.0788 -0.7873  1.3127
 2487SOL    HW218924   1.705   2.663  11.515  0.5597  1.3457 -0.0382
 2488SOL     OW18925   0.892   1.301   4.475  0.2742 -0.0800  0.0903
 2488SOL    HW118926   0.933   1.247   4.542  0.7467  1.5123  1.0768
 2488SOL    HW218927   0.967   1.310   4.416 -0.1163  2.1976 -0.0443
 2489SOL     OW18928   4.650   2.245   6.279 -0.9949  0.2468 -0.1690
 2489SOL    HW118929   4.614   2.157   6.266 -1.2634  0.6003 -1.8879
 2489SOL    HW218930   0.020   2.224   6.283 -1.2469 -0.5843  1.5682
 2490SOL     OW18931   4.722   3.077   9.193 -0.1469 -0.5122 -0.3661
 2490SOL    HW118932   0.027   2.986   9.194  0.2286 -0.3692  1.4761
 2490SOL    HW218933   0.073   3.128   9.225 -1.1361  0.3527  0.5838
 2491SOL     OW18934   4.610   0.675   6.226 -0.1495 -0.5207 -0.5624
 2491SOL    HW118935   4.690   0.640   6.188  0.7125  0.9577 -0.0905
 2491SOL    HW218936   4.656   0.721   6.296  2.7642 -2.0716 -1.4575
 2492SOL     OW18937   2.622   0.136   3.600 -0.5137 -0.1862  0.0179
 2492SOL    HW118938   2.682   0.132   3.675 -1.0956  1.1001  0.5372
 2492SOL    HW218939   2.640   0.058   3.547  0.4849  0.9189 -1.2615
 2493SOL     OW18940   1.979   0.172   0.531 -0.5817 -0.3028  0.4787
 2493SOL    HW118941   2.022   0.124   0.602  0.0710 -1.3883 -0.6528
 2493SOL    HW218942   1.888   0.160   0.558 -0.6264 -1.6854 -0.2501
 2494SOL     OW18943   0.115   4.417  17.578  0.0087 -0.6085 -0.3380
 2494SOL    HW118944   0.207   4.408  17.604  0.2028  1.8079 -0.1704
 2494SOL    HW218945   0.108   4.512  17.565  0.2493 -0.6473 -0.7720
 2495SOL     OW18946   0.597   2.176   5.870  0.1779  0.6302 -0.2856
 2495SOL    HW118947   0.659   2.229   5.819 -1.1418  1.2469 -1.2342
 2495SOL    HW218948   0.521   2.194   5.815 -0.0122  1.5378  0.2763
 2496SOL     OW18949   4.043   3.654   6.675  0.2840 -0.7675  0.1060
 2496SOL    HW118950   4.119   3.597   6.658 -1.4753 -2.7466 -1.1552
 2496SOL    HW218951   3.975   3.589   6.657  0.3473 -1.0078  0.7203
 2497SOL     OW18952   1.924   0.144   8.774 -0.4603 -0.0280 -0.2399
 2497SOL    HW118953   1.866   0.154   8.850 -0.8419 -2.1320 -0.2548
 2497SOL    HW218954   1.933   0.233   8.740  0.6342 -0.0972 -0.1268
 2498SOL     OW18955   2.195   0.584  14.637 -0.0994 -0.1570 -0.0406
 2498SOL    HW118956   2.133   0.588  14.564  0.8281 -1.4169 -0.8965
 2498SOL    HW218957   2.270   0.626  14.596 -0.4314 -0.2733 -0.7593
 2499SOL     OW18958   3.997   1.594   3.371  0.5012  0.1357  0.0759
 2499SOL    HW118959   3.991   1.656   3.298 -2.1455  3.0174  2.7800
 2499SOL    HW218960   3.933   1.530   3.338 -0.5284  1.2817 -0.1298
 2500SOL     OW18961   0.035   2.744   7.076 -0.1560 -0.5357  0.0865
 2500SOL    HW118962   0.010   2.653   7.062 -0.5995  0.3001 -4.6750
 2500SOL    HW218963   0.099   2.731   7.146 -0.6853  0.5132  0.7633
 2501SOL     OW18964   0.696   1.259  12.074  0.5264  0.1708 -0.0655
 2501SOL    HW118965   0.778   1.281  12.117 -0.1760  0.2215  1.2667
 2501SOL    HW218966   0.698   1.326  12.006 -1.4087  0.9397  0.6434
 2502SOL     OW18967   3.533   2.997  16.869  0.0707  0.4799 -0.7267
 2502SOL    HW118968   3.481   3.042  16.801 -0.0662  0.4230 -0.6597
 2502SOL    HW218969   3.491   3.007  16.954  1.9594 -0.1710  0.2661
 2503SOL     OW18970   3.619   2.245  15.520 -0.1411 -0.1241  0.3522
 2503SOL    HW118971   3.616   2.179  15.589 -0.4173  1.1983  1.5843
 2503SOL    HW218972   3.565   2.210  15.449 -1.6071 -0.8864  1.8611
 2504SOL     OW18973   4.640   4.429   4.408  0.3840  0.0284  0.0748
 2504SOL    HW118974   4.620   4.435   4.315 -0.1183 -1.3313  0.0955
 2504SOL    HW218975   4.631   4.336   4.430 -0.8156  0.0549 -0.3056
 2505SOL     OW18976   3.419   2.993   4.267  0.0155  0.2983 -0.0306
 2505SOL    HW118977   3.411   2.993   4.362  2.7918 -2.2241  0.2117
 2505SOL    HW218978   3.416   2.898   4.251  0.8968  0.1592  0.6110
 2506SOL     OW18979   3.640   0.441   2.225 -0.5427 -0.1457 -0.0236
 2506SOL    HW118980   3.733   0.419   2.225 -0.2279  1.1632  0.5148
 2506SOL    HW218981   3.619   0.448   2.132 -0.0864 -0.3171 -0.1358
 2507SOL     OW18982   2.078   2.096   6.842  0.2876  0.2038 -0.3997
 2507SOL    HW118983   2.032   2.013   6.829  1.1605 -0.2334 -0.6982
 2507SOL    HW218984   2.156   2.084   6.788  0.0396 -1.6266 -0.3461
 2508SOL     OW18985   4.019   1.337   4.914  0.2380  0.4296 -0.2339
 2508SOL    HW118986   3.926   1.320   4.923  0.5431 -0.8375  0.5314
 2508SOL    HW218987   4.026   1.429   4.937  0.8724  0.0407  1.1373
 2509SOL     OW18988   2.018   4.035   5.182 -0.5189 -0.2003 -0.0993
 2509SOL    HW118989   2.046   3.976   5.252 -0.1564  1.0281  0.7968
 2509SOL    HW218990   1.933   3.997   5.164 -1.0555  1.9901 -2.2298
 2510SOL     OW18991   0.701   4.058   8.726  0.3542  0.2702  0.0107
 2510SOL    HW118992   0.774   4.109   8.761 -1.1492  0.7859  2.3924
 2510SOL    HW218993   0.743   3.996   8.666 -1.7976 -0.4570 -0.7386
 2511SOL     OW18994   1.182   3.416   7.568  0.2367 -0.1069 -0.0380
 2511SOL    HW118995   1.101   3.464   7.584  1.2607  0.5864  3.0217
 2511SOL    HW218996   1.170   3.335   7.618 -1.5075  0.6854  0.8119
 2512SOL     OW18997   0.454   3.467   1.255 -0.2379  0.1664  0.1912
 2512SOL    HW118998   0.544   3.500   1.249 -0.0920 -0.4029 -0.7776
 2512SOL    HW218999   0.460   3.375   1.278 -1.4211 -0.4128 -1.8705
 2513SOL     OW19000   1.366   1.833   6.254  0.1531 -0.2045  0.5237
 2513SOL    HW119001   1.423   1.844   6.178 -2.1014  0.8735 -1.0219
 2513SOL    HW219002   1.418   1.879   6.320 -1.4407  1.7556  0.4288
 2514SOL     OW19003   1.090   4.567   1.523  0.0704  0.6069 -0.7997
 2514SOL    HW119004   1.153   4.629   1.559  2.6528 -2.2097 -0.4098
 2514SOL    HW219005   1.008   4.605   1.552  0.5204  1.0792 -0.1561
 2515SOL     OW19006   3.758   3.117   5.413 -0.6017  0.8914 -0.3435
 2515SOL    HW119007   3.708   3.099   5.333 -0.7094 -0.8200  0.1074
 2515SOL    HW219008   3.696   3.124   5.485  0.9909  0.0046  1.1168
 2516SOL     OW19009   2.757   1.808   9.056  0.3935  0.4892  0.1261
 2516SOL    HW119010   2.745   1.715   9.036 -0.2696  0.2715  1.5294
 2516SOL    HW219011   2.704   1.858   8.995 -0.1394  1.0496  1.0457
 2517SOL     OW19012   1.297   1.507   5.977 -0.4659  0.6302 -0.6098
 2517SOL    HW119013   1.274   1.448   5.905  3.1676  0.2163 -1.4620
 2517SOL    HW219014   1.262   1.588   5.941  2.1641  1.2581 -1.7682
 2518SOL     OW19015   4.412   3.918  16.787  0.2458 -0.0178 -0.2015
 2518SOL    HW119016   4.479   3.976  16.822 -0.1620 -0.6562  1.6372
 2518SOL    HW219017   4.390   3.964  16.706  1.1484  1.7398  0.5365
 2519SOL     OW19018   2.174   1.330   0.739 -0.2113 -0.1078 -0.3661
 2519SOL    HW119019   2.139   1.419   0.749 -3.4755 -1.5199  0.5492
 2519SOL    HW219020   2.089   1.293   0.717 -1.7502  0.4794  4.4943
 2520SOL     OW19021   4.453   1.416   5.424 -0.5034  0.0618  0.3660
 2520SOL    HW119022   4.518   1.480   5.455 -1.0336  0.9531 -0.3548
 2520SOL    HW219023   4.487   1.330   5.447 -1.0699  0.3951  2.4762
 2521SOL     OW19024   1.934   3.835   4.273 -0.5419  0.1544  0.4067
 2521SOL    HW119025   1.954   3.846   4.366 -0.7092  1.4616  0.2992
 2521SOL    HW219026   2.020   3.827   4.230  1.4528  2.7185  3.9105
 2522SOL     OW19027   2.830   1.138   4.946 -0.0243 -1.0281  0.0135
 2522SOL    HW119028   2.808   1.059   4.897  2.1903 -1.3109 -0.5133
 2522SOL    HW219029   2.904   1.167   4.892  0.1474  1.1609  1.4184
 2523SOL     OW19030   1.730   3.315  16.639  0.4659 -0.4061 -0.3412
 2523SOL    HW119031   1.804   3.348  16.588  0.5183 -1.4466 -0.9268
 2523SOL    HW219032   1.749   3.354  16.724 -1.4845  0.8736 -0.4792
 2524SOL     OW19033   1.439   1.614   7.769 -0.4438 -0.1112 -0.6445
 2524SOL    HW119034   1.509   1.557   7.735 -0.2111 -0.4273  0.3668
 2524SOL    HW219035   1.479   1.650   7.848 -2.2149  0.1381  0.1210
 2525SOL     OW19036   0.910   3.947   5.850 -0.2799  0.1228 -0.0462
 2525SOL    HW119037   0.898   3.855   5.874 -2.0121  0.2698 -0.3449
 2525SOL    HW219038   0.841   3.968   5.786 -1.4324  0.2397  1.2401
 2526SOL     OW19039   1.847   4.481  14.955  0.0104 -0.8954 -0.1318
 2526SOL    HW119040   1.866   4.553  15.016 -1.4121  1.3997 -2.4008
 2526SOL    HW219041   1.769   4.446  14.997 -0.4579  1.1033  0.7005
 2527SOL     OW19042   2.548   1.740  17.577  0.1391 -0.0906  0.6652
 2527SOL    HW119043   2.599   1.660  17.586 -0.3355 -0.3934  0.6873
 2527SOL    HW219044   2.474   1.711  17.631 -1.9319  2.5071 -0.7226
 2528SOL     OW19045   4.646   1.897   8.240  0.0222  0.1414  0.0056
 2528SOL    HW119046   4.587   1.927   8.170 -0.2954 -1.3398 -0.3560
 2528SOL    HW219047   4.593   1.846   8.301 -1.4186 -0.8943 -2.1108
 2529SOL     OW19048   3.122   1.633   6.439  0.8753  0.0263 -0.1712
 2529SOL    HW119049   3.095   1.542   6.427  1.3361 -0.4243  2.2690
 2529SOL    HW219050   3.030   1.656   6.452  0.0727 -2.4401 -1.3055
 2530SOL     OW19051   1.698   3.436  10.291 -0.4456  0.0592 -0.1177
 2530SOL    HW119052   1.758   3.494  10.337  1.6103 -3.1097  1.1964
 2530SOL    HW219053   1.738   3.350  10.305  0.5306  0.4257 -0.7281
 2531SOL     OW19054   2.384   1.529   2.040  0.3371 -0.2777 -0.6312
 2531SOL    HW119055   2.460   1.546   1.985  1.1745  0.2435  0.6802
 2531SOL    HW219056   2.309   1.548   1.983 -1.5365 -1.4614  1.3993
 2532SOL     OW19057   1.220   3.806   2.889  0.0473  0.4146 -0.3454
 2532SOL    HW119058   1.128   3.802   2.860  0.6488 -0.0435 -2.1990
 2532SOL    HW219059   1.208   3.801   2.984 -2.7785 -1.2483 -0.7679
 2533SOL     OW19060   0.618   2.661   9.479  0.0329  0.5001 -0.4367
 2533SOL    HW119061   0.533   2.704   9.466 -1.3555 -1.5652  1.7141
 2533SOL    HW219062   0.662   2.716   9.544  0.2266 -0.8715  0.5911
 2534SOL     OW19063   4.420   1.119   5.267 -0.5548  0.5646  0.3209
 2534SOL    HW119064   4.457   1.192   5.218  0.9094  0.7683  1.7610
 2534SOL    HW219065   4.327   1.143   5.269 -0.5254  0.7458 -0.4500
 2535SOL     OW19066   1.199   2.908   3.159 -0.3379 -0.3420 -0.1074
 2535SOL    HW119067   1.167   2.838   3.215  0.0634  0.1685  0.7610
 2535SOL    HW219068   1.289   2.911   3.191 -1.3192  0.4616  2.5732
 2536SOL     OW19069   3.343   3.074   4.528 -0.0720  0.4252  0.3601
 2536SOL    HW119070   3.255   3.110   4.515 -0.2840 -0.4206 -0.5742
 2536SOL    HW219071   3.392   3.155   4.536 -0.2200  0.5113  0.4032
 2537SOL     OW19072   0.568   2.622   4.922  0.2304 -1.1317 -0.0208
 2537SOL    HW119073   0.543   2.690   4.861 -0.4111 -1.0487  0.3422
 2537SOL    HW219074   0.519   2.546   4.892  1.1380 -1.8700  0.3382
 2538SOL     OW19075   0.583   3.894   1.653 -0.7315 -0.2793 -0.0541
 2538SOL    HW119076   0.490   3.878   1.635 -0.0991 -0.6815 -2.9710
 2538SOL    HW219077   0.620   3.928   1.572  0.4698 -2.7165 -0.5271
 2539SOL     OW19078   2.699   2.878   9.133  0.1694 -0.3686 -0.2022
 2539SOL    HW119079   2.747   2.961   9.130 -1.2258  0.5537  3.6496
 2539SOL    HW219080   2.663   2.871   9.221  0.2470  0.5730 -0.0938
 2540SOL     OW19081   2.371   0.563   1.500  0.1620 -0.0694 -0.3237
 2540SOL    HW119082   2.276   0.551   1.501  0.0887  0.5014 -0.3960
 2540SOL    HW219083   2.384   0.607   1.416 -1.2635 -1.5096 -1.2940
 2541SOL     OW19084   2.179   0.983   2.570 -0.1172  0.1758  0.0381
 2541SOL    HW119085   2.085   0.999   2.564 -0.3374 -0.2660  2.4173
 2541SOL    HW219086   2.222   1.068   2.567 -0.0892  0.0968 -1.9899
 2542SOL     OW19087   4.542   0.191   9.158 -0.4222  0.1277  0.0159
 2542SOL    HW119088   4.600   0.151   9.223 -0.7769 -0.8169 -0.2369
 2542SOL    HW219089   4.598   0.259   9.122 -0.3675 -0.9885 -2.0093
 2543SOL     OW19090   3.562   3.618   2.867  0.3509 -0.8687 -0.1113
 2543SOL    HW119091   3.482   3.579   2.904  1.0488 -1.4328  0.8154
 2543SOL    HW219092   3.552   3.709   2.894 -0.1697 -1.3208  1.2202
 2544SOL     OW19093   2.179   1.191   6.095  0.1915  0.3055 -0.5030
 2544SOL    HW119094   2.097   1.148   6.069 -1.7300  2.1320  2.5011
 2544SOL    HW219095   2.142   1.278   6.109  0.5055  0.4468 -0.5519
 2545SOL     OW19096   2.209   1.245   8.525  0.4757 -0.7583  0.2508
 2545SOL    HW119097   2.135   1.209   8.574 -0.2919  0.6200  0.1314
 2545SOL    HW219098   2.284   1.218   8.577  1.2377  1.0345  0.0990
 2546SOL     OW19099   2.566   4.261  16.325 -0.5313 -0.3689  0.5301
 2546SOL    HW119100   2.598   4.267  16.234  1.0806 -0.9018  1.0573
 2546SOL    HW219101   2.634   4.204  16.362  0.5831  1.0608  0.6972
 2547SOL     OW19102   3.498   1.865  11.398  0.5601 -0.0758 -0.2033
 2547SOL    HW119103   3.588   1.897  11.410  0.9207 -1.7125  1.4539
 2547SOL    HW219104   3.441   1.904  11.464 -0.1509 -3.4327  1.1612
 2548SOL     OW19105   4.118   4.068   1.843 -0.5210 -0.2292  0.3333
 2548SOL    HW119106   4.194   4.027   1.802 -1.7420 -0.6701 -1.5275
 2548SOL    HW219107   4.125   4.017   1.924 -0.1017  0.7145  0.8876
 2549SOL     OW19108   2.876   3.151   4.071  0.4229 -0.7751  0.2566
 2549SOL    HW119109   2.935   3.153   3.996 -0.3947  0.4664 -0.3458
 2549SOL    HW219110   2.798   3.186   4.028  1.5679 -1.7202 -2.5562
 2550SOL     OW19111   1.896   2.055   4.078  0.2293 -0.3302  0.8763
 2550SOL    HW119112   1.806   2.071   4.051  0.1035 -0.1236  1.4294
 2550SOL    HW219113   1.909   2.138   4.124  1.5479 -1.4102  2.4422
 2551SOL     OW19114   4.356   4.209   4.998 -0.3941 -0.2362 -0.2521
 2551SOL    HW119115   4.310   4.127   4.977 -0.9442  0.1679 -0.6436
 2551SOL    HW219116   4.325   4.243   5.082  1.3645 -0.3766  0.4485
 2552SOL     OW19117   2.899   4.448   6.341 -0.4224 -0.2809  0.5626
 2552SOL    HW119118   2.805   4.435   6.349 -0.3656  0.4133  2.1807
 2552SOL    HW219119   2.932   4.415   6.424  0.2591 -0.7166  0.1238
 2553SOL     OW19120   2.066   3.555   3.220 -0.1414 -0.0783 -0.0972
 2553SOL    HW119121   2.030   3.567   3.132 -1.7170 -1.1912  0.4096
 2553SOL    HW219122   2.159   3.550   3.197  0.1686 -0.0273  1.1245
 2554SOL     OW19123   3.523   2.427  17.491  0.3691 -0.1929 -0.1036
 2554SOL    HW119124   3.560   2.397  17.574  1.0476 -1.9673 -1.0351
 2554SOL    HW219125   3.471   2.351  17.464  0.3325 -0.1926 -0.0326
 2555SOL     OW19126   4.648   4.595  14.146 -0.4011  0.3340 -0.3812
 2555SOL    HW119127   4.571   4.612  14.201 -0.9542 -1.3986 -0.6308
 2555SOL    HW219128   4.701   4.550  14.212 -1.0569  2.1199  1.3916
 2556SOL     OW19129   4.176   4.288   3.976 -0.4299  0.1136 -0.4550
 2556SOL    HW119130   4.191   4.370   4.023 -2.0496  0.4367 -0.5147
 2556SOL    HW219131   4.255   4.240   4.002 -1.1509 -0.2215  1.1003
 2557SOL     OW19132   3.704   2.455   1.852 -0.0921 -0.5313 -0.0429
 2557SOL    HW119133   3.788   2.499   1.848 -0.5544  0.4015  0.4913
 2557SOL    HW219134   3.647   2.532   1.859 -0.7996 -0.9863 -0.7192
 2558SOL     OW19135   4.579   3.913  11.849  0.0409 -0.2873 -0.3361
 2558SOL    HW119136   4.595   3.845  11.914  0.8397 -1.3265 -1.6225
 2558SOL    HW219137   4.665   3.952  11.836 -1.0671  1.4582 -2.4872
 2559SOL     OW19138   0.354   1.359  14.864 -0.3745 -0.2220 -0.1548
 2559SOL    HW119139   0.449   1.352  14.861 -0.3153 -0.2079  1.9147
 2559SOL    HW219140   0.335   1.270  14.836 -1.5345  0.1800 -0.6816
 2560SOL     OW19141   4.713   0.486   4.302 -0.1658 -0.8958 -0.0448
 2560SOL    HW119142   4.685   0.554   4.364 -0.6146 -1.0052 -0.1280
 2560SOL    HW219143   4.649   0.493   4.231 -2.2350 -1.8437  1.7520
 2561SOL     OW19144   2.388   4.168  10.233 -0.4013 -0.1068  0.3142
 2561SOL    HW119145   2.392   4.264  10.242 -1.7536  0.2137 -2.5353
 2561SOL    HW219146   2.293   4.164  10.221 -0.5814 -1.2133  2.1713
 2562SOL     OW19147   4.647   0.207   4.125  0.4816  0.5486  0.5602
 2562SOL    HW119148   0.002   0.154   4.136 -0.8637 -2.0728 -2.2039
 2562SOL    HW219149   4.614   0.207   4.215  0.8839 -0.7637  0.7129
 2563SOL     OW19150   2.321   1.982   3.116  0.0151 -0.2834  0.8877
 2563SOL    HW119151   2.413   1.993   3.091 -0.0501 -0.5471  0.5438
 2563SOL    HW219152   2.291   1.925   3.045 -4.6933 -0.4355  3.0310
 2564SOL     OW19153   1.996   2.166   6.103 -0.1680 -0.3037 -0.5325
 2564SOL    HW119154   1.902   2.183   6.112  0.2831  1.1445  1.3697
 2564SOL    HW219155   2.046   2.202   6.176 -1.0166 -3.1251  1.4497
 2565SOL     OW19156   2.694   3.478   6.551  0.0456  0.3523  0.6023
 2565SOL    HW119157   2.654   3.534   6.484 -0.6353 -1.6788 -0.6741
 2565SOL    HW219158   2.772   3.533   6.565  1.0944 -1.0662  0.3725
 2566SOL     OW19159   4.379   3.724   5.849 -0.6207  0.2714 -0.4787
 2566SOL    HW119160   4.293   3.684   5.839  0.8297 -3.0346  0.0471
 2566SOL    HW219161   4.362   3.742   5.942  0.8343 -1.9060  0.2373
 2567SOL     OW19162   1.250   1.998   5.584 -0.3778 -0.4873 -0.1153
 2567SOL    HW119163   1.233   2.080   5.538  1.7559  0.6678  1.1990
 2567SOL    HW219164   1.163   1.957   5.584 -0.7971  0.3934  0.1366
 2568SOL     OW19165   1.226   4.324   5.996  0.0152  0.2887  0.3808
 2568SOL    HW119166   1.203   4.257   6.061 -0.5461  1.5480  1.4767
 2568SOL    HW219167   1.272   4.380   6.058 -2.2353  0.9410  1.4610
 2569SOL     OW19168   1.605   2.851   4.945  0.2274 -0.0447 -0.5539
 2569SOL    HW119169   1.656   2.901   5.008 -2.0631  1.7842 -0.1955
 2569SOL    HW219170   1.615   2.762   4.980  0.3619  0.4251  0.6125
 2570SOL     OW19171   1.524   2.926  11.492  0.2858  0.4588 -0.2943
 2570SOL    HW119172   1.615   2.948  11.507  0.4601 -0.1719 -0.4111
 2570SOL    HW219173   1.523   2.830  11.486 -1.2644  0.4436  0.1393
 2571SOL     OW19174   2.501   4.227   4.302 -0.3120 -0.6173  0.0043
 2571SOL    HW119175   2.483   4.195   4.390 -1.9700  0.7307  0.1394
 2571SOL    HW219176   2.528   4.316   4.324 -1.5720 -0.1142 -0.5007
 2572SOL     OW19177   3.320   0.634   3.468 -0.1322  0.3240 -0.1758
 2572SOL    HW119178   3.355   0.712   3.425 -2.0904  2.3869  1.9699
 2572SOL    HW219179   3.263   0.681   3.528 -1.3736  2.0774 -2.7375
 2573SOL     OW19180   2.069   1.320   3.230 -0.4959 -0.3712 -0.0062
 2573SOL    HW119181   2.047   1.361   3.146 -0.0850  0.4624  0.2961
 2573SOL    HW219182   2.056   1.396   3.286  1.4758  0.5083 -0.7253
 2574SOL     OW19183   0.757   0.146   2.248  0.2535 -0.2789  0.2361
 2574SOL    HW119184   0.794   0.230   2.275 -0.7860  1.1116 -2.6374
 2574SOL    HW219185   0.836   0.104   2.214 -0.6738 -2.2275  0.4972
 2575SOL     OW19186   2.368   1.100   9.889  0.4165  0.0754 -0.2218
 2575SOL    HW119187   2.340   1.010   9.908 -0.7863  0.4069 -0.4323
 2575SOL    HW219188   2.289   1.152   9.905  1.7343  1.1967  2.6729
 2576SOL     OW19189   4.224   1.765   8.859  0.5896 -0.3495  0.5461
 2576SOL    HW119190   4.205   1.745   8.951  1.4101 -0.2495  0.7395
 2576SOL    HW219191   4.288   1.695   8.852  0.2149 -0.7567  1.2161
 2577SOL     OW19192   4.356   0.006   5.520  0.0817  0.1884 -0.2210
 2577SOL    HW119193   4.306   4.714   5.440 -2.2358  0.9979  1.0789
 2577SOL    HW219194   4.283   0.027   5.578  1.2420 -0.8433  1.6353
 2578SOL     OW19195   4.382   2.372   9.010  0.0203  0.3108 -0.5058
 2578SOL    HW119196   4.369   2.364   9.105  0.2786 -0.5682 -0.5478
 2578SOL    HW219197   4.453   2.310   8.995  2.4773  1.9016  4.5084
 2579SOL     OW19198   2.532   0.726   0.757  0.6748  0.2040 -0.2173
 2579SOL    HW119199   2.519   0.633   0.740  0.5878  0.6247 -2.4590
 2579SOL    HW219200   2.573   0.751   0.673  0.9447  0.4947 -0.0008
 2580SOL     OW19201   3.959   3.071   6.149  0.1715  0.1831 -0.5996
 2580SOL    HW119202   3.873   3.099   6.180 -0.2155 -1.5626 -0.0814
 2580SOL    HW219203   3.967   3.116   6.065  1.9851  0.7502 -0.1177
 2581SOL     OW19204   3.340   4.592  15.410  0.2122  0.4015 -0.8452
 2581SOL    HW119205   3.341   4.549  15.496 -0.5667  1.0618 -0.5077
 2581SOL    HW219206   3.299   4.526  15.354 -0.5513  0.2688 -0.1296
 2582SOL     OW19207   0.038   4.042   4.828 -0.5771 -0.1261 -0.6841
 2582SOL    HW119208   4.719   4.110   4.879 -0.1318 -0.1377 -0.2935
 2582SOL    HW219209   0.066   4.105   4.761  0.0520 -1.7857 -1.9779
 2583SOL     OW19210   0.089   0.106   7.239 -0.6213 -0.1478  0.0274
 2583SOL    HW119211   0.105   0.086   7.331  1.5677 -1.2210 -0.5882
 2583SOL    HW219212   0.086   0.019   7.198 -0.3416 -0.1115 -0.0695
 2584SOL     OW19213   2.090   1.473   8.445 -0.1409  0.5180 -0.2636
 2584SOL    HW119214   2.003   1.456   8.482 -0.4992  0.7024 -1.0103
 2584SOL    HW219215   2.138   1.409   8.497 -1.9563 -0.7676 -0.1725
 2585SOL     OW19216   4.530   0.985   4.217  0.2896  0.0451 -0.2443
 2585SOL    HW119217   4.471   0.947   4.153  0.1493  0.2546 -0.2428
 2585SOL    HW219218   4.597   1.024   4.161  0.9620 -1.9511 -0.8242
 2586SOL     OW19219   2.323   0.782  12.099 -0.1386 -0.2933 -0.1629
 2586SOL    HW119220   2.350   0.695  12.067 -2.2529 -1.2298  0.5829
 2586SOL    HW219221   2.390   0.828  12.048  0.7513  2.1695  3.2453
 2587SOL     OW19222   0.747   2.840   6.483  0.6519  0.1049  0.3690
 2587SOL    HW119223   0.801   2.831   6.561  2.5870  0.5779 -0.9186
 2587SOL    HW219224   0.682   2.903   6.513 -0.0044  0.2737 -1.4417
 2588SOL     OW19225   0.681   3.478  11.261  0.3565 -0.3398 -0.1362
 2588SOL    HW119226   0.748   3.547  11.260 -1.8463  1.8167 -0.3381
 2588SOL    HW219227   0.605   3.536  11.270  0.9064  0.1584  1.2669
 2589SOL     OW19228   2.904   2.966  12.221 -0.7413 -0.0465 -0.2579
 2589SOL    HW119229   2.949   2.898  12.171  0.0775  0.5361 -0.3146
 2589SOL    HW219230   2.904   3.041  12.160 -1.0945 -0.7609 -1.1357
 2590SOL     OW19231   2.915   2.775   1.367  0.2665  0.3879  0.4953
 2590SOL    HW119232   2.920   2.819   1.452 -0.8223 -1.4734  1.5269
 2590SOL    HW219233   2.850   2.706   1.379  0.8191  0.2050  2.4758
 2591SOL     OW19234   2.791   1.289  10.852 -0.1667  0.3029 -0.1578
 2591SOL    HW119235   2.837   1.283  10.936 -2.0723 -0.7397  0.7982
 2591SOL    HW219236   2.704   1.258  10.878 -0.1819 -0.0517 -0.6210
 2592SOL     OW19237   1.099   4.034   7.004  0.3554  0.1442 -0.4396
 2592SOL    HW119238   1.025   4.070   7.052  2.3771 -0.6244  3.2679
 2592SOL    HW219239   1.139   4.119   6.985 -0.2401  0.7099  0.8600
 2593SOL     OW19240   4.616   0.618  17.038  0.3138  0.3966  0.4728
 2593SOL    HW119241   4.534   0.592  17.080 -0.1603 -1.8117 -1.8227
 2593SOL    HW219242   4.676   0.633  17.111  0.8586 -0.8113  0.2701
 2594SOL     OW19243   1.540   4.519   7.814  0.1594  0.3664  0.0524
 2594SOL    HW119244   1.548   4.503   7.720  0.1979  0.5996  0.0137
 2594SOL    HW219245   1.567   4.611   7.818 -1.6019  0.9372 -0.8782
 2595SOL     OW19246   1.993   1.103   5.365  0.6012 -0.7472 -0.2987
 2595SOL    HW119247   2.030   1.025   5.322  4.0027 -0.1225  1.5479
 2595SOL    HW219248   1.955   1.054   5.437  0.0080  2.9653  1.8904
 2596SOL     OW19249   4.460   2.016  16.374  0.1221  0.4920  0.8463
 2596SOL    HW119250   4.396   1.946  16.362  1.1376 -0.4623  1.0394
 2596SOL    HW219251   4.416   2.096  16.345  0.8078  0.3606 -0.5649
 2597SOL     OW19252   3.826   2.016   4.587 -0.0396  0.3140 -0.2129
 2597SOL    HW119253   3.880   2.095   4.592 -0.5078  0.5238  1.5368
 2597SOL    HW219254   3.878   1.950   4.634 -0.7551 -0.8739 -1.0931
 2598SOL     OW19255   0.998   3.974   8.251 -0.0585 -0.4624  0.1787
 2598SOL    HW119256   0.919   3.950   8.204 -1.0344 -0.3777  1.7664
 2598SOL    HW219257   1.048   4.035   8.197 -1.6555  1.5543  1.0066
 2599SOL     OW19258   1.411   3.821   2.309 -0.2881 -0.0627 -0.1262
 2599SOL    HW119259   1.380   3.787   2.393  0.9804 -1.5573 -0.2466
 2599SOL    HW219260   1.469   3.747   2.288  0.7453  0.8407 -0.4505
 2600SOL     OW19261   0.068   1.413   2.806  0.4347  0.1210 -0.1760
 2600SOL    HW119262   0.111   1.477   2.862 -0.7283  0.9164 -0.1977
 2600SOL    HW219263   4.706   1.404   2.847  0.6645 -1.0916  0.0397
 2601SOL     OW19264   2.300   2.114   3.835  0.3464  0.2201  0.5727
 2601SOL    HW119265   2.333   2.177   3.771 -0.3007 -0.0084  0.0121
 2601SOL    HW219266   2.210   2.104   3.803  1.3910  1.4578 -2.7734
 2602SOL     OW19267   2.458   0.993  15.301  0.2227  0.0340  0.3608
 2602SOL    HW119268   2.373   1.000  15.345 -0.4198 -0.2488 -0.8424
 2602SOL    HW219269   2.508   0.923  15.344  1.7171  0.7302 -0.2354
 2603SOL     OW19270   2.279   0.044   6.594 -0.2916  0.4944 -0.3633
 2603SOL    HW119271   2.346   0.109   6.574  2.2595 -1.4099  1.9854
 2603SOL    HW219272   2.219   0.097   6.647  0.9509 -0.7605  2.3311
 2604SOL     OW19273   4.115   4.147   4.669  0.2863  0.5006 -0.3452
 2604SOL    HW119274   4.100   4.095   4.590  2.7284 -0.8191  0.0693
 2604SOL    HW219275   4.026   4.165   4.699 -1.0388 -1.5355 -3.0471
 2605SOL     OW19276   4.229   2.032  12.245  0.2414  0.3750 -0.1054
 2605SOL    HW119277   4.157   2.054  12.186 -1.9388 -0.8423  2.1369
 2605SOL    HW219278   4.280   1.984  12.180  1.5580  1.1658  0.3297
 2606SOL     OW19279   1.035   2.134   4.478 -0.1702 -0.3954  0.2219
 2606SOL    HW119280   0.996   2.202   4.533 -1.3303 -0.5399 -0.4160
 2606SOL    HW219281   0.959   2.100   4.432 -0.7109  0.6469  0.3426
 2607SOL     OW19282   2.370   2.699   8.620  0.0740  0.0287  0.1714
 2607SOL    HW119283   2.337   2.680   8.708 -2.3381  1.9188 -0.3510
 2607SOL    HW219284   2.390   2.791   8.636  1.9268 -0.1193 -1.2964
 2608SOL     OW19285   1.732   1.359   7.854  0.5492  0.1421  0.9276
 2608SOL    HW119286   1.782   1.439   7.873 -0.6208  0.5749  2.1393
 2608SOL    HW219287   1.689   1.333   7.935 -1.0667  0.0200  0.0306
 2609SOL     OW19288   0.062   3.537   7.222  0.3498  0.2603 -0.1186
 2609SOL    HW119289   0.095   3.470   7.162 -1.8851 -0.7944 -0.1788
 2609SOL    HW219290   0.102   3.615   7.183  0.8780 -0.8874 -1.8691
 2610SOL     OW19291   0.479   2.159   1.566 -0.5396 -0.4031  0.5670
 2610SOL    HW119292   0.504   2.093   1.502 -0.5363 -0.8420  1.0289
 2610SOL    HW219293   0.460   2.232   1.506  0.5067  0.2679  1.0421
 2611SOL     OW19294   4.317   3.104   5.172  0.0314  0.1846  0.0841
 2611SOL    HW119295   4.309   3.148   5.087  0.8639 -0.1700 -0.1776
 2611SOL    HW219296   4.264   3.025   5.166 -0.0115  0.3446 -1.8515
 2612SOL     OW19297   1.098   1.115   5.938 -0.0785 -0.5735  0.5248
 2612SOL    HW119298   1.018   1.073   5.908 -0.1238  0.8765 -1.4375
 2612SOL    HW219299   1.141   1.116   5.853  1.7584 -0.8690  1.4647
 2613SOL     OW19300   4.451   2.429   1.861 -0.1626  0.1474 -0.2768
 2613SOL    HW119301   4.534   2.448   1.904 -0.3355  0.7817 -0.2201
 2613SOL    HW219302   4.403   2.509   1.881 -0.2195 -0.2555  1.1703
 2614SOL     OW19303   3.734   2.173   8.347  0.1819 -0.2344 -0.1305
 2614SOL    HW119304   3.711   2.148   8.258  0.4059  0.6821 -0.4401
 2614SOL    HW219305   3.746   2.267   8.340  2.0218 -0.4112  0.5101
 2615SOL     OW19306   2.299   2.001  10.331 -0.6330 -0.1333  0.4657
 2615SOL    HW119307   2.214   1.962  10.348 -1.7508  1.1007 -2.3329
 2615SOL    HW219308   2.282   2.095  10.323 -2.2597 -0.5210 -0.4779
 2616SOL     OW19309   3.398   2.594   0.256 -0.2761  0.1688 -0.2919
 2616SOL    HW119310   3.445   2.548   0.186 -0.6072 -0.3379 -0.1715
 2616SOL    HW219311   3.375   2.678   0.216 -0.6723 -1.1582 -2.8688
 2617SOL     OW19312   1.107   2.188   2.595 -0.4099  0.2622 -0.3248
 2617SOL    HW119313   1.071   2.101   2.579 -0.5757  0.1824  0.4810
 2617SOL    HW219314   1.168   2.189   2.521 -1.7586 -0.9258 -1.4331
 2618SOL     OW19315   0.001   1.174   6.886  0.7731 -0.2748  0.4269
 2618SOL    HW119316   4.716   1.143   6.976  0.2332 -1.0737  0.1002
 2618SOL    HW219317   0.095   1.188   6.876  0.5136  0.2806 -1.2253
 2619SOL     OW19318   4.002   4.321  12.408  0.6080  0.4063 -0.1315
 2619SOL    HW119319   4.097   4.332  12.413  0.7180  0.0710 -1.5284
 2619SOL    HW219320   3.986   4.416  12.402 -1.6341  0.1028  1.3250
 2620SOL     OW19321   2.914   2.052   8.991  0.0473  0.6712  0.5795
 2620SOL    HW119322   2.874   2.084   9.072 -1.0884  1.1898 -0.1871
 2620SOL    HW219323   2.873   1.965   8.986 -0.2400  1.0375 -3.0825
 2621SOL     OW19324   2.911   1.488   6.756  0.1715  0.0321  0.2881
 2621SOL    HW119325   2.837   1.547   6.742 -0.6213 -1.4551 -1.6322
 2621SOL    HW219326   2.955   1.497   6.672  0.3008 -0.4194  0.3101
 2622SOL     OW19327   2.984   0.984  13.033 -0.0343  0.5087 -0.0653
 2622SOL    HW119328   2.962   0.915  13.095 -0.7122  0.4655 -0.3524
 2622SOL    HW219329   2.901   1.028  13.017  0.2305  1.2214  0.5593
 2623SOL     OW19330   2.175   3.128   7.548  0.3276 -0.2481 -0.4886
 2623SOL    HW119331   2.097   3.157   7.500  0.6183 -0.3559 -1.0253
 2623SOL    HW219332   2.136   3.045   7.575 -0.5016 -0.1859 -1.4612
 2624SOL     OW19333   2.278   1.478   3.963 -0.3532 -0.3164  0.3845
 2624SOL    HW119334   2.369   1.495   3.984 -0.2407  1.2394 -1.3645
 2624SOL    HW219335   2.232   1.524   4.033  2.5695  1.7336  0.9477
 2625SOL     OW19336   0.075   2.949  10.929  0.3149 -0.6119 -0.0503
 2625SOL    HW119337   0.078   3.026  10.872 -1.1695  0.2663  1.0849
 2625SOL    HW219338   4.708   2.924  10.915  0.6193 -1.0904 -1.1874
 2626SOL     OW19339   1.073   4.305   1.520 -0.0383 -0.1413  0.3273
 2626SOL    HW119340   1.058   4.396   1.543 -1.2061 -0.9071  2.7067
 2626SOL    HW219341   0.991   4.282   1.476  0.2297 -2.2472  0.9018
 2627SOL     OW19342   2.347   2.799  10.218 -0.3459  0.4805 -0.4443
 2627SOL    HW119343   2.393   2.730  10.169 -0.5187 -0.2295  0.3980
 2627SOL    HW219344   2.381   2.801  10.307  0.0336 -2.4252 -0.5163
 2628SOL     OW19345   2.322   0.856   8.609 -0.1240  0.1783 -0.1661
 2628SOL    HW119346   2.322   0.840   8.703 -0.8061  1.0302 -0.0214
 2628SOL    HW219347   2.252   0.801   8.575  0.4907 -1.2756  0.9546
 2629SOL     OW19348   4.366   1.509  14.379 -0.0328 -0.1222 -0.5900
 2629SOL    HW119349   4.345   1.598  14.407  0.2925 -0.8392  1.9154
 2629SOL    HW219350   4.459   1.500  14.400  0.0998  1.1089 -0.6676
 2630SOL     OW19351   2.345   2.451   8.137  0.1505 -0.3740  0.1362
 2630SOL    HW119352   2.352   2.518   8.205 -0.1212  1.2565 -1.4541
 2630SOL    HW219353   2.419   2.480   8.084  1.3863 -0.5749  1.7524
 2631SOL     OW19354   1.092   3.778   1.955 -0.1809  1.0778 -0.0639
 2631SOL    HW119355   1.167   3.830   1.984  0.2463  0.1908  0.4232
 2631SOL    HW219356   1.097   3.692   1.997 -0.5206 -0.7528 -3.7324
 2632SOL     OW19357   2.270   2.173  11.807 -0.5356  0.6872 -0.8084
 2632SOL    HW119358   2.209   2.202  11.739 -1.5283  1.9519  0.6303
 2632SOL    HW219359   2.342   2.236  11.798  0.6542 -0.3712  1.3728
 2633SOL     OW19360   4.569   2.879   7.735 -0.4757 -0.0809  0.6467
 2633SOL    HW119361   4.566   2.799   7.786  2.6625 -0.0643  0.8775
 2633SOL    HW219362   4.663   2.899   7.738 -0.7345  1.1329  0.5666
 2634SOL     OW19363   3.274   0.563   6.921 -0.0177  0.0313 -0.1436
 2634SOL    HW119364   3.200   0.552   6.863 -1.6050 -0.3014  1.9352
 2634SOL    HW219365   3.272   0.476   6.961 -1.1345  0.8556  1.6115
 2635SOL     OW19366   3.765   0.070  14.163 -0.8161  0.2413  0.3798
 2635SOL    HW119367   3.677   0.043  14.137  0.2018 -0.8076 -1.9785
 2635SOL    HW219368   3.801   4.713  14.200  2.1003  1.4266  0.1233
 2636SOL     OW19369   1.304   2.536   6.368 -0.1536 -0.1535  0.1363
 2636SOL    HW119370   1.346   2.614   6.333 -1.0062 -0.4443 -1.5226
 2636SOL    HW219371   1.224   2.520   6.318 -0.1173 -1.0558  0.3702
 2637SOL     OW19372   4.706   3.762   1.844  0.5118  0.1284 -0.9718
 2637SOL    HW119373   0.035   3.787   1.768  1.7572  1.0691  0.2146
 2637SOL    HW219374   4.673   3.846   1.873  0.7428 -0.1719  0.1875
 2638SOL     OW19375   0.041   0.646   7.827 -0.1793 -0.5955  0.2475
 2638SOL    HW119376   0.130   0.636   7.862  0.3753 -0.4631 -1.1108
 2638SOL    HW219377   4.717   0.640   7.910  0.8922  2.7448  1.1141
 2639SOL     OW19378   1.064   0.643  14.634 -0.1392 -0.3929  0.0733
 2639SOL    HW119379   1.027   0.652  14.546 -0.5112  3.9431  0.6837
 2639SOL    HW219380   1.040   0.712  14.696 -0.6178  1.3594 -2.0468
 2640SOL     OW19381   2.464   2.947  16.821  0.2351 -0.2824 -0.0257
 2640SOL    HW119382   2.418   2.981  16.744 -1.8450 -0.6436  1.0906
 2640SOL    HW219383   2.410   2.982  16.891 -0.1819  0.2103 -0.5902
 2641SOL     OW19384   0.158   3.645   8.966 -0.8863 -0.2818 -0.0502
 2641SOL    HW119385   0.119   3.715   9.018 -1.8201  0.2125 -1.4383
 2641SOL    HW219386   0.087   3.581   8.959 -0.2430 -0.7767 -2.0087
 2642SOL     OW19387   2.948   1.816   3.066 -0.1391 -0.0284 -0.2406
 2642SOL    HW119388   2.992   1.819   2.981 -0.1252 -1.2713 -0.2794
 2642SOL    HW219389   2.967   1.905   3.096 -1.1556  0.1932 -0.2426
 2643SOL     OW19390   4.162   2.617  16.336  0.7115  0.4838  0.0700
 2643SOL    HW119391   4.088   2.557  16.344  0.7842  0.5335  1.1212
 2643SOL    HW219392   4.136   2.706  16.363 -0.7156  0.3612 -0.9099
 2644SOL     OW19393   1.898   2.165  14.773 -0.1786  0.0749  0.6017
 2644SOL    HW119394   1.903   2.085  14.720 -1.2450  1.0359 -0.9709
 2644SOL    HW219395   1.989   2.193  14.781 -0.7978  2.2490 -0.0881
 2645SOL     OW19396   4.684   1.568   5.522  0.3957  0.6032 -0.4183
 2645SOL    HW119397   0.051   1.596   5.536 -0.2241  1.5806  1.6749
 2645SOL    HW219398   4.662   1.525   5.604  1.1416  1.1292  0.0589
 2646SOL     OW19399   0.668   4.490   4.386 -0.3497  0.5106  0.0466
 2646SOL    HW119400   0.609   4.563   4.404 -2.1539 -1.3489  1.7244
 2646SOL    HW219401   0.724   4.483   4.464  2.0015 -1.4134 -1.8145
 2647SOL     OW19402   4.353   0.751  11.902  0.2388  0.0543  0.2583
 2647SOL    HW119403   4.330   0.813  11.832  2.6382  1.5447  0.8072
 2647SOL    HW219404   4.412   0.696  11.849 -0.0611  0.1600 -0.1920
 2648SOL     OW19405   3.758   1.883  10.116 -0.6185 -0.0894 -0.4373
 2648SOL    HW119406   3.764   1.861  10.209  3.2126 -0.4822 -0.8029
 2648SOL    HW219407   3.806   1.810  10.077  3.0524  2.1808 -0.0900
 2649SOL     OW19408   4.046   2.456  11.051 -0.3386 -0.6772  0.1017
 2649SOL    HW119409   4.098   2.534  11.036 -2.1944  0.4636 -0.3447
 2649SOL    HW219410   4.073   2.401  10.978 -1.7978  1.1625 -1.7913
 2650SOL     OW19411   1.626   2.957   8.694  0.4535  0.3308  0.1632
 2650SOL    HW119412   1.673   2.957   8.777  1.6870  1.1727 -0.5239
 2650SOL    HW219413   1.561   3.025   8.709  1.5261  1.5638 -0.6522
 2651SOL     OW19414   3.315   2.462   4.113 -0.3434  0.0065  0.7700
 2651SOL    HW119415   3.410   2.462   4.103 -0.4057  0.5398  0.1550
 2651SOL    HW219416   3.298   2.390   4.053  0.5108  0.7991 -0.4119
 2652SOL     OW19417   1.314   4.446   8.632 -0.1867  0.5552  0.6367
 2652SOL    HW119418   1.373   4.521   8.641 -0.3307  0.5003  2.1067
 2652SOL    HW219419   1.361   4.385   8.575  0.3903 -0.2305  1.9486
 2653SOL     OW19420   4.463   3.116   7.827  0.4392  0.1886 -0.4405
 2653SOL    HW119421   4.476   3.085   7.917  3.7518 -0.2138 -1.0606
 2653SOL    HW219422   4.490   3.036   7.781 -1.4768 -1.9735  2.2070
 2654SOL     OW19423   2.041   1.258   1.464 -0.0654  0.2399 -0.3035
 2654SOL    HW119424   2.133   1.243   1.442 -0.8011 -4.9046 -0.0319
 2654SOL    HW219425   2.000   1.257   1.378  0.8789  1.1024 -0.7556
 2655SOL     OW19426   1.711   1.632  14.436  0.5591  0.4731  0.1576
 2655SOL    HW119427   1.785   1.655  14.378 -0.3102 -1.3847 -1.6978
 2655SOL    HW219428   1.756   1.563  14.484  0.1192  0.4437  0.5241
 2656SOL     OW19429   3.718   3.635   7.034 -0.1295 -0.2530  0.2200
 2656SOL    HW119430   3.802   3.668   7.001 -0.3870  1.4163  1.2116
 2656SOL    HW219431   3.707   3.697   7.107  4.7751  1.3738 -0.4194
 2657SOL     OW19432   4.207   2.838   9.045  0.5287 -0.6406 -0.1134
 2657SOL    HW119433   4.168   2.762   9.001  1.1195 -0.0563 -1.6356
 2657SOL    HW219434   4.208   2.907   8.979 -0.7932 -0.5957 -0.0810
 2658SOL     OW19435   1.978   0.750   6.861 -0.4008  0.4051  0.2651
 2658SOL    HW119436   1.988   0.656   6.878 -1.3695  0.6144  2.0053
 2658SOL    HW219437   1.895   0.746   6.814 -0.0435 -0.8692 -0.2632
 2659SOL     OW19438   3.226   3.754   9.958 -0.5187 -0.1238  0.0448
 2659SOL    HW119439   3.301   3.777  10.012 -0.3698 -2.4874  0.8199
 2659SOL    HW219440   3.249   3.785   9.870  1.0491 -0.7955  0.2415
 2660SOL     OW19441   3.677   4.064   7.763 -0.6389  0.2890 -0.4293
 2660SOL    HW119442   3.599   4.111   7.732  0.7617  2.1582 -1.0938
 2660SOL    HW219443   3.664   3.972   7.739  1.1998 -0.0695 -0.0127
 2661SOL     OW19444   0.813   2.921   4.500 -0.3141  0.0796  0.8141
 2661SOL    HW119445   0.772   3.008   4.500  0.3714  0.3950 -1.3763
 2661SOL    HW219446   0.825   2.903   4.407  1.1296 -2.9935  1.6056
 2662SOL     OW19447   0.289   1.509  12.122 -0.1956 -0.0166 -0.0809
 2662SOL    HW119448   0.348   1.536  12.052  0.6493  2.2424  1.4827
 2662SOL    HW219449   0.317   1.420  12.142 -2.4059 -0.8155 -0.5812
 2663SOL     OW19450   0.871   0.548   8.309  0.6702  0.5200  0.3184
 2663SOL    HW119451   0.955   0.534   8.352  1.7548 -0.6008 -2.1872
 2663SOL    HW219452   0.839   0.460   8.326  1.2828 -0.1573 -2.0666
 2664SOL     OW19453   0.148   1.768   8.223 -0.3505 -0.3636  0.2026
 2664SOL    HW119454   0.057   1.799   8.225  0.0667  0.7761  1.6141
 2664SOL    HW219455   0.142   1.680   8.259 -0.1287 -0.1553  0.7374
 2665SOL     OW19456   4.402   0.517   4.543  0.0635  0.2940  0.4858
 2665SOL    HW119457   4.427   0.449   4.480 -1.5402 -0.1978  0.3810
 2665SOL    HW219458   4.463   0.583   4.511  0.3809 -1.1553 -1.9715
 2666SOL     OW19459   0.157   1.428   5.148  0.5991 -0.3193  0.1947
 2666SOL    HW119460   0.221   1.457   5.083 -0.0352 -0.4095 -0.4689
 2666SOL    HW219461   0.072   1.428   5.104  2.0026 -1.6465 -2.5100
 2667SOL     OW19462   2.439   3.283   2.031 -0.6200  0.5946  0.0046
 2667SOL    HW119463   2.521   3.300   2.078 -1.0205  1.4255  0.4056
 2667SOL    HW219464   2.460   3.212   1.970 -1.1783 -2.4734  3.3737
 2668SOL     OW19465   1.680   0.562   2.016 -0.6236 -0.3096  0.1787
 2668SOL    HW119466   1.746   0.501   2.051 -0.5048  0.4525  1.3050
 2668SOL    HW219467   1.731   0.641   1.995  0.1756 -0.5574  1.1409
 2669SOL     OW19468   3.336   2.675   6.374  0.1413  0.1989 -0.2039
 2669SOL    HW119469   3.323   2.587   6.408  1.0663  0.2677  0.3323
 2669SOL    HW219470   3.333   2.727   6.454  0.2526 -0.3627  0.1645
 2670SOL     OW19471   1.582   0.585  11.823  0.5253 -0.0234  0.9434
 2670SOL    HW119472   1.605   0.649  11.755 -0.9216 -0.9209 -0.3946
 2670SOL    HW219473   1.555   0.644  11.894 -2.8592 -0.8098  0.2954
 2671SOL     OW19474   3.532   0.517   8.942  0.0266  0.5391 -0.3533
 2671SOL    HW119475   3.627   0.512   8.951 -0.0951  2.2981  1.8651
 2671SOL    HW219476   3.517   0.428   8.974  2.5328 -1.2320 -4.1131
 2672SOL     OW19477   3.328   1.923   9.783  0.6606 -0.4099  0.2595
 2672SOL    HW119478   3.403   1.890   9.832 -0.7499 -0.3796  2.4330
 2672SOL    HW219479   3.367   1.934   9.696  0.7563  0.5434  0.4176
 2673SOL     OW19480   3.194   1.344   7.065 -0.2392 -0.1775  0.6072
 2673SOL    HW119481   3.146   1.415   7.023  1.2341  0.9182  0.7510
 2673SOL    HW219482   3.217   1.381   7.150  2.2965 -0.4727  0.0521
 2674SOL     OW19483   3.169   1.413   8.831  0.2211 -0.4758 -0.3731
 2674SOL    HW119484   3.126   1.380   8.753  0.1393 -1.8979  0.2813
 2674SOL    HW219485   3.184   1.327   8.869  1.0271 -0.6483 -1.0865
 2675SOL     OW19486   4.694   1.491  14.127  0.2585 -0.3752  0.4122
 2675SOL    HW119487   0.056   1.460  14.155  0.9424 -1.1860 -2.5922
 2675SOL    HW219488   4.701   1.467  14.035 -1.1612 -1.0048  0.4562
 2676SOL     OW19489   0.016   2.583   4.043  0.1747 -0.6594  0.0746
 2676SOL    HW119490   0.089   2.571   4.103  0.3839  0.2154 -0.0039
 2676SOL    HW219491   4.667   2.576   4.105  0.4891 -0.2442  0.4864
 2677SOL     OW19492   1.527   0.330   5.927 -0.1526 -0.3297  0.2695
 2677SOL    HW119493   1.593   0.275   5.886 -2.8878 -1.6885 -2.3768
 2677SOL    HW219494   1.461   0.262   5.943 -2.9617  2.8592  2.1593
 2678SOL     OW19495   3.604   4.385   0.771  0.0888 -0.0442  0.0637
 2678SOL    HW119496   3.671   4.453   0.770 -0.7936  0.8575  1.0113
 2678SOL    HW219497   3.531   4.445   0.756  0.7088  0.8222  0.5248
 2679SOL     OW19498   0.188   1.579   9.439 -0.2488 -0.6794 -0.0029
 2679SOL    HW119499   0.180   1.483   9.437 -0.3007 -0.6565 -1.1123
 2679SOL    HW219500   0.238   1.595   9.519  1.4209 -0.1686 -1.1494
 2680SOL     OW19501   4.599   0.600  16.177 -0.2666 -0.3171 -0.0773
 2680SOL    HW119502   4.622   0.692  16.170  1.7313 -0.7441  0.8306
 2680SOL    HW219503   4.544   0.597  16.255 -3.8595  0.5504 -2.5898
 2681SOL     OW19504   2.208   0.228  10.898  0.1219 -0.8451 -0.1540
 2681SOL    HW119505   2.297   0.198  10.914  0.3090  0.4069  1.1720
 2681SOL    HW219506   2.174   0.184  10.976  0.1454  2.1253  1.5358
 2682SOL     OW19507   3.795   4.712   3.261  0.3356  0.3536  0.2972
 2682SOL    HW119508   3.721   4.660   3.230  0.1717  0.7830 -0.0258
 2682SOL    HW219509   3.850   4.649   3.307  1.4112  0.9796 -0.1184
 2683SOL     OW19510   3.322   3.410  10.977 -0.0164  0.0243 -0.3052
 2683SOL    HW119511   3.367   3.417  10.893  0.8809  2.2481  0.3702
 2683SOL    HW219512   3.400   3.420  11.032  1.1949 -0.1695 -1.9910
 2684SOL     OW19513   2.586   3.393   3.834 -0.1713  0.3816 -0.2063
 2684SOL    HW119514   2.557   3.305   3.856  1.2922  0.2749  1.2790
 2684SOL    HW219515   2.679   3.397   3.855 -0.0415  0.9061 -0.8404
 2685SOL     OW19516   3.779   4.629   4.017  0.6369  0.6793  0.7798
 2685SOL    HW119517   3.729   4.551   3.991  1.0711  1.0555 -1.1838
 2685SOL    HW219518   3.861   4.595   3.982 -0.7155 -0.7681 -1.0030
 2686SOL     OW19519   3.897   3.295  11.114  0.7242 -0.1033 -0.2544
 2686SOL    HW119520   3.836   3.318  11.184  0.7006  2.5099 -1.1256
 2686SOL    HW219521   3.876   3.202  11.103  0.2176 -0.0599  0.3836
 2687SOL     OW19522   1.976   3.473  10.679  0.1816  0.6808 -0.5626
 2687SOL    HW119523   2.020   3.415  10.741 -2.4243  2.2728  2.7173
 2687SOL    HW219524   2.054   3.478  10.623 -0.0561 -2.9948 -1.2607
 2688SOL     OW19525   3.716   2.116   9.504 -0.4778 -0.0393  0.1619
 2688SOL    HW119526   3.752   2.194   9.462 -0.3974 -1.2514 -2.0101
 2688SOL    HW219527   3.768   2.043   9.469  1.2497  0.1667  2.2986
 2689SOL     OW19528   3.198   1.396   5.590  0.4140 -0.7105 -0.1542
 2689SOL    HW119529   3.277   1.374   5.640 -0.8990 -0.1834  2.1774
 2689SOL    HW219530   3.224   1.426   5.503 -0.3863  2.0625  0.5546
 2690SOL     OW19531   3.630   4.574   4.376  0.3404  0.3190  0.3558
 2690SOL    HW119532   3.698   4.640   4.366 -0.3186  0.8061 -0.9338
 2690SOL    HW219533   3.567   4.619   4.320  0.7569 -0.4381 -0.7146
 2691SOL     OW19534   2.293   2.962  15.449 -0.1142  0.1781  0.5959
 2691SOL    HW119535   2.308   2.969  15.543  1.9160  1.8778  0.1392
 2691SOL    HW219536   2.331   3.046  15.423 -2.4866  1.2965  0.7706
 2692SOL     OW19537   3.215   1.848   8.799  0.0517 -0.3867  0.3080
 2692SOL    HW119538   3.180   1.768   8.759  2.4841 -1.4934  0.3904
 2692SOL    HW219539   3.296   1.845   8.747 -0.1250 -0.9337  0.0597
 2693SOL     OW19540   1.093   2.703   5.112 -0.1539  0.5976 -0.2042
 2693SOL    HW119541   1.023   2.760   5.144 -1.7074 -1.2548 -0.2652
 2693SOL    HW219542   1.084   2.619   5.158  1.8240 -0.7156 -2.1835
 2694SOL     OW19543   0.503   1.899   3.064 -0.1837  0.1513  0.2471
 2694SOL    HW119544   0.437   1.968   3.055  0.7609  0.9463 -0.5733
 2694SOL    HW219545   0.476   1.835   2.999 -0.1243 -1.2512  1.6035
 2695SOL     OW19546   3.555   3.169   5.603 -0.1660  0.2041 -0.4063
 2695SOL    HW119547   3.473   3.141   5.563 -1.1564  1.5587  0.6977
 2695SOL    HW219548   3.510   3.207   5.679  1.5731  0.0703  0.6911
 2696SOL     OW19549   0.543   0.601   4.249  0.3187  0.0216  0.0498
 2696SOL    HW119550   0.450   0.595   4.227 -0.5415 -0.5352  3.7123
 2696SOL    HW219551   0.588   0.537   4.194 -2.4003 -1.0722 -0.9083
 2697SOL     OW19552   0.812   0.391  10.742  0.4244 -0.6436  0.2417
 2697SOL    HW119553   0.889   0.378  10.798  0.5172 -2.3329 -0.2789
 2697SOL    HW219554   0.846   0.431  10.662 -1.7070 -0.7412 -0.7153
 2698SOL     OW19555   0.866   2.672   4.069 -0.0188 -0.2341 -0.2236
 2698SOL    HW119556   0.880   2.579   4.052 -0.8244 -0.6245  1.3418
 2698SOL    HW219557   0.840   2.708   3.984  0.4280  1.7321  0.4698
 2699SOL     OW19558   2.582   1.991   2.997  0.2767 -0.4060  0.1474
 2699SOL    HW119559   2.641   1.976   2.923  1.2914  1.2817  0.6050
 2699SOL    HW219560   2.637   2.055   3.042  0.8679 -0.7703 -0.0528
 2700SOL     OW19561   3.032   3.658   3.207 -0.3456  0.0151 -0.2133
 2700SOL    HW119562   3.039   3.618   3.294  1.7981 -0.6527 -0.6842
 2700SOL    HW219563   3.009   3.582   3.153  0.8985  0.0505 -0.7856
 2701SOL     OW19564   4.214   0.290   6.936  0.0647  0.2789 -0.4607
 2701SOL    HW119565   4.235   0.212   6.987 -1.2965 -0.1620 -0.5775
 2701SOL    HW219566   4.255   0.366   6.978 -0.5971  0.6577 -0.5007
 2702SOL     OW19567   3.148   2.759  10.488 -0.2357 -0.1224 -0.2067
 2702SOL    HW119568   3.157   2.664  10.479 -0.4355 -0.1328 -0.3007
 2702SOL    HW219569   3.061   2.765  10.449 -0.6295 -0.6906  0.5838
 2703SOL     OW19570   2.993   3.451   3.066 -0.3521 -0.6491 -0.0895
 2703SOL    HW119571   2.935   3.384   3.104  0.1263 -0.0531  1.6915
 2703SOL    HW219572   2.981   3.439   2.972 -1.1256 -1.0342  0.0565
 2704SOL     OW19573   1.224   1.342   1.668 -0.3384  0.4071  0.0079
 2704SOL    HW119574   1.154   1.281   1.648 -0.5784  0.1381  1.6792
 2704SOL    HW219575   1.226   1.401   1.592  1.5562 -1.4807 -1.3905
 2705SOL     OW19576   1.041   0.309   4.861  0.1688 -0.3184  0.4490
 2705SOL    HW119577   0.981   0.315   4.935  0.5578  1.8953  0.5829
 2705SOL    HW219578   1.020   0.385   4.808 -0.3708  0.4670  1.7878
 2706SOL     OW19579   3.520   0.884   7.690  0.1009 -0.2078 -0.2370
 2706SOL    HW119580   3.544   0.953   7.628 -0.4428  0.7955  0.6715
 2706SOL    HW219581   3.495   0.945   7.759 -0.9744 -2.9217  1.7455
 2707SOL     OW19582   0.129   1.095  11.283  0.0801 -0.1830 -0.4442
 2707SOL    HW119583   0.195   1.127  11.344  0.7695 -3.2818  0.4129
 2707SOL    HW219584   0.110   1.174  11.233  2.5529  1.4658  1.1971
 2708SOL     OW19585   0.547   1.355   7.127 -0.0159  0.0684  0.3126
 2708SOL    HW119586   0.517   1.433   7.174 -0.7346  1.0059 -1.7049
 2708SOL    HW219587   0.581   1.300   7.198 -1.5669 -1.5797 -0.2215
 2709SOL     OW19588   4.219   2.640   1.854 -0.6359  0.0677 -0.1252
 2709SOL    HW119589   4.215   2.665   1.762 -1.1527  1.2265  0.2173
 2709SOL    HW219590   4.291   2.702   1.870 -1.8633  1.4352  0.0307
 2710SOL     OW19591   0.465   4.559   7.775  0.0405  0.3155  0.9554
 2710SOL    HW119592   0.529   4.581   7.843 -2.6252  0.6682  3.3452
 2710SOL    HW219593   0.420   4.486   7.817  0.8378 -0.9368 -0.3737
 2711SOL     OW19594   3.719   2.610   4.902 -0.9478 -0.9264 -0.5948
 2711SOL    HW119595   3.698   2.563   4.982 -0.2181  0.2237  0.2862
 2711SOL    HW219596   3.755   2.536   4.853 -2.6905 -2.6296  0.7161
 2712SOL     OW19597   2.132   0.326   3.189  0.0919  0.5649  0.3712
 2712SOL    HW119598   2.146   0.409   3.236 -1.5046  0.4976  0.9606
 2712SOL    HW219599   2.147   0.266   3.262 -0.0757 -0.8624 -0.7736
 2713SOL     OW19600   0.483   3.335   8.784 -0.3294  0.3566 -0.1519
 2713SOL    HW119601   0.467   3.363   8.694 -0.0166  1.9242  0.2749
 2713SOL    HW219602   0.397   3.338   8.825  0.5551  1.3873  1.6360
 2714SOL     OW19603   4.046   0.654  14.190 -0.3543  0.0320  0.6908
 2714SOL    HW119604   4.102   0.729  14.210 -1.9367  1.1660  0.8131
 2714SOL    HW219605   4.020   0.666  14.099  0.3421  2.0541  0.7646
 2715SOL     OW19606   2.921   0.303   5.432  0.0446 -0.0435  0.0695
 2715SOL    HW119607   3.004   0.276   5.392  1.1499  1.8095  1.1275
 2715SOL    HW219608   2.925   0.267   5.520 -2.1285 -1.9750 -0.6219
 2716SOL     OW19609   2.886   2.741   6.643  0.0399  0.1210  0.2452
 2716SOL    HW119610   2.936   2.725   6.563 -1.0004 -1.1619 -0.1511
 2716SOL    HW219611   2.912   2.830   6.668 -0.9237  0.9455 -1.6350
 2717SOL     OW19612   3.013   4.283  12.244 -0.0025 -0.0484  0.2580
 2717SOL    HW119613   3.040   4.219  12.310 -0.5200 -2.2850 -1.7074
 2717SOL    HW219614   3.085   4.266  12.183 -0.3724  1.2154 -0.5247
 2718SOL     OW19615   3.024   2.649  16.765 -0.3429  0.0793  0.5173
 2718SOL    HW119616   3.051   2.558  16.760 -0.6476  0.2041 -3.4395
 2718SOL    HW219617   2.997   2.649  16.857 -0.9142 -0.2609  0.3494
 2719SOL     OW19618   0.319   1.533   4.935 -0.0700 -0.0327 -0.0659
 2719SOL    HW119619   0.383   1.570   4.996  0.7599  0.9131 -1.5307
 2719SOL    HW219620   0.377   1.465   4.900  1.7792  0.4549  2.0152
 2720SOL     OW19621   3.977   3.505  13.376 -0.5044  0.4807 -0.5933
 2720SOL    HW119622   4.021   3.582  13.411  0.0958 -0.6032  1.0192
 2720SOL    HW219623   3.992   3.520  13.283 -0.6486 -2.8854 -1.1670
 2721SOL     OW19624   3.115   1.798   9.145  0.5226 -0.3076 -0.6926
 2721SOL    HW119625   3.168   1.833   9.074  0.7942  1.9464  0.6164
 2721SOL    HW219626   3.094   1.712   9.109 -0.2884 -1.0050  1.4393
 2722SOL     OW19627   3.129   3.120   7.890 -0.1529  0.1497  0.3418
 2722SOL    HW119628   3.214   3.162   7.878 -0.9334  0.7348 -3.1002
 2722SOL    HW219629   3.141   3.076   7.974  0.2758  1.9841  1.2412
 2723SOL     OW19630   4.424   2.164   6.977  0.2038  0.2173 -0.3859
 2723SOL    HW119631   4.436   2.184   7.070  0.4806 -0.2503 -0.3226
 2723SOL    HW219632   4.344   2.114   6.992  0.4452 -0.6485 -1.9627
 2724SOL     OW19633   3.195   4.333   6.701 -0.3116 -0.2406  1.0597
 2724SOL    HW119634   3.123   4.353   6.641 -0.3319 -1.9581  0.5355
 2724SOL    HW219635   3.256   4.407   6.697 -1.5342  0.5801 -2.2427
 2725SOL     OW19636   0.377   2.059   3.952 -0.1692 -0.1519 -0.1665
 2725SOL    HW119637   0.373   1.991   4.019 -1.7675  3.4665  3.3832
 2725SOL    HW219638   0.359   2.013   3.870 -3.2715 -0.5657  0.7872
 2726SOL     OW19639   1.172   4.218   1.953  0.3649 -0.3295  0.5752
 2726SOL    HW119640   1.220   4.173   1.883 -0.8866 -1.6323  0.5520
 2726SOL    HW219641   1.162   4.307   1.921  3.5052 -0.5692 -1.1374
 2727SOL     OW19642   2.141   4.273   0.585  0.0989  0.6545  0.5861
 2727SOL    HW119643   2.177   4.313   0.664 -3.1707  2.0925  1.3428
 2727SOL    HW219644   2.135   4.180   0.607 -0.7683  0.0125 -2.2264
 2728SOL     OW19645   3.852   4.169   2.417 -0.0922  0.3699 -0.6127
 2728SOL    HW119646   3.829   4.233   2.485 -1.2059 -0.2553 -0.4042
 2728SOL    HW219647   3.778   4.189   2.360 -1.4927  0.1377  1.1049
 2729SOL     OW19648   3.058   1.552   9.046  0.0630 -0.2588 -0.1030
 2729SOL    HW119649   3.024   1.475   9.092 -1.2558  0.5465  0.2695
 2729SOL    HW219650   3.122   1.507   8.991  0.2405 -1.7956  1.3630
 2730SOL     OW19651   4.370   0.839  13.181 -0.0512 -0.0279  0.2511
 2730SOL    HW119652   4.437   0.895  13.222 -0.9512 -0.7488  2.7139
 2730SOL    HW219653   4.371   0.877  13.093  1.2883 -4.1484 -1.5115
 2731SOL     OW19654   1.077   0.568  12.630 -0.0999  0.7718 -0.1643
 2731SOL    HW119655   1.086   0.484  12.676  1.5014  0.5342 -0.9054
 2731SOL    HW219656   1.079   0.538  12.539  0.0166 -1.4196  0.5597
 2732SOL     OW19657   1.350   3.267  12.809 -0.7452 -0.6681 -0.0913
 2732SOL    HW119658   1.414   3.309  12.866 -2.1125  0.0395  0.9052
 2732SOL    HW219659   1.373   3.174  12.816  0.3816 -0.3592  0.2456
 2733SOL     OW19660   2.298   1.747   2.962  0.1077 -0.1204  0.5234
 2733SOL    HW119661   2.369   1.685   2.944 -0.3669 -0.2259 -0.9703
 2733SOL    HW219662   2.240   1.703   3.025 -0.8190  1.7379  0.9810
 2734SOL     OW19663   1.378   4.288   2.530  0.1940  0.0040 -0.3495
 2734SOL    HW119664   1.346   4.202   2.557 -0.5699  0.3786 -0.0480
 2734SOL    HW219665   1.452   4.262   2.475  1.0177 -0.8328  1.1649
 2735SOL     OW19666   1.941   1.850  16.762 -0.4644 -0.0765 -0.8213
 2735SOL    HW119667   1.917   1.901  16.840 -1.1149 -2.1370  0.3249
 2735SOL    HW219668   1.989   1.784  16.811 -0.0846  0.8553  0.0713
 2736SOL     OW19669   0.174   0.832   7.008  0.3164 -0.3509 -0.3431
 2736SOL    HW119670   0.123   0.911   7.023  0.1356 -0.2129 -1.6587
 2736SOL    HW219671   0.180   0.776   7.086  0.6267  0.1366 -0.0209
 2737SOL     OW19672   3.227   4.022   2.035  0.4616  0.3683 -0.2643
 2737SOL    HW119673   3.290   3.964   1.991  0.0425  0.1626 -0.5974
 2737SOL    HW219674   3.278   4.094   2.071  0.4566 -0.4597  1.3893
 2738SOL     OW19675   0.830   0.049   4.546 -0.5808  0.2325  0.3048
 2738SOL    HW119676   0.880   0.071   4.624 -0.9145  0.8261  0.3505
 2738SOL    HW219677   0.744   0.061   4.584 -0.9981 -1.8404  0.0320
 2739SOL     OW19678   2.607   3.919   3.477 -0.3075 -0.5571  0.0711
 2739SOL    HW119679   2.543   3.921   3.547 -0.9867 -0.4145 -0.5541
 2739SOL    HW219680   2.550   3.933   3.401 -1.3068  0.7382  1.0541
 2740SOL     OW19681   3.221   3.340  11.762  0.0665 -0.1906  0.3660
 2740SOL    HW119682   3.164   3.283  11.709  1.3622 -1.1481 -0.0000
 2740SOL    HW219683   3.162   3.415  11.763 -0.9453 -0.9509 -0.7866
 2741SOL     OW19684   4.496   4.545   9.219  0.1400  0.1798  0.4074
 2741SOL    HW119685   4.550   4.559   9.141 -2.0443 -0.3544 -1.1951
 2741SOL    HW219686   4.415   4.562   9.172  0.2609  3.3377  1.3067
 2742SOL     OW19687   1.515   1.565   7.013 -0.2519  0.2218  0.1144
 2742SOL    HW119688   1.491   1.655   6.995  0.4690  0.5432  0.7417
 2742SOL    HW219689   1.430   1.522   7.027 -0.7705  1.1597 -0.1695
 2743SOL     OW19690   0.936   3.992   1.350  0.1992  0.3839  0.4595
 2743SOL    HW119691   0.999   4.001   1.422  0.8825 -1.0231  0.0324
 2743SOL    HW219692   0.989   3.975   1.272  1.3608  2.0805  0.8848
 2744SOL     OW19693   1.249   4.711  16.328  0.3662  0.0322  0.0437
 2744SOL    HW119694   1.343   4.711  16.345  0.2697 -0.5804  0.5879
 2744SOL    HW219695   1.215   4.660  16.402 -1.6010  0.9619 -0.2216
 2745SOL     OW19696   2.303   1.701   6.788 -0.8339  0.2176  0.0078
 2745SOL    HW119697   2.294   1.791   6.818 -0.1717  0.6622 -1.1546
 2745SOL    HW219698   2.217   1.678   6.825 -1.0136 -0.0891 -0.5991
 2746SOL     OW19699   1.638   1.075   7.954 -0.5849  0.5386  0.2463
 2746SOL    HW119700   1.585   1.096   7.877 -0.7892  2.4619  0.9157
 2746SOL    HW219701   1.724   1.096   7.919 -0.4366 -1.4654 -0.5718
 2747SOL     OW19702   2.102   3.413  15.699  0.6312 -0.0920 -0.6840
 2747SOL    HW119703   2.053   3.398  15.780 -0.7403 -1.2392 -1.7022
 2747SOL    HW219704   2.066   3.347  15.638  0.7147 -1.1493  0.4059
 2748SOL     OW19705   4.591   3.856   2.305  0.1858 -0.2882  0.8237
 2748SOL    HW119706   4.555   3.913   2.237  2.1353 -1.2184 -0.9874
 2748SOL    HW219707   4.648   3.915   2.354 -0.1464  2.0953 -1.6480
 2749SOL     OW19708   0.341   4.465   2.129 -0.6108 -0.8408  0.7260
 2749SOL    HW119709   0.417   4.520   2.111 -0.9572  0.6248  3.7506
 2749SOL    HW219710   0.268   4.508   2.084 -0.6214 -0.9321  0.6566
 2750SOL     OW19711   3.309   4.612   5.594 -0.3522 -0.2891 -0.7444
 2750SOL    HW119712   3.230   4.585   5.641  0.4743  1.0013  1.3794
 2750SOL    HW219713   3.368   4.627   5.669 -1.3606  0.4026 -0.0918
 2751SOL     OW19714   4.610   1.358   3.450  0.0078 -0.0813  0.2701
 2751SOL    HW119715   4.666   1.378   3.375 -0.5368  0.9634  0.1342
 2751SOL    HW219716   4.569   1.443   3.469  0.6658  0.0533  1.0693
 2752SOL     OW19717   2.610   1.323  16.521 -0.1453 -0.6024 -0.3286
 2752SOL    HW119718   2.671   1.265  16.567 -1.0436 -0.3323  1.1808
 2752SOL    HW219719   2.663   1.399  16.497  1.6588 -2.2969 -1.6942
 2753SOL     OW19720   2.109   3.044   3.000  0.4834  0.0021 -0.1852
 2753SOL    HW119721   2.137   3.073   3.087  2.0765  0.3144 -0.7894
 2753SOL    HW219722   2.015   3.027   3.009  0.5646 -1.1684 -1.4588
 2754SOL     OW19723   2.916   4.397   3.102  0.1294 -0.7709 -0.0449
 2754SOL    HW119724   2.906   4.305   3.125 -0.7011  0.7211  5.6694
 2754SOL    HW219725   2.887   4.381   3.013  0.9643 -2.6781  0.0352
 2755SOL     OW19726   1.297   0.613   1.872  0.0121  0.3941  0.0905
 2755SOL    HW119727   1.252   0.595   1.789 -1.4688  0.2929  0.9254
 2755SOL    HW219728   1.318   0.527   1.906  1.5557  1.1883  1.1391
 2756SOL     OW19729   0.420   2.278  13.017  0.3843  0.1375  0.5355
 2756SOL    HW119730   0.447   2.364  13.046 -0.0395  0.4971 -0.1293
 2756SOL    HW219731   0.487   2.225  13.059  1.3720  1.9083  1.1486
 2757SOL     OW19732   1.957   3.446  13.870  0.8931 -0.2941  0.8510
 2757SOL    HW119733   1.957   3.483  13.958  2.0975  3.4184 -0.7239
 2757SOL    HW219734   1.881   3.388  13.879  1.1863 -1.1448 -1.8527
 2758SOL     OW19735   2.097   2.711   8.112 -0.1178  0.2323  0.3461
 2758SOL    HW119736   2.053   2.629   8.133 -1.9775  0.7014 -1.7189
 2758SOL    HW219737   2.104   2.763   8.193  1.7553  2.6919 -1.4050
 2759SOL     OW19738   2.703   2.693   2.605 -0.2524  0.1009  0.4420
 2759SOL    HW119739   2.790   2.677   2.642 -0.0634 -0.4967 -0.2678
 2759SOL    HW219740   2.669   2.603   2.610 -2.0951  0.8410  1.1647
 2760SOL     OW19741   3.959   4.514   7.095 -0.2408  0.9398  0.0213
 2760SOL    HW119742   3.977   4.465   7.015  0.3518 -0.2415  0.8677
 2760SOL    HW219743   4.000   4.454   7.157  0.3121  2.3073  0.9984
 2761SOL     OW19744   4.350   4.085   5.676 -0.1940  0.2108  0.6551
 2761SOL    HW119745   4.381   4.005   5.634  0.4915  1.0598 -0.4481
 2761SOL    HW219746   4.288   4.043   5.735 -0.1215 -0.3299  0.3491
 2762SOL     OW19747   2.948   3.331   2.575  0.5515  0.3062 -0.8191
 2762SOL    HW119748   2.919   3.240   2.570 -1.2762  0.8354  0.0460
 2762SOL    HW219749   3.042   3.315   2.571  0.8211  1.9278 -1.0371
 2763SOL     OW19750   2.072   4.112   1.944  0.1070 -0.6987 -0.7286
 2763SOL    HW119751   2.059   4.084   2.035  0.6811  0.8241 -0.1772
 2763SOL    HW219752   2.146   4.168   1.970 -1.0485  0.6301 -0.3521
 2764SOL     OW19753   1.733   0.480  10.307  0.1968  0.1865 -0.4813
 2764SOL    HW119754   1.778   0.506  10.387 -0.2895  0.2220 -0.2161
 2764SOL    HW219755   1.672   0.421  10.351  0.5168  1.1079  1.1792
 2765SOL     OW19756   3.776   3.759   3.283  0.2092  0.4909  0.0346
 2765SOL    HW119757   3.862   3.716   3.285 -0.6684 -1.1691  2.1020
 2765SOL    HW219758   3.723   3.679   3.278  1.5728 -0.3556 -0.9108
 2766SOL     OW19759   3.366   3.755  15.841  0.1647  0.3083  0.5680
 2766SOL    HW119760   3.294   3.817  15.829  0.2371  0.5322  1.2874
 2766SOL    HW219761   3.441   3.812  15.827  0.2395  0.3284  1.0478
 2767SOL     OW19762   3.715   0.272   4.822 -0.4751 -0.4966  0.4810
 2767SOL    HW119763   3.730   0.217   4.899  1.7595  0.1689  0.5221
 2767SOL    HW219764   3.699   0.358   4.860 -0.5661 -0.1864 -0.2742
 2768SOL     OW19765   2.200   0.944   0.554  0.1304 -0.4699 -0.5253
 2768SOL    HW119766   2.245   0.995   0.622 -0.9024 -1.5040  0.9319
 2768SOL    HW219767   2.130   1.003   0.525  0.6219 -0.0372 -0.8235
 2769SOL     OW19768   1.564   4.510   4.734 -0.6699 -0.1631 -0.1599
 2769SOL    HW119769   1.471   4.526   4.746 -0.1605  1.6089  1.4070
 2769SOL    HW219770   1.587   4.595   4.696  0.7336 -0.7166 -0.5567
 2770SOL     OW19771   3.529   1.963   5.847  0.4082  0.7160  0.2694
 2770SOL    HW119772   3.622   1.943   5.837  0.9342  3.0186  0.4056
 2770SOL    HW219773   3.496   1.895   5.905  0.7456  0.4189  0.1091
 2771SOL     OW19774   2.573   2.767   2.913 -0.2807 -0.2269  0.8355
 2771SOL    HW119775   2.554   2.690   2.858 -1.0029  0.8216 -0.3805
 2771SOL    HW219776   2.506   2.826   2.879  1.1432  0.6501 -0.4392
 2772SOL     OW19777   3.477   4.119   3.087  0.0145  0.3677  0.3288
 2772SOL    HW119778   3.459   4.085   3.174 -2.1438  0.0009 -0.2616
 2772SOL    HW219779   3.393   4.115   3.041 -0.0144 -1.2537  0.5474
 2773SOL     OW19780   2.596   0.922   8.609  0.3062  0.3388  0.0094
 2773SOL    HW119781   2.568   0.882   8.527  0.5096  0.6553 -0.2144
 2773SOL    HW219782   2.512   0.940   8.651  0.0951  0.3616 -0.4230
 2774SOL     OW19783   1.295   4.597   4.718  0.6444 -0.0777 -0.1480
 2774SOL    HW119784   1.280   4.604   4.812  4.0628 -0.5897  0.4700
 2774SOL    HW219785   1.275   4.687   4.693 -0.1108 -0.2639 -0.1915
 2775SOL     OW19786   2.570   1.199  11.069  0.1331 -0.0070 -0.2994
 2775SOL    HW119787   2.501   1.211  11.135  0.1522 -2.1676  0.1159
 2775SOL    HW219788   2.543   1.112  11.040 -1.7550 -0.4746  2.8491
 2776SOL     OW19789   0.832   2.261   2.160 -0.0287 -0.1612  0.2237
 2776SOL    HW119790   0.755   2.267   2.103  0.3108 -2.2812 -0.4660
 2776SOL    HW219791   0.861   2.352   2.166 -0.7549  0.1403 -0.8209
 2777SOL     OW19792   0.214   3.672  11.991 -0.0308  0.7481  0.1501
 2777SOL    HW119793   0.172   3.687  12.076  0.1358  2.1493 -0.0045
 2777SOL    HW219794   0.304   3.702  12.008  0.1407  1.0063 -1.2156
 2778SOL     OW19795   0.767   1.175   4.954 -0.1232 -0.1215 -0.5915
 2778SOL    HW119796   0.830   1.104   4.967  0.5580  0.3783 -1.2104
 2778SOL    HW219797   0.827   1.249   4.956 -0.2434 -0.0247 -0.4901
 2779SOL     OW19798   4.116   4.611   2.220  0.4230 -0.4337 -0.5420
 2779SOL    HW119799   4.086   4.532   2.265  1.6449 -0.6789 -0.1652
 2779SOL    HW219800   4.088   4.674   2.287  0.0417 -1.5064  0.3003
 2780SOL     OW19801   3.197   2.636   5.871 -0.1373  0.2526  0.1629
 2780SOL    HW119802   3.123   2.581   5.894 -0.3419  0.0425 -1.0118
 2780SOL    HW219803   3.216   2.680   5.954 -0.0753 -0.6966  0.6447
 2781SOL     OW19804   1.884   3.713   1.356  0.0912 -0.2140 -0.1461
 2781SOL    HW119805   1.882   3.724   1.261 -1.2279  0.8511  0.0132
 2781SOL    HW219806   1.890   3.806   1.379  0.2384 -0.5303  1.0878
 2782SOL     OW19807   0.366   3.180   5.608  0.4189 -0.1628  0.4905
 2782SOL    HW119808   0.336   3.168   5.698  1.9503  0.2966  1.0719
 2782SOL    HW219809   0.460   3.187   5.622  0.3558 -1.4170  1.5333
 2783SOL     OW19810   1.877   1.628  10.449 -0.0300 -0.1678  0.0480
 2783SOL    HW119811   1.849   1.715  10.479  1.3244  0.9033 -1.7636
 2783SOL    HW219812   1.811   1.577  10.495 -0.1149  0.7511  0.9457
 2784SOL     OW19813   3.811   2.864  13.929  0.3646 -0.5174  0.4487
 2784SOL    HW119814   3.775   2.883  13.842  0.4143 -3.3005 -0.1671
 2784SOL    HW219815   3.734   2.881  13.982 -2.6500 -0.8535 -3.8038
 2785SOL     OW19816   1.024   0.665  15.249  0.4878  0.4412 -0.1285
 2785SOL    HW119817   1.001   0.572  15.259 -1.0911  0.7761 -0.6973
 2785SOL    HW219818   1.109   0.661  15.293  0.1015  0.1008  0.6004
 2786SOL     OW19819   3.382   4.409   5.290  0.4015 -0.1218 -0.1199
 2786SOL    HW119820   3.429   4.427   5.209  0.6619  1.0066  0.2944
 2786SOL    HW219821   3.444   4.448   5.351  0.1927 -0.0398  0.0423
 2787SOL     OW19822   1.929   2.918  12.775  0.5886  0.1956  0.1758
 2787SOL    HW119823   1.950   2.979  12.845 -1.6977 -0.2394  1.2333
 2787SOL    HW219824   1.909   2.841  12.827  0.3066 -0.2342 -0.5591
 2788SOL     OW19825   1.313   1.285   9.694  0.8097 -0.2375 -0.3399
 2788SOL    HW119826   1.295   1.264   9.602 -1.1154 -1.9807  0.4312
 2788SOL    HW219827   1.271   1.211   9.739  0.0090  0.2225 -0.3292
 2789SOL     OW19828   4.569   1.038  11.628  0.5128  0.5232 -0.6490
 2789SOL    HW119829   4.590   1.012  11.538  0.5377  1.3702 -0.8932
 2789SOL    HW219830   4.646   1.094  11.644  0.1558  1.3923 -1.9575
 2790SOL     OW19831   1.074   4.219   0.957  0.3408 -0.3740 -0.2327
 2790SOL    HW119832   1.134   4.170   0.902  0.0040  0.8097 -1.6477
 2790SOL    HW219833   1.064   4.172   1.040  0.2853  0.6593  0.3521
 2791SOL     OW19834   1.877   1.079   6.078 -0.2810 -1.0487  0.2674
 2791SOL    HW119835   1.787   1.109   6.067  0.5820  0.6987 -1.8853
 2791SOL    HW219836   1.866   1.011   6.146 -2.4538  0.8277  1.7781
 2792SOL     OW19837   3.155   0.804   3.609  0.3223  0.1617 -0.4410
 2792SOL    HW119838   3.070   0.790   3.651  0.2403  1.8486 -0.0350
 2792SOL    HW219839   3.174   0.896   3.624 -0.7768  0.6372 -1.9819
 2793SOL     OW19840   0.372   4.581   5.818 -0.1627  0.2130 -0.3133
 2793SOL    HW119841   0.464   4.590   5.794  0.0575 -0.9912  0.0503
 2793SOL    HW219842   0.325   4.583   5.735  0.4471 -1.3348 -0.7006
 2794SOL     OW19843   1.420   0.076   8.601  0.3629 -0.0140 -0.8303
 2794SOL    HW119844   1.490   0.025   8.643  1.3624  0.0878 -2.3752
 2794SOL    HW219845   1.441   0.050   8.511  0.3599  0.7033 -1.0334
 2795SOL     OW19846   2.583   2.636   4.557 -0.0311  0.2295 -0.0745
 2795SOL    HW119847   2.509   2.606   4.611  0.7226  1.7398  1.8126
 2795SOL    HW219848   2.588   2.553   4.510 -0.3968  0.2332 -0.1210
 2796SOL     OW19849   2.903   0.061   0.519  0.3238  0.0434  0.1381
 2796SOL    HW119850   2.810   0.051   0.537  0.3441 -1.4541 -0.5628
 2796SOL    HW219851   2.915   4.697   0.482 -1.3400 -0.0677 -0.1237
 2797SOL     OW19852   1.498   1.449  13.746  0.0472  0.2942 -0.0660
 2797SOL    HW119853   1.429   1.426  13.809 -0.1296  1.1068  0.0493
 2797SOL    HW219854   1.575   1.428  13.798 -0.5489 -1.1329  0.2244
 2798SOL     OW19855   4.062   1.272   5.819  0.2284 -0.7461 -0.2412
 2798SOL    HW119856   4.017   1.291   5.902  0.0702  2.0684 -0.9673
 2798SOL    HW219857   4.009   1.193   5.810  2.4737 -2.5541  2.3757
 2799SOL     OW19858   3.273   0.567  14.453 -0.4743 -0.2858 -0.5109
 2799SOL    HW119859   3.228   0.559  14.369  0.2793 -0.1099 -0.9348
 2799SOL    HW219860   3.364   0.559  14.425 -0.7852 -0.1210 -1.5466
 2800SOL     OW19861   0.529   1.472  10.812 -0.2976 -0.0468 -0.2712
 2800SOL    HW119862   0.476   1.415  10.756  1.2498 -0.3343 -1.4381
 2800SOL    HW219863   0.585   1.501  10.740  0.6790  2.4036  1.4935
 2801SOL     OW19864   1.148   2.442   2.057 -0.0491 -0.9903 -0.2698
 2801SOL    HW119865   1.124   2.451   1.965  0.6901  2.9831 -0.0965
 2801SOL    HW219866   1.172   2.350   2.067  0.5696 -0.9511 -1.3020
 2802SOL     OW19867   0.840   3.293  11.022  0.5963 -0.5662 -0.0251
 2802SOL    HW119868   0.832   3.282  11.117 -1.1380 -0.5627 -0.1650
 2802SOL    HW219869   0.869   3.384  11.029  1.2627 -0.8685  1.1216
 2803SOL     OW19870   3.078   4.440   5.527  0.7804  0.4385 -0.7558
 2803SOL    HW119871   3.156   4.489   5.500  0.6000  1.6834  0.9888
 2803SOL    HW219872   3.052   4.481   5.610 -0.6249  0.8197 -1.3740
 2804SOL     OW19873   0.170   2.382  10.170  0.1558 -0.3683 -0.1514
 2804SOL    HW119874   0.229   2.450  10.203  0.3552 -0.5718 -0.0811
 2804SOL    HW219875   0.115   2.369  10.247 -1.0963  0.4907 -0.9161
 2805SOL     OW19876   3.120   1.240  16.973  1.3136  0.4593 -0.2076
 2805SOL    HW119877   3.145   1.297  17.045  1.2025  0.9861 -0.5915
 2805SOL    HW219878   3.076   1.304  16.917  0.2789  0.3458  0.4772
 2806SOL     OW19879   0.955   3.976   5.120 -0.3429  0.4443 -0.1427
 2806SOL    HW119880   0.980   4.060   5.082 -3.5023  0.8018 -1.4713
 2806SOL    HW219881   0.952   3.919   5.044  3.0599  0.7050 -0.4446
 2807SOL     OW19882   4.539   4.553   6.790  0.1332  0.3074  0.1783
 2807SOL    HW119883   4.522   4.515   6.703 -4.3893  1.6937  0.4172
 2807SOL    HW219884   4.604   4.620   6.772 -1.4630  1.9507  0.4521
 2808SOL     OW19885   3.707   4.296   8.123  0.2750  0.6813  0.3337
 2808SOL    HW119886   3.758   4.223   8.089 -2.6017  0.1386 -2.8214
 2808SOL    HW219887   3.657   4.332   8.050  0.8459 -0.4539 -0.6196
 2809SOL     OW19888   3.721   0.707   2.343  0.1698 -0.2044 -0.3466
 2809SOL    HW119889   3.635   0.666   2.345 -0.8816  2.0788  1.1726
 2809SOL    HW219890   3.738   0.728   2.251 -0.8606  2.2471  0.0480
 2810SOL     OW19891   3.900   2.999  10.863 -0.3783 -0.8764  0.3922
 2810SOL    HW119892   3.817   3.019  10.820  0.4948  1.7085 -0.0992
 2810SOL    HW219893   3.877   3.000  10.956 -0.3681 -1.6710  0.4055
 2811SOL     OW19894   4.338   3.111   5.506 -0.0792 -0.0373  0.3366
 2811SOL    HW119895   4.327   3.029   5.554 -0.6916 -0.4536 -0.5091
 2811SOL    HW219896   4.317   3.097   5.413  1.0912 -0.2776  0.1108
 2812SOL     OW19897   0.343   1.525  11.252 -0.1472 -1.1156 -0.5535
 2812SOL    HW119898   0.360   1.590  11.184 -3.2742 -0.2791 -0.5481
 2812SOL    HW219899   0.381   1.564  11.331  1.1980  0.0739 -1.7873
 2813SOL     OW19900   3.387   0.503   1.463 -0.1203 -0.2259 -0.2030
 2813SOL    HW119901   3.300   0.493   1.426  0.0513  0.5091 -0.8157
 2813SOL    HW219902   3.418   0.415   1.485 -0.8960 -0.2441  0.8198
 2814SOL     OW19903   4.198   4.596  11.125 -0.0867 -0.2885  0.0445
 2814SOL    HW119904   4.197   4.678  11.076 -0.5159 -0.5510 -0.3841
 2814SOL    HW219905   4.291   4.574  11.132  0.4914  2.3300  0.5416
 2815SOL     OW19906   4.473   0.102   2.596  0.6562  0.3547  0.0333
 2815SOL    HW119907   4.566   0.096   2.574  0.1756  0.0566 -1.9019
 2815SOL    HW219908   4.436   0.156   2.526  1.2576 -2.0058 -2.1083
 2816SOL     OW19909   1.594   3.708  13.390 -0.2857  0.3140 -0.1324
 2816SOL    HW119910   1.677   3.737  13.427  1.5867 -0.7996 -3.4782
 2816SOL    HW219911   1.537   3.757  13.450  1.8756  1.0801  1.2828
 2817SOL     OW19912   3.095   1.425   1.185  0.2190 -0.2295 -0.2050
 2817SOL    HW119913   3.085   1.418   1.280  0.9277 -0.1853 -0.1255
 2817SOL    HW219914   3.006   1.454   1.165  1.3948  2.6593 -1.1367
 2818SOL     OW19915   2.261   2.268  11.070 -0.2228 -0.0784  0.0568
 2818SOL    HW119916   2.239   2.177  11.051 -0.7166 -0.4790  2.5932
 2818SOL    HW219917   2.200   2.289  11.140 -1.1172 -4.1784  0.5074
 2819SOL     OW19918   0.850   0.764  11.924  0.1914  0.5639 -0.0519
 2819SOL    HW119919   0.856   0.755  11.829  0.4524  2.8696 -0.2685
 2819SOL    HW219920   0.838   0.859  11.928 -2.1312  0.2622  0.4285
 2820SOL     OW19921   3.014   4.045   4.115  0.1442  0.3744 -0.1727
 2820SOL    HW119922   2.975   4.115   4.064 -0.3519  0.2937  0.0905
 2820SOL    HW219923   3.027   3.989   4.038  1.2068  1.6680 -0.9342
 2821SOL     OW19924   1.082   2.939  11.327 -0.1099 -0.4955  0.3603
 2821SOL    HW119925   1.170   2.926  11.293 -0.2453 -0.8790  0.1516
 2821SOL    HW219926   1.054   2.848  11.336 -3.0671  0.2745 -0.9124
 2822SOL     OW19927   0.018   1.387  14.693  0.2231  0.3199  0.1947
 2822SOL    HW119928   4.683   1.461  14.708  0.5126  0.4822  0.5026
 2822SOL    HW219929   0.016   1.342  14.777 -1.5431  0.6514  0.3354
 2823SOL     OW19930   1.374   1.319   7.248  0.3448 -0.6355  0.0393
 2823SOL    HW119931   1.360   1.295   7.156  1.6733  0.7617 -0.5257
 2823SOL    HW219932   1.463   1.348   7.227 -0.2335  1.3554  0.3121
 2824SOL     OW19933   2.756   2.150   8.000  0.0552  0.8919  0.3708
 2824SOL    HW119934   2.818   2.211   7.959  0.0668  1.1160  0.7180
 2824SOL    HW219935   2.764   2.084   7.931 -1.6407  1.4942 -0.4063
 2825SOL     OW19936   2.517   1.945   5.450 -0.9591 -0.5778 -0.2016
 2825SOL    HW119937   2.444   1.913   5.503 -1.1573 -0.6051 -0.4899
 2825SOL    HW219938   2.465   1.986   5.381 -2.7313  2.2404  2.8133
 2826SOL     OW19939   0.802   4.258   9.475  0.0952  0.6513 -0.0299
 2826SOL    HW119940   0.726   4.262   9.416 -1.0823 -2.0614  1.3124
 2826SOL    HW219941   0.778   4.305   9.554 -0.6915 -1.5424  1.0451
 2827SOL     OW19942   2.825   0.852   3.214  0.0338  0.5795  0.3989
 2827SOL    HW119943   2.866   0.827   3.131 -1.6452 -1.0309  0.0534
 2827SOL    HW219944   2.869   0.781   3.261 -2.0457 -0.4371  0.8327
 2828SOL     OW19945   3.730   1.397   1.118  0.1844 -0.4413 -0.4184
 2828SOL    HW119946   3.722   1.316   1.068 -0.7224  0.3645 -1.5831
 2828SOL    HW219947   3.782   1.450   1.058  2.5133 -1.6760  0.5115
 2829SOL     OW19948   0.233   4.364   7.713  0.5978 -0.1057 -0.1659
 2829SOL    HW119949   0.293   4.347   7.786 -0.2394 -2.6054 -0.0559
 2829SOL    HW219950   0.239   4.277   7.675 -2.4836 -0.3840 -0.0249
 2830SOL     OW19951   1.791   4.150   0.056 -0.4390  0.0705  0.1181
 2830SOL    HW119952   1.831   4.184   0.136 -0.3155 -1.5581  0.7536
 2830SOL    HW219953   1.714   4.109   0.096  0.0312  0.1662  1.1258
 2831SOL     OW19954   3.691   4.107   8.407  0.0909 -1.2602 -0.1761
 2831SOL    HW119955   3.596   4.108   8.401 -0.0394  3.6918  2.3346
 2831SOL    HW219956   3.704   4.082   8.316  3.2129 -1.6873  0.3866
 2832SOL     OW19957   1.479   4.704  10.091 -0.4871 -0.0242  0.3506
 2832SOL    HW119958   1.386   4.683  10.082 -0.4351 -0.1067  0.0091
 2832SOL    HW219959   1.484   0.027  10.007 -3.2083 -0.0559  0.1765
 2833SOL     OW19960   0.573   3.012   6.117  0.0278 -0.1949  0.5138
 2833SOL    HW119961   0.654   3.038   6.073  0.9297 -0.9169  1.7510
 2833SOL    HW219962   0.565   2.920   6.089  0.5820 -0.0717 -0.0539
 2834SOL     OW19963   0.038   0.497   5.823  0.1937  0.0118 -0.1215
 2834SOL    HW119964   4.708   0.512   5.745  0.1488 -0.1322 -0.1196
 2834SOL    HW219965   0.056   0.404   5.808 -1.1851  0.0769 -2.1424
 2835SOL     OW19966   4.323   3.949   9.246 -0.1640  0.1319 -0.4961
 2835SOL    HW119967   4.312   4.041   9.221  1.3882  0.2214 -0.8192
 2835SOL    HW219968   4.306   3.901   9.165  3.5843 -2.6452  0.3486
 2836SOL     OW19969   1.285   1.728   2.986 -0.0635 -0.1230 -0.1462
 2836SOL    HW119970   1.301   1.719   3.080 -0.1353 -2.9971 -0.4255
 2836SOL    HW219971   1.371   1.707   2.949 -0.2242  0.0222 -0.6052
 2837SOL     OW19972   1.270   3.083   1.462  0.4739  0.1270  0.1753
 2837SOL    HW119973   1.306   3.033   1.389  0.3370  0.2560  0.0189
 2837SOL    HW219974   1.181   3.089   1.429  0.8540 -0.4834 -0.9641
 2838SOL     OW19975   1.588   1.950   6.384 -0.0829 -0.8466 -0.5752
 2838SOL    HW119976   1.613   2.026   6.437  2.8383 -2.7279  0.7367
 2838SOL    HW219977   1.675   1.932   6.346  0.6394  1.6079 -0.0955
 2839SOL     OW19978   1.507   1.190  16.742  1.0491 -0.3004  0.1646
 2839SOL    HW119979   1.548   1.140  16.671 -0.3500  2.3051 -2.4445
 2839SOL    HW219980   1.586   1.236  16.770  0.6465  1.0802 -1.0214
 2840SOL     OW19981   2.443   4.461   3.198 -0.0943  0.1230 -0.2093
 2840SOL    HW119982   2.405   4.453   3.285  1.4431 -2.4327  0.2383
 2840SOL    HW219983   2.396   4.541   3.178 -1.4987 -0.0609  2.3630
 2841SOL     OW19984   3.107   3.532  11.491 -0.3144  0.4004  0.9873
 2841SOL    HW119985   3.198   3.560  11.502  0.5237 -1.4330 -1.1858
 2841SOL    HW219986   3.109   3.480  11.411 -0.8082  0.8039  0.7129
 2842SOL     OW19987   3.535   3.902   2.874  0.0010  0.4342  0.1264
 2842SOL    HW119988   3.468   3.925   2.810  0.7883 -1.5122 -1.3703
 2842SOL    HW219989   3.507   3.968   2.938  2.9069  2.4001 -0.5771
 2843SOL     OW19990   2.652   3.163   7.314  0.1965  0.4437 -0.1617
 2843SOL    HW119991   2.614   3.157   7.401 -1.0669  2.3284 -0.5886
 2843SOL    HW219992   2.747   3.159   7.331  0.3636 -0.5913 -1.2865
 2844SOL     OW19993   1.438   3.478   3.640  0.3296 -0.7042  0.7656
 2844SOL    HW119994   1.480   3.402   3.680  3.0619  1.0479  1.2392
 2844SOL    HW219995   1.400   3.455   3.555 -0.0160 -0.6849  0.9167
 2845SOL     OW19996   3.043   1.201   5.703  0.0156  0.1596  0.3002
 2845SOL    HW119997   2.949   1.218   5.691  1.2723  4.9447 -2.4208
 2845SOL    HW219998   3.080   1.284   5.674  0.6298 -0.3358 -0.3164
 2846SOL     OW19999   4.279   0.225   8.747  0.7842  0.0939  0.0249
 2846SOL    HW120000   4.191   0.254   8.725 -0.7705 -3.2104  1.9640
 2846SOL    HW220001   4.258   0.133   8.762 -0.2035 -0.1567 -2.9330
 2847SOL     OW20002   1.327   0.347  15.399 -0.0014 -0.3928  0.1123
 2847SOL    HW120003   1.235   0.329  15.419 -0.5286  1.3767 -0.6661
 2847SOL    HW220004   1.315   0.392  15.315  1.3391  2.2222  1.3101
 2848SOL     OW20005   3.116   2.532   5.604 -0.0105 -0.2317 -0.2084
 2848SOL    HW120006   3.172   2.578   5.667 -0.4747 -0.1082  0.1165
 2848SOL    HW220007   3.050   2.510   5.671  1.3901 -0.0913  1.2223
 2849SOL     OW20008   3.325   4.515  15.804 -0.0058 -0.2712 -0.2565
 2849SOL    HW120009   3.362   4.471  15.728  0.0058 -0.7352  0.0129
 2849SOL    HW220010   3.336   4.606  15.777  1.8915 -0.3212  0.3706
 2850SOL     OW20011   1.205   2.971  12.636 -0.2279 -0.3032  0.4542
 2850SOL    HW120012   1.140   3.041  12.646  0.6996  0.6744 -0.3150
 2850SOL    HW220013   1.264   2.968  12.711 -0.0303 -1.8643  0.2381
 2851SOL     OW20014   0.352   2.661   6.313  0.1177 -0.4848 -0.1957
 2851SOL    HW120015   0.303   2.588   6.351 -0.8506 -0.2954 -1.0930
 2851SOL    HW220016   0.443   2.633   6.323 -0.2062 -0.6876  2.1670
 2852SOL     OW20017   1.598   0.719  17.315 -0.1500 -0.5141  0.2411
 2852SOL    HW120018   1.609   0.815  17.318  1.3909 -0.6135 -2.1073
 2852SOL    HW220019   1.563   0.700  17.402  0.4289  0.1252  0.6258
 2853SOL     OW20020   0.134   0.590   2.874  0.4835  0.1208 -0.2010
 2853SOL    HW120021   0.226   0.606   2.853  1.0101 -3.0783 -0.2453
 2853SOL    HW220022   0.107   0.558   2.788  2.6371 -0.2918 -0.7256
 2854SOL     OW20023   0.801   0.171   9.068 -0.6275 -0.4272  0.0329
 2854SOL    HW120024   0.707   0.189   9.060 -0.9723 -1.7798  0.9607
 2854SOL    HW220025   0.805   0.125   8.984  1.4902  0.0931 -0.1425
 2855SOL     OW20026   3.789   3.329   4.197 -0.2540  0.7780  0.2293
 2855SOL    HW120027   3.836   3.353   4.277  2.1568  0.8970 -1.2028
 2855SOL    HW220028   3.856   3.337   4.129 -0.4802  1.0293  0.0386
 2856SOL     OW20029   2.916   1.171  10.440  0.4918 -0.2916 -0.1521
 2856SOL    HW120030   2.842   1.225  10.412 -0.1404 -0.7242  0.6731
 2856SOL    HW220031   2.878   1.124  10.514  0.6883 -1.6850 -0.9462
 2857SOL     OW20032   2.180   4.395   0.857 -0.0375 -0.0399 -0.5963
 2857SOL    HW120033   2.204   4.312   0.899  1.8356  0.1362 -1.3061
 2857SOL    HW220034   2.259   4.447   0.872 -1.0193  1.2363  0.1390
 2858SOL     OW20035   0.092   3.178  10.785 -0.2039 -0.2929 -0.2911
 2858SOL    HW120036   0.128   3.265  10.802 -0.9141 -0.1279  0.3740
 2858SOL    HW220037   0.029   3.185  10.712 -1.3219 -0.0091  0.6989
 2859SOL     OW20038   1.105   3.417   2.115  0.5490 -0.3302 -0.4833
 2859SOL    HW120039   1.174   3.391   2.054  0.6157  0.1311 -0.6046
 2859SOL    HW220040   1.049   3.340   2.102 -1.5233  0.8493  1.4084
 2860SOL     OW20041   3.742   4.393   6.267 -0.2174  0.1109  0.1651
 2860SOL    HW120042   3.745   4.332   6.341 -1.3651  1.0577  0.9691
 2860SOL    HW220043   3.693   4.464   6.308 -0.8368 -0.3512  0.2264
 2861SOL     OW20044   2.265   0.431   4.704  0.0117  0.2092  0.0422
 2861SOL    HW120045   2.347   0.392   4.674  0.1780 -0.9824  2.0693
 2861SOL    HW220046   2.233   0.362   4.762 -2.1261  0.1841 -1.1326
 2862SOL     OW20047   0.211   3.072   3.561  0.0313 -0.0656 -0.0376
 2862SOL    HW120048   0.205   3.001   3.497 -3.2978  0.1357  0.0508
 2862SOL    HW220049   0.299   3.106   3.544  0.3886 -1.5481 -1.1412
 2863SOL     OW20050   1.942   0.401   3.458  0.1982 -0.1859 -0.1294
 2863SOL    HW120051   1.994   0.443   3.526 -0.8231  0.3459  0.3378
 2863SOL    HW220052   1.866   0.460   3.459 -0.5610 -1.1077 -2.9372
 2864SOL     OW20053   0.146   2.354   3.540  0.4213 -0.0746  0.1044
 2864SOL    HW120054   0.214   2.312   3.594  0.3147 -2.2707 -1.4746
 2864SOL    HW220055   0.153   2.303   3.460 -1.1477 -1.8561  1.0876
 2865SOL     OW20056   2.972   1.851  16.863  0.2844  0.3903 -0.5920
 2865SOL    HW120057   3.039   1.792  16.829  0.5670 -0.4846  1.4865
 2865SOL    HW220058   3.009   1.843  16.951  0.0575 -0.2412 -0.5541
 2866SOL     OW20059   4.039   1.252   6.697 -0.2011 -0.1834 -0.2444
 2866SOL    HW120060   4.009   1.299   6.775 -0.8261  0.6280 -0.9726
 2866SOL    HW220061   3.983   1.287   6.627  1.0664  0.2748 -1.0335
 2867SOL     OW20062   1.144   0.498   2.417  0.1541 -0.2743 -0.1180
 2867SOL    HW120063   1.110   0.551   2.345 -0.5155 -0.2649  0.1996
 2867SOL    HW220064   1.207   0.560   2.454 -0.4060 -0.0563  0.4777
 2868SOL     OW20065   2.880   3.308   6.600  0.0869  0.2072  0.2480
 2868SOL    HW120066   2.913   3.295   6.511  0.1216  0.8671  0.1617
 2868SOL    HW220067   2.804   3.363   6.580 -0.8472 -1.6810 -1.4330
 2869SOL     OW20068   2.434   3.315   2.794  0.1888  0.7417  0.3420
 2869SOL    HW120069   2.522   3.324   2.831  1.1747 -0.6988 -1.6336
 2869SOL    HW220070   2.386   3.273   2.865 -0.5243  1.2680  0.1721
 2870SOL     OW20071   3.852   4.699   6.584  0.1429  0.4995  0.7369
 2870SOL    HW120072   3.872   4.720   6.675  1.8774  1.6134  0.1083
 2870SOL    HW220073   3.857   4.604   6.598 -1.8282  0.4981  1.3689
 2871SOL     OW20074   0.918   2.846   5.235 -0.0444 -0.0869 -0.1321
 2871SOL    HW120075   0.895   2.807   5.319 -1.5104  0.4168 -0.2971
 2871SOL    HW220076   0.876   2.931   5.249  0.2721 -0.0769  0.7525
 2872SOL     OW20077   3.656   2.018   7.794 -0.7845 -0.0096  0.4542
 2872SOL    HW120078   3.573   1.987   7.757 -0.5133  0.2574 -0.3734
 2872SOL    HW220079   3.713   1.998   7.720 -0.0998  0.9985  0.6997
 2873SOL     OW20080   2.260   3.074   3.490 -0.4368 -0.2903 -0.2258
 2873SOL    HW120081   2.350   3.097   3.515 -0.4591 -2.4172  1.8296
 2873SOL    HW220082   2.220   3.039   3.570  0.1607 -2.9246 -1.0627
 2874SOL     OW20083   1.934   1.234   1.173  0.3994  0.3801 -0.8323
 2874SOL    HW120084   1.881   1.177   1.118 -0.8514  1.4782 -0.7899
 2874SOL    HW220085   1.929   1.311   1.116 -0.7496  0.5697 -0.4797
 2875SOL     OW20086   2.115   1.868  11.259  0.3017  0.5624  0.6028
 2875SOL    HW120087   2.160   1.843  11.339 -0.3059 -1.5665  0.3063
 2875SOL    HW220088   2.065   1.945  11.287 -1.0443  0.5706 -1.7581
 2876SOL     OW20089   3.404   1.339   8.570  0.4002 -0.4047  0.0138
 2876SOL    HW120090   3.357   1.310   8.649 -0.9877  0.5353 -0.4544
 2876SOL    HW220091   3.327   1.363   8.518  2.4904  1.0935 -2.3449
 2877SOL     OW20092   0.708   2.170   4.145  0.4802 -0.0423 -0.8189
 2877SOL    HW120093   0.637   2.105   4.139 -1.5812  2.1727 -0.2938
 2877SOL    HW220094   0.745   2.131   4.224 -0.2018 -0.5719 -0.7600
 2878SOL     OW20095   2.206   1.235  17.370 -0.3126  0.2891  0.3048
 2878SOL    HW120096   2.243   1.159  17.326 -2.5065  0.3427 -1.5948
 2878SOL    HW220097   2.289   1.255  17.415 -1.0409  0.2421  1.6741
 2879SOL     OW20098   2.389   1.148   7.142 -0.6549  0.5817  0.3932
 2879SOL    HW120099   2.461   1.209   7.129 -0.8865  0.5728 -0.8854
 2879SOL    HW220100   2.409   1.088   7.070 -3.0085 -0.9559  1.0028
 2880SOL     OW20101   3.654   4.657   6.259  0.1020  0.2009  0.3602
 2880SOL    HW120102   3.567   4.695   6.247 -0.0461  0.0045  0.8038
 2880SOL    HW220103   3.659   4.652   6.354  2.3971  0.7706  0.2645
 2881SOL     OW20104   0.341   2.588   1.740  0.4917  0.1753  0.3652
 2881SOL    HW120105   0.261   2.610   1.788 -0.0611 -1.2253  0.1079
 2881SOL    HW220106   0.407   2.599   1.808 -0.0486 -0.9002  1.0511
 2882SOL     OW20107   1.108   4.077  11.093 -0.1399  0.4458 -0.1894
 2882SOL    HW120108   1.135   4.013  11.158 -1.1798  1.2950  1.0904
 2882SOL    HW220109   1.159   4.058  11.015  1.7849  0.0987  1.1688
 2883SOL     OW20110   0.930   2.076   1.576 -0.0907 -0.0272  0.2322
 2883SOL    HW120111   0.869   2.113   1.640 -0.3490  0.9085 -0.5535
 2883SOL    HW220112   0.902   2.132   1.504 -0.4643  0.3998  0.7095
 2884SOL     OW20113   2.680   2.560   6.701  0.0076 -0.4469  0.2176
 2884SOL    HW120114   2.627   2.610   6.763  0.0468 -0.4070  0.2193
 2884SOL    HW220115   2.765   2.603   6.690 -0.7204  1.4280  1.9758
 2885SOL     OW20116   2.432   2.137   8.997  0.4839  0.2588  0.1713
 2885SOL    HW120117   2.494   2.175   9.059  0.3577  0.8813 -0.0862
 2885SOL    HW220118   2.372   2.096   9.058  1.0269  0.0607  0.5672
 2886SOL     OW20119   0.733   2.077   3.092 -0.2060 -0.8067 -0.6983
 2886SOL    HW120120   0.775   2.054   3.009 -0.4372 -0.9148 -0.7829
 2886SOL    HW220121   0.651   2.029   3.101  0.2565 -1.5973 -0.6180
 2887SOL     OW20122   2.612   0.872   2.777  0.1029 -0.3579  0.3194
 2887SOL    HW120123   2.564   0.953   2.763  0.0849 -0.5247 -0.5815
 2887SOL    HW220124   2.624   0.873   2.872 -2.2266  0.6086  0.6099
 2888SOL     OW20125   2.415   4.046   8.436  0.5061  0.2087 -0.1057
 2888SOL    HW120126   2.463   3.981   8.487  1.0995 -0.4178 -1.4453
 2888SOL    HW220127   2.441   4.030   8.345 -2.1922 -0.7115 -0.7063
 2889SOL     OW20128   4.575   0.085  13.069  0.3117 -0.7775  0.3128
 2889SOL    HW120129   4.516   0.135  13.012  1.4797  1.8341  1.4290
 2889SOL    HW220130   4.661   0.112  13.035 -0.5886  2.1141  0.3477
 2890SOL     OW20131   2.596   2.294   8.428  0.1417  0.1974 -0.5340
 2890SOL    HW120132   2.534   2.319   8.359 -1.2439  0.8031  0.9405
 2890SOL    HW220133   2.563   2.329   8.511 -2.8156 -0.8063 -1.2583
 2891SOL     OW20134   0.843   4.450   0.339 -0.5758 -0.1551 -0.2657
 2891SOL    HW120135   0.864   4.517   0.405 -0.2803  1.1950 -1.7307
 2891SOL    HW220136   0.785   4.399   0.397 -1.7847  1.1860 -0.2903
 2892SOL     OW20137   3.313   0.520  16.491  0.5960  0.4772 -0.2309
 2892SOL    HW120138   3.303   0.518  16.396  0.6001 -0.3199 -0.2170
 2892SOL    HW220139   3.401   0.485  16.509 -0.0859 -1.3699 -0.4577
 2893SOL     OW20140   3.091   0.949  16.893  0.0922 -0.0815 -0.0203
 2893SOL    HW120141   3.090   1.045  16.898  0.9749  0.0009 -1.2312
 2893SOL    HW220142   3.057   0.942  16.804  1.1015  0.8065 -0.4804
 2894SOL     OW20143   1.669   0.047   6.183  0.0148  0.6735 -0.4944
 2894SOL    HW120144   1.696   4.681   6.164 -0.6075  0.4936 -0.5150
 2894SOL    HW220145   1.753   0.092   6.176  0.7681 -0.9368 -1.6347
 2895SOL     OW20146   3.357   1.496   9.242  0.0237 -0.0594 -0.0491
 2895SOL    HW120147   3.408   1.486   9.323 -1.9803 -0.0175  1.2218
 2895SOL    HW220148   3.409   1.439   9.185  1.6416  1.6866 -0.3252
 2896SOL     OW20149   0.293   1.583   8.888  0.8594 -0.0841  0.2547
 2896SOL    HW120150   0.378   1.548   8.915  1.9095  2.0539 -0.3234
 2896SOL    HW220151   0.247   1.499   8.894 -0.7260  0.7638 -0.1288
 2897SOL     OW20152   3.614   3.308   6.630 -0.3115  0.2734 -0.3444
 2897SOL    HW120153   3.551   3.278   6.695  1.3639  0.5375  1.4160
 2897SOL    HW220154   3.552   3.359   6.578 -0.9004 -0.9055 -0.7921
 2898SOL     OW20155   3.493   2.852   5.883  0.3869  0.4480 -0.1925
 2898SOL    HW120156   3.496   2.824   5.975 -0.5051  0.8239 -0.0469
 2898SOL    HW220157   3.502   2.945   5.902 -1.0163  0.2893  1.2301
 2899SOL     OW20158   3.542   4.491  13.130  0.2581  0.0655  0.0843
 2899SOL    HW120159   3.458   4.527  13.102  1.0849  2.4101  0.6245
 2899SOL    HW220160   3.574   4.465  13.044 -1.4525 -0.7839 -0.2969
 2900SOL     OW20161   0.497   0.402   7.999  0.0077 -0.6502  0.1029
 2900SOL    HW120162   0.585   0.435   8.019 -0.1978 -0.1924  0.2468
 2900SOL    HW220163   0.492   0.344   8.075 -1.0426 -1.9145 -0.9365
 2901SOL     OW20164   1.229   2.198   2.147 -0.0305 -0.3464 -0.0731
 2901SOL    HW120165   1.182   2.124   2.109  0.2750 -0.4467 -0.2587
 2901SOL    HW220166   1.299   2.199   2.081 -0.2658 -0.6805 -0.3300
 2902SOL     OW20167   1.865   0.795   8.333 -0.0544  0.2956 -0.1212
 2902SOL    HW120168   1.775   0.769   8.312 -0.4552  1.1564  0.5044
 2902SOL    HW220169   1.909   0.773   8.252 -0.2228  1.7543 -0.6192
 2903SOL     OW20170   3.493   3.075   8.819  0.2218  1.0430 -0.1352
 2903SOL    HW120171   3.549   3.147   8.847  0.2891  0.3230  1.5894
 2903SOL    HW220172   3.524   3.003   8.874  0.6470  1.0990 -0.2994
 2904SOL     OW20173   2.010   3.152  11.417 -0.6079  0.1369 -0.0021
 2904SOL    HW120174   1.969   3.085  11.471  0.5541 -0.3118  0.3195
 2904SOL    HW220175   1.949   3.224  11.435 -1.6683 -1.3152  2.1848
 2905SOL     OW20176   0.738   0.344   4.484 -0.4956  0.5712  0.5256
 2905SOL    HW120177   0.721   0.250   4.488 -2.8455  0.8128 -4.0281
 2905SOL    HW220178   0.798   0.352   4.410 -1.8878 -0.9527 -0.7580
 2906SOL     OW20179   2.289   4.634   9.801  0.5821 -0.2560 -0.3300
 2906SOL    HW120180   2.215   4.638   9.862  2.1557  0.1678  1.5785
 2906SOL    HW220181   2.359   4.625   9.866  1.8033  2.8125 -1.2267
 2907SOL     OW20182   0.339   3.648  17.685 -0.6718 -0.4898 -0.0708
 2907SOL    HW120183   0.326   3.718  17.622  2.0915 -1.7463 -2.0103
 2907SOL    HW220184   0.434   3.638  17.687 -0.6383  0.1447  2.3527
 2908SOL     OW20185   4.025   4.098   7.790  0.1943 -0.3478 -0.3687
 2908SOL    HW120186   4.020   4.180   7.742  2.4378 -1.0015 -1.7090
 2908SOL    HW220187   3.969   4.114   7.866 -0.7586  2.2873 -1.6299
 2909SOL     OW20188   4.107   0.149   3.850  0.3965 -0.4729 -0.6146
 2909SOL    HW120189   4.159   0.191   3.781  2.5915  0.8345  1.8219
 2909SOL    HW220190   4.042   0.218   3.859  1.7557  0.4923  1.7194
 2910SOL     OW20191   2.238   1.107   4.127 -0.0050 -0.3698 -0.0881
 2910SOL    HW120192   2.240   1.197   4.160  0.9874 -0.1952 -0.6312
 2910SOL    HW220193   2.143   1.099   4.127  0.0370 -0.8536  0.0135
 2911SOL     OW20194   3.248   0.236   8.438  0.3127 -0.4599 -0.5751
 2911SOL    HW120195   3.324   0.270   8.485 -1.2093  0.1554  1.4583
 2911SOL    HW220196   3.207   0.163   8.485  0.5058 -1.2716 -1.6778
 2912SOL     OW20197   3.397   1.614  11.409  0.7654 -0.2289  0.6343
 2912SOL    HW120198   3.476   1.590  11.458  2.0888  2.9930  0.0884
 2912SOL    HW220199   3.421   1.702  11.378 -2.6114  0.4665 -0.0468
 2913SOL     OW20200   2.127   1.367   6.884 -0.2834  0.0418 -1.0005
 2913SOL    HW120201   2.098   1.280   6.911  1.3052 -0.0695  0.3449
 2913SOL    HW220202   2.208   1.353   6.836  0.6875 -1.6032  1.1080
 2914SOL     OW20203   3.876   2.379   5.518  0.3865 -0.0365 -0.2173
 2914SOL    HW120204   3.809   2.314   5.499  0.7761 -0.4736 -0.0864
 2914SOL    HW220205   3.896   2.366   5.611  0.0011  0.5255 -0.0575
 2915SOL     OW20206   1.527   1.671   8.531 -0.3671 -0.5982  0.3438
 2915SOL    HW120207   1.602   1.652   8.474 -0.0022  0.1758  0.5641
 2915SOL    HW220208   1.483   1.745   8.488 -1.3886 -1.1465  0.4605
 2916SOL     OW20209   1.050   1.492  16.547 -0.6005 -0.1642  0.2559
 2916SOL    HW120210   1.070   1.553  16.476 -1.3090 -1.5580 -1.1707
 2916SOL    HW220211   0.961   1.468  16.520 -0.3181 -1.3768  0.3908
 2917SOL     OW20212   2.245   0.852   9.948  0.2009 -0.3948 -0.3101
 2917SOL    HW120213   2.153   0.840   9.972  0.0472 -0.5472 -0.9880
 2917SOL    HW220214   2.248   0.808   9.864 -0.0871 -1.0706  0.0330
 2918SOL     OW20215   1.695   0.266   2.359  0.0113 -0.1535  0.3052
 2918SOL    HW120216   1.788   0.281   2.375 -0.4155  1.1601  1.6019
 2918SOL    HW220217   1.666   0.261   2.450 -0.9936  2.0574  0.1312
 2919SOL     OW20218   3.864   1.353   2.411 -0.4900  0.1679  1.2952
 2919SOL    HW120219   3.781   1.337   2.366 -0.4759 -0.9963  1.6775
 2919SOL    HW220220   3.898   1.264   2.415 -0.9472 -0.0833 -0.5886
 2920SOL     OW20221   0.592   0.795   8.637 -0.3261  0.1825 -0.0189
 2920SOL    HW120222   0.664   0.785   8.575 -0.9240  0.1944 -0.7165
 2920SOL    HW220223   0.523   0.840   8.588  0.0899  0.1843 -0.5990
 2921SOL     OW20224   0.594   1.013   7.541 -0.9028  0.1694 -0.4384
 2921SOL    HW120225   0.533   0.940   7.535 -1.3258  0.5871 -1.1397
 2921SOL    HW220226   0.668   0.955   7.560 -0.7275  0.8008  0.8421
 2922SOL     OW20227   0.733   3.843   4.740 -0.0646  0.2148 -0.4481
 2922SOL    HW120228   0.815   3.819   4.783  0.5498  0.8389 -1.2585
 2922SOL    HW220229   0.767   3.893   4.665 -1.4029  2.5224  0.5121
 2923SOL     OW20230   2.054   3.148  15.522  0.3082  0.2507 -0.2841
 2923SOL    HW120231   2.089   3.165  15.434  2.0467 -0.8179  0.2080
 2923SOL    HW220232   2.105   3.072  15.549  1.5936  1.4761  0.7489
 2924SOL     OW20233   1.999   0.326   5.898 -0.1700  0.5238 -0.3940
 2924SOL    HW120234   2.075   0.322   5.955 -0.1205 -1.4291 -0.5926
 2924SOL    HW220235   2.027   0.378   5.823 -1.5646 -0.3982 -1.5824
 2925SOL     OW20236   3.803   2.397   4.270 -0.4245 -0.6199 -0.4766
 2925SOL    HW120237   3.768   2.319   4.228  2.0851 -1.2313 -1.4641
 2925SOL    HW220238   3.823   2.456   4.197 -0.2792  0.7559  0.6642
 2926SOL     OW20239   2.724   3.951  13.502  0.0461  0.2369 -0.2902
 2926SOL    HW120240   2.645   3.938  13.555  1.8196 -1.2372  1.9673
 2926SOL    HW220241   2.776   4.010  13.556  0.3680 -1.4810  1.2774
 2927SOL     OW20242   2.993   3.768   7.946  0.0858  0.5193 -0.5400
 2927SOL    HW120243   2.952   3.683   7.957 -1.7923  1.0125 -3.8562
 2927SOL    HW220244   3.050   3.765   8.023 -0.8756 -1.2961  0.1074
 2928SOL     OW20245   0.909   3.962  10.947  1.0299 -0.1594 -0.2066
 2928SOL    HW120246   0.944   3.873  10.950 -0.0829 -0.6199 -0.6859
 2928SOL    HW220247   0.968   4.014  11.001 -1.3781 -0.5277  2.7625
 2929SOL     OW20248   0.125   4.648   3.290  1.0810 -0.3200 -0.0014
 2929SOL    HW120249   0.114   4.723   3.231 -1.2297 -1.2246 -0.7010
 2929SOL    HW220250   0.036   4.616   3.304  0.5354  0.7257 -1.1239
 2930SOL     OW20251   4.481   2.990   1.238  0.4471  0.2536 -0.1935
 2930SOL    HW120252   4.474   2.982   1.142  0.2243  0.8369 -0.2252
 2930SOL    HW220253   4.390   2.998   1.268  0.7499  0.6322  0.5891
 2931SOL     OW20254   3.787   2.849   5.593 -0.7885  0.0286 -0.1414
 2931SOL    HW120255   3.703   2.855   5.548 -1.2858 -0.3622  0.7384
 2931SOL    HW220256   3.842   2.909   5.542  0.1444 -0.8449 -0.1674
 2932SOL     OW20257   4.355   2.017   0.790  0.2063  0.2850 -0.1795
 2932SOL    HW120258   4.336   1.969   0.709 -0.6215  1.7705 -0.8646
 2932SOL    HW220259   4.320   2.103   0.766  0.2939  0.1496 -0.7934
 2933SOL     OW20260   0.049   3.019   6.141  0.4529 -0.5109  0.4357
 2933SOL    HW120261   0.053   2.933   6.099  1.5569  0.8396 -2.1678
 2933SOL    HW220262   0.135   3.022   6.182 -0.0760 -1.5347  1.6270
 2934SOL     OW20263   4.488   1.657   3.574 -0.3241 -0.3029 -0.4008
 2934SOL    HW120264   4.460   1.728   3.632 -1.2958 -3.1832  2.5931
 2934SOL    HW220265   4.409   1.654   3.519 -0.6761 -0.7897  0.1376
 2935SOL     OW20266   1.408   2.954   8.302  0.0883 -0.2418  0.0263
 2935SOL    HW120267   1.444   2.878   8.256 -1.9942 -1.7070  0.8249
 2935SOL    HW220268   1.407   2.918   8.391 -2.7171 -0.6276 -0.1650
 2936SOL     OW20269   1.185   2.020   6.809 -1.3652 -0.1013 -0.6976
 2936SOL    HW120270   1.194   2.044   6.902 -1.3346  2.1312 -1.2847
 2936SOL    HW220271   1.176   2.106   6.770 -0.9924 -0.1257 -0.8382
 2937SOL     OW20272   2.836   4.576   3.274 -0.3708 -0.2702  0.0261
 2937SOL    HW120273   2.870   4.509   3.214  1.0534 -1.3980  2.0797
 2937SOL    HW220274   2.912   4.634   3.278 -0.6299  0.1628 -1.2496
 2938SOL     OW20275   2.786   3.082   9.381 -0.5922 -0.5494  0.4004
 2938SOL    HW120276   2.869   3.099   9.338 -1.7526 -0.2221 -1.7295
 2938SOL    HW220277   2.796   3.001   9.430 -2.3955 -0.6938  0.5524
 2939SOL     OW20278   3.538   0.164  15.560 -0.6017  0.1354  0.4666
 2939SOL    HW120279   3.554   0.105  15.487 -0.1074  1.0717 -0.1890
 2939SOL    HW220280   3.555   0.251  15.522 -0.4208 -0.7892 -1.5524
 2940SOL     OW20281   4.156   1.337   9.130  0.2584  0.1222  0.4924
 2940SOL    HW120282   4.090   1.405   9.141  0.8637  0.8050 -0.0604
 2940SOL    HW220283   4.124   1.285   9.057  0.3385 -0.8367  1.1386
 2941SOL     OW20284   1.134   2.277   5.712 -0.0012 -0.9523 -0.3980
 2941SOL    HW120285   1.203   2.232   5.759 -1.5769 -1.9571  0.9354
 2941SOL    HW220286   1.055   2.280   5.766 -0.4206  0.1894 -1.0515
 2942SOL     OW20287   1.140   3.977   4.343 -0.5447 -0.0239 -0.1378
 2942SOL    HW120288   1.189   4.050   4.306  0.3145  0.3505  1.7508
 2942SOL    HW220289   1.147   4.001   4.435  1.0935 -0.3855 -0.1847
 2943SOL     OW20290   2.662   3.496   7.648  0.2138  0.8273 -0.8792
 2943SOL    HW120291   2.594   3.515   7.584  0.4658 -1.2322 -1.7691
 2943SOL    HW220292   2.656   3.401   7.656  1.3449  0.9065  0.8287
 2944SOL     OW20293   0.146   0.986   3.178 -0.2330  0.3911  0.1641
 2944SOL    HW120294   0.125   1.040   3.254  0.9585 -0.4690  1.1227
 2944SOL    HW220295   0.234   0.960   3.206 -0.6643 -1.6414 -0.3700
 2945SOL     OW20296   2.007   0.639   6.512  0.0242  0.0169 -0.0359
 2945SOL    HW120297   2.057   0.715   6.483 -2.0343  1.2029 -0.4574
 2945SOL    HW220298   1.948   0.687   6.570  0.1649 -0.7453  0.7360
 2946SOL     OW20299   1.815   1.305  11.519 -0.6605 -0.3519  0.6022
 2946SOL    HW120300   1.823   1.228  11.576 -0.8572 -1.4728 -0.8723
 2946SOL    HW220301   1.790   1.267  11.435  0.1062 -1.0263  0.6801
 2947SOL     OW20302   4.695   1.854   3.482 -0.7079  0.1232  0.1096
 2947SOL    HW120303   4.668   1.856   3.390  0.6000  0.2720 -0.2745
 2947SOL    HW220304   4.618   1.818   3.524 -1.6331 -0.2603 -1.9195
 2948SOL     OW20305   4.284   0.000   6.829 -0.8034 -0.1849 -0.4545
 2948SOL    HW120306   4.292   0.019   6.922  2.7537  1.5196 -1.1086
 2948SOL    HW220307   4.370   4.686   6.810  0.7036  1.3046  3.3991
 2949SOL     OW20308   0.719   3.740  11.114 -0.0107  0.2663  0.0702
 2949SOL    HW120309   0.654   3.772  11.052 -0.5590 -1.8254 -0.4294
 2949SOL    HW220310   0.667   3.726  11.193 -0.8288  0.2033 -0.4833
 2950SOL     OW20311   0.244   1.680  15.142  0.8905  0.0777 -0.3148
 2950SOL    HW120312   0.274   1.748  15.082  3.1408  0.3141  1.0788
 2950SOL    HW220313   0.225   1.727  15.223  2.4284  0.8294 -0.3875
 2951SOL     OW20314   2.192   1.610   1.831  0.6138  0.3567  0.8571
 2951SOL    HW120315   2.124   1.644   1.889 -0.6627 -3.0275  1.3534
 2951SOL    HW220316   2.202   1.684   1.771  0.0971  0.0814  0.4382
 2952SOL     OW20317   0.040   0.558   3.119  0.2274 -0.0645  0.3223
 2952SOL    HW120318   0.117   0.506   3.140  0.8972  1.0490  0.6079
 2952SOL    HW220319   0.063   0.584   3.030 -1.8858  0.0602 -0.1831
 2953SOL     OW20320   1.716   3.473   2.924  0.7535 -0.1556  0.6201
 2953SOL    HW120321   1.627   3.440   2.912  1.6010 -2.8916  1.8579
 2953SOL    HW220322   1.749   3.483   2.834 -1.5942 -2.4422 -0.4814
 2954SOL     OW20323   1.260   0.541   5.788 -0.6864 -0.2315  0.2271
 2954SOL    HW120324   1.245   0.614   5.727 -1.1097  0.5427  1.2354
 2954SOL    HW220325   1.192   0.541   5.856 -0.0013 -0.8625  0.9014
 2955SOL     OW20326   4.473   2.210   7.579 -0.5090  0.3676  0.3721
 2955SOL    HW120327   4.448   2.243   7.666 -1.8626  1.3784 -0.4005
 2955SOL    HW220328   4.405   2.143   7.574  0.1468 -0.3679  1.2334
 2956SOL     OW20329   0.707   4.216   0.406 -0.5132  0.1358  0.1256
 2956SOL    HW120330   0.679   4.211   0.498 -3.0032 -0.6134 -0.6585
 2956SOL    HW220331   0.742   4.128   0.394  2.1153  1.2456 -0.1328
 2957SOL     OW20332   4.291   0.409   6.185 -0.4381  0.2166  0.0955
 2957SOL    HW120333   4.367   0.438   6.135 -0.1542 -1.1804 -0.3006
 2957SOL    HW220334   4.314   0.319   6.207 -0.5350  0.3447  0.7011
 2958SOL     OW20335   0.826   1.341   6.676 -0.1495  0.3373  0.1500
 2958SOL    HW120336   0.767   1.276   6.639 -1.1854  1.3228  0.0891
 2958SOL    HW220337   0.915   1.307   6.667 -0.1002  0.7274 -0.8021
 2959SOL     OW20338   3.698   1.429  10.939  0.4032  0.0155 -0.2982
 2959SOL    HW120339   3.737   1.342  10.947 -2.2641 -0.6866  5.1631
 2959SOL    HW220340   3.730   1.445  10.850  0.9872  0.7273  0.0491
 2960SOL     OW20341   0.516   4.204   8.089  0.5003 -0.0898  0.0889
 2960SOL    HW120342   0.494   4.144   8.160 -1.8581  1.2114  0.4296
 2960SOL    HW220343   0.579   4.151   8.039 -1.8697 -0.6891 -2.2852
 2961SOL     OW20344   2.646   1.383   5.906 -0.2669  0.1582  0.0970
 2961SOL    HW120345   2.632   1.354   5.996  0.5452 -1.9631 -0.4465
 2961SOL    HW220346   2.577   1.448   5.894 -0.5762 -0.1016  0.5044
 2962SOL     OW20347   4.067   1.027   4.001  0.3574  0.5667 -0.9004
 2962SOL    HW120348   4.140   1.081   4.032 -0.0442 -0.9763  2.6861
 2962SOL    HW220349   4.080   1.036   3.906 -0.1241 -0.2771 -1.0400
 2963SOL     OW20350   3.632   2.307   7.726  0.6548  0.0024 -0.0694
 2963SOL    HW120351   3.548   2.344   7.754 -0.0502 -2.2673  0.7968
 2963SOL    HW220352   3.640   2.212   7.727  0.4222 -0.0143  0.7599
 2964SOL     OW20353   2.591   0.147   9.922  0.0165  0.3394 -0.1100
 2964SOL    HW120354   2.622   0.187  10.004 -1.3892 -0.7025  0.9159
 2964SOL    HW220355   2.552   0.068   9.960 -0.6788  0.7164 -0.0483
 2965SOL     OW20356   0.522   1.353  13.387  0.4817 -0.1077  0.0159
 2965SOL    HW120357   0.537   1.288  13.318 -1.9688 -0.5545 -0.1093
 2965SOL    HW220358   0.564   1.431  13.353 -0.7671 -0.5243 -2.4895
 2966SOL     OW20359   1.010   3.504   3.738 -0.3018  0.3477  0.3681
 2966SOL    HW120360   1.038   3.589   3.706  0.7482  0.5986  1.9474
 2966SOL    HW220361   0.940   3.529   3.798 -0.3221 -1.4227  1.0840
 2967SOL     OW20362   4.679   0.414   6.595 -0.7070  0.2321  0.0748
 2967SOL    HW120363   4.687   0.318   6.597  1.3638  0.4086  0.1783
 2967SOL    HW220364   0.046   0.440   6.601 -1.2024  2.0398 -0.3972
 2968SOL     OW20365   3.406   3.818   6.706 -0.5870  0.2831 -0.0489
 2968SOL    HW120366   3.410   3.904   6.747 -0.2364  0.6032 -0.7548
 2968SOL    HW220367   3.417   3.766   6.785  1.9923  1.9064  0.6722
 2969SOL     OW20368   2.832   3.932   2.227  0.3665 -0.6534 -0.3084
 2969SOL    HW120369   2.795   3.941   2.139 -0.7498  0.5943  0.2873
 2969SOL    HW220370   2.753   3.904   2.273  0.3342  1.0502  0.6473
 2970SOL     OW20371   0.982   4.157   7.877  0.6224  0.0292 -0.2508
 2970SOL    HW120372   1.040   4.179   7.804 -1.8164 -0.4126 -2.3108
 2970SOL    HW220373   1.028   4.083   7.917 -0.8330 -1.3809 -1.1535
 2971SOL     OW20374   1.088   1.274   6.674  0.0989 -0.4070  0.5464
 2971SOL    HW120375   1.137   1.353   6.696  0.4568 -0.5784  0.3637
 2971SOL    HW220376   1.147   1.209   6.712 -0.5030  0.9951  3.8689
 2972SOL     OW20377   4.648   0.794   9.288 -0.2626  0.4947  0.2817
 2972SOL    HW120378   4.676   0.856   9.356 -0.8310 -0.3777  1.3030
 2972SOL    HW220379   4.591   0.849   9.234  0.1356  2.0515  1.4327
 2973SOL     OW20380   4.000   0.615   3.853 -0.2906 -0.1949  0.2227
 2973SOL    HW120381   4.059   0.592   3.781  0.5595  2.5582  0.0378
 2973SOL    HW220382   3.941   0.540   3.839  0.3145 -0.7270  0.5518
 2974SOL     OW20383   2.504   3.467   9.120  0.0349  0.1051  0.2296
 2974SOL    HW120384   2.410   3.455   9.111  0.3950 -2.8096  0.3348
 2974SOL    HW220385   2.502   3.528   9.193 -1.6732 -2.1304  2.0550
 2975SOL     OW20386   2.643   1.998  10.822  0.2714 -0.1695  0.5377
 2975SOL    HW120387   2.599   2.076  10.854  1.4464  0.2155  1.2417
 2975SOL    HW220388   2.633   2.004  10.727  0.1810  0.0153  0.5592
 2976SOL     OW20389   4.714   0.514   5.014 -0.7341 -0.2368 -0.4373
 2976SOL    HW120390   4.672   0.540   4.932 -1.1431  1.1521  0.2209
 2976SOL    HW220391   0.027   0.431   4.983 -1.1597 -0.4800 -0.2762
 2977SOL     OW20392   1.856   0.443  10.546 -0.6905 -0.1434 -0.2275
 2977SOL    HW120393   1.776   0.422  10.594 -0.2463 -0.3301  0.4406
 2977SOL    HW220394   1.920   0.411  10.609 -1.5471  3.3057  2.4265
 2978SOL     OW20395   3.877   4.358   9.143 -0.0591  0.0796 -0.6041
 2978SOL    HW120396   3.831   4.293   9.198 -1.4392  1.1623 -0.4753
 2978SOL    HW220397   3.805   4.410   9.108 -0.7027 -1.1307 -1.0899
 2979SOL     OW20398   2.593   0.090   0.841 -0.1344 -0.0832  0.4138
 2979SOL    HW120399   2.655   0.016   0.838  0.5417  0.4888  0.1535
 2979SOL    HW220400   2.541   0.075   0.920 -0.5883  1.2029  0.3501
 2980SOL     OW20401   4.250   1.149   8.453 -0.4187 -0.0429  0.0105
 2980SOL    HW120402   4.225   1.172   8.364  0.7355 -1.5527 -0.7023
 2980SOL    HW220403   4.163   1.129   8.488 -1.9199  4.1870 -1.3355
 2981SOL     OW20404   2.340   0.347   8.326  0.1732 -0.3911 -0.0010
 2981SOL    HW120405   2.327   0.300   8.408  0.6006 -1.0633 -0.3143
 2981SOL    HW220406   2.435   0.344   8.319  0.1985 -2.5404  1.2924
 2982SOL     OW20407   0.992   1.152   4.711 -0.3178 -1.0140  0.2341
 2982SOL    HW120408   1.036   1.091   4.771 -0.2218 -2.1484 -0.9876
 2982SOL    HW220409   0.982   1.223   4.774  0.3903 -1.2044  0.5551
 2983SOL     OW20410   1.422   0.756   6.218  0.4546  0.1591  0.0353
 2983SOL    HW120411   1.376   0.706   6.151 -1.1610 -1.6088  2.4646
 2983SOL    HW220412   1.346   0.795   6.262  1.6403  1.2385  1.1291
 2984SOL     OW20413   3.484   0.495   2.671  0.1341  0.0833 -0.5329
 2984SOL    HW120414   3.427   0.502   2.747 -0.3901 -2.2043 -0.7295
 2984SOL    HW220415   3.434   0.541   2.603  0.8101  1.5435 -0.0373
 2985SOL     OW20416   2.426   2.625   7.173 -0.8077 -0.9758 -0.1324
 2985SOL    HW120417   2.501   2.672   7.209 -1.7479  1.8558 -1.9281
 2985SOL    HW220418   2.426   2.544   7.224 -1.0755 -0.3181  0.9315
 2986SOL     OW20419   2.789   0.260  14.068 -0.6605 -0.4278 -0.2276
 2986SOL    HW120420   2.702   0.297  14.052  0.7938  3.1388  0.0045
 2986SOL    HW220421   2.772   0.185  14.124 -4.4423  0.9775  0.5044
 2987SOL     OW20422   1.441   2.946   9.007  0.1215  0.7052 -0.0335
 2987SOL    HW120423   1.416   2.890   9.080  0.8763  0.2193 -0.1555
 2987SOL    HW220424   1.470   2.881   8.943  0.8346  0.7574  0.2452
 2988SOL     OW20425   1.155   4.677   8.325  0.2077 -0.3212  0.3401
 2988SOL    HW120426   1.109   4.597   8.351 -1.1922 -0.1396 -1.5681
 2988SOL    HW220427   1.153   4.717   8.412  0.0580  2.7491 -1.0640
 2989SOL     OW20428   1.743   1.899   9.293  0.1259  0.3301  0.3607
 2989SOL    HW120429   1.802   1.845   9.345 -0.1462 -0.7212 -0.4081
 2989SOL    HW220430   1.693   1.823   9.263  0.4619  0.7179 -1.1696
 2990SOL     OW20431   3.130   4.135   7.725 -0.0268  0.5358  0.4651
 2990SOL    HW120432   3.135   4.048   7.685  0.1623  1.3738 -1.3688
 2990SOL    HW220433   3.059   4.125   7.788 -1.3818  1.6143 -0.8606
 2991SOL     OW20434   3.202   0.562   9.283 -0.6057  0.6655 -0.2527
 2991SOL    HW120435   3.135   0.620   9.319 -0.7124  0.7955 -0.6577
 2991SOL    HW220436   3.269   0.561   9.352 -0.7933 -0.0297 -0.0799
 2992SOL     OW20437   4.542   0.663   4.127  0.1051 -0.2134  0.1949
 2992SOL    HW120438   4.492   0.743   4.114  1.7453  0.6239 -0.8809
 2992SOL    HW220439   4.473   0.604   4.157 -0.5707  0.3425 -0.2649
 2993SOL     OW20440   0.590   2.459  15.480 -0.2963  0.1078  0.1372
 2993SOL    HW120441   0.610   2.379  15.528  1.2884  2.2164  2.9869
 2993SOL    HW220442   0.509   2.492  15.520 -0.9668 -0.9200 -0.3595
 2994SOL     OW20443   4.346   1.990   8.927  0.3151 -0.6231 -0.0895
 2994SOL    HW120444   4.391   2.001   8.843 -0.3813 -0.2822 -0.4187
 2994SOL    HW220445   4.297   1.909   8.910 -2.1694  1.0334 -0.9401
 2995SOL     OW20446   2.843   3.041   5.404  0.1431  0.4310  0.0438
 2995SOL    HW120447   2.868   2.964   5.457 -0.7043  0.4348  0.4474
 2995SOL    HW220448   2.772   3.076   5.459 -1.0535 -0.7164 -0.7720
 2996SOL     OW20449   4.453   3.256   2.839 -0.0766 -0.1875  0.0815
 2996SOL    HW120450   4.407   3.339   2.851  0.0815 -0.1589  0.4892
 2996SOL    HW220451   4.386   3.202   2.882 -0.0697 -0.6062 -0.4230
 2997SOL     OW20452   1.441   4.408   3.589 -0.2049  0.2686  0.3056
 2997SOL    HW120453   1.506   4.476   3.572  0.1737 -0.3916 -0.9211
 2997SOL    HW220454   1.384   4.422   3.513 -0.8718 -2.4035  0.3118
 2998SOL     OW20455   1.837   4.362   5.131  0.2544  0.2271  0.1934
 2998SOL    HW120456   1.835   4.452   5.097 -0.0558  1.7171  4.0953
 2998SOL    HW220457   1.866   4.318   5.051  1.5467 -1.5008  1.6081
 2999SOL     OW20458   0.522   2.389   6.588  0.1142 -0.0386 -0.3853
 2999SOL    HW120459   0.513   2.448   6.512 -1.7410  0.9167  0.5718
 2999SOL    HW220460   0.486   2.437   6.662  2.0246  0.6952  0.0680
 3000SOL     OW20461   0.268   1.948   5.579 -0.0616 -0.5910 -0.2844
 3000SOL    HW120462   0.349   1.963   5.629 -1.2764 -0.5567  1.6634
 3000SOL    HW220463   0.201   1.976   5.642  1.5209  1.3696  0.5582
 3001SOL     OW20464   4.332   1.321   1.475  0.0497 -0.4864 -0.3139
 3001SOL    HW120465   4.278   1.318   1.395  0.6351 -1.9861 -0.6605
 3001SOL    HW220466   4.304   1.237   1.511  0.1732 -0.6529 -0.6039
 3002SOL     OW20467   4.340   4.715   8.495  0.4407  0.0791 -0.2046
 3002SOL    HW120468   4.249   0.018   8.506  0.7352  1.1023 -0.3019
 3002SOL    HW220469   4.370   0.014   8.583 -1.2952  0.7840  0.2023
 3003SOL     OW20470   1.918   0.911   7.591  0.0876 -0.1576 -0.2872
 3003SOL    HW120471   1.992   0.937   7.537  0.2880 -0.0211  0.0588
 3003SOL    HW220472   1.882   0.847   7.529  0.5879 -0.2843 -0.4433
 3004SOL     OW20473   3.135   2.561  14.004  0.4441 -0.7137 -0.1281
 3004SOL    HW120474   3.041   2.554  14.020  0.1881  1.8314 -0.5449
 3004SOL    HW220475   3.161   2.501  14.074  0.6834  0.1082  0.4838
 3005SOL     OW20476   2.975   1.883   6.535 -0.0107 -0.2660 -0.3558
 3005SOL    HW120477   3.005   1.969   6.507  2.1932 -0.8662  0.1686
 3005SOL    HW220478   3.004   1.880   6.626 -0.3606 -0.8586 -0.2679
 3006SOL     OW20479   1.473   3.166  12.232  0.3096 -0.2264  0.1456
 3006SOL    HW120480   1.404   3.150  12.296  0.4834  1.0680  0.6684
 3006SOL    HW220481   1.440   3.246  12.191 -0.7097  0.2396  1.8894
 3007SOL     OW20482   3.878   4.078   8.044 -0.9212  0.9219 -0.3352
 3007SOL    HW120483   3.807   4.019   8.020  0.8455 -1.4914  0.4538
 3007SOL    HW220484   3.927   4.044   8.118 -1.0656 -1.3497 -1.3054
 3008SOL     OW20485   4.590   0.581   1.054  0.0077  0.2030 -0.5464
 3008SOL    HW120486   4.574   0.552   0.965  2.8090 -2.6645 -0.1102
 3008SOL    HW220487   4.499   0.587   1.082 -0.1506 -1.4033 -0.7240
 3009SOL     OW20488   1.402   0.655   2.532 -0.0109 -0.1956 -0.9725
 3009SOL    HW120489   1.458   0.620   2.463  0.5223  0.1524 -0.7134
 3009SOL    HW220490   1.380   0.740   2.492  0.2744  1.6804  2.9034
 3010SOL     OW20491   3.346   1.701  17.237  0.5580  0.0479 -0.2981
 3010SOL    HW120492   3.386   1.755  17.169 -1.1709  0.1432 -1.2325
 3010SOL    HW220493   3.404   1.732  17.307 -0.5031  2.9859 -0.6889
 3011SOL     OW20494   0.352   1.186   6.444 -0.4217  0.2883  0.3216
 3011SOL    HW120495   0.427   1.243   6.431  0.3112 -0.6656  0.3700
 3011SOL    HW220496   0.286   1.248   6.414 -0.4396  0.8819  1.6050
 3012SOL     OW20497   3.303   3.605   7.263 -0.3441 -0.3801  0.3358
 3012SOL    HW120498   3.292   3.570   7.352  1.9082 -3.1468 -0.4597
 3012SOL    HW220499   3.266   3.693   7.266 -0.6196 -0.5501  2.1455
 3013SOL     OW20500   3.068   0.816  15.859 -0.2763  0.5315  0.8934
 3013SOL    HW120501   3.125   0.792  15.785 -1.1358  0.2834  0.3149
 3013SOL    HW220502   2.994   0.859  15.817 -1.2912 -2.0847  0.0270
 3014SOL     OW20503   4.713   1.486   8.550 -0.0074  1.3791 -0.4170
 3014SOL    HW120504   4.665   1.407   8.573  0.9767  0.1737 -2.5782
 3014SOL    HW220505   4.688   1.556   8.611 -0.7395  2.4856 -1.9845
 3015SOL     OW20506   4.394   1.157   4.869  0.2118 -0.2911 -0.0183
 3015SOL    HW120507   4.325   1.181   4.807  0.8636 -3.4087 -1.9024
 3015SOL    HW220508   4.342   1.168   4.949  0.5753 -0.7504  0.2758
 3016SOL     OW20509   1.382   3.215  13.632 -0.2417  0.7069  0.3519
 3016SOL    HW120510   1.397   3.310  13.631 -0.2423  0.6906 -2.0776
 3016SOL    HW220511   1.406   3.184  13.544 -2.9682  0.3530 -0.2742
 3017SOL     OW20512   4.562   3.512   6.640  0.0913 -0.2570 -0.0200
 3017SOL    HW120513   4.618   3.442   6.607  0.3676 -0.0503  0.0160
 3017SOL    HW220514   4.588   3.505   6.732 -0.6599  1.3843  0.3202
 3018SOL     OW20515   4.358   0.155   5.005 -0.4121  0.7167  0.1921
 3018SOL    HW120516   4.392   0.086   4.948  0.4185 -0.3054  1.9125
 3018SOL    HW220517   4.377   0.234   4.954 -1.6345  0.5844 -0.4518
 3019SOL     OW20518   0.248   0.112   2.919  0.5066 -0.4915 -0.0392
 3019SOL    HW120519   0.182   0.142   2.856 -0.3285  0.9367  1.5267
 3019SOL    HW220520   0.194   0.080   2.991  0.6323  1.0123  0.7320
 3020SOL     OW20521   2.523   1.595   7.333 -0.1283  0.2504 -0.3546
 3020SOL    HW120522   2.604   1.644   7.324 -0.7826  1.2456 -0.8543
 3020SOL    HW220523   2.478   1.602   7.248 -0.8676 -2.3221 -0.1901
 3021SOL     OW20524   2.709   1.727   4.712 -0.3816 -0.9192 -0.1131
 3021SOL    HW120525   2.650   1.659   4.679 -1.8831  0.5470 -0.4317
 3021SOL    HW220526   2.776   1.671   4.752  0.0149 -1.4938 -1.5629
 3022SOL     OW20527   1.873   4.632   2.865  0.1885  0.1024  0.6641
 3022SOL    HW120528   1.879   4.542   2.832  2.4710  1.0358 -1.4778
 3022SOL    HW220529   1.785   4.631   2.904  0.7885  2.0630  2.0590
 3023SOL     OW20530   3.322   0.787   5.500  0.0213 -0.2207  0.3146
 3023SOL    HW120531   3.368   0.749   5.424  0.8498  2.6080 -0.5871
 3023SOL    HW220532   3.293   0.872   5.469  0.3364 -0.3301 -0.2931
 3024SOL     OW20533   3.236   2.627  14.849 -0.5061 -0.0103  0.0388
 3024SOL    HW120534   3.227   2.532  14.843  0.4743 -0.1324  0.4073
 3024SOL    HW220535   3.320   2.650  14.810  0.0589 -3.2683 -0.6692
 3025SOL     OW20536   0.941   0.100   5.104 -0.4119  0.0022 -0.1343
 3025SOL    HW120537   0.896   0.034   5.156  0.4923  1.5976  2.6866
 3025SOL    HW220538   0.867   0.157   5.085  0.2579 -0.2505 -3.6227
 3026SOL     OW20539   1.807   2.054   3.207 -0.1794 -0.3651  0.1216
 3026SOL    HW120540   1.760   2.045   3.124 -0.1830 -0.9133  0.1836
 3026SOL    HW220541   1.835   1.963   3.220  1.1454 -0.0754 -0.7092
 3027SOL     OW20542   0.711   3.419   2.582 -0.2079  0.5878 -0.0145
 3027SOL    HW120543   0.651   3.353   2.549 -0.3922  0.2616  0.9592
 3027SOL    HW220544   0.794   3.376   2.562  0.1263  0.0173  2.5719
 3028SOL     OW20545   1.901   1.386   0.933  0.8960 -0.6820 -0.3626
 3028SOL    HW120546   1.866   1.330   0.863 -1.2153 -0.0356  0.1553
 3028SOL    HW220547   1.899   1.476   0.902  0.4374 -0.8696 -0.8835
 3029SOL     OW20548   3.084   0.483   1.489 -0.1044  0.4945  0.0875
 3029SOL    HW120549   3.049   0.394   1.485  1.2656 -0.1619  2.3973
 3029SOL    HW220550   3.029   0.523   1.422  0.3265  0.2020 -0.4426
 3030SOL     OW20551   4.330   2.807   3.934 -0.0829  0.0436 -0.1350
 3030SOL    HW120552   4.336   2.878   3.998 -2.0724  1.0042 -1.0347
 3030SOL    HW220553   4.261   2.844   3.879  0.6510  1.8829  0.1793
 3031SOL     OW20554   0.737   2.969   2.157  0.2154 -0.0001  0.1484
 3031SOL    HW120555   0.830   2.963   2.134  0.0643 -1.6810 -0.0849
 3031SOL    HW220556   0.712   3.039   2.097  0.7147  0.1718  0.1376
 3032SOL     OW20557   2.209   0.736   6.683  0.0936 -0.1243 -0.2052
 3032SOL    HW120558   2.119   0.754   6.706 -0.8605 -1.6912 -2.6534
 3032SOL    HW220559   2.232   0.822   6.645  1.5048 -0.4464 -0.1027
 3033SOL     OW20560   1.479   0.449   8.098  0.0575 -0.7053  0.4488
 3033SOL    HW120561   1.496   0.485   8.011 -0.5804 -1.2255  0.1134
 3033SOL    HW220562   1.560   0.477   8.142 -0.6748  0.0420  1.3253
 3034SOL     OW20563   3.425   1.076   9.291 -0.1211  0.4074  0.0425
 3034SOL    HW120564   3.491   1.076   9.360 -0.4101 -2.1974  0.3238
 3034SOL    HW220565   3.350   1.114   9.337  1.0250  2.7340 -0.0163
 3035SOL     OW20566   2.008   2.124  16.966  0.1703  0.5519  0.1064
 3035SOL    HW120567   2.048   2.203  17.002 -0.5270  0.1288  1.8182
 3035SOL    HW220568   2.021   2.137  16.872  1.4819  1.8998  0.4815
 3036SOL     OW20569   1.354   4.262  11.992  0.1003 -0.0085 -0.1381
 3036SOL    HW120570   1.365   4.185  12.048 -0.0867  0.0820  0.0227
 3036SOL    HW220571   1.445   4.292  11.993  0.7801 -2.0110 -1.5391
 3037SOL     OW20572   4.245   3.551   4.001 -0.1697 -0.3218  0.4544
 3037SOL    HW120573   4.334   3.585   4.006 -0.8009  1.2875  1.1801
 3037SOL    HW220574   4.234   3.569   3.908  1.3998  1.2037  0.5658
 3038SOL     OW20575   2.462   0.939   6.964  0.3879  0.2577 -0.2019
 3038SOL    HW120576   2.447   0.881   7.039  2.6848  0.7326  0.6055
 3038SOL    HW220577   2.555   0.923   6.952  0.4543  0.0827  0.4918
 3039SOL     OW20578   4.257   3.572   6.819  0.4168 -0.3818  0.1144
 3039SOL    HW120579   4.271   3.547   6.728  0.5134  0.0835  0.0011
 3039SOL    HW220580   4.292   3.492   6.858 -0.9961 -0.3141  1.5237
 3040SOL     OW20581   3.316   3.573   3.254 -0.2683  0.4868  0.0921
 3040SOL    HW120582   3.338   3.570   3.160  0.9852 -1.0482  0.4209
 3040SOL    HW220583   3.254   3.646   3.251  1.0148  1.6277  1.6392
 3041SOL     OW20584   2.563   4.618   8.049  0.1965 -0.3651  0.1437
 3041SOL    HW120585   2.565   4.637   7.955 -1.7237  0.8077  0.3383
 3041SOL    HW220586   2.596   4.702   8.082 -0.5055  0.5248 -1.4394
 3042SOL     OW20587   0.972   3.772  10.035 -0.3135 -0.8516 -0.1472
 3042SOL    HW120588   1.066   3.760  10.021 -0.1280  1.4085 -0.9080
 3042SOL    HW220589   0.967   3.865  10.058  0.9438 -0.2513 -2.3504
 3043SOL     OW20590   1.433   3.144   8.630 -0.0906  0.4672  0.2639
 3043SOL    HW120591   1.460   3.236   8.638 -0.9467  0.6362  1.2890
 3043SOL    HW220592   1.474   3.134   8.544 -0.3048  0.0829  0.2054
 3044SOL     OW20593   0.045   1.271  17.605 -0.3508  0.1114  0.1237
 3044SOL    HW120594   4.691   1.222  17.633  0.1030  0.3806  1.8697
 3044SOL    HW220595   0.053   1.233  17.518 -0.3832  0.2621  0.0563
 3045SOL     OW20596   0.351   1.334   8.204  0.5342 -0.2849 -0.2293
 3045SOL    HW120597   0.373   1.269   8.271 -0.5409  0.0709  0.4754
 3045SOL    HW220598   0.275   1.290   8.164 -0.7029  0.0745  1.7004
 3046SOL     OW20599   2.119   3.870  14.843  0.1317  0.3593 -0.4372
 3046SOL    HW120600   2.127   3.853  14.749 -0.0723 -0.4642 -0.3046
 3046SOL    HW220601   2.041   3.820  14.866  0.2151  0.4376  0.0157
 3047SOL     OW20602   1.177   3.732  11.618  0.0150  0.2923  0.0027
 3047SOL    HW120603   1.155   3.663  11.680  1.1146 -0.6534 -0.6784
 3047SOL    HW220604   1.231   3.788  11.673 -0.9922  0.7290  0.5627
 3048SOL     OW20605   1.703   3.056   4.394  0.3434 -0.1990 -0.8146
 3048SOL    HW120606   1.718   3.041   4.301  3.0201 -2.2830 -0.0609
 3048SOL    HW220607   1.614   3.028   4.415  0.1645  1.4106  0.5158
 3049SOL     OW20608   3.371   0.876  14.577 -0.1312  0.1377  0.6752
 3049SOL    HW120609   3.396   0.790  14.543  0.8293  2.5669 -4.6886
 3049SOL    HW220610   3.304   0.912  14.518  0.6357  0.9892  0.3388
 3050SOL     OW20611   4.067   3.104   2.912  0.8027 -0.1092  0.4443
 3050SOL    HW120612   3.986   3.090   2.862  2.3018  0.8927 -2.2235
 3050SOL    HW220613   4.116   3.043   2.857  2.6786  1.9631 -0.1455
 3051SOL     OW20614   0.913   3.699   2.914  0.3255 -0.1377 -0.0004
 3051SOL    HW120615   0.910   3.751   2.834 -1.4165 -0.9101 -0.4382
 3051SOL    HW220616   0.860   3.623   2.891  0.5915 -0.3602  0.1204
 3052SOL     OW20617   0.640   0.183  15.899  0.5959 -0.4485  0.0975
 3052SOL    HW120618   0.674   0.168  15.810 -0.0940  1.4757 -0.4959
 3052SOL    HW220619   0.705   0.247  15.928  0.5153 -0.3786  0.1240
 3053SOL     OW20620   1.328   3.394   1.618  0.1239  0.0682 -0.1765
 3053SOL    HW120621   1.322   3.441   1.536 -0.0813  1.2179  0.4947
 3053SOL    HW220622   1.411   3.351   1.600  1.0319  0.7634  2.3008
 3054SOL     OW20623   0.135   4.506   2.403 -0.2843 -0.1424 -0.1581
 3054SOL    HW120624   0.133   4.494   2.498 -1.6759  0.9592 -0.0508
 3054SOL    HW220625   0.226   4.537   2.404 -0.6599  0.8947  3.7911
 3055SOL     OW20626   3.599   4.045   4.333 -0.7460 -0.0871 -0.3251
 3055SOL    HW120627   3.608   4.040   4.429 -1.1550  0.2388 -0.2685
 3055SOL    HW220628   3.545   4.122   4.320 -1.9862 -0.6341  1.5710
 3056SOL     OW20629   1.606   3.878  10.704 -0.3128  0.3232 -0.2098
 3056SOL    HW120630   1.684   3.859  10.652 -1.2528 -1.8915 -0.8372
 3056SOL    HW220631   1.597   3.972  10.686 -1.3829  0.1540 -0.6172
 3057SOL     OW20632   4.585   0.449   1.721  0.0028 -0.2134  0.2672
 3057SOL    HW120633   4.599   0.362   1.758 -0.6032  0.0941  1.2214
 3057SOL    HW220634   4.504   0.480   1.760  0.2777 -1.7148  2.0248
 3058SOL     OW20635   3.021   2.870   7.751  0.1381  0.2395  0.2445
 3058SOL    HW120636   3.035   2.922   7.672 -0.4453 -0.5203 -0.3581
 3058SOL    HW220637   3.041   2.926   7.826 -0.8473  1.5676 -0.4907
 3059SOL     OW20638   3.419   2.259   7.304 -0.3272  0.5993  0.5608
 3059SOL    HW120639   3.441   2.224   7.217  0.9509  1.5288  0.5109
 3059SOL    HW220640   3.342   2.313   7.290  0.5219  0.8073 -3.4024
 3060SOL     OW20641   0.139   4.357   6.397  0.4358  0.0500  0.8091
 3060SOL    HW120642   0.151   4.263   6.407 -1.5684 -0.2119  0.6801
 3060SOL    HW220643   0.050   4.378   6.425  0.9080  0.4737  2.0018
 3061SOL     OW20644   1.765   1.932   3.715 -0.4456 -0.2588 -0.0748
 3061SOL    HW120645   1.691   1.992   3.712 -0.0178  0.3372  1.2304
 3061SOL    HW220646   1.747   1.871   3.643  1.2390 -0.0572 -0.6825
 3062SOL     OW20647   1.131   2.489  11.851 -0.6257  0.1367 -0.2564
 3062SOL    HW120648   1.095   2.521  11.768 -1.0502  0.1252 -0.0807
 3062SOL    HW220649   1.111   2.396  11.847 -0.5957  0.2815 -3.8430
 3063SOL     OW20650   3.375   3.769   6.263  0.5877 -0.1350  0.2867
 3063SOL    HW120651   3.458   3.790   6.307  0.0946  1.4826  0.4550
 3063SOL    HW220652   3.322   3.767   6.343  0.8591  2.4964  0.5446
 3064SOL     OW20653   1.778   3.356   1.463 -0.0205 -0.5078 -0.0117
 3064SOL    HW120654   1.695   3.308   1.459 -1.0004  1.1735  0.3868
 3064SOL    HW220655   1.801   3.333   1.552 -0.4106 -3.1035 -0.5714
 3065SOL     OW20656   3.106   3.512  17.076 -0.1737 -0.0756  0.2075
 3065SOL    HW120657   3.064   3.558  17.004  2.4321  0.4901 -0.9303
 3065SOL    HW220658   3.135   3.427  17.042 -0.2646 -0.0375  0.0368
 3066SOL     OW20659   2.250   0.721   6.952  0.0795 -0.3842 -0.4621
 3066SOL    HW120660   2.236   0.626   6.954 -1.5475 -0.1260  0.8446
 3066SOL    HW220661   2.170   0.755   6.912 -1.0758 -0.4835  1.7413
 3067SOL     OW20662   2.182   3.472   6.230 -0.1448  0.1381 -0.7583
 3067SOL    HW120663   2.183   3.396   6.287 -0.2447  1.6357  1.2311
 3067SOL    HW220664   2.179   3.430   6.144  1.9478 -2.4595  0.4556
 3068SOL     OW20665   3.873   0.252   2.583 -0.4637  0.2216 -0.1004
 3068SOL    HW120666   3.795   0.198   2.599 -0.6262  0.1544 -1.1582
 3068SOL    HW220667   3.840   0.335   2.618 -2.1656 -1.1401  1.5357
 3069SOL     OW20668   1.220   3.864  10.065  0.3316  0.1632 -0.3400
 3069SOL    HW120669   1.259   3.921  10.132  0.0283 -0.7709  0.6179
 3069SOL    HW220670   1.311   3.853  10.035  0.8420 -1.0746  1.6553
 3070SOL     OW20671   2.661   1.535  17.059 -0.0352  0.0329  0.4659
 3070SOL    HW120672   2.598   1.595  17.019  0.4194  0.1566 -0.0627
 3070SOL    HW220673   2.601   1.464  17.083 -2.2233  1.7235 -0.0068
 3071SOL     OW20674   3.534   2.604   9.231  0.4880 -0.3182 -0.1491
 3071SOL    HW120675   3.608   2.651   9.194 -1.0342  2.4950  0.4358
 3071SOL    HW220676   3.520   2.535   9.166 -0.5641 -0.1840 -0.0729
 3072SOL     OW20677   3.198   0.203  16.252  0.2660 -0.7272  0.6532
 3072SOL    HW120678   3.128   0.249  16.298  0.0931  0.7769 -1.0890
 3072SOL    HW220679   3.161   0.118  16.277  1.2284 -1.6897 -1.1533
 3073SOL     OW20680   3.214   3.738   3.506  0.0540 -0.5291 -0.4621
 3073SOL    HW120681   3.215   3.652   3.548 -2.7606  0.3948  1.4663
 3073SOL    HW220682   3.309   3.747   3.502  0.1432 -1.1567  0.0922
 3074SOL     OW20683   3.048   0.793   4.212  0.1375  0.0874  0.2448
 3074SOL    HW120684   3.018   0.845   4.138  0.3474 -0.0212  0.0817
 3074SOL    HW220685   3.142   0.798   4.194  0.1598 -1.4554 -0.0329
 3075SOL     OW20686   2.315   1.747   9.585  0.4882  0.4579 -0.2179
 3075SOL    HW120687   2.250   1.807   9.549 -0.6621 -0.0361  1.0605
 3075SOL    HW220688   2.340   1.701   9.504 -0.6255  0.1687 -0.3954
 3076SOL     OW20689   1.808   4.411  14.448  0.5614  0.4276 -0.3310
 3076SOL    HW120690   1.764   4.490  14.415 -1.4780 -1.2378 -1.5568
 3076SOL    HW220691   1.845   4.448  14.528  0.6397  0.7517 -0.5164
 3077SOL     OW20692   3.308   0.502   7.489 -0.0846  0.3364 -0.2881
 3077SOL    HW120693   3.254   0.580   7.501  1.0186  1.1845 -0.8291
 3077SOL    HW220694   3.375   0.533   7.550 -1.1309 -0.7565  1.4103
 3078SOL     OW20695   2.570   2.598   7.701 -0.5716 -0.2716 -0.4575
 3078SOL    HW120696   2.478   2.574   7.688 -0.5708 -0.1397 -0.7173
 3078SOL    HW220697   2.567   2.675   7.644  0.1627  0.2991  0.2733
 3079SOL     OW20698   1.926   4.221   7.998  0.0326  0.1009 -0.0158
 3079SOL    HW120699   1.861   4.161   7.961  0.7170 -0.8401  0.3025
 3079SOL    HW220700   1.900   4.221   8.091 -0.3583  0.6170 -0.1292
 3080SOL     OW20701   2.985   4.478   5.287  0.0712 -0.0508  0.0426
 3080SOL    HW120702   3.031   4.415   5.342  0.9903  1.8837  1.4999
 3080SOL    HW220703   2.950   4.531   5.359 -1.2512  0.7110 -1.1700
 3081SOL     OW20704   2.555   0.755  15.136 -0.0920 -0.0727 -0.1893
 3081SOL    HW120705   2.589   0.756  15.225 -2.5051  1.0383  0.6973
 3081SOL    HW220706   2.462   0.734  15.148 -0.3857  1.4551  0.1683
 3082SOL     OW20707   0.711   4.451   0.640  0.2963 -0.0324 -0.4440
 3082SOL    HW120708   0.751   4.526   0.595  0.6205 -0.6680 -1.2330
 3082SOL    HW220709   0.778   4.431   0.705 -0.1144 -0.5880 -0.1922
 3083SOL     OW20710   3.097   0.464   7.744 -0.5318 -0.1809 -0.0915
 3083SOL    HW120711   3.082   0.392   7.681  0.3711 -1.2197  0.8750
 3083SOL    HW220712   3.125   0.404   7.813  1.3802  1.2914  0.4098
 3084SOL     OW20713   1.717   1.786   3.501  0.7699 -0.1076  0.9005
 3084SOL    HW120714   1.648   1.780   3.434  1.3932 -1.1436  0.3547
 3084SOL    HW220715   1.741   1.694   3.508 -1.1919 -0.6936  0.2223
 3085SOL     OW20716   0.543   1.036  10.010 -0.8026 -0.3975  0.3062
 3085SOL    HW120717   0.526   0.966   9.947  2.2052 -0.5614 -0.3269
 3085SOL    HW220718   0.581   0.988  10.084 -0.4853  0.4903  0.7151
 3086SOL     OW20719   0.487   2.814   4.749 -0.0276  0.0403  0.0362
 3086SOL    HW120720   0.445   2.864   4.678  0.6290 -0.4928 -0.7288
 3086SOL    HW220721   0.405   2.784   4.788  0.9739 -1.3799  1.0151
 3087SOL     OW20722   2.034   0.223   6.906 -0.3120  0.2622 -0.0536
 3087SOL    HW120723   2.020   0.176   6.823  0.0595  0.7583 -0.3949
 3087SOL    HW220724   2.079   0.152   6.952 -2.1982 -0.1772  1.1168
 3088SOL     OW20725   1.230   3.141  11.497 -0.0357  1.0739  0.4100
 3088SOL    HW120726   1.168   3.092  11.442  1.0229 -0.2908  0.4530
 3088SOL    HW220727   1.210   3.231  11.469  1.7641  1.0197 -1.0288
 3089SOL     OW20728   3.417   0.611   5.887 -0.3454  0.4721 -0.1853
 3089SOL    HW120729   3.471   0.598   5.809  0.1397  0.3056  0.1743
 3089SOL    HW220730   3.481   0.653   5.945 -1.4628 -3.1361  3.6190
 3090SOL     OW20731   3.659   1.278   4.012  0.9409  0.1502 -0.4056
 3090SOL    HW120732   3.703   1.201   4.046  2.3654  1.0116 -0.3136
 3090SOL    HW220733   3.725   1.346   4.028  0.7661 -0.0887  1.4004
 3091SOL     OW20734   4.457   4.086   0.126  0.0055  0.2503 -0.0287
 3091SOL    HW120735   4.549   4.066   0.107 -0.5459 -0.6088 -1.7437
 3091SOL    HW220736   4.436   4.120   0.039  2.8110  2.4502  0.1713
 3092SOL     OW20737   2.800   1.033   1.742  0.2312 -0.0135  0.2778
 3092SOL    HW120738   2.722   0.979   1.754 -0.1966 -0.2106 -3.3298
 3092SOL    HW220739   2.783   1.069   1.655 -1.2562 -0.8613  0.2256
 3093SOL     OW20740   3.622   3.634   4.393  0.0913 -0.0421 -0.0440
 3093SOL    HW120741   3.708   3.612   4.355 -0.8151  0.6262 -2.4711
 3093SOL    HW220742   3.574   3.677   4.323 -2.4740  0.1745  1.8695
 3094SOL     OW20743   0.591   4.606   0.345  0.0941  0.5090  0.0059
 3094SOL    HW120744   0.665   4.572   0.295 -0.8117 -2.9733  0.9911
 3094SOL    HW220745   0.531   4.637   0.278  0.4673 -0.8438 -0.9599
 3095SOL     OW20746   4.263   2.985  12.822  0.3124 -0.2534  0.0983
 3095SOL    HW120747   4.349   2.965  12.785  0.0425 -2.5171  0.7286
 3095SOL    HW220748   4.279   3.075  12.851  0.6665 -0.0100 -0.8342
 3096SOL     OW20749   2.005   3.487   1.902  0.2767  0.4619 -0.6319
 3096SOL    HW120750   2.083   3.499   1.955  0.7700  1.1223 -1.5012
 3096SOL    HW220751   1.947   3.556   1.933  0.4490  0.1045  0.4600
 3097SOL     OW20752   0.041   2.007   7.561 -0.0387 -0.3656  0.3208
 3097SOL    HW120753   0.118   1.964   7.598 -0.9550 -1.2276  1.2736
 3097SOL    HW220754   0.038   2.098   7.589  1.5146  0.0574 -0.9166
 3098SOL     OW20755   0.817   1.903  17.228  0.0994 -0.0813 -0.0355
 3098SOL    HW120756   0.737   1.850  17.233 -2.1644  3.5584  1.9269
 3098SOL    HW220757   0.806   1.944  17.314  0.4865 -2.9501  1.3825
 3099SOL     OW20758   4.132   2.876   5.093 -0.1113  0.0423 -0.1297
 3099SOL    HW120759   4.081   2.881   5.174 -0.2042  0.3810 -0.2108
 3099SOL    HW220760   4.137   2.785   5.064 -1.5286  0.4144 -1.5311
 3100SOL     OW20761   3.786   3.889   6.044 -0.0958  0.1621 -0.5073
 3100SOL    HW120762   3.843   3.814   6.063 -1.4790 -1.0109 -1.0165
 3100SOL    HW220763   3.710   3.843   6.009 -0.2964 -0.8124  1.2310
 3101SOL     OW20764   1.564   0.437   5.181  0.0457  0.1669  0.0541
 3101SOL    HW120765   1.580   0.416   5.089 -1.0766 -1.0587  0.1481
 3101SOL    HW220766   1.567   0.533   5.175 -0.2264  0.0461 -2.0520
 3102SOL     OW20767   4.166   2.127   3.870  1.0013  0.4164 -0.4764
 3102SOL    HW120768   4.144   2.035   3.860 -2.1177  1.0866  0.1668
 3102SOL    HW220769   4.244   2.130   3.815 -0.0972 -0.5434 -2.0808
 3103SOL     OW20770   1.679   1.270   8.426 -0.3247  0.7056  0.2761
 3103SOL    HW120771   1.752   1.232   8.378 -0.9772  0.0548 -0.2059
 3103SOL    HW220772   1.602   1.246   8.374 -1.7810  1.6905  1.9815
 3104SOL     OW20773   0.512   1.121   5.010 -0.3644 -0.8027 -0.3766
 3104SOL    HW120774   0.598   1.137   4.971 -1.1715  0.5107 -1.6309
 3104SOL    HW220775   0.541   1.139   5.099 -1.8084 -1.2979  0.1798
 3105SOL     OW20776   3.130   2.266   8.774 -0.3067 -0.5804 -0.1625
 3105SOL    HW120777   3.115   2.198   8.708  0.0742  0.3954 -1.2586
 3105SOL    HW220778   3.177   2.213   8.839 -0.4578  1.0332  1.2490
 3106SOL     OW20779   0.833   4.248   1.372  0.3105 -0.3436  0.3100
 3106SOL    HW120780   0.753   4.273   1.418 -0.1444  0.0551 -0.7111
 3106SOL    HW220781   0.831   4.153   1.368  1.3250 -0.2972 -1.2896
 3107SOL     OW20782   1.052   0.052   7.755  0.2385 -0.2970  0.0211
 3107SOL    HW120783   1.116   0.011   7.697  2.3115  2.5889  0.2132
 3107SOL    HW220784   0.988   0.084   7.692  0.8318 -0.9223 -0.9062
 3108SOL     OW20785   4.227   4.621  11.700  0.0495  0.1050 -0.3065
 3108SOL    HW120786   4.286   4.635  11.626  1.8767 -0.3868  1.0456
 3108SOL    HW220787   4.141   4.624  11.658  0.0837 -2.4524 -0.5568
 3109SOL     OW20788   2.913   3.015   7.006  0.1781 -0.0810  0.6309
 3109SOL    HW120789   2.831   3.064   6.991  0.7332 -0.6169 -3.9125
 3109SOL    HW220790   2.976   3.083   7.030  1.5275 -1.1732  0.1026
 3110SOL     OW20791   2.183   0.073   8.835 -0.0768 -0.8775  0.1693
 3110SOL    HW120792   2.180   4.713   8.882 -0.4447 -1.0610 -0.1772
 3110SOL    HW220793   2.090   0.095   8.845  0.8721  2.5184  1.3163
 3111SOL     OW20794   1.559   3.036   3.257  0.1636  0.0289 -0.4130
 3111SOL    HW120795   1.504   2.961   3.236  3.1615 -1.6181 -2.3644
 3111SOL    HW220796   1.592   3.000   3.339 -0.9188 -2.8692 -1.2463
 3112SOL     OW20797   4.114   3.409   1.971 -0.3007  0.2695  0.4539
 3112SOL    HW120798   4.090   3.429   2.061 -1.3843 -0.2368  0.2782
 3112SOL    HW220799   4.030   3.394   1.929  0.5256  0.0649 -1.1273
 3113SOL     OW20800   1.998   1.643   2.859 -0.2008 -0.4281  0.3496
 3113SOL    HW120801   1.945   1.682   2.789 -1.9141 -2.3877  0.5363
 3113SOL    HW220802   2.087   1.658   2.828  0.0249  1.3950  1.8961
 3114SOL     OW20803   2.271   1.097  11.218  0.5819  0.0817  0.3399
 3114SOL    HW120804   2.196   1.142  11.257 -0.7663 -0.7142 -1.2876
 3114SOL    HW220805   2.347   1.131  11.263  0.5208 -0.2200  0.6683
 3115SOL     OW20806   1.114   1.005  16.200 -0.1843  0.3108  0.1170
 3115SOL    HW120807   1.194   0.959  16.224  0.4109  1.4902  0.3634
 3115SOL    HW220808   1.091   0.978  16.111 -0.7976 -3.0532  1.2705
 3116SOL     OW20809   3.060   1.512   1.900  0.3485 -0.0236  0.5620
 3116SOL    HW120810   3.055   1.605   1.925 -0.2714 -0.2438  1.2761
 3116SOL    HW220811   3.036   1.469   1.983  0.8352 -1.4977 -0.0629
 3117SOL     OW20812   2.825   4.457  12.297  0.1478 -0.3611 -0.2722
 3117SOL    HW120813   2.882   4.380  12.298  1.1454  0.4030  1.8143
 3117SOL    HW220814   2.884   4.525  12.329 -0.6172 -0.5368  1.5064
 3118SOL     OW20815   0.557   0.815   7.096  0.3606 -0.0945 -0.3058
 3118SOL    HW120816   0.604   0.844   7.018 -1.6220 -0.3860 -1.6143
 3118SOL    HW220817   0.579   0.883   7.159  0.4863  0.1434 -0.6031
 3119SOL     OW20818   2.073   0.686  10.408  0.2288  0.3202  0.3428
 3119SOL    HW120819   2.114   0.666  10.492  0.7894  0.0861  0.0108
 3119SOL    HW220820   1.983   0.661  10.430 -0.2261  1.3987 -0.2730
 3120SOL     OW20821   0.470   0.949   6.535 -0.2923  0.3104  0.4198
 3120SOL    HW120822   0.475   0.910   6.448 -2.2342 -2.2282  1.4455
 3120SOL    HW220823   0.437   1.034   6.507  0.9987  0.9507  0.8214
 3121SOL     OW20824   3.292   4.665   6.192  0.0325 -0.6150  0.4100
 3121SOL    HW120825   3.326   4.723   6.125  2.2190 -2.9069 -0.4881
 3121SOL    HW220826   3.318   4.579   6.157  0.8110  0.0977 -0.7959
 3122SOL     OW20827   0.539   3.642  16.004  0.1350  0.0924 -0.5301
 3122SOL    HW120828   0.531   3.600  15.919 -1.2076  1.6873 -1.2037
 3122SOL    HW220829   0.633   3.661  16.007  0.0513  0.3659  0.4693
 3123SOL     OW20830   0.050   4.713  17.662 -0.2169 -0.8960  0.0759
 3123SOL    HW120831   0.024   4.721  17.571  1.6680  0.6967 -0.3230
 3123SOL    HW220832   4.697   0.026   0.010 -1.4539  0.0096 -2.7812
 3124SOL     OW20833   3.847   3.888   2.422 -0.3468 -0.2188 -0.9917
 3124SOL    HW120834   3.867   3.982   2.414 -0.1846 -0.1204  0.5583
 3124SOL    HW220835   3.756   3.885   2.392 -0.5673  2.0786 -0.5698
 3125SOL     OW20836   4.185   4.307   0.070  0.4590  0.2995 -0.1979
 3125SOL    HW120837   4.097   4.270   0.076  0.5493 -0.0039 -0.7901
 3125SOL    HW220838   4.220   4.265   0.149  2.7896  2.4973 -0.0472
 3126SOL     OW20839   1.362   1.676   9.378  0.5225  0.2341  0.3901
 3126SOL    HW120840   1.398   1.593   9.347 -0.0425  0.3863 -0.6515
 3126SOL    HW220841   1.311   1.642   9.452  2.3692  0.8280  1.9606
 3127SOL     OW20842   4.069   2.851  13.494  0.2886  0.2067  0.6902
 3127SOL    HW120843   4.141   2.913  13.500  0.5965 -0.0919  0.0596
 3127SOL    HW220844   4.111   2.787  13.435  1.0309 -0.5258  2.0183
 3128SOL     OW20845   2.700   3.924  11.269 -0.0446  0.0527  0.2468
 3128SOL    HW120846   2.681   3.995  11.207  1.6523  1.0327  0.8410
 3128SOL    HW220847   2.622   3.870  11.256 -0.6446  0.4083  2.4408
 3129SOL     OW20848   4.229   2.290   4.142  0.1216  0.0024  0.1773
 3129SOL    HW120849   4.288   2.246   4.080 -1.4716 -0.8169 -0.7673
 3129SOL    HW220850   4.211   2.376   4.103 -2.0500 -0.2305  0.6743
 3130SOL     OW20851   3.568   2.301  12.630 -0.0936  0.1523  0.3981
 3130SOL    HW120852   3.648   2.267  12.589 -1.0236 -1.4096 -0.0813
 3130SOL    HW220853   3.599   2.347  12.709  1.9961 -0.4187 -0.0732
 3131SOL     OW20854   1.371   1.535   1.795  0.5214  0.3252  0.5554
 3131SOL    HW120855   1.374   1.596   1.721 -1.4772 -0.7910 -0.4663
 3131SOL    HW220856   1.327   1.457   1.760 -2.0446  2.3634 -0.7320
 3132SOL     OW20857   1.270   3.866   4.987 -0.4579  0.5529 -0.1343
 3132SOL    HW120858   1.290   3.806   4.916  1.4607  2.0469 -0.8655
 3132SOL    HW220859   1.200   3.910   4.939  0.0360  1.3099 -0.1733
 3133SOL     OW20860   3.159   0.328  13.933  0.5738 -0.2815  0.0984
 3133SOL    HW120861   3.082   0.374  13.966  0.9029  0.2404  0.1416
 3133SOL    HW220862   3.147   0.251  13.988  0.9307 -0.2823  0.1718
 3134SOL     OW20863   2.811   2.306   7.444  0.1549  0.7022 -0.1526
 3134SOL    HW120864   2.738   2.307   7.506 -0.6197 -0.4826 -1.0453
 3134SOL    HW220865   2.869   2.372   7.482 -0.6998  1.1096  0.4459
 3135SOL     OW20866   1.246   0.992   2.037 -0.0239 -0.2378 -0.1565
 3135SOL    HW120867   1.201   1.020   1.957 -1.0821 -0.5335  0.3371
 3135SOL    HW220868   1.245   0.896   2.037  0.9053 -0.2555  0.4461
 3136SOL     OW20869   2.460   4.475  16.476  0.1510  0.4227 -0.2640
 3136SOL    HW120870   2.433   4.550  16.422  0.7909  0.6017 -0.3444
 3136SOL    HW220871   2.475   4.408  16.409  1.5189  1.1486 -0.6826
 3137SOL     OW20872   3.889   0.271   3.907 -0.6351 -0.4448  0.2060
 3137SOL    HW120873   3.835   0.222   3.845  2.9012 -0.8661 -2.5498
 3137SOL    HW220874   3.825   0.284   3.977 -0.5686 -1.4748  0.4615
 3138SOL     OW20875   1.818   2.029  12.871  0.4398  0.2692  0.2230
 3138SOL    HW120876   1.730   2.049  12.841  0.1263  0.6386  1.3905
 3138SOL    HW220877   1.839   1.986  12.788  0.0289  1.8558 -0.7027
 3139SOL     OW20878   0.722   0.582  10.364 -0.2845 -1.3302  0.3947
 3139SOL    HW120879   0.772   0.568  10.444  1.2365  0.7725 -0.1803
 3139SOL    HW220880   0.798   0.563  10.310 -0.7523 -1.7378 -0.1164
 3140SOL     OW20881   3.777   4.603  13.749  0.5648 -0.1535  0.7598
 3140SOL    HW120882   3.856   4.643  13.713  0.9803 -0.1237  1.6879
 3140SOL    HW220883   3.810   4.570  13.833 -1.6324  0.9436  2.0593
 3141SOL     OW20884   0.643   1.721  17.351 -0.0803 -0.1548  0.1247
 3141SOL    HW120885   0.705   1.729  17.424 -0.1497 -0.7133  0.2453
 3141SOL    HW220886   0.569   1.688  17.402 -1.8152 -0.1505 -2.4228
 3142SOL     OW20887   1.904   4.522  16.752  0.6108  0.0576 -0.0731
 3142SOL    HW120888   1.983   4.481  16.717  0.2122 -0.9625  0.2304
 3142SOL    HW220889   1.897   4.471  16.832  0.0070 -2.8516 -2.0070
 3143SOL     OW20890   2.547   0.192   2.919  0.3327 -0.1058  0.0777
 3143SOL    HW120891   2.517   0.102   2.932  2.1745 -0.7910 -0.4916
 3143SOL    HW220892   2.468   0.222   2.873  0.3983 -2.2957 -1.4444
 3144SOL     OW20893   4.124   2.015   8.335 -0.4421 -0.0287  0.0462
 3144SOL    HW120894   4.173   1.962   8.272  1.8018 -1.5206  3.0685
 3144SOL    HW220895   4.168   2.008   8.419 -0.6096 -0.4117  0.1006
 3145SOL     OW20896   0.880   1.728   4.959  0.0879 -0.2240  0.0598
 3145SOL    HW120897   0.888   1.715   4.865 -2.4947  1.7096 -0.4280
 3145SOL    HW220898   0.963   1.693   4.990 -0.8446 -2.7017 -0.1989
 3146SOL     OW20899   3.547   0.129   3.587 -0.2851  0.8514  0.2534
 3146SOL    HW120900   3.527   0.178   3.507 -2.5944  1.6973  1.3309
 3146SOL    HW220901   3.583   0.188   3.653  0.3378 -1.0652  1.6398
 3147SOL     OW20902   4.216   3.148   4.586  0.2020 -0.3246  0.8691
 3147SOL    HW120903   4.228   3.155   4.492  1.3347 -1.8074  0.9161
 3147SOL    HW220904   4.163   3.069   4.589 -1.2256  0.5786 -0.9163
 3148SOL     OW20905   1.767   0.189  16.204 -0.3781  0.0060 -0.2826
 3148SOL    HW120906   1.852   0.154  16.229 -1.3378 -1.4330  0.9786
 3148SOL    HW220907   1.795   0.219  16.118 -0.5315 -1.3221 -0.7900
 3149SOL     OW20908   0.836   1.906   3.413  0.1758  0.2938 -0.4056
 3149SOL    HW120909   0.830   1.999   3.438 -1.2278  0.1793 -0.2870
 3149SOL    HW220910   0.757   1.895   3.360  1.6928  0.3587 -2.6881
 3150SOL     OW20911   1.355   2.541   5.894  0.0585  0.8536  0.6850
 3150SOL    HW120912   1.360   2.624   5.847  1.2274  0.2462 -0.2763
 3150SOL    HW220913   1.427   2.545   5.957 -0.3069  2.2570  1.0024
 3151SOL     OW20914   4.272   1.082   1.606 -0.7011  0.3051 -0.3256
 3151SOL    HW120915   4.185   1.055   1.634  0.0885 -2.4174 -0.5396
 3151SOL    HW220916   4.324   1.003   1.620  0.2059  1.8500  4.8053
 3152SOL     OW20917   1.422   3.924  15.154 -0.4826 -0.5848 -0.4523
 3152SOL    HW120918   1.338   3.888  15.125 -0.4523 -1.7292  0.9027
 3152SOL    HW220919   1.399   3.982  15.227 -0.7023  1.3858 -2.0700
 3153SOL     OW20920   2.665   1.714   6.329  0.2238 -0.3043 -0.2390
 3153SOL    HW120921   2.585   1.724   6.382 -1.6411  0.3393 -3.2079
 3153SOL    HW220922   2.643   1.792   6.278  1.2055  0.3721  0.3646
 3154SOL     OW20923   4.617   1.896   0.933 -1.1653  0.4823 -0.0834
 3154SOL    HW120924   4.585   1.806   0.934 -0.6393  0.2980  0.1573
 3154SOL    HW220925   4.539   1.945   0.907 -3.1471 -1.7135  1.7399
 3155SOL     OW20926   0.837   2.376   6.361 -0.4168  0.2741 -0.2802
 3155SOL    HW120927   0.878   2.342   6.440  0.6685 -1.6229 -1.6758
 3155SOL    HW220928   0.828   2.299   6.305 -0.0236 -0.6482  0.9185
 3156SOL     OW20929   0.361   3.198  16.137  0.2700  0.9638 -0.0407
 3156SOL    HW120930   0.428   3.265  16.152  1.3801 -0.0552 -0.4648
 3156SOL    HW220931   0.340   3.202  16.044 -1.3697 -1.3305  0.2394
 3157SOL     OW20932   2.819   1.832   4.328 -0.2729  0.0488 -0.3297
 3157SOL    HW120933   2.910   1.858   4.312  0.1295 -0.8831  0.5034
 3157SOL    HW220934   2.781   1.911   4.367 -0.4080  0.3975 -1.1424
 3158SOL     OW20935   1.881   2.706  12.931 -0.4906  0.4830 -0.2457
 3158SOL    HW120936   1.827   2.644  12.883  1.1735  0.6068 -2.2922
 3158SOL    HW220937   1.878   2.686  13.025 -1.2927  0.8850 -0.1877
 3159SOL     OW20938   2.381   1.200   3.426  0.2283  0.2959 -0.2431
 3159SOL    HW120939   2.421   1.285   3.446  0.2777  0.1829  0.1334
 3159SOL    HW220940   2.373   1.167   3.515 -0.4886 -1.2393 -0.8749
 3160SOL     OW20941   0.205   4.478   0.735  0.4986  0.3378  0.0657
 3160SOL    HW120942   0.203   4.412   0.803  1.8426  0.3536  0.1341
 3160SOL    HW220943   0.162   4.556   0.771 -0.6286 -0.1771 -0.1900
 3161SOL     OW20944   3.517   2.567  14.438 -0.0320  0.0526 -0.0609
 3161SOL    HW120945   3.597   2.534  14.479  0.1858  1.3304  0.5768
 3161SOL    HW220946   3.490   2.617  14.515 -2.1032 -1.5699  0.2560
 3162SOL     OW20947   0.495   1.641  16.953  0.5171  0.1933  0.7107
 3162SOL    HW120948   0.495   1.552  16.990 -2.5940  0.1432  0.5382
 3162SOL    HW220949   0.571   1.673  17.002  0.8280  0.2525  0.1916
 3163SOL     OW20950   1.887   0.982   0.843 -0.0778  0.2905  0.3561
 3163SOL    HW120951   1.880   0.887   0.832  1.0588  0.2459 -0.0167
 3163SOL    HW220952   1.829   0.994   0.918 -0.8923 -1.1981 -0.0341
 3164SOL     OW20953   1.470   1.789   6.570  0.1355 -0.3418 -0.1341
 3164SOL    HW120954   1.509   1.860   6.519  1.0348 -1.0714 -0.4574
 3164SOL    HW220955   1.499   1.712   6.520 -0.2244  0.1327 -1.0718
 3165SOL     OW20956   0.268   1.875   6.290  0.5368  0.6599 -0.8485
 3165SOL    HW120957   0.207   1.803   6.276  1.5178  0.3286 -3.5402
 3165SOL    HW220958   0.260   1.881   6.385  0.5808 -1.1302 -0.7316
 3166SOL     OW20959   1.182   1.984   8.613  0.2405  0.0295 -0.2306
 3166SOL    HW120960   1.145   1.941   8.690  0.9236 -1.8181 -0.9199
 3166SOL    HW220961   1.213   2.070   8.642  1.8332  0.0687 -2.0711
 3167SOL     OW20962   3.118   1.255   8.600  0.0787  0.2224 -0.0069
 3167SOL    HW120963   3.096   1.167   8.631 -1.3004 -0.2068 -2.1705
 3167SOL    HW220964   3.057   1.262   8.527 -0.4257 -2.1212  0.1860
 3168SOL     OW20965   0.298   2.798   9.444 -0.2053 -0.5436  0.1006
 3168SOL    HW120966   0.259   2.738   9.508  1.3739  0.2954  1.8366
 3168SOL    HW220967   0.353   2.858   9.494  1.3364  0.1546 -2.4002
 3169SOL     OW20968   2.928   0.532   6.534  0.0573  0.2796  0.2301
 3169SOL    HW120969   2.976   0.454   6.508  1.4440  0.4527  2.2812
 3169SOL    HW220970   2.868   0.543   6.460 -0.5501  1.5104  0.9105
 3170SOL     OW20971   3.769   4.593   2.850  0.0867  0.1854 -0.3685
 3170SOL    HW120972   3.804   4.508   2.823  0.1538 -0.1697  0.8325
 3170SOL    HW220973   3.675   4.580   2.841  0.1315 -0.1401 -0.3712
 3171SOL     OW20974   4.199   1.664   4.809 -0.4767  0.2864  0.0170
 3171SOL    HW120975   4.207   1.694   4.718 -0.3669  1.1854  0.3265
 3171SOL    HW220976   4.279   1.611   4.803  0.2267  1.1324  1.9616
 3172SOL     OW20977   4.706   4.551   9.361  0.1379 -0.4880 -0.3935
 3172SOL    HW120978   4.618   4.553   9.323 -0.8031  0.6147  1.8787
 3172SOL    HW220979   4.684   4.480   9.421  0.3679  0.2451  0.5602
 3173SOL     OW20980   3.985   2.963  15.290 -0.3598 -0.0254  0.1245
 3173SOL    HW120981   3.970   3.055  15.272  3.0866 -0.2748 -3.8369
 3173SOL    HW220982   4.067   2.945  15.245 -1.0728 -0.3523 -1.0425
 3174SOL     OW20983   3.672   3.574   5.201 -0.2968 -0.3219 -0.3375
 3174SOL    HW120984   3.657   3.543   5.290 -2.5499  0.0483 -0.5873
 3174SOL    HW220985   3.736   3.643   5.217 -1.0105  0.6612 -1.7605
 3175SOL     OW20986   0.823   2.548   4.871 -0.2814 -0.0447  0.3749
 3175SOL    HW120987   0.833   2.602   4.793 -0.4388  0.1374  0.4803
 3175SOL    HW220988   0.732   2.558   4.897 -0.1996  1.8456 -0.0927
 3176SOL     OW20989   0.903   2.818   5.940  0.5375  0.0503 -0.2256
 3176SOL    HW120990   0.946   2.734   5.922 -0.7851 -0.3536 -1.4630
 3176SOL    HW220991   0.905   2.819   6.036 -1.1322  1.9354 -0.2266
 3177SOL     OW20992   0.501   4.178   9.841 -0.0164 -0.2027 -0.1760
 3177SOL    HW120993   0.483   4.172   9.747  2.2377 -1.6240 -0.5227
 3177SOL    HW220994   0.418   4.217   9.869 -0.1891  1.3171 -2.7833
 3178SOL     OW20995   4.352   4.492  17.678  0.3887  0.1522  0.0853
 3178SOL    HW120996   4.287   4.432   0.017  0.2330 -0.0675 -0.5486
 3178SOL    HW220997   4.434   4.446  17.694  1.4824  2.1668  0.1661
 3179SOL     OW20998   0.892   2.261   5.877 -0.2714 -0.1076  0.6288
 3179SOL    HW120999   0.904   2.241   5.970 -0.8283  5.0282  1.7806
 3179SOL    HW221000   0.823   2.326   5.887 -0.9746 -0.8044  0.2528
 3180SOL     OW21001   4.352   4.609   2.065  0.5029 -0.2436 -0.3934
 3180SOL    HW121002   4.266   4.590   2.102  0.2008  0.2714 -0.8443
 3180SOL    HW221003   4.326   4.602   1.973  0.1887 -0.3404 -0.2971
 3181SOL     OW21004   1.717   1.206   5.792  0.1023 -0.1823  0.1056
 3181SOL    HW121005   1.623   1.209   5.809  0.4718  0.9961  1.8816
 3181SOL    HW221006   1.717   1.275   5.725 -0.0720 -0.1007  0.1903
 3182SOL     OW21007   3.064   4.060   2.231  0.0392 -0.3369  0.2608
 3182SOL    HW121008   2.977   4.023   2.244 -0.4942  1.7811  2.7916
 3182SOL    HW221009   3.087   4.040   2.140 -1.6623 -2.2772  0.2721
 3183SOL     OW21010   1.725   4.054   4.880 -0.5300  0.1918  0.0951
 3183SOL    HW121011   1.630   4.045   4.868 -0.3612 -0.7357 -0.5593
 3183SOL    HW221012   1.738   4.102   4.798  0.7855  0.8331  0.6942
 3184SOL     OW21013   0.253   4.489   8.965 -0.1262  0.2230  0.4506
 3184SOL    HW121014   0.198   4.556   9.007  0.4883 -0.8312  2.9535
 3184SOL    HW221015   0.194   4.438   8.910 -0.7553  0.7145  0.6670
 3185SOL     OW21016   2.611   4.290   0.614  0.0742  0.1722  0.5398
 3185SOL    HW121017   2.531   4.237   0.613  0.1203  0.1304 -0.4496
 3185SOL    HW221018   2.666   4.237   0.673  0.7019 -0.0614 -0.2632
 3186SOL     OW21019   3.587   0.007   4.719  0.1623  0.3137 -0.4806
 3186SOL    HW121020   3.627   4.721   4.806 -0.1818  1.3103 -0.2050
 3186SOL    HW221021   3.507   4.678   4.727  0.7379 -0.5980 -0.7642
 3187SOL     OW21022   4.345   3.178  10.451 -0.2775  0.1597  0.5293
 3187SOL    HW121023   4.283   3.195  10.522  0.7513 -0.1262  1.4845
 3187SOL    HW221024   4.333   3.261  10.405  1.6348  0.2027  0.0903
 3188SOL     OW21025   1.264   3.479   8.071 -0.1158 -0.1955 -0.6098
 3188SOL    HW121026   1.281   3.409   8.008 -0.0011  0.1425 -0.9562
 3188SOL    HW221027   1.349   3.500   8.109 -0.2388  0.0733 -0.4860
 3189SOL     OW21028   0.126   1.647   4.432  0.2967  0.2024  0.1397
 3189SOL    HW121029   0.166   1.574   4.479  1.4488  1.7754  1.5827
 3189SOL    HW221030   0.101   1.610   4.347 -0.9527  2.3840 -0.4290
 3190SOL     OW21031   2.497   1.791   7.525 -0.3954  0.0349  0.1492
 3190SOL    HW121032   2.438   1.724   7.559  3.1512 -2.2851  1.7480
 3190SOL    HW221033   2.582   1.757   7.554  0.2719 -0.6724 -2.6067
 3191SOL     OW21034   1.451   1.154   1.744  0.2208 -0.1363  0.4020
 3191SOL    HW121035   1.373   1.205   1.722  0.6325  0.1457 -0.4272
 3191SOL    HW221036   1.434   1.071   1.699  2.2988 -0.1806 -0.3103
 3192SOL     OW21037   4.644   0.978   2.012 -0.1162  0.0839  0.4173
 3192SOL    HW121038   4.689   1.006   1.932  1.0424  0.0094  1.0384
 3192SOL    HW221039   4.717   0.982   2.074  1.8541 -1.3733 -1.7860
 3193SOL     OW21040   1.912   1.759   4.972 -0.1537  0.4082  0.0750
 3193SOL    HW121041   1.846   1.763   4.902 -2.5014 -0.7067  2.2208
 3193SOL    HW221042   1.864   1.705   5.034 -0.4972  0.7374  0.0990
 3194SOL     OW21043   0.313   2.831   7.414  0.1424  0.1237 -0.0036
 3194SOL    HW121044   0.226   2.865   7.432  0.4754 -0.4278  2.6052
 3194SOL    HW221045   0.352   2.887   7.347 -0.4080  0.0305 -0.4040
 3195SOL     OW21046   3.427   3.211   7.848 -0.3253  0.1734 -0.5136
 3195SOL    HW121047   3.464   3.280   7.903  0.5734 -1.2942  0.7346
 3195SOL    HW221048   3.480   3.134   7.869 -2.6226 -2.0158 -2.7942
 3196SOL     OW21049   2.148   4.597  15.297  0.0379 -0.3320 -0.4012
 3196SOL    HW121050   2.192   4.682  15.298  0.9657 -0.8099 -0.9423
 3196SOL    HW221051   2.140   4.586  15.202 -0.4519 -1.0788 -0.2738
 3197SOL     OW21052   4.488   3.845   6.373  0.0739  0.3290 -0.1608
 3197SOL    HW121053   4.516   3.784   6.305  1.1488  0.6020  0.0455
 3197SOL    HW221054   4.415   3.794   6.408  0.7365 -0.2153  0.4124
 3198SOL     OW21055   3.288   2.340   6.614 -0.0147 -0.4806  0.3269
 3198SOL    HW121056   3.340   2.416   6.639  0.0963  0.5087 -2.8442
 3198SOL    HW221057   3.336   2.310   6.536 -1.7431  1.9992 -1.7050
 3199SOL     OW21058   3.083   4.694  16.279 -0.2383  0.3976  0.5432
 3199SOL    HW121059   2.994   4.661  16.293 -0.6528  2.0140  1.6443
 3199SOL    HW221060   3.102   4.656  16.193 -1.4231  0.1869  0.3843
 3200SOL     OW21061   0.155   3.437  12.988  0.4880  0.1773 -0.3748
 3200SOL    HW121062   0.251   3.440  12.986  0.4987 -0.6137 -0.9408
 3200SOL    HW221063   0.136   3.459  13.080 -0.2064 -1.7409 -0.0571
 3201SOL     OW21064   2.421   1.438   2.287  0.0443  0.0268  0.2193
 3201SOL    HW121065   2.363   1.365   2.269  0.0767  0.0632 -0.0304
 3201SOL    HW221066   2.408   1.479   2.202 -1.9109 -0.0108  0.5111
 3202SOL     OW21067   2.772   1.271   1.269 -0.0526  0.1619  0.4208
 3202SOL    HW121068   2.805   1.358   1.247  0.3240  0.3171  1.5957
 3202SOL    HW221069   2.684   1.280   1.231 -0.6775  1.6489  2.2100
 3203SOL     OW21070   3.382   0.747   3.139 -0.7618  0.1435  0.0163
 3203SOL    HW121071   3.339   0.757   3.054  1.6434  0.2015 -1.2112
 3203SOL    HW221072   3.316   0.778   3.201  0.4411  0.2873  1.2437
 3204SOL     OW21073   0.153   2.994   3.090 -0.4103 -0.1413  0.2485
 3204SOL    HW121074   0.176   3.028   3.177  1.2093 -0.7428  0.0548
 3204SOL    HW221075   0.094   2.925   3.119 -0.0541  0.5211  2.5714
 3205SOL     OW21076   2.450   2.305   7.571 -0.1828 -0.1428  0.6896
 3205SOL    HW121077   2.440   2.213   7.546 -0.9701 -0.5418  2.4483
 3205SOL    HW221078   2.463   2.297   7.665  2.1791 -0.0791  0.3680
 3206SOL     OW21079   2.166   3.755  11.953 -0.4848 -0.3209 -0.2534
 3206SOL    HW121080   2.192   3.847  11.954 -0.7849 -0.2896  2.5808
 3206SOL    HW221081   2.184   3.723  12.041 -1.0569 -0.2630 -0.1132
 3207SOL     OW21082   2.388   4.177   0.504  0.2738  0.3238  0.4190
 3207SOL    HW121083   2.297   4.204   0.498  0.4699  1.5686  3.4206
 3207SOL    HW221084   2.381   4.087   0.471 -0.0468  0.0138  1.3482
 3208SOL     OW21085   4.031   3.100  13.730  0.4300  0.1659 -0.0143
 3208SOL    HW121086   4.123   3.093  13.702 -0.1479  0.2717 -1.9891
 3208SOL    HW221087   3.985   3.060  13.656 -1.2371 -0.0982  1.1818
 3209SOL     OW21088   0.977   1.259   7.933  0.0406 -0.0304  0.5490
 3209SOL    HW121089   1.046   1.193   7.936 -0.9305 -1.0534  0.6077
 3209SOL    HW221090   1.015   1.321   7.995  3.0534 -0.8248 -0.4995
 3210SOL     OW21091   3.045   4.486  15.144 -0.0766  0.1658 -0.1608
 3210SOL    HW121092   3.127   4.445  15.172 -2.2444 -2.7805  1.8610
 3210SOL    HW221093   3.075   4.520  15.059  0.9554  0.3593  0.2896
 3211SOL     OW21094   2.806   3.139  13.240  0.3656  0.6483  0.1721
 3211SOL    HW121095   2.871   3.134  13.310 -2.5046 -0.9882  2.7535
 3211SOL    HW221096   2.757   3.219  13.255  1.5868  0.7763  3.3362
 3212SOL     OW21097   1.788   1.856   7.329 -0.1631 -0.1418  0.1637
 3212SOL    HW121098   1.863   1.877   7.386 -0.9860  1.9196  0.4961
 3212SOL    HW221099   1.803   1.917   7.257  0.0391 -0.7045 -0.2718
 3213SOL     OW21100   2.764   3.312   5.400 -0.2547 -0.1237  0.2300
 3213SOL    HW121101   2.839   3.309   5.460 -1.2944 -1.4381  1.4497
 3213SOL    HW221102   2.739   3.404   5.406 -1.7228 -0.4477 -1.0442
 3214SOL     OW21103   3.204   0.791   5.876 -0.4327 -0.1606 -0.7728
 3214SOL    HW121104   3.271   0.722   5.885 -0.4942 -0.2272 -0.8270
 3214SOL    HW221105   3.162   0.763   5.795 -1.2057  0.8859 -0.7368
 3215SOL     OW21106   0.770   4.505   2.575  0.5563 -0.4620 -0.2119
 3215SOL    HW121107   0.710   4.436   2.603 -0.1190  0.0150 -0.4636
 3215SOL    HW221108   0.708   4.567   2.536 -1.6708 -1.4622  1.7518
 3216SOL     OW21109   0.192   1.511   9.147  0.0595 -0.7466 -0.1568
 3216SOL    HW121110   0.286   1.497   9.134 -0.2060 -0.7736 -2.0347
 3216SOL    HW221111   0.184   1.524   9.241 -0.6747  0.2773 -0.3608
 3217SOL     OW21112   2.103   0.465   5.076  0.3646 -0.5326  0.5004
 3217SOL    HW121113   2.167   0.405   5.114  0.6186 -0.1770  0.6341
 3217SOL    HW221114   2.111   0.444   4.983 -2.4934  1.0369 -0.0886
 3218SOL     OW21115   0.981   1.926   8.873  0.0301 -0.2765  0.2666
 3218SOL    HW121116   0.990   2.002   8.931 -0.6314 -0.3600  0.4727
 3218SOL    HW221117   0.888   1.936   8.855  0.2688  1.8651  0.2955
 3219SOL     OW21118   3.855   1.249  11.061 -0.3291 -0.2303  0.2728
 3219SOL    HW121119   3.894   1.337  11.065  1.6610 -1.1954  1.9797
 3219SOL    HW221120   3.893   1.213  11.141 -1.9286 -0.9660  0.7072
 3220SOL     OW21121   4.117   4.098  16.804  0.3074  0.1341 -0.5271
 3220SOL    HW121122   4.168   4.055  16.735  1.6230 -0.7798  1.0422
 3220SOL    HW221123   4.038   4.044  16.798 -0.0312  0.2700  3.0337
 3221SOL     OW21124   4.003   4.027   8.285  0.2048  0.0364 -0.0923
 3221SOL    HW121125   4.096   4.003   8.279 -0.1635 -0.6410 -3.2104
 3221SOL    HW221126   3.961   3.952   8.327  0.7496 -0.2847 -0.1164
 3222SOL     OW21127   2.538   3.679   7.484 -0.2237  0.0060  0.2962
 3222SOL    HW121128   2.537   3.755   7.542 -0.4862  0.2920 -0.0777
 3222SOL    HW221129   2.626   3.682   7.445  0.3586  0.8022  1.7035
 3223SOL     OW21130   0.228   4.494   6.043  0.3260 -0.2412  0.1343
 3223SOL    HW121131   0.284   4.521   5.970 -2.4713  1.4633 -1.3695
 3223SOL    HW221132   0.140   4.517   6.014  0.5358  0.2808 -0.0869
 3224SOL     OW21133   1.972   1.429   2.158  0.8409  0.0378  0.1412
 3224SOL    HW121134   1.907   1.365   2.190  1.1339 -0.4229 -0.1795
 3224SOL    HW221135   1.917   1.507   2.168 -0.5969 -0.6940 -2.1967
 3225SOL     OW21136   1.477   4.313   2.031  0.0765 -0.5754  0.1604
 3225SOL    HW121137   1.399   4.310   2.087  0.2336 -0.2919  0.3972
 3225SOL    HW221138   1.478   4.231   1.982  1.7631 -1.2040  1.2505
 3226SOL     OW21139   0.828   2.542   2.348  0.0508 -0.1606  0.0694
 3226SOL    HW121140   0.899   2.602   2.328 -0.8228  1.3473  1.4721
 3226SOL    HW221141   0.863   2.500   2.427 -1.3818  1.6668  1.6666
 3227SOL     OW21142   1.464   0.886   4.530  0.0688  0.0494  0.2864
 3227SOL    HW121143   1.409   0.956   4.494 -0.9364 -0.4718  0.8296
 3227SOL    HW221144   1.543   0.939   4.536  0.8503 -0.7930 -2.2989
 3228SOL     OW21145   4.202   3.900   8.138  0.2841 -0.1073  0.4747
 3228SOL    HW121146   4.265   3.929   8.204  2.0069  2.5164 -2.3451
 3228SOL    HW221147   4.191   3.976   8.080 -0.5468 -0.2334  0.4627
 3229SOL     OW21148   1.814   0.239   3.246 -0.1673 -0.4903 -0.5618
 3229SOL    HW121149   1.906   0.262   3.255 -0.3386  0.2159 -0.6169
 3229SOL    HW221150   1.795   0.271   3.158  0.6924 -0.9148 -0.9022
 3230SOL     OW21151   2.025   2.715  15.997 -0.4948  0.3426  0.3959
 3230SOL    HW121152   1.932   2.722  15.978 -0.7212  0.2326  1.4483
 3230SOL    HW221153   2.056   2.771  15.925  2.5216 -1.6575  0.1363
 3231SOL     OW21154   0.649   2.420   9.772  0.6380 -0.3380 -0.1051
 3231SOL    HW121155   0.622   2.350   9.832 -0.9008  0.1212 -0.2707
 3231SOL    HW221156   0.636   2.380   9.686  2.0977 -0.0676 -0.4625
 3232SOL     OW21157   3.165   3.907   2.597 -0.0281 -0.3365  0.4204
 3232SOL    HW121158   3.086   3.854   2.589  0.5410 -0.8760 -1.8339
 3232SOL    HW221159   3.122   3.990   2.577  0.4339 -0.2033 -0.0329
 3233SOL     OW21160   2.189   3.821   7.997 -0.5744 -0.0214 -0.7289
 3233SOL    HW121161   2.105   3.846   7.960 -0.4856  1.3751  0.0214
 3233SOL    HW221162   2.161   3.739   8.039 -1.0654  0.2461 -0.5402
 3234SOL     OW21163   0.830   4.722   2.908  0.5327  0.0132  0.3363
 3234SOL    HW121164   0.822   4.707   3.002 -1.0569 -0.3453  0.1420
 3234SOL    HW221165   0.866   4.642   2.868  1.2283  0.3378  0.3167
 3235SOL     OW21166   4.476   4.711   7.246  0.2804  0.5605 -0.8466
 3235SOL    HW121167   4.563   4.697   7.210  0.6758  0.4370  0.1680
 3235SOL    HW221168   4.488   0.046   7.320 -0.7817  0.8865 -0.9240
 3236SOL     OW21169   1.529   0.452  14.431 -0.7672  0.0368 -0.0757
 3236SOL    HW121170   1.479   0.519  14.478 -0.2539 -1.1365  2.1589
 3236SOL    HW221171   1.481   0.459  14.349 -1.1763  0.2839  0.1824
 3237SOL     OW21172   1.154   1.995   3.753 -0.4400 -0.2189  0.3424
 3237SOL    HW121173   1.223   2.040   3.801 -1.1217  1.1101  0.0779
 3237SOL    HW221174   1.137   2.059   3.684 -0.2170 -0.1878  0.3154
 3238SOL     OW21175   4.588   3.020   5.922 -0.4158  0.5752 -0.5514
 3238SOL    HW121176   4.648   2.980   5.985 -1.7100  1.8417  1.4824
 3238SOL    HW221177   4.635   3.011   5.838  1.4839 -0.8574  0.6587
 3239SOL     OW21178   1.391   1.269   4.850  0.4459 -0.0180  0.0073
 3239SOL    HW121179   1.375   1.355   4.810 -1.9200  0.8225  2.7711
 3239SOL    HW221180   1.312   1.268   4.903 -0.1877 -2.9587 -0.9919
 3240SOL     OW21181   1.177   0.401   7.711 -0.0512  0.1377 -0.8348
 3240SOL    HW121182   1.085   0.381   7.694 -0.7628  1.3019  1.5895
 3240SOL    HW221183   1.176   0.497   7.703 -0.6318  0.1257 -0.9098
 3241SOL     OW21184   1.864   1.596   6.699 -0.2384  0.8728 -0.1491
 3241SOL    HW121185   1.904   1.517   6.662 -0.1217  2.0787 -2.6200
 3241SOL    HW221186   1.842   1.568   6.788 -1.8421 -1.1514 -1.1858
 3242SOL     OW21187   1.713   0.171  16.494  0.0891 -0.8668 -0.0342
 3242SOL    HW121188   1.765   0.091  16.499 -1.4149 -1.7914  0.9797
 3242SOL    HW221189   1.727   0.189  16.587 -1.5807  0.7735 -0.0972
 3243SOL     OW21190   4.113   0.710   8.637 -0.3475  0.8001 -0.1387
 3243SOL    HW121191   4.096   0.794   8.681 -1.9535  0.5940 -0.3779
 3243SOL    HW221192   4.033   0.708   8.584 -1.0657 -0.9702  1.0384
 3244SOL     OW21193   3.627   2.978   2.521 -0.4189 -0.0006 -0.1571
 3244SOL    HW121194   3.534   2.971   2.504 -0.3585 -0.9645 -0.1222
 3244SOL    HW221195   3.653   3.023   2.441  0.9306  0.4259  0.5103
 3245SOL     OW21196   3.614   3.318   1.746 -0.3761 -0.0424 -0.1865
 3245SOL    HW121197   3.609   3.411   1.722 -0.7414 -0.3660 -1.3595
 3245SOL    HW221198   3.660   3.286   1.668 -1.6520 -0.6301 -0.6881
 3246SOL     OW21199   4.444   1.541  12.162 -0.2391  0.0480 -0.5076
 3246SOL    HW121200   4.398   1.529  12.245 -1.5222  1.6790 -0.9991
 3246SOL    HW221201   4.529   1.497  12.169 -0.2191  0.4738  2.1322
 3247SOL     OW21202   3.607   4.320  13.439 -0.1413 -0.2385 -0.3604
 3247SOL    HW121203   3.559   4.330  13.521 -0.8596  1.2482 -0.9761
 3247SOL    HW221204   3.578   4.235  13.404  2.1911 -0.6700 -1.2309
 3248SOL     OW21205   4.009   3.392   7.050 -0.1973  0.0338  0.4760
 3248SOL    HW121206   3.981   3.373   6.961 -0.1129  0.6246  0.3177
 3248SOL    HW221207   4.035   3.484   7.042  1.0216 -0.3943 -0.5904
 3249SOL     OW21208   1.044   4.308   7.001 -0.8006  0.0753  0.2380
 3249SOL    HW121209   0.993   4.278   7.076 -0.1693 -1.2394  0.1370
 3249SOL    HW221210   0.974   4.337   6.941  0.8646 -0.4102 -1.9435
 3250SOL     OW21211   4.492   0.926   1.176 -0.2462  0.5105 -0.4764
 3250SOL    HW121212   4.399   0.939   1.158 -0.0013 -0.0944 -2.2356
 3250SOL    HW221213   4.482   0.838   1.213 -1.8134  0.6220 -0.6223
 3251SOL     OW21214   1.000   0.677  16.177  0.2846  0.1249  0.2676
 3251SOL    HW121215   1.073   0.716  16.129  0.1303 -0.6441 -0.5930
 3251SOL    HW221216   0.949   0.758  16.179  1.4270  0.8068  1.2090
 3252SOL     OW21217   3.717   4.555  16.140 -0.6274 -0.5548  0.2667
 3252SOL    HW121218   3.797   4.604  16.126  0.0158 -1.3633  1.1293
 3252SOL    HW221219   3.654   4.623  16.115 -1.3648 -1.8606 -1.4321
 3253SOL     OW21220   1.490   2.000   7.145  0.5072 -0.0888  0.4929
 3253SOL    HW121221   1.472   1.991   7.052 -0.5861 -1.6410  0.8648
 3253SOL    HW221222   1.580   2.033   7.148 -0.3580  2.1272  1.5951
 3254SOL     OW21223   3.607   0.261   8.422  0.4081  0.2877  0.0767
 3254SOL    HW121224   3.622   0.202   8.496 -0.3297 -2.0388 -1.6162
 3254SOL    HW221225   3.580   0.194   8.360  0.8342  1.2611 -1.1648
 3255SOL     OW21226   0.653   3.650   9.453  0.3223 -0.3538 -0.3341
 3255SOL    HW121227   0.650   3.614   9.542 -1.1368  2.5463  0.8148
 3255SOL    HW221228   0.607   3.583   9.404 -0.9513 -1.1784  1.9987
 3256SOL     OW21229   1.930   2.453   5.818 -0.1850  0.0213  0.5165
 3256SOL    HW121230   1.915   2.483   5.728  1.5485 -0.8445 -0.0672
 3256SOL    HW221231   1.970   2.368   5.798  2.1050  1.5299 -1.2973
 3257SOL     OW21232   0.956   0.907   3.243  0.2045  0.1008 -0.0539
 3257SOL    HW121233   0.883   0.957   3.279 -0.7782 -0.8973 -0.6515
 3257SOL    HW221234   1.029   0.964   3.268  0.2442  0.1255 -0.2251
 3258SOL     OW21235   4.192   0.851   1.316 -0.3465 -0.1684 -1.0014
 3258SOL    HW121236   4.154   0.907   1.384  2.9831  0.9022  0.0181
 3258SOL    HW221237   4.236   0.923   1.269 -1.4369 -0.6253 -2.7146
 3259SOL     OW21238   0.662   0.960   1.302 -0.3297 -0.2530 -0.0395
 3259SOL    HW121239   0.659   0.976   1.207 -1.7119 -0.1896  0.0155
 3259SOL    HW221240   0.598   0.889   1.303  0.5136 -1.0294 -1.3033
 3260SOL     OW21241   3.981   4.081   2.667  0.1137  0.4085  0.1948
 3260SOL    HW121242   4.038   4.083   2.591  2.6983 -1.0308  2.0970
 3260SOL    HW221243   3.896   4.056   2.632 -1.3592  2.4685  2.2795
 3261SOL     OW21244   2.396   1.048   3.901  0.0518 -0.2565 -0.3352
 3261SOL    HW121245   2.472   1.102   3.922 -1.6050  1.4057  1.3799
 3261SOL    HW221246   2.369   1.031   3.991  0.6668  0.8152  0.0558
 3262SOL     OW21247   3.841   3.760   3.990 -0.4824 -0.8270  0.0766
 3262SOL    HW121248   3.914   3.788   4.046 -1.6058  0.3149  0.9575
 3262SOL    HW221249   3.766   3.809   4.024 -1.1437 -2.4267  0.9274
 3263SOL     OW21250   2.750   2.153   3.154 -0.6020 -0.0083 -0.3383
 3263SOL    HW121251   2.789   2.240   3.142  0.5512 -0.2723  1.5797
 3263SOL    HW221252   2.832   2.110   3.181 -0.4417  0.4266 -0.1354
 3264SOL     OW21253   0.430   3.948   3.857 -0.3070  0.0722  0.0313
 3264SOL    HW121254   0.432   4.019   3.793 -1.7714  0.7341  0.7059
 3264SOL    HW221255   0.335   3.941   3.853 -0.1723 -0.3250 -2.4826
 3265SOL     OW21256   3.874   2.913   8.422  0.0190 -0.2698 -0.3028
 3265SOL    HW121257   3.849   2.976   8.355 -0.8298 -1.2309 -0.8947
 3265SOL    HW221258   3.867   2.835   8.366  0.5540  0.2108 -1.0353
 3266SOL     OW21259   3.642   2.443  12.115  0.1042 -0.7330  0.4678
 3266SOL    HW121260   3.607   2.492  12.189 -1.9470  2.6297 -2.7661
 3266SOL    HW221261   3.652   2.516  12.054 -3.0749 -1.8835 -1.4668
 3267SOL     OW21262   2.160   3.696   6.382 -0.1198  0.7204 -0.0177
 3267SOL    HW121263   2.153   3.630   6.313  0.2936  0.9038 -0.2365
 3267SOL    HW221264   2.105   3.657   6.451 -0.9739 -1.7720 -2.1131
 3268SOL     OW21265   1.791   1.977  14.590 -0.4804 -0.1228  0.5745
 3268SOL    HW121266   1.828   1.952  14.505 -0.8362  0.6296  0.1980
 3268SOL    HW221267   1.729   2.044  14.561  0.9454  1.8321  2.0163
 3269SOL     OW21268   1.633   2.686   6.763 -0.2540  0.0925 -0.5024
 3269SOL    HW121269   1.571   2.632   6.714 -1.1600 -0.9623  1.8185
 3269SOL    HW221270   1.575   2.707   6.837 -0.9256 -0.8628 -0.7555
 3270SOL     OW21271   4.581   3.485   7.462  0.2800 -0.0264 -0.5906
 3270SOL    HW121272   4.647   3.477   7.531 -0.1841  0.2156 -0.1234
 3270SOL    HW221273   4.501   3.467   7.510  0.0610 -1.4919 -1.4792
 3271SOL     OW21274   2.806   2.230   2.523  0.2294 -0.5742  0.0256
 3271SOL    HW121275   2.778   2.164   2.459 -1.4906 -1.4339  1.6632
 3271SOL    HW221276   2.738   2.224   2.589  1.9269  0.6233  1.8673
 3272SOL     OW21277   1.924   4.203   4.575  0.7054 -0.1209 -0.0875
 3272SOL    HW121278   1.929   4.259   4.652  1.4345  2.0051 -1.6696
 3272SOL    HW221279   1.837   4.171   4.598  0.0132  1.3667 -0.6419
 3273SOL     OW21280   2.118   1.695   8.657 -0.1257 -0.2117 -0.2189
 3273SOL    HW121281   2.085   1.607   8.641 -0.3181 -0.2312  0.3099
 3273SOL    HW221282   2.206   1.670   8.687 -0.3329  1.3327  1.6686
 3274SOL     OW21283   1.033   3.726  10.878 -0.3887  0.6823  0.1729
 3274SOL    HW121284   1.106   3.784  10.855  0.5350  0.7570  3.3602
 3274SOL    HW221285   1.030   3.674  10.797  0.3144  2.5620 -1.0613
 3275SOL     OW21286   4.185   2.471   5.647 -0.3462 -0.2193 -0.4559
 3275SOL    HW121287   4.133   2.547   5.618 -1.0576 -0.8782 -0.9197
 3275SOL    HW221288   4.120   2.431   5.704 -0.5390 -0.5751 -0.9228
 3276SOL     OW21289   0.859   1.950   5.157  0.0411 -0.0368  0.1134
 3276SOL    HW121290   0.871   1.881   5.092 -0.8883 -0.7304  0.6746
 3276SOL    HW221291   0.780   1.997   5.131 -0.3087  0.3858  1.9632
 3277SOL     OW21292   4.014   2.942  12.739  0.5518 -0.2253  0.1982
 3277SOL    HW121293   3.968   2.916  12.819  0.8421 -1.2555  0.0362
 3277SOL    HW221294   4.100   2.946  12.781  1.6747 -0.8067 -2.0873
 3278SOL     OW21295   4.218   3.095   4.044 -0.2032  0.0231  0.7663
 3278SOL    HW121296   4.133   3.066   4.010  0.3255 -1.0690  0.3869
 3278SOL    HW221297   4.248   3.142   3.966  2.8715 -0.3714  1.7044
 3279SOL     OW21298   1.076   2.732   7.216 -0.3196 -0.0107 -0.0135
 3279SOL    HW121299   1.041   2.806   7.265 -2.1981 -0.5459 -0.5625
 3279SOL    HW221300   1.138   2.704   7.283  0.7223 -1.8323 -1.7344
 3280SOL     OW21301   2.388   3.903   9.072 -0.3127  0.5336  0.1324
 3280SOL    HW121302   2.438   3.865   9.144  0.8424  1.7192 -0.0387
 3280SOL    HW221303   2.330   3.965   9.116 -0.7768  0.6618 -0.6521
 3281SOL     OW21304   0.396   1.546  15.354 -0.5683 -0.1192 -0.2611
 3281SOL    HW121305   0.388   1.563  15.261 -1.1152  0.3473 -0.1287
 3281SOL    HW221306   0.310   1.570  15.387 -0.4730  0.6535 -0.5924
 3282SOL     OW21307   0.894   1.249  11.665 -0.1165 -0.2929  0.3440
 3282SOL    HW121308   0.888   1.180  11.599 -1.6156  1.0656 -0.9298
 3282SOL    HW221309   0.945   1.318  11.622  0.3407 -1.3780 -0.8491
 3283SOL     OW21310   3.130   3.386  16.648  1.0692  0.5223  0.4333
 3283SOL    HW121311   3.039   3.397  16.676  0.6174 -0.3578 -0.6570
 3283SOL    HW221312   3.174   3.470  16.652  1.2103  0.4713 -0.0301
 3284SOL     OW21313   2.340   2.063  15.763  0.1947  0.1954 -0.4309
 3284SOL    HW121314   2.366   2.069  15.671  2.0702 -2.9701 -0.1227
 3284SOL    HW221315   2.329   2.156  15.784  1.0087 -0.1871  1.6803
 3285SOL     OW21316   1.318   0.173  15.812  0.4403 -0.3487  0.2135
 3285SOL    HW121317   1.366   0.125  15.880 -1.3997 -1.7561  0.5057
 3285SOL    HW221318   1.273   0.099  15.772 -0.6456  0.3657  0.1167
 3286SOL     OW21319   2.744   0.265   8.941 -0.0001  0.5789 -0.3391
 3286SOL    HW121320   2.655   0.290   8.966 -0.2516 -1.1876  0.5070
 3286SOL    HW221321   2.741   0.170   8.944  0.6571  0.5810  0.4614
 3287SOL     OW21322   2.434   4.115   7.754 -0.2512 -0.1130 -0.0036
 3287SOL    HW121323   2.470   4.032   7.724  1.6961  1.3922 -1.8318
 3287SOL    HW221324   2.342   4.093   7.740  0.0286 -0.2290 -1.6661
 3288SOL     OW21325   4.023   1.471   1.016 -0.4019 -0.1654 -0.3573
 3288SOL    HW121326   4.020   1.557   0.974  2.8971  0.0644 -0.1257
 3288SOL    HW221327   4.051   1.417   0.942 -0.2905 -0.3945 -0.1473
 3289SOL     OW21328   0.435   4.176   7.777  0.2030  0.2054 -0.0264
 3289SOL    HW121329   0.497   4.186   7.705 -2.9587 -2.7726 -3.1135
 3289SOL    HW221330   0.484   4.122   7.840  0.0250  0.2907  0.1862
 3290SOL     OW21331   3.064   1.980   2.280  0.0710 -0.1002 -0.3471
 3290SOL    HW121332   3.023   2.011   2.199  2.5744  2.2262 -0.7478
 3290SOL    HW221333   3.141   2.036   2.283 -0.6399  0.8997 -0.8338
 3291SOL     OW21334   1.776   4.327   4.306  0.0461 -0.1279  0.7520
 3291SOL    HW121335   1.729   4.382   4.369  2.0091  0.4225  1.7419
 3291SOL    HW221336   1.769   4.237   4.340  2.7876 -0.5489  0.2332
 3292SOL     OW21337   0.794   1.682   5.895 -0.3436  0.1596  0.0766
 3292SOL    HW121338   0.817   1.657   5.805 -1.6500 -0.7376  0.0075
 3292SOL    HW221339   0.846   1.763   5.893 -1.7017  1.0481  0.5089
 3293SOL     OW21340   4.477   2.275   0.605 -0.1872 -0.0813  0.2535
 3293SOL    HW121341   4.499   2.310   0.691 -2.0440  0.6118  0.4432
 3293SOL    HW221342   4.387   2.251   0.628 -0.2407  0.3763  0.5379
 3294SOL     OW21343   4.200   0.252  11.123  0.2874 -0.0792 -0.1355
 3294SOL    HW121344   4.223   0.309  11.050  0.0967  0.1529 -0.0156
 3294SOL    HW221345   4.283   0.210  11.146 -0.1057 -0.6695  0.2239
 3295SOL     OW21346   2.668   2.438  13.451  0.8626  0.7847 -0.1286
 3295SOL    HW121347   2.593   2.470  13.401  0.5221 -1.4304 -1.0565
 3295SOL    HW221348   2.622   2.375  13.506  0.1905  2.0915  0.7982
 3296SOL     OW21349   0.306   0.516   4.110 -0.2455 -0.2707  0.0436
 3296SOL    HW121350   0.287   0.469   4.192 -0.7590 -0.0619  0.0467
 3296SOL    HW221351   0.222   0.548   4.077  1.1195  1.9824 -1.2077
 3297SOL     OW21352   3.057   0.708   2.399  0.1255 -0.1848 -0.4512
 3297SOL    HW121353   2.965   0.694   2.423  0.4791 -1.1841  0.3221
 3297SOL    HW221354   3.061   0.682   2.307 -0.3463  0.3618 -0.6241
 3298SOL     OW21355   4.181   0.746   6.075  0.6704  0.7037  0.0016
 3298SOL    HW121356   4.137   0.824   6.040  1.6432  0.2193 -2.2831
 3298SOL    HW221357   4.128   0.675   6.039  2.7324  0.0463 -1.6993
 3299SOL     OW21358   0.441   0.515   5.602 -0.5743 -0.2163  0.0303
 3299SOL    HW121359   0.400   0.453   5.541 -0.7956 -1.1997  1.1883
 3299SOL    HW221360   0.359   0.550   5.638 -0.4181 -2.5752  2.6568
 3300SOL     OW21361   2.962   0.629   3.308 -0.5858 -0.1258  0.1399
 3300SOL    HW121362   2.960   0.569   3.234  2.2501  0.4433 -0.3990
 3300SOL    HW221363   2.958   0.567   3.381 -3.7739 -0.6938 -0.5105
 3301SOL     OW21364   3.095   4.320   1.945 -0.8530  0.0283  0.2475
 3301SOL    HW121365   3.137   4.383   1.886 -0.1152 -2.5249 -1.9241
 3301SOL    HW221366   3.170   4.297   2.001 -1.2904 -1.6778  0.1036
 3302SOL     OW21367   3.115   1.455   7.617 -0.0130 -0.0735  0.2262
 3302SOL    HW121368   3.200   1.413   7.630  0.0115 -0.0809  0.0491
 3302SOL    HW221369   3.067   1.431   7.696 -1.3221  0.7048 -0.3391
 3303SOL     OW21370   4.275   0.555   3.653  0.9886  0.0507 -0.2607
 3303SOL    HW121371   4.358   0.592   3.681  0.6997  0.2072  0.3919
 3303SOL    HW221372   4.307   0.475   3.610  0.3647  1.1228 -2.7519
 3304SOL     OW21373   1.822   2.927  11.524  0.1233  0.5959  0.1140
 3304SOL    HW121374   1.856   2.862  11.463  0.2450  4.3208 -3.8480
 3304SOL    HW221375   1.834   2.895  11.613 -0.8078  0.8686  0.3425
 3305SOL     OW21376   0.281   4.239   6.966  0.4325 -0.3346 -0.5298
 3305SOL    HW121377   0.258   4.179   7.037 -2.2350  0.6311 -0.5610
 3305SOL    HW221378   0.358   4.206   6.921 -1.9202 -2.6924 -2.8148
 3306SOL     OW21379   2.786   3.052   4.885 -0.1883 -0.4325 -0.7125
 3306SOL    HW121380   2.760   3.113   4.816 -2.5139  0.0707  0.6211
 3306SOL    HW221381   2.864   3.009   4.849  0.1687 -0.5553  0.2037
 3307SOL     OW21382   0.965   4.511   2.805 -0.1065  0.2675  0.0426
 3307SOL    HW121383   1.043   4.471   2.843 -0.3820  1.5300  1.9015
 3307SOL    HW221384   0.921   4.443   2.754  0.7625 -1.0549  1.0813
 3308SOL     OW21385   4.372   1.230   9.229  1.0638 -0.3768  0.5419
 3308SOL    HW121386   4.403   1.317   9.207  0.5597 -0.3966 -0.2254
 3308SOL    HW221387   4.282   1.246   9.204  1.4515  1.6114  0.4511
 3309SOL     OW21388   0.883   0.944   2.671 -0.1668  0.1731 -0.3864
 3309SOL    HW121389   0.900   0.851   2.683 -2.4453 -0.1145  0.4297
 3309SOL    HW221390   0.964   0.977   2.631  0.3067 -0.2765  0.2030
 3310SOL     OW21391   2.932   4.698   1.390  0.1224  0.3347  0.8167
 3310SOL    HW121392   2.891   0.025   1.320  2.2160 -0.6573 -1.1119
 3310SOL    HW221393   2.956   4.620   1.339  2.0724  2.8081 -2.0503
 3311SOL     OW21394   3.326   1.875   9.327  0.7438  0.0252  0.4656
 3311SOL    HW121395   3.247   1.840   9.285  0.6501 -0.0026  0.6636
 3311SOL    HW221396   3.331   1.962   9.288  0.2334  0.0765  0.5063
 3312SOL     OW21397   2.402   2.632  15.112 -0.1480  0.6871  0.1207
 3312SOL    HW121398   2.434   2.722  15.119  0.0971  0.5452  0.7913
 3312SOL    HW221399   2.434   2.607  15.025  0.7511 -1.1026  0.9793
 3313SOL     OW21400   2.997   2.656   5.330 -0.1418  0.0765 -0.1990
 3313SOL    HW121401   2.982   2.601   5.407  1.5899 -0.8178 -0.5062
 3313SOL    HW221402   3.053   2.722   5.371  0.2586 -0.1594 -0.3726
 3314SOL     OW21403   1.052   3.924   2.527  0.1793 -0.1367 -0.2944
 3314SOL    HW121404   1.053   3.953   2.436 -0.0604  0.2335 -0.1757
 3314SOL    HW221405   1.058   3.829   2.515  1.4089 -0.0233 -0.5897
 3315SOL     OW21406   4.589   0.952   5.152 -0.6257 -0.2464 -0.3363
 3315SOL    HW121407   4.640   0.916   5.225  0.6143 -0.1941 -1.1800
 3315SOL    HW221408   4.538   1.018   5.199  0.6844  0.6172 -0.1112
 3316SOL     OW21409   1.857   1.032   7.285 -0.3160  0.2291  0.1167
 3316SOL    HW121410   1.902   1.040   7.201 -1.9701 -0.9100 -0.8946
 3316SOL    HW221411   1.872   0.939   7.304 -0.3408  0.5850  1.8418
 3317SOL     OW21412   2.763   1.648   7.041 -0.2681  0.2927 -0.2719
 3317SOL    HW121413   2.705   1.724   7.044 -1.7298 -0.8387  0.2139
 3317SOL    HW221414   2.777   1.627   7.133 -0.2081  0.8714 -0.1521
 3318SOL     OW21415   3.378   0.215   1.598  0.2012 -0.2402 -0.6375
 3318SOL    HW121416   3.303   0.254   1.642  0.0232 -2.2623  0.8655
 3318SOL    HW221417   3.342   0.127   1.596  2.0780 -1.0164 -0.8673
 3319SOL     OW21418   3.889   1.986   6.153  0.4302  0.4606 -0.3453
 3319SOL    HW121419   3.868   2.009   6.244  0.2926 -2.9114  0.4501
 3319SOL    HW221420   3.950   1.914   6.169  1.0172  0.5169 -2.3752
 3320SOL     OW21421   3.481   2.434  16.300 -0.0236 -0.0871 -0.1121
 3320SOL    HW121422   3.469   2.529  16.289 -0.9925 -0.0840  1.0159
 3320SOL    HW221423   3.397   2.393  16.320 -0.5545  0.8627 -0.3856
 3321SOL     OW21424   0.478   2.941   5.164  0.1767  0.3407 -0.1432
 3321SOL    HW121425   0.394   2.956   5.208  0.8106  0.8555  0.8768
 3321SOL    HW221426   0.477   3.000   5.089  2.6999 -1.8479 -1.8987
 3322SOL     OW21427   1.137   1.725   6.181 -0.2430 -0.2803  0.2305
 3322SOL    HW121428   1.147   1.745   6.088 -1.2561  1.8243  0.5845
 3322SOL    HW221429   1.228   1.747   6.200 -0.3669  1.3604 -1.1144
 3323SOL     OW21430   0.967   1.007   4.987 -0.6884  0.7634  0.0441
 3323SOL    HW121431   0.998   0.940   4.925 -1.1417 -0.3407  0.9980
 3323SOL    HW221432   1.003   0.973   5.070 -1.5528  1.1335  0.5698
 3324SOL     OW21433   4.428   1.594   6.660  0.0250 -0.4734  0.0361
 3324SOL    HW121434   4.397   1.682   6.638 -1.5606 -1.6388 -2.2875
 3324SOL    HW221435   4.515   1.590   6.621 -0.4545  2.1096 -1.2997
 3325SOL     OW21436   2.655   2.277  15.044 -0.3442  0.6884 -0.4149
 3325SOL    HW121437   2.630   2.241  14.959 -2.0391 -0.0376  0.3923
 3325SOL    HW221438   2.713   2.344  15.007 -0.4711  1.1645  0.2394
 3326SOL     OW21439   1.729   4.012  10.191  0.0920  0.5891  0.6417
 3326SOL    HW121440   1.702   3.923  10.216  2.6300 -0.3875 -0.0817
 3326SOL    HW221441   1.678   4.010  10.110  0.5741 -1.8319  0.3870
 3327SOL     OW21442   3.673   1.588   6.822 -0.3720  0.0068 -0.6956
 3327SOL    HW121443   3.590   1.544   6.838  0.2613 -0.5942  1.0489
 3327SOL    HW221444   3.644   1.643   6.750  2.2280 -0.2375 -1.9262
 3328SOL     OW21445   3.267   2.799   6.675  0.3179 -0.1628  0.0695
 3328SOL    HW121446   3.209   2.870   6.701 -1.4507 -1.2578 -0.9458
 3328SOL    HW221447   3.330   2.823   6.744  0.7468 -0.1058 -0.3455
 3329SOL     OW21448   1.655   2.975   3.531 -0.1760 -0.0346  0.4916
 3329SOL    HW121449   1.735   3.005   3.575 -1.2246  3.2134  0.1964
 3329SOL    HW221450   1.588   3.009   3.591  1.2225 -0.1140  2.1262
 3330SOL     OW21451   1.297   2.439   7.819  0.2490 -0.0893  0.4531
 3330SOL    HW121452   1.251   2.511   7.777  1.0284  0.4636  0.5388
 3330SOL    HW221453   1.277   2.365   7.762 -2.8073  2.3417 -1.6106
 3331SOL     OW21454   4.548   1.001   2.826 -0.3740 -0.1493  0.1294
 3331SOL    HW121455   4.605   0.986   2.902 -0.8743  0.9820  0.7184
 3331SOL    HW221456   4.545   0.909   2.797 -0.4651  0.4791 -1.8201
 3332SOL     OW21457   3.009   3.201   7.651 -0.7783 -0.6422 -0.3685
 3332SOL    HW121458   3.023   3.290   7.683  0.2172  0.2403 -3.3169
 3332SOL    HW221459   3.050   3.153   7.723 -0.5798 -0.0764 -0.1038
 3333SOL     OW21460   1.096   3.028  12.152  0.0574  0.2082  0.5983
 3333SOL    HW121461   1.038   3.003  12.080  0.4762  1.5064 -0.1816
 3333SOL    HW221462   1.040   3.069  12.218  0.5616  2.3423 -0.3321
 3334SOL     OW21463   2.695   3.452  13.915  0.1841 -0.2371  0.0148
 3334SOL    HW121464   2.732   3.485  13.833  3.9767 -2.3097  0.8897
 3334SOL    HW221465   2.666   3.367  13.883 -1.2151  0.9294 -1.8235
 3335SOL     OW21466   1.936   4.626   8.300 -0.6424 -0.0790 -0.5281
 3335SOL    HW121467   2.011   4.615   8.358 -0.4909  0.8955 -0.5444
 3335SOL    HW221468   1.956   4.564   8.230  0.2197 -0.2531 -0.1339
 3336SOL     OW21469   0.634   3.604   1.747  0.2338  0.1451  0.3912
 3336SOL    HW121470   0.723   3.587   1.780  0.8888 -1.7298 -2.2718
 3336SOL    HW221471   0.640   3.675   1.684 -2.8161 -1.0007 -1.1950
 3337SOL     OW21472   3.574   1.260   6.762  0.3734  0.6443 -0.3512
 3337SOL    HW121473   3.630   1.183   6.753 -2.4509 -1.4434 -0.2118
 3337SOL    HW221474   3.623   1.306   6.829 -0.0223 -1.8364  1.6522
 3338SOL     OW21475   0.991   1.515   4.626  0.0627 -0.6255 -0.4259
 3338SOL    HW121476   0.941   1.596   4.641 -0.9305 -1.2793 -0.2533
 3338SOL    HW221477   0.933   1.464   4.570 -1.4924  0.4223  0.2282
 3339SOL     OW21478   4.539   0.464  16.430 -0.0459  0.3713 -0.3854
 3339SOL    HW121479   4.556   0.390  16.488  2.9817 -1.5184 -3.6590
 3339SOL    HW221480   4.459   0.497  16.470  0.2457 -2.0375  2.2211
 3340SOL     OW21481   3.801   4.270  13.210 -0.1950 -0.4354  0.0213
 3340SOL    HW121482   3.755   4.189  13.229 -0.7457  0.4204  2.3234
 3340SOL    HW221483   3.893   4.251  13.223  0.2082  1.4535 -0.0766
 3341SOL     OW21484   1.673   4.335   6.044  0.2133 -0.5939  0.6690
 3341SOL    HW121485   1.600   4.394   6.062  0.2553  0.2904 -1.9996
 3341SOL    HW221486   1.661   4.320   5.950 -1.5997  1.3736  0.5830
 3342SOL     OW21487   1.608   3.115   8.417  0.3359 -0.0355  0.5204
 3342SOL    HW121488   1.660   3.133   8.339 -0.5821  1.3644  0.2243
 3342SOL    HW221489   1.545   3.061   8.368 -1.0125 -0.1312  2.3372
 3343SOL     OW21490   1.594   0.321   4.187 -0.2357 -0.7151  0.3562
 3343SOL    HW121491   1.584   0.369   4.270 -2.1774 -2.5109  1.1622
 3343SOL    HW221492   1.686   0.347   4.177 -0.2524 -1.4409 -1.6226
 3344SOL     OW21493   4.131   1.444   2.273 -0.4374 -0.2417  0.4352
 3344SOL    HW121494   4.038   1.435   2.254  0.2536 -2.5104 -1.8950
 3344SOL    HW221495   4.139   1.376   2.341 -1.6504  0.3128  1.1392
 3345SOL     OW21496   3.385   1.201   1.161 -0.5827 -0.3555 -0.7734
 3345SOL    HW121497   3.458   1.152   1.123 -1.2235 -0.6757 -1.5980
 3345SOL    HW221498   3.380   1.169   1.251 -0.1893 -0.5467 -0.8199
 3346SOL     OW21499   1.952   3.462   1.288 -0.2670  0.2694  0.4301
 3346SOL    HW121500   1.918   3.405   1.357 -0.7131  1.5549  1.2740
 3346SOL    HW221501   1.962   3.541   1.341 -1.9299  0.3471  0.6046
 3347SOL     OW21502   2.666   2.688   1.927 -0.7290 -0.0769 -0.5935
 3347SOL    HW121503   2.662   2.686   1.831  0.8707  1.2606 -0.6765
 3347SOL    HW221504   2.650   2.780   1.947  0.6887  0.7039 -3.0567
 3348SOL     OW21505   0.442   4.148   5.060  0.0077  0.0368  0.2074
 3348SOL    HW121506   0.444   4.241   5.084 -0.1818  0.2465 -0.6001
 3348SOL    HW221507   0.350   4.137   5.038  0.5386 -2.6910 -0.6208
 3349SOL     OW21508   4.707   4.459   7.787 -0.0389 -0.3720  0.4058
 3349SOL    HW121509   0.071   4.436   7.756  0.3533  4.0560 -1.8041
 3349SOL    HW221510   4.674   4.508   7.711  0.9067  0.3604  0.4817
 3350SOL     OW21511   3.928   2.996   0.771 -0.0738 -0.0333 -0.3370
 3350SOL    HW121512   3.862   3.050   0.814 -0.8074 -0.0612 -1.4431
 3350SOL    HW221513   3.947   2.934   0.842  0.6547  0.1472 -0.3665
 3351SOL     OW21514   1.572   0.266  13.690 -0.4783  0.2647  0.2603
 3351SOL    HW121515   1.517   0.240  13.764 -0.8679 -1.9908 -0.8198
 3351SOL    HW221516   1.602   0.352  13.719 -1.6783  0.8342 -0.1864
 3352SOL     OW21517   0.033   4.509   8.628  0.4641  0.0802 -0.2655
 3352SOL    HW121518   4.671   4.538   8.661  0.1279 -2.4246  1.0627
 3352SOL    HW221519   0.048   4.435   8.687 -1.0516 -0.7257 -0.8534
 3353SOL     OW21520   4.319   4.498   6.338 -0.2006  0.4015 -0.1542
 3353SOL    HW121521   4.278   4.415   6.317  1.0147 -0.6045  1.5083
 3353SOL    HW221522   4.265   4.547   6.276 -1.5071  1.3975  1.7867
 3354SOL     OW21523   0.429   0.303   3.574  0.7844 -0.5866 -0.1177
 3354SOL    HW121524   0.517   0.335   3.554  0.7889 -0.5675 -0.0680
 3354SOL    HW221525   0.374   0.370   3.532  0.6243 -0.5674  0.1208
 3355SOL     OW21526   4.618   2.613  12.219  0.4365  0.0104  0.7740
 3355SOL    HW121527   4.560   2.670  12.269 -1.5201 -0.7845 -0.5729
 3355SOL    HW221528   4.592   2.525  12.245 -0.1517  0.6133  2.1876
 3356SOL     OW21529   3.925   0.257   1.526 -0.3955 -0.4636  0.6455
 3356SOL    HW121530   3.829   0.254   1.521 -0.2630 -0.0312 -2.4508
 3356SOL    HW221531   3.949   0.164   1.529 -0.3386 -0.4917 -0.4865
 3357SOL     OW21532   3.670   3.321   6.989  0.0141 -0.1951  0.1140
 3357SOL    HW121533   3.753   3.323   6.940 -0.5961 -0.2135 -0.9207
 3357SOL    HW221534   3.672   3.403   7.039  3.9235 -0.4652  0.4364
 3358SOL     OW21535   2.248   1.908   5.584 -0.0052  0.0032 -0.2958
 3358SOL    HW121536   2.165   1.867   5.561  0.7614 -0.4465 -2.3018
 3358SOL    HW221537   2.227   1.999   5.601 -1.4425 -0.9521  3.0639
 3359SOL     OW21538   1.323   1.844  15.147  0.1473 -0.2766 -0.1290
 3359SOL    HW121539   1.267   1.786  15.096 -1.1910  0.8330  0.0666
 3359SOL    HW221540   1.364   1.789  15.213  1.0152  0.6765  0.1309
 3360SOL     OW21541   4.580   0.989  13.290 -0.6880  0.1640  0.1204
 3360SOL    HW121542   4.672   0.987  13.315 -0.0057  0.5398 -2.3213
 3360SOL    HW221543   4.577   1.077  13.252  0.9709  0.0393 -0.2891
 3361SOL     OW21544   1.281   3.778   1.315 -0.1646 -0.0815 -0.3409
 3361SOL    HW121545   1.229   3.851   1.281 -0.4193  0.2365  0.7457
 3361SOL    HW221546   1.232   3.706   1.274 -1.2869 -0.8868  2.4518
 3362SOL     OW21547   0.413   2.246   5.095  0.0168  0.5277  0.0185
 3362SOL    HW121548   0.418   2.160   5.053 -1.3749  1.6385 -2.3735
 3362SOL    HW221549   0.318   2.258   5.087 -0.0237 -0.4222 -0.9944
 3363SOL     OW21550   4.554   0.350   3.909  0.9896 -0.1378 -0.2420
 3363SOL    HW121551   4.512   0.409   3.971  0.4646  0.9652 -1.6382
 3363SOL    HW221552   4.589   0.289   3.974 -0.3957 -0.5634  0.1132
 3364SOL     OW21553   1.973   3.095   7.146  0.3208  0.4067  0.2936
 3364SOL    HW121554   1.927   3.105   7.062 -0.8113  0.8291  0.9552
 3364SOL    HW221555   1.936   3.009   7.164  1.9656 -0.5655 -1.0219
 3365SOL     OW21556   0.928   1.918   6.178 -0.8787 -0.5797 -0.1613
 3365SOL    HW121557   0.903   1.910   6.086  1.4933  1.9337 -1.0040
 3365SOL    HW221558   0.993   1.848   6.187 -0.7392 -0.2711  1.1219
 3366SOL     OW21559   0.087   0.055   8.190  0.4098 -1.0726 -0.3042
 3366SOL    HW121560   0.058   0.090   8.106 -1.8526  0.8092  1.2628
 3366SOL    HW221561   0.129   0.129   8.235 -0.2553 -2.5353  2.7164
 3367SOL     OW21562   2.266   1.722   7.791 -0.1452 -0.2430 -0.4264
 3367SOL    HW121563   2.311   1.650   7.746  0.3773  1.0763 -1.9785
 3367SOL    HW221564   2.245   1.677   7.873  1.6155 -0.0491  0.1209
 3368SOL     OW21565   1.037   1.698   2.617  0.3710 -0.2355  0.0181
 3368SOL    HW121566   1.110   1.643   2.590  0.4660  0.0756 -0.3571
 3368SOL    HW221567   1.032   1.678   2.710  0.9711 -3.3597 -0.6209
 3369SOL     OW21568   0.443   4.286   6.283 -0.2397 -0.4301  0.3234
 3369SOL    HW121569   0.393   4.238   6.217 -1.4865  1.3305 -0.0065
 3369SOL    HW221570   0.371   4.329   6.330 -1.6035 -1.7816 -0.5477
 3370SOL     OW21571   1.626   3.109   9.125 -0.1006 -0.0306 -0.0594
 3370SOL    HW121572   1.557   3.080   9.066 -0.2449 -0.2259  0.2074
 3370SOL    HW221573   1.677   3.030   9.143 -0.5289 -0.6517 -1.5575
 3371SOL     OW21574   1.799   4.617   5.032  0.0878 -0.1996 -0.1768
 3371SOL    HW121575   1.714   4.624   4.988 -0.6620  0.6318  1.4329
 3371SOL    HW221576   1.820   4.710   5.034 -0.7527 -0.0158  0.2519
 3372SOL     OW21577   1.653   4.086   2.525 -0.1600 -0.3803  0.3068
 3372SOL    HW121578   1.676   4.014   2.584 -0.8286  1.3396  2.6315
 3372SOL    HW221579   1.580   4.048   2.477 -0.8729  2.5951 -0.9735
 3373SOL     OW21580   4.567   0.616   4.784  0.2740 -0.1808  0.2725
 3373SOL    HW121581   4.501   0.650   4.724 -1.3043 -1.4096  1.3248
 3373SOL    HW221582   4.529   0.645   4.867  1.0572  0.2347  0.4802
 3374SOL     OW21583   3.554   2.030   7.405 -0.0907 -0.1627  0.2988
 3374SOL    HW121584   3.496   1.954   7.403  0.4318 -0.4344 -3.4671
 3374SOL    HW221585   3.490   2.098   7.384  1.1744  0.5899 -1.0557
 3375SOL     OW21586   2.698   1.207   2.884 -0.2583 -0.0035 -0.2368
 3375SOL    HW121587   2.639   1.198   2.959 -0.3994  1.3786 -0.1885
 3375SOL    HW221588   2.774   1.237   2.934  1.3681 -1.4655 -1.8217
 3376SOL     OW21589   3.881   0.328  14.587  1.1000 -0.2800  0.2563
 3376SOL    HW121590   3.863   0.279  14.506 -0.6174  0.9550 -0.1217
 3376SOL    HW221591   3.913   0.408  14.546  1.3439 -0.4533  0.1121
 3377SOL     OW21592   2.420   3.074   5.033 -0.5085 -0.0258  0.2518
 3377SOL    HW121593   2.370   3.109   5.107 -0.2799  1.1089 -0.1311
 3377SOL    HW221594   2.486   3.143   5.025 -0.6320  0.0978  0.2944
 3378SOL     OW21595   0.580   0.847   8.133 -0.2358  0.0609 -0.8720
 3378SOL    HW121596   0.491   0.879   8.142  0.1198  0.1144  2.7068
 3378SOL    HW221597   0.617   0.863   8.220 -0.9814  0.5606 -0.6475
 3379SOL     OW21598   4.489   2.513  14.942 -0.0688  0.0798 -0.1441
 3379SOL    HW121599   4.435   2.528  14.865  1.4324  1.9672 -0.8223
 3379SOL    HW221600   4.535   2.432  14.921 -0.0119 -0.0112  0.3368
 3380SOL     OW21601   2.714   2.739  15.017  0.4289  0.3119 -0.0675
 3380SOL    HW121602   2.637   2.774  15.062  0.6061  0.8536 -0.1875
 3380SOL    HW221603   2.773   2.793  15.070 -0.8570  1.2257  0.4441
 3381SOL     OW21604   2.334   3.714   2.298  0.2075  0.5142 -0.0631
 3381SOL    HW121605   2.284   3.725   2.379  0.0556  1.4614 -0.2880
 3381SOL    HW221606   2.386   3.636   2.317  0.4271  0.8048  0.5236
 3382SOL     OW21607   2.231   0.719   3.994 -0.4937 -0.1351  0.3906
 3382SOL    HW121608   2.287   0.740   4.069  0.6059 -0.0466 -0.4575
 3382SOL    HW221609   2.299   0.690   3.934  0.0164  0.3135  0.7474
 3383SOL     OW21610   2.887   3.423  17.493 -0.4837 -0.6964  0.4446
 3383SOL    HW121611   2.967   3.402  17.446 -0.6195 -0.1405 -0.0357
 3383SOL    HW221612   2.903   3.382  17.578 -2.0259 -2.5840 -0.1615
 3384SOL     OW21613   3.440   3.224   5.864  0.0805 -0.0090 -0.4872
 3384SOL    HW121614   3.469   3.211   5.954 -1.3512  1.8389  0.2579
 3384SOL    HW221615   3.366   3.163   5.863 -2.1265  2.6254  0.4070
 3385SOL     OW21616   0.869   1.995  16.974 -0.2866  0.0780 -0.0084
 3385SOL    HW121617   0.838   1.975  17.062  2.2122  0.0364  0.8661
 3385SOL    HW221618   0.952   2.030  17.005  1.0578 -2.6980 -0.4249
 3386SOL     OW21619   2.393   1.267   6.788 -0.0598  0.3094 -0.7834
 3386SOL    HW121620   2.463   1.249   6.726 -0.5039  0.5014 -1.3426
 3386SOL    HW221621   2.434   1.315   6.860  1.7479 -2.1781 -0.1479
 3387SOL     OW21622   1.887   4.192  10.111 -0.0036  0.5054  0.2954
 3387SOL    HW121623   1.818   4.244  10.072 -0.1796  0.3802  0.4384
 3387SOL    HW221624   1.834   4.126  10.155  1.2284 -0.7095 -0.0129
 3388SOL     OW21625   0.821   3.178  11.968 -0.0927 -0.2920 -0.5745
 3388SOL    HW121626   0.731   3.192  11.998  0.9173  2.2290  1.2391
 3388SOL    HW221627   0.805   3.179  11.873  0.9905 -0.1511 -0.7562
 3389SOL     OW21628   3.240   2.895  11.308  0.1218  0.1180 -0.5004
 3389SOL    HW121629   3.321   2.913  11.261 -0.0047  0.9789 -0.3854
 3389SOL    HW221630   3.279   2.885  11.395  1.8740  2.1327 -1.0444
 3390SOL     OW21631   1.856   1.496   2.562  0.4271 -0.1724  0.1127
 3390SOL    HW121632   1.773   1.514   2.519  1.8695  0.6529 -2.3352
 3390SOL    HW221633   1.883   1.588   2.564  0.5863 -0.2089 -0.4177
 3391SOL     OW21634   0.433   3.263   2.664  0.3301  0.3787 -0.5328
 3391SOL    HW121635   0.472   3.196   2.720 -0.3495  0.4152 -0.0163
 3391SOL    HW221636   0.490   3.252   2.588 -1.8657 -3.0506 -1.7193
 3392SOL     OW21637   0.266   3.233   6.167 -0.0233 -0.3152  0.2454
 3392SOL    HW121638   0.270   3.321   6.204 -3.5337  0.6188 -1.5858
 3392SOL    HW221639   0.268   3.180   6.246  0.7026 -0.1301  0.3490
 3393SOL     OW21640   0.576   3.030  13.422 -1.3048 -0.0115  0.3230
 3393SOL    HW121641   0.629   3.020  13.343 -0.6435  1.1688  0.6158
 3393SOL    HW221642   0.496   2.984  13.397 -0.9335 -0.9267  0.7900
 3394SOL     OW21643   2.636   4.712   1.538 -0.0969  0.8143  0.4326
 3394SOL    HW121644   2.695   4.693   1.465 -0.4861 -1.6323  0.7820
 3394SOL    HW221645   2.567   0.036   1.491  0.4864  0.0759 -1.1462
 3395SOL     OW21646   3.208   3.443   8.021  0.8240 -0.5568 -0.8622
 3395SOL    HW121647   3.295   3.405   8.012  0.6245 -0.5557 -2.8287
 3395SOL    HW221648   3.237   3.528   8.054  1.3020 -0.6890 -0.9353
 3396SOL     OW21649   3.574   0.057  16.158  0.0543  0.0462 -0.1375
 3396SOL    HW121650   3.565   0.133  16.215  1.2793  0.8381 -0.9841
 3396SOL    HW221651   3.483   0.033  16.141 -0.0073  1.6961 -2.0395
 3397SOL     OW21652   4.644   0.920  12.886  0.5993 -0.2809 -0.4237
 3397SOL    HW121653   0.002   0.938  12.931 -0.9025  0.5629  1.9975
 3397SOL    HW221654   4.611   0.849  12.940 -0.2184  0.3753 -0.0455
 3398SOL     OW21655   1.197   0.595  10.505  0.0762 -0.3239  0.2685
 3398SOL    HW121656   1.237   0.521  10.551  2.6774  0.8583 -0.0973
 3398SOL    HW221657   1.228   0.575  10.417 -0.0831 -0.3465  0.2192
 3399SOL     OW21658   4.493   1.424   0.038  0.6145 -0.4463  0.1717
 3399SOL    HW121659   4.528   1.446  17.649  0.6511  0.8314  0.5082
 3399SOL    HW221660   4.458   1.509   0.064 -0.4694 -1.4954  2.1764
 3400SOL     OW21661   0.551   1.235   4.101  0.0986  0.6585 -0.0500
 3400SOL    HW121662   0.590   1.221   4.188 -1.6574 -0.6642  0.5267
 3400SOL    HW221663   0.508   1.151   4.083  2.8953 -0.5616 -1.0267
 3401SOL     OW21664   4.335   0.083   4.523  0.0822  0.1784  0.0080
 3401SOL    HW121665   4.250   0.094   4.566 -0.3935 -0.2919 -0.8144
 3401SOL    HW221666   4.341   4.714   4.499  1.4987  0.7452 -1.7887
 3402SOL     OW21667   1.197   1.871   1.518  0.0013 -0.3312  0.2076
 3402SOL    HW121668   1.255   1.815   1.571 -0.5413 -0.1935  0.9545
 3402SOL    HW221669   1.240   1.868   1.433  0.0771  2.4402  0.1626
 3403SOL     OW21670   1.445   1.441  12.276  0.2089  0.6025 -0.0959
 3403SOL    HW121671   1.508   1.410  12.340 -0.3598 -0.7865 -0.2016
 3403SOL    HW221672   1.371   1.380  12.276 -0.2345  1.1415  1.2433
 3404SOL     OW21673   2.227   3.867   2.526  0.1066 -0.5074 -0.4099
 3404SOL    HW121674   2.261   3.943   2.478 -0.2570  0.9746  1.6434
 3404SOL    HW221675   2.142   3.903   2.553  1.1383  0.7709  1.1971
 3405SOL     OW21676   2.078   0.556   5.337 -0.2352 -0.1721  0.3041
 3405SOL    HW121677   2.034   0.641   5.340  0.6551  0.2887  0.0371
 3405SOL    HW221678   2.109   0.554   5.246  3.0984  1.7180  1.4266
 3406SOL     OW21679   0.252   3.365   8.939  0.1747  0.0417 -0.5256
 3406SOL    HW121680   0.158   3.360   8.952  0.7259 -3.9677  2.0982
 3406SOL    HW221681   0.276   3.422   9.011  0.5900  0.8043 -1.2711
 3407SOL     OW21682   0.171   2.361   8.727  0.6489 -0.3909  0.2205
 3407SOL    HW121683   0.223   2.284   8.703 -3.1865 -3.3203  1.3358
 3407SOL    HW221684   0.180   2.416   8.650  2.6343 -3.8943 -2.0574
 3408SOL     OW21685   3.612   2.417   0.744  0.2829  0.3374  0.1073
 3408SOL    HW121686   3.570   2.434   0.660  0.1649  0.0107  0.0997
 3408SOL    HW221687   3.681   2.358   0.714 -0.2626 -0.3069  0.1235
 3409SOL     OW21688   2.161   1.000   7.218 -0.9579 -0.0270 -0.0324
 3409SOL    HW121689   2.225   1.071   7.224 -0.9372 -0.1711  1.3456
 3409SOL    HW221690   2.135   0.993   7.126 -1.6653  1.5376  0.0473
 3410SOL     OW21691   0.664   3.173   4.624  0.1591 -0.3128 -0.2337
 3410SOL    HW121692   0.617   3.140   4.700  1.3792  0.9920  1.0899
 3410SOL    HW221693   0.588   3.203   4.572  1.2367 -0.5434 -1.9371
 3411SOL     OW21694   2.021   4.621   6.333  0.6043  0.3118 -0.1700
 3411SOL    HW121695   2.055   4.537   6.363 -0.4295 -0.4046 -1.0476
 3411SOL    HW221696   1.981   4.596   6.250 -0.8889  1.6710  0.1330
 3412SOL     OW21697   0.407   2.115  14.044 -0.4544  0.6307  0.1128
 3412SOL    HW121698   0.368   2.098  14.130 -0.0898  2.5790  0.6444
 3412SOL    HW221699   0.415   2.209  14.028 -1.2191  1.1504  2.8369
 3413SOL     OW21700   4.226   4.250   5.259 -0.0648 -0.6613 -0.3813
 3413SOL    HW121701   4.218   4.158   5.285  0.8772 -0.4292  0.7226
 3413SOL    HW221702   4.239   4.304   5.337  1.8261 -1.1269 -0.3898
 3414SOL     OW21703   1.795   1.045  12.170  0.1792  0.4702  0.4344
 3414SOL    HW121704   1.809   1.062  12.077 -0.4682  2.0761  0.6253
 3414SOL    HW221705   1.865   1.088  12.220  1.3868 -0.4537 -0.4763
 3415SOL     OW21706   2.503   2.550  14.879 -0.5652 -0.2524 -0.4471
 3415SOL    HW121707   2.555   2.493  14.822 -2.7174 -1.1271 -1.5554
 3415SOL    HW221708   2.515   2.635  14.837  1.6277 -1.2853 -1.9390
 3416SOL     OW21709   4.527   0.438  13.060 -0.4453  0.1432 -0.8337
 3416SOL    HW121710   4.447   0.473  13.098 -0.0653  1.0292 -0.8505
 3416SOL    HW221711   4.496   0.435  12.970  1.6223 -1.9049 -1.4848
 3417SOL     OW21712   0.778   1.575   0.383 -0.1063  0.1086 -0.0505
 3417SOL    HW121713   0.759   1.557   0.474  1.4878 -0.5335  0.1669
 3417SOL    HW221714   0.687   1.583   0.354 -0.6660 -0.5617  1.5515
 3418SOL     OW21715   3.600   1.651   3.759  0.1984  0.5408 -0.2442
 3418SOL    HW121716   3.685   1.610   3.744  0.3238  0.9673 -0.7426
 3418SOL    HW221717   3.628   1.735   3.795 -0.2515  0.5499  0.0834
 3419SOL     OW21718   2.320   4.007   6.117  0.1794  0.2793 -0.1822
 3419SOL    HW121719   2.393   3.985   6.059  0.3507  2.7735 -0.9431
 3419SOL    HW221720   2.375   4.058   6.176  1.1613 -1.0613  0.0416
 3420SOL     OW21721   3.013   1.639   3.753 -0.6186  0.8678 -0.3091
 3420SOL    HW121722   3.089   1.582   3.766  0.6737  2.6758 -0.0322
 3420SOL    HW221723   3.001   1.630   3.658  3.1573 -0.4639 -0.6657
 3421SOL     OW21724   3.946   0.320   0.233  0.1252 -0.0720 -0.3608
 3421SOL    HW121725   4.037   0.297   0.253  0.9036  2.1718 -1.2417
 3421SOL    HW221726   3.940   0.334   0.139  0.2688 -1.2572 -0.5336
 3422SOL     OW21727   3.214   2.723   2.185 -0.1951 -0.7200 -0.7435
 3422SOL    HW121728   3.278   2.651   2.180 -0.1740 -0.8085  0.7543
 3422SOL    HW221729   3.233   2.756   2.097  1.2125 -0.1438 -0.2262
 3423SOL     OW21730   3.298   2.850  13.695 -0.0461 -0.5131 -0.3962
 3423SOL    HW121731   3.232   2.789  13.727  0.1832  0.4778  1.9666
 3423SOL    HW221732   3.297   2.919  13.761 -0.8645 -2.9575  2.1329
 3424SOL     OW21733   2.257   1.974   3.419  0.3324  0.4457  0.3938
 3424SOL    HW121734   2.174   1.953   3.463  0.1118  0.0296 -0.2261
 3424SOL    HW221735   2.263   1.941   3.329 -0.7688 -1.5038  1.0266
 3425SOL     OW21736   0.029   1.556   7.209 -0.1755 -0.2239 -0.6706
 3425SOL    HW121737   4.691   1.595   7.147  1.5244  1.3054 -1.4019
 3425SOL    HW221738   4.700   1.480   7.235 -1.1202  0.0127 -1.8821
 3426SOL     OW21739   2.312   0.241   4.934  0.1800  0.1084  0.2553
 3426SOL    HW121740   2.372   0.297   4.982  0.5515  1.0628 -1.3342
 3426SOL    HW221741   2.320   0.159   4.985 -0.0773 -0.4306 -0.5721
 3427SOL     OW21742   3.719   4.713   5.570  0.1375  0.5504 -0.4060
 3427SOL    HW121743   3.805   4.684   5.600  0.1189 -0.0745 -0.9475
 3427SOL    HW221744   3.704   0.056   5.637  1.9643  0.1303  0.4053
 3428SOL     OW21745   1.481   3.230  13.339  0.2661  0.1150  0.2289
 3428SOL    HW121746   1.467   3.324  13.325  1.8723  0.5822  1.7084
 3428SOL    HW221747   1.405   3.208  13.286  0.9155 -0.0446 -0.6495
 3429SOL     OW21748   0.346   0.583   3.145  0.0547 -0.4880  0.2294
 3429SOL    HW121749   0.359   0.673   3.175 -1.3386 -0.8189  1.8235
 3429SOL    HW221750   0.436   0.552   3.143  0.0406 -0.5454  0.4961
 3430SOL     OW21751   0.153   2.921   3.355 -0.0014 -0.6786  0.7138
 3430SOL    HW121752   0.058   2.920   3.355  0.0102 -1.4400  1.2328
 3430SOL    HW221753   0.160   2.827   3.339 -1.4789 -0.5864 -0.4367
 3431SOL     OW21754   4.708   1.619   0.973  0.5040  0.0676  0.1024
 3431SOL    HW121755   0.027   1.651   1.053 -0.1625  0.4164  0.3168
 3431SOL    HW221756   4.683   1.534   1.010 -1.2862 -0.0333 -1.3592
 3432SOL     OW21757   2.795   3.670   3.444 -0.7368  0.2889 -0.1051
 3432SOL    HW121758   2.761   3.616   3.372 -2.1741  2.0284 -0.7335
 3432SOL    HW221759   2.732   3.742   3.441 -0.5118  0.5288  1.4024
 3433SOL     OW21760   1.953   3.497   4.799  0.2695 -0.2235 -0.5349
 3433SOL    HW121761   1.933   3.586   4.828 -0.8781  0.2767 -2.8449
 3433SOL    HW221762   2.045   3.519   4.788 -0.1092  0.8013 -1.7413
 3434SOL     OW21763   3.984   0.045  14.580  0.0927  0.1636 -0.4553
 3434SOL    HW121764   4.041   0.097  14.524  0.2995  2.0464  1.4728
 3434SOL    HW221765   4.019   0.063  14.667 -1.1221 -0.0143  0.0759
 3435SOL     OW21766   2.355   4.219   6.631  0.0464 -0.4819  0.3516
 3435SOL    HW121767   2.364   4.314   6.632  1.3776 -0.5880 -1.3626
 3435SOL    HW221768   2.334   4.200   6.722  0.7382 -2.2116  0.1600
 3436SOL     OW21769   3.833   1.267   9.125 -0.4969  0.2683 -0.2779
 3436SOL    HW121770   3.832   1.319   9.206 -1.1411 -1.9983  1.1584
 3436SOL    HW221771   3.867   1.338   9.071 -2.6123  0.2342 -1.6398
 3437SOL     OW21772   0.306   3.799   6.553 -0.3263 -0.1577  0.1903
 3437SOL    HW121773   0.401   3.787   6.545 -0.0098  1.4766  1.5028
 3437SOL    HW221774   0.303   3.894   6.547  0.0582 -0.2382 -1.2072
 3438SOL     OW21775   0.028   3.437   8.723  0.0464 -0.4363  0.1639
 3438SOL    HW121776   0.014   3.440   8.818  0.0231 -1.1466  0.1832
 3438SOL    HW221777   4.709   3.354   8.704 -0.7924  0.7399 -3.0734
 3439SOL     OW21778   2.097   0.782   8.795 -0.3302 -0.5967  0.0800
 3439SOL    HW121779   2.026   0.821   8.744  0.8618  0.0811 -1.0525
 3439SOL    HW221780   2.050   0.736   8.866 -0.5959 -2.9368 -1.6086
 3440SOL     OW21781   3.557   3.529   0.595  0.2806 -0.9131 -0.6743
 3440SOL    HW121782   3.631   3.574   0.635 -2.8717  2.8894  0.9076
 3440SOL    HW221783   3.487   3.593   0.580 -1.1980 -2.6124 -1.0720
 3441SOL     OW21784   3.874   3.390   1.872  0.1825 -0.1661  0.0895
 3441SOL    HW121785   3.795   3.340   1.851 -1.1854  1.5504  1.1843
 3441SOL    HW221786   3.851   3.447   1.946  0.4875  1.8207 -1.3491
 3442SOL     OW21787   1.482   3.791  10.371 -0.4479  0.0278 -0.1966
 3442SOL    HW121788   1.394   3.828  10.368 -0.6595 -0.5216 -0.8014
 3442SOL    HW221789   1.480   3.734  10.447  0.4802 -1.0666 -0.9956
 3443SOL     OW21790   2.288   3.256   8.161 -0.0752 -0.2388 -0.1404
 3443SOL    HW121791   2.379   3.251   8.133 -0.0075  0.3529 -0.0343
 3443SOL    HW221792   2.283   3.189   8.229  0.6952  0.0884  0.2415
 3444SOL     OW21793   3.448   2.051  12.431  0.0534 -0.1638 -0.5485
 3444SOL    HW121794   3.445   2.106  12.353 -1.9747 -0.7316 -0.8781
 3444SOL    HW221795   3.543   2.040  12.437  0.0143  0.5779  1.3749
 3445SOL     OW21796   2.000   4.359   7.064  0.0880  0.5326  0.0779
 3445SOL    HW121797   1.980   4.313   6.982  0.0490 -0.2935  0.5534
 3445SOL    HW221798   2.060   4.297   7.104 -0.9258 -0.2032  0.4423
 3446SOL     OW21799   4.029   1.547   2.872 -0.2438  0.5195 -0.0055
 3446SOL    HW121800   3.976   1.510   2.943 -0.0667  1.2300  0.4911
 3446SOL    HW221801   4.048   1.478   2.807 -0.8975 -0.3752  0.7556
 3447SOL     OW21802   0.221   0.208  17.585  0.4196  0.7022 -0.2279
 3447SOL    HW121803   0.156   0.152  17.626  1.0172  0.2076  0.0508
 3447SOL    HW221804   0.188   0.297  17.591 -0.8026  0.1595  0.9349
 3448SOL     OW21805   2.445   2.371  15.200 -0.2416  0.2470 -0.5857
 3448SOL    HW121806   2.437   2.458  15.161 -1.1953  0.1052 -0.7213
 3448SOL    HW221807   2.502   2.334  15.133  0.0810  0.8808 -0.6558
 3449SOL     OW21808   1.428   3.887   7.836  0.5923 -0.2300 -0.2568
 3449SOL    HW121809   1.503   3.867   7.892 -0.3005 -0.3950  0.8796
 3449SOL    HW221810   1.398   3.798   7.820 -2.4220  0.4571  1.6057
 3450SOL     OW21811   3.660   2.346   1.601  0.3151 -0.0518 -0.0461
 3450SOL    HW121812   3.754   2.354   1.586 -0.0357  0.9419 -1.6205
 3450SOL    HW221813   3.641   2.393   1.682 -1.0501 -0.1973 -0.2868
 3451SOL     OW21814   2.563   3.986   2.014  0.0031  0.5328 -0.0990
 3451SOL    HW121815   2.513   3.911   2.047  1.0801  0.7727  2.1110
 3451SOL    HW221816   2.645   3.948   1.983 -0.7155 -0.1137 -1.2067
 3452SOL     OW21817   3.083   1.838   9.814  0.0722  0.7292  0.3991
 3452SOL    HW121818   3.167   1.873   9.786  0.4275 -0.0600  0.5025
 3452SOL    HW221819   3.118   1.783   9.883 -1.0047  1.0085  1.1765
 3453SOL     OW21820   3.018   3.901  16.508 -0.2968 -0.7168 -0.4740
 3453SOL    HW121821   3.056   3.986  16.485  2.1892 -1.5600  0.6174
 3453SOL    HW221822   2.956   3.889  16.436 -0.2471 -0.0662 -0.6294
 3454SOL     OW21823   1.574   0.222   1.659 -0.3532 -0.3470  0.6524
 3454SOL    HW121824   1.560   0.134   1.694  2.4734 -0.8976  0.3741
 3454SOL    HW221825   1.520   0.210   1.581 -0.5432  1.8684  0.4245
 3455SOL     OW21826   4.593   3.866  14.501  0.0217  0.2774  0.4120
 3455SOL    HW121827   4.668   3.903  14.549  1.5503 -0.5136 -1.3578
 3455SOL    HW221828   4.561   3.804  14.566 -0.5597 -0.0433 -0.1841
 3456SOL     OW21829   1.878   0.189   6.118 -0.2063  0.1105 -0.4749
 3456SOL    HW121830   1.943   0.218   6.055  0.7540  0.6249  0.7553
 3456SOL    HW221831   1.917   0.219   6.201 -2.3478 -1.7838  1.2154
 3457SOL     OW21832   1.253   3.336   6.340  0.2232  0.2050 -0.1193
 3457SOL    HW121833   1.339   3.295   6.332  0.1395 -0.1994  1.0854
 3457SOL    HW221834   1.211   3.263   6.385 -0.4525  1.7828  1.8241
 3458SOL     OW21835   0.775   0.671  13.319  0.5092 -0.1667  0.0221
 3458SOL    HW121836   0.710   0.699  13.255 -0.7579 -0.7579  1.0668
 3458SOL    HW221837   0.826   0.608  13.268  0.4237 -0.2628  0.0568
 3459SOL     OW21838   0.727   3.501   5.759 -0.0259 -0.2840  0.4419
 3459SOL    HW121839   0.732   3.574   5.698  2.2940 -1.4885 -0.8254
 3459SOL    HW221840   0.718   3.429   5.697  0.6665  0.7914 -0.9112
 3460SOL     OW21841   0.083   0.233   8.943  0.0204 -0.5007 -0.1015
 3460SOL    HW121842   4.723   0.269   8.914 -1.0529 -1.9356  1.1731
 3460SOL    HW221843   0.123   0.307   8.988 -2.1642 -0.0899  1.1320
 3461SOL     OW21844   1.186   0.543   4.430  0.0968  0.2204 -0.4438
 3461SOL    HW121845   1.201   0.527   4.337 -0.1946 -0.9719 -0.2879
 3461SOL    HW221846   1.094   0.568   4.438  0.4553  2.3117 -2.7294
 3462SOL     OW21847   4.332   3.185  15.162  0.1361  0.0409 -0.4491
 3462SOL    HW121848   4.415   3.228  15.184 -0.0380 -0.4325  1.1913
 3462SOL    HW221849   4.275   3.212  15.234  0.2714  0.3227 -0.4516
 3463SOL     OW21850   3.817   2.005   0.191 -0.0524 -0.4230 -0.1251
 3463SOL    HW121851   3.748   1.978   0.251  1.3232 -2.8474  0.3723
 3463SOL    HW221852   3.789   1.959   0.112 -2.6384 -0.9218  1.1021
 3464SOL     OW21853   3.276   2.166   0.766 -0.9182 -0.2344  0.0076
 3464SOL    HW121854   3.247   2.142   0.678 -0.5426  2.3843 -0.8288
 3464SOL    HW221855   3.318   2.081   0.782  0.7918  0.7140  0.5089
 3465SOL     OW21856   0.020   1.402   1.546  0.5680 -0.3911  1.1011
 3465SOL    HW121857   4.675   1.402   1.612 -0.4749 -0.2791  0.0186
 3465SOL    HW221858   0.096   1.379   1.599  1.6084  3.0214  1.1081
 3466SOL     OW21859   2.617   0.326   8.311 -0.0310 -0.0118  0.6966
 3466SOL    HW121860   2.671   0.405   8.320 -0.7061  0.3495  1.6005
 3466SOL    HW221861   2.655   0.268   8.378 -0.7055 -1.3159 -0.0512
 3467SOL     OW21862   0.909   2.530   9.736  0.4883 -0.0423  0.2813
 3467SOL    HW121863   0.927   2.517   9.829  0.3783 -0.1622  0.2857
 3467SOL    HW221864   0.822   2.497   9.715  0.8567 -0.2237 -0.9893
 3468SOL     OW21865   2.686   2.324   0.987 -0.0342 -0.1832 -0.1099
 3468SOL    HW121866   2.645   2.307   0.902 -1.6921 -1.1897  0.8825
 3468SOL    HW221867   2.667   2.416   1.001  0.9765  0.0594 -0.3112
 3469SOL     OW21868   0.200   3.774  16.385  0.6967 -0.3765 -0.5497
 3469SOL    HW121869   0.238   3.811  16.305 -0.1098  0.9670 -0.2997
 3469SOL    HW221870   0.272   3.788  16.445  0.1036  4.0065 -0.8862
 3470SOL     OW21871   3.547   2.806   6.177  0.0831 -0.5124  0.0695
 3470SOL    HW121872   3.603   2.743   6.222  1.1975  0.9249  0.6741
 3470SOL    HW221873   3.524   2.842   6.262 -2.7223  2.0495 -1.7932
 3471SOL     OW21874   1.708   0.917   5.783 -0.2085  0.3413  0.1491
 3471SOL    HW121875   1.771   0.873   5.840  0.0689  1.0980  0.4236
 3471SOL    HW221876   1.731   1.009   5.794 -0.1595  0.5715 -1.9315
 3472SOL     OW21877   4.567   3.655   1.340  0.2250  0.2928  0.7467
 3472SOL    HW121878   4.632   3.651   1.270  1.5361 -0.6742  2.0240
 3472SOL    HW221879   4.561   3.561   1.358  0.2024  0.2792  0.6660
 3473SOL     OW21880   3.033   3.678   4.465 -0.3524  0.1853  0.4512
 3473SOL    HW121881   3.084   3.753   4.435  0.7023  0.1519  2.1621
 3473SOL    HW221882   3.092   3.641   4.531 -1.4050  0.5505  1.5922
 3474SOL     OW21883   3.781   1.811  10.358  0.2856  0.5025 -0.2725
 3474SOL    HW121884   3.740   1.826  10.443 -1.5210 -0.2105 -1.0162
 3474SOL    HW221885   3.851   1.753  10.389  0.2077  0.3721 -0.3399
 3475SOL     OW21886   0.800   4.061   4.160 -0.5351  0.1099 -0.2424
 3475SOL    HW121887   0.789   4.116   4.238  0.0191  0.5340 -0.4613
 3475SOL    HW221888   0.709   4.057   4.130 -0.3531  0.3447 -0.8237
 3476SOL     OW21889   4.130   0.428  12.064 -0.4180 -0.7022  0.0233
 3476SOL    HW121890   4.042   0.436  12.101 -0.4332  1.7870 -0.5771
 3476SOL    HW221891   4.149   0.335  12.078  0.1977 -0.4908  0.5670
 3477SOL     OW21892   1.500   0.694   8.351  0.0208 -0.1372  0.0180
 3477SOL    HW121893   1.546   0.614   8.376  1.6857  0.3782 -1.4732
 3477SOL    HW221894   1.434   0.660   8.290 -0.8716 -0.8260  1.3576
 3478SOL     OW21895   0.649   1.235   1.827  0.1555 -0.2952 -0.8085
 3478SOL    HW121896   0.613   1.203   1.909 -1.7740 -1.4761 -2.1183
 3478SOL    HW221897   0.740   1.213   1.850 -0.5265 -2.2268  0.0331
 3479SOL     OW21898   4.590   4.641   2.781 -0.1372 -0.6048 -1.1368
 3479SOL    HW121899   4.517   4.702   2.784 -0.0848 -0.6871  1.9581
 3479SOL    HW221900   4.545   4.559   2.803  1.3168 -1.0936  0.0525
 3480SOL     OW21901   1.644   2.081   5.938  0.0592  0.0100  0.1861
 3480SOL    HW121902   1.739   2.084   5.930 -0.0132 -0.1629 -0.7812
 3480SOL    HW221903   1.619   2.131   5.860  2.0878  2.0951  0.8913
 3481SOL     OW21904   0.999   2.058  13.754 -0.7558 -0.3373  0.4135
 3481SOL    HW121905   0.932   2.029  13.693 -0.2993  1.7544 -1.0683
 3481SOL    HW221906   1.057   1.982  13.758 -1.0115 -0.5790 -0.5162
 3482SOL     OW21907   0.217   0.099   2.317  0.3172  0.0237  0.9656
 3482SOL    HW121908   0.248   0.015   2.350 -1.1649 -2.1603 -3.2248
 3482SOL    HW221909   0.297   0.137   2.280  0.9668 -0.3058  2.0222
 3483SOL     OW21910   2.702   4.243   7.762 -0.3417 -0.2335 -0.0086
 3483SOL    HW121911   2.684   4.286   7.846 -0.2322  0.0813 -0.1495
 3483SOL    HW221912   2.612   4.238   7.730  0.9417 -1.7298 -3.3162
 3484SOL     OW21913   4.191   2.027  13.211  0.2388  0.1475  0.1541
 3484SOL    HW121914   4.142   2.022  13.129  0.9466 -0.2978 -0.2381
 3484SOL    HW221915   4.279   2.022  13.173 -0.1837 -0.5626 -0.7280
 3485SOL     OW21916   0.308   3.609  12.406  0.0067  0.0075  0.0013
 3485SOL    HW121917   0.368   3.564  12.466  1.5942  1.1544 -0.7212
 3485SOL    HW221918   0.311   3.688  12.461  0.2427  0.8271 -1.1995
 3486SOL     OW21919   4.043   0.344   3.504 -0.1671  0.3932  0.0518
 3486SOL    HW121920   4.132   0.330   3.538 -0.9946 -0.7560  1.7457
 3486SOL    HW221921   4.055   0.392   3.421 -3.6187 -1.3895 -1.4670
 3487SOL     OW21922   1.812   1.916   7.738  0.0358  0.0830 -0.0740
 3487SOL    HW121923   1.879   1.897   7.804  0.1715  0.8434  0.0061
 3487SOL    HW221924   1.850   1.881   7.657 -0.7790  1.1298 -0.9009
 3488SOL     OW21925   3.732   0.774   2.096  0.4762  0.2526 -0.5506
 3488SOL    HW121926   3.728   0.691   2.049  1.3995  0.6063 -1.2505
 3488SOL    HW221927   3.716   0.834   2.023 -0.4468 -0.6619 -1.1007
 3489SOL     OW21928   3.500   1.629  11.034 -0.5729  0.2243  0.0045
 3489SOL    HW121929   3.518   1.720  11.010 -0.6321  0.6281  1.4855
 3489SOL    HW221930   3.579   1.574  11.033  0.3952  1.6284 -0.1993
 3490SOL     OW21931   2.636   2.738  16.874  0.2269  0.6265 -0.3893
 3490SOL    HW121932   2.579   2.802  16.833 -0.1377  2.5312  3.1149
 3490SOL    HW221933   2.685   2.702  16.800 -0.5394 -0.0331 -0.5735
 3491SOL     OW21934   0.737   0.075   0.602 -0.0728 -0.3665 -0.1939
 3491SOL    HW121935   0.670   0.029   0.654 -0.9924  1.7224  0.4824
 3491SOL    HW221936   0.690   0.155   0.577  1.2001  0.6010  0.5190
 3492SOL     OW21937   2.528   1.286   9.801 -0.4690 -0.1727  0.0167
 3492SOL    HW121938   2.488   1.208   9.839 -1.1625  1.6300  2.9484
 3492SOL    HW221939   2.458   1.311   9.740 -0.3333 -0.1890 -0.1475
 3493SOL     OW21940   2.150   0.726  16.826 -0.0242 -1.0696 -0.1226
 3493SOL    HW121941   2.239   0.728  16.791 -0.9346  1.0489 -2.3949
 3493SOL    HW221942   2.098   0.715  16.746 -0.5493  0.5231 -0.0060
 3494SOL     OW21943   4.681   3.017   5.604  0.1915  0.4347 -0.3781
 3494SOL    HW121944   4.594   2.982   5.585 -1.1561  2.3301  2.2274
 3494SOL    HW221945   0.007   2.938   5.582  0.8346  1.0402 -1.1201
 3495SOL     OW21946   1.622   3.343   0.508 -0.0174  0.3206 -0.4005
 3495SOL    HW121947   1.626   3.367   0.416  0.3699  1.6034 -0.0601
 3495SOL    HW221948   1.546   3.286   0.513  0.4004 -0.0491  2.1478
 3496SOL     OW21949   3.199   2.194   6.922 -0.0815 -0.3176  0.0563
 3496SOL    HW121950   3.123   2.152   6.961  0.4204 -0.0719  1.2846
 3496SOL    HW221951   3.157   2.225   6.841 -0.3092  0.0996  0.3277
 3497SOL     OW21952   0.373   4.723  17.271  0.0817  0.2413  0.2365
 3497SOL    HW121953   0.316   4.678  17.209  0.0111 -0.5707  0.8845
 3497SOL    HW221954   0.452   4.671  17.256  0.3982  0.8312 -0.0997
 3498SOL     OW21955   1.688   0.514  13.750 -0.4408  0.2642  0.2552
 3498SOL    HW121956   1.767   0.506  13.696 -1.7934 -1.5319 -1.4605
 3498SOL    HW221957   1.666   0.605  13.731  2.9838  1.0210 -0.1270
 3499SOL     OW21958   1.743   4.076   4.370 -0.5573  0.4378 -0.0736
 3499SOL    HW121959   1.707   3.991   4.395  0.8044 -0.0522  0.2103
 3499SOL    HW221960   1.826   4.069   4.418  0.1596 -1.2516 -1.5262
 3500SOL     OW21961   1.879   0.786   0.518 -0.0962 -0.4295 -0.2450
 3500SOL    HW121962   1.941   0.787   0.445 -0.0589  0.6864 -0.2101
 3500SOL    HW221963   1.935   0.766   0.593 -2.1666 -0.5982  1.2727
 3501SOL     OW21964   2.768   0.636   2.802 -0.8298 -0.0996 -0.4748
 3501SOL    HW121965   2.788   0.584   2.724 -0.0128  0.4085 -0.6000
 3501SOL    HW221966   2.727   0.711   2.760 -1.0684 -0.1071 -0.2560
 3502SOL     OW21967   4.580   1.723   7.542 -0.4264  0.3230 -0.0642
 3502SOL    HW121968   4.625   1.756   7.620  0.2266 -1.4231  0.3084
 3502SOL    HW221969   4.609   1.632   7.531 -0.4013  0.1918  1.0082
 3503SOL     OW21970   3.934   2.916  14.870 -0.5902 -0.0802 -0.8369
 3503SOL    HW121971   3.867   2.971  14.912  1.9179  0.1152  2.9215
 3503SOL    HW221972   4.014   2.955  14.907  0.7795 -2.1760 -1.6071
 3504SOL     OW21973   1.120   0.461   8.321  0.0694 -0.1916  0.6783
 3504SOL    HW121974   1.213   0.466   8.340  0.1283  0.7220  0.1755
 3504SOL    HW221975   1.118   0.380   8.271  1.8432 -0.8144  1.6095
 3505SOL     OW21976   4.221   1.613   2.587 -0.0200 -0.3922 -0.1020
 3505SOL    HW121977   4.250   1.522   2.589  0.5439 -0.2116 -0.1019
 3505SOL    HW221978   4.225   1.631   2.493 -0.7757 -2.6525 -0.5607
 3506SOL     OW21979   4.217   1.288   7.619 -0.6968  0.1131  0.3351
 3506SOL    HW121980   4.310   1.295   7.642 -1.1513  0.3461  2.1027
 3506SOL    HW221981   4.219   1.315   7.527 -1.1625  0.8391  0.5381
 3507SOL     OW21982   1.918   1.785   6.038 -0.0756  0.1823 -0.1153
 3507SOL    HW121983   1.913   1.690   6.049  3.7781 -0.1564 -1.2556
 3507SOL    HW221984   1.856   1.803   5.967 -0.5239  0.4376  0.3433
 3508SOL     OW21985   0.439   0.205   2.214  0.4652  0.0677  0.4484
 3508SOL    HW121986   0.463   0.267   2.282 -1.7925  1.3210  0.0992
 3508SOL    HW221987   0.527   0.171   2.198 -0.3209 -1.5982 -0.3889
 3509SOL     OW21988   4.161   2.859   0.724 -0.6770  0.6653 -0.0646
 3509SOL    HW121989   4.117   2.774   0.729  0.4358  0.0226 -1.1954
 3509SOL    HW221990   4.082   2.913   0.723 -0.3984  1.0565 -0.9863
 3510SOL     OW21991   3.263   3.155   7.361  0.3447 -0.3122  0.3086
 3510SOL    HW121992   3.302   3.188   7.441 -2.2333  0.4550  1.2414
 3510SOL    HW221993   3.338   3.171   7.304 -0.6678  2.2266 -0.3146
 3511SOL     OW21994   1.278   2.067   5.132 -0.4327 -0.3983 -0.1488
 3511SOL    HW121995   1.237   2.148   5.102 -0.2120 -0.6928 -1.2533
 3511SOL    HW221996   1.365   2.097   5.158  0.5084 -3.3247  0.1360
 3512SOL     OW21997   2.546   2.021   4.213 -0.0498 -0.8855  0.0017
 3512SOL    HW121998   2.519   2.088   4.276 -1.8462  0.3664 -2.0435
 3512SOL    HW221999   2.583   2.072   4.141  1.5219  0.9195  2.1076
 3513SOL     OW22000   2.514   3.124   6.326  0.0068 -0.8819  0.1041
 3513SOL    HW122001   2.428   3.081   6.324 -0.7375  0.3986  3.1652
 3513SOL    HW222002   2.565   3.046   6.303  0.2905  0.2383 -3.0838
 3514SOL     OW22003   4.003   2.875   1.676  0.5152  0.3978 -0.3004
 3514SOL    HW122004   4.055   2.797   1.654 -0.2363 -0.5689  1.3688
 3514SOL    HW222005   3.941   2.874   1.603  0.5515 -0.7489 -0.3243
 3515SOL     OW22006   1.087   4.364  16.784  0.0853 -0.0442  0.5558
 3515SOL    HW122007   1.021   4.320  16.838 -2.4703  0.9856 -1.7678
 3515SOL    HW222008   1.115   4.292  16.728  2.1586  0.4060  1.0008
 3516SOL     OW22009   2.341   3.115   7.864 -0.6841 -0.2896  0.0492
 3516SOL    HW122010   2.392   3.194   7.846 -1.5193 -0.2353 -2.1855
 3516SOL    HW222011   2.253   3.145   7.890 -0.0054  1.3071  0.5049
 3517SOL     OW22012   1.879   2.192   4.756  0.5589 -0.0079 -0.3803
 3517SOL    HW122013   1.797   2.195   4.805 -0.2590  0.6123 -1.8055
 3517SOL    HW222014   1.844   2.163   4.672  0.3817  2.7714 -1.2743
 3518SOL     OW22015   2.598   0.274   7.362 -0.3328  0.2092 -0.1981
 3518SOL    HW122016   2.691   0.254   7.374 -0.1588  0.8554 -0.4528
 3518SOL    HW222017   2.580   0.358   7.404  1.1592  0.4031  0.0457
 3519SOL     OW22018   1.799   4.534   6.968  0.0031  0.3239  0.0333
 3519SOL    HW122019   1.756   4.452   6.992  1.2154 -0.1238  0.6687
 3519SOL    HW222020   1.886   4.504   6.941 -1.0151 -1.7822 -0.9478
 3520SOL     OW22021   2.450   4.632  14.838  0.1879 -0.0277  0.2015
 3520SOL    HW122022   2.513   4.644  14.910 -0.7736  1.3555  0.8080
 3520SOL    HW222023   2.418   4.722  14.833 -0.0341 -0.0464  1.2289
 3521SOL     OW22024   3.475   4.128  15.660 -0.4307  0.1234  0.0073
 3521SOL    HW122025   3.536   4.128  15.734  0.0128 -0.6500 -0.3640
 3521SOL    HW222026   3.395   4.092  15.699 -0.0464 -2.2357 -1.3431
 3522SOL     OW22027   3.114   4.142  15.949  0.2422  0.2029  0.1210
 3522SOL    HW122028   3.060   4.209  15.992 -0.7420  0.4442 -1.4940
 3522SOL    HW222029   3.100   4.078  16.018 -1.7603 -0.1646 -0.6092
 3523SOL     OW22030   3.529   1.286   0.251 -0.1094 -0.0027  0.5211
 3523SOL    HW122031   3.523   1.218   0.319  0.0888  0.8869  1.4325
 3523SOL    HW222032   3.624   1.294   0.241 -0.0895 -2.5603 -1.2032
 3524SOL     OW22033   1.814   2.191   7.667  0.1171  0.1922  0.4949
 3524SOL    HW122034   1.787   2.215   7.756 -1.0947 -1.5769  0.6016
 3524SOL    HW222035   1.803   2.096   7.670  0.5912  0.1249  0.1792
 3525SOL     OW22036   1.903   0.537   6.281  0.6204 -0.2936 -0.4349
 3525SOL    HW122037   1.928   0.575   6.365  1.0087 -0.4143 -0.4938
 3525SOL    HW222038   1.823   0.586   6.266 -0.4260 -1.2997  1.9055
 3526SOL     OW22039   4.681   2.533   3.034 -0.1865  0.1652  0.2183
 3526SOL    HW122040   4.586   2.540   3.037 -0.2195 -0.4856  0.8907
 3526SOL    HW222041   4.701   2.601   2.970  1.4450  1.2084  1.8334
 3527SOL     OW22042   0.133   2.292   9.304  0.1625 -0.0411  0.3759
 3527SOL    HW122043   0.211   2.251   9.341 -1.9083 -5.0581 -0.8904
 3527SOL    HW222044   0.111   2.363   9.365  0.2155  0.0923  0.2398
 3528SOL     OW22045   3.538   4.084  11.334  0.1919 -0.6457 -0.2337
 3528SOL    HW122046   3.529   4.168  11.288 -0.3685  0.3864  1.7589
 3528SOL    HW222047   3.478   4.094  11.409 -0.2902 -3.8429 -0.2149
 3529SOL     OW22048   1.652   0.906   4.840  0.0489 -0.1648  0.1480
 3529SOL    HW122049   1.679   0.954   4.763 -0.6361  0.6879  0.4379
 3529SOL    HW222050   1.732   0.913   4.893  0.5433 -0.4928 -0.5658
 3530SOL     OW22051   4.178   1.439   5.412 -0.0924 -0.1998 -0.2326
 3530SOL    HW122052   4.274   1.438   5.415 -0.0724  0.7159 -0.5514
 3530SOL    HW222053   4.155   1.489   5.491 -1.2136 -2.1235  0.6313
 3531SOL     OW22054   1.955   3.629  15.203  0.3275  0.1410 -0.1601
 3531SOL    HW122055   1.927   3.654  15.115 -1.2790  1.7226  0.8006
 3531SOL    HW222056   1.933   3.536  15.211 -2.1278  0.5397 -2.1635
 3532SOL     OW22057   3.642   3.209   4.613 -0.2647 -0.0418  0.0693
 3532SOL    HW122058   3.628   3.187   4.705 -0.8347  0.2743  0.0612
 3532SOL    HW222059   3.724   3.166   4.592 -0.7547 -2.3424  2.8749
 3533SOL     OW22060   2.215   0.021   5.078 -0.5076  0.4177  0.3558
 3533SOL    HW122061   2.214   4.677   5.010  0.1308  0.7195  0.0489
 3533SOL    HW222062   2.213   4.695   5.160  1.0637  0.2094  0.2605
 3534SOL     OW22063   1.330   3.201   5.985  0.1442  0.4019 -0.3447
 3534SOL    HW122064   1.305   3.112   5.958  2.1706 -0.5613  0.9436
 3534SOL    HW222065   1.246   3.245   5.975 -0.6149 -1.3187 -1.6573
 3535SOL     OW22066   4.406   3.536   4.544 -0.4868  0.1840  0.1867
 3535SOL    HW122067   4.347   3.473   4.585  1.9939 -1.1790  1.6695
 3535SOL    HW222068   4.407   3.617   4.593 -3.2325  1.5874 -2.0612
 3536SOL     OW22069   2.860   1.659   6.493 -0.4398 -0.3064  0.0587
 3536SOL    HW122070   2.880   1.752   6.504 -1.9665  0.1070 -0.6067
 3536SOL    HW222071   2.784   1.676   6.438  0.1779  0.0430 -0.6955
 3537SOL     OW22072   1.398   3.238   0.796  0.2257 -0.3375 -0.1380
 3537SOL    HW122073   1.425   3.149   0.816  0.1613  0.0913  1.7895
 3537SOL    HW222074   1.401   3.245   0.700 -0.1796 -0.9323 -0.1971
 3538SOL     OW22075   0.017   0.114   9.348 -0.2655  0.1776  0.3870
 3538SOL    HW122076   0.017   0.020   9.364  0.7553 -0.1958 -1.7020
 3538SOL    HW222077   0.032   0.151   9.435  2.4824 -1.8804  0.7683
 3539SOL     OW22078   0.350   1.395   1.349 -0.7050 -0.6144 -0.0250
 3539SOL    HW122079   0.414   1.463   1.372  0.1803 -0.7290 -2.0572
 3539SOL    HW222080   0.322   1.350   1.428 -1.0416 -1.3268 -0.5557
 3540SOL     OW22081   0.056   3.564   2.125  0.1291 -0.1623  0.0407
 3540SOL    HW122082   0.136   3.613   2.106 -1.0877  1.8125 -0.0473
 3540SOL    HW222083   0.040   3.581   2.218  1.9067  0.6224  0.2030
 3541SOL     OW22084   1.116   0.073   2.397  0.7896  0.0902 -0.3260
 3541SOL    HW122085   1.086   4.707   2.415  0.8541  0.0936 -0.2051
 3541SOL    HW222086   1.048   0.129   2.435  0.7134  0.7157 -1.3775
 3542SOL     OW22087   2.534   0.112  10.872  0.2553 -0.6975 -0.3183
 3542SOL    HW122088   2.504   0.128  10.782 -0.0232 -0.0624 -0.1147
 3542SOL    HW222089   2.630   0.110  10.872  0.2658 -0.2303 -1.1530
 3543SOL     OW22090   3.834   1.657   2.461 -0.2989  0.1049  0.3459
 3543SOL    HW122091   3.890   1.579   2.456 -0.0589  0.1506  2.1941
 3543SOL    HW222092   3.764   1.631   2.401  0.5174  0.2311 -0.6721
 3544SOL     OW22093   2.836   3.916  16.315  0.3603 -0.0767 -0.1493
 3544SOL    HW122094   2.818   3.918  16.221 -2.8599  2.9150  0.5325
 3544SOL    HW222095   2.817   4.008  16.333 -0.7393  0.7361 -5.2842
 3545SOL     OW22096   3.908   1.942   3.421  0.4141 -0.3040 -0.2822
 3545SOL    HW122097   3.878   1.927   3.511 -0.6680  1.4161 -0.3485
 3545SOL    HW222098   3.978   2.002   3.446 -1.0623  1.6892 -0.9010
 3546SOL     OW22099   2.268   3.226   6.665 -0.3280 -0.5208 -0.3395
 3546SOL    HW122100   2.364   3.222   6.665 -0.2647  0.6522 -2.5441
 3546SOL    HW222101   2.247   3.182   6.747 -4.3624 -0.5108 -1.3942
 3547SOL     OW22102   0.086   4.683   1.578  0.2200  0.3728 -0.3263
 3547SOL    HW122103   0.166   4.673   1.629  0.6646  4.1290 -0.2544
 3547SOL    HW222104   0.069   0.052   1.598 -0.0305  0.1236  0.6009
 3548SOL     OW22105   3.773   2.160   8.945  0.0027 -0.5112 -0.0084
 3548SOL    HW122106   3.680   2.142   8.930  0.1789 -1.4293 -0.0163
 3548SOL    HW222107   3.813   2.080   8.912  0.3597 -0.5960  0.6341
 3549SOL     OW22108   3.551   4.444  16.604  0.4416  0.3211  0.0072
 3549SOL    HW122109   3.614   4.514  16.589  1.1377  0.0172  1.5079
 3549SOL    HW222110   3.543   4.445  16.699 -1.2130  0.5626 -0.1225
 3550SOL     OW22111   1.742   1.378   3.063 -0.3815  0.0446  0.1701
 3550SOL    HW122112   1.664   1.423   3.095  0.3617  0.3163  1.6074
 3550SOL    HW222113   1.771   1.331   3.141  0.0594 -1.9451 -1.2136
 3551SOL     OW22114   2.132   0.319   2.926 -0.0632 -0.4363  0.2776
 3551SOL    HW122115   2.197   0.389   2.924 -0.4096 -0.0912  1.1040
 3551SOL    HW222116   2.125   0.310   3.021  1.1452 -3.9853  0.0355
 3552SOL     OW22117   3.348   4.029   2.739  0.2778 -0.0297 -0.1159
 3552SOL    HW122118   3.287   4.076   2.795  0.4516 -1.8010  1.5705
 3552SOL    HW222119   3.282   3.983   2.688  1.6639  0.2242 -2.1747
 3553SOL     OW22120   2.301   1.063  10.512  0.2485  0.0597  0.1368
 3553SOL    HW122121   2.324   1.085  10.602 -1.3570  0.1108  0.5423
 3553SOL    HW222122   2.222   1.116  10.496 -0.3429 -1.5396 -2.3312
 3554SOL     OW22123   2.188   0.421   1.724  0.7175 -0.0222 -0.0390
 3554SOL    HW122124   2.165   0.462   1.807 -1.0884  1.1165 -1.1104
 3554SOL    HW222125   2.115   0.454   1.672  1.0178 -0.3087 -0.6555
 3555SOL     OW22126   0.457   1.191  11.756  0.3528  0.1358  0.4131
 3555SOL    HW122127   0.535   1.240  11.780  1.1543 -1.2458  0.6353
 3555SOL    HW222128   0.405   1.264  11.722 -1.0897 -0.1898  1.8604
 3556SOL     OW22129   2.976   2.755   0.341  0.2474 -0.3623 -0.1349
 3556SOL    HW122130   3.022   2.827   0.298 -0.7293  0.9658  1.0596
 3556SOL    HW222131   2.952   2.700   0.266  0.4707  1.9259 -1.8896
 3557SOL     OW22132   0.695   2.373   0.335  0.6567  0.3699 -0.0170
 3557SOL    HW122133   0.726   2.455   0.372  2.5899  0.4100 -1.7120
 3557SOL    HW222134   0.775   2.319   0.332  0.7873  0.6719 -2.2271
 3558SOL     OW22135   0.580   0.328   7.441 -0.1351  0.0142 -0.1682
 3558SOL    HW122136   0.664   0.285   7.458 -0.1064  0.8762  1.9771
 3558SOL    HW222137   0.517   0.275   7.490 -0.7389 -0.7762 -1.7947
 3559SOL     OW22138   1.558   3.781   5.075 -0.3227  0.5758  0.1177
 3559SOL    HW122139   1.474   3.826   5.065 -0.0034  1.0016 -0.6067
 3559SOL    HW222140   1.615   3.839   5.126  0.4609  0.4354 -0.6024
 3560SOL     OW22141   0.471   0.639   2.275 -0.1027 -0.1791  0.0707
 3560SOL    HW122142   0.493   0.564   2.330  1.4848 -0.9254 -1.5385
 3560SOL    HW222143   0.388   0.610   2.236  0.1901 -2.5603  1.1582
 3561SOL     OW22144   1.473   4.682   1.262 -0.4811  0.2320 -0.2231
 3561SOL    HW122145   1.422   4.607   1.293  0.6035 -0.3991  0.0254
 3561SOL    HW222146   1.471   4.692   1.167 -0.4771 -2.5331 -0.5028
 3562SOL     OW22147   4.176   2.286   3.329  0.5252  0.1760  0.1683
 3562SOL    HW122148   4.193   2.219   3.263 -1.1270  1.4740 -1.5878
 3562SOL    HW222149   4.230   2.352   3.284  0.5775 -1.1624 -1.7512
 3563SOL     OW22150   0.155   4.653   3.828  0.1918 -0.2000  0.4155
 3563SOL    HW122151   0.229   4.696   3.786  0.6285 -0.6260  0.7527
 3563SOL    HW222152   0.089   4.660   3.759  0.2770 -0.7674  0.2695
 3564SOL     OW22153   1.491   3.690   2.781 -0.0062 -0.2375 -0.1410
 3564SOL    HW122154   1.478   3.601   2.814 -1.3845 -0.2822 -0.8079
 3564SOL    HW222155   1.412   3.727   2.821  0.0851 -0.7972  0.5562
 3565SOL     OW22156   3.133   2.651   2.466  0.1752  0.0945 -0.6102
 3565SOL    HW122157   3.162   2.704   2.391  0.4007 -0.0124 -0.5985
 3565SOL    HW222158   3.161   2.571   2.422  1.2233  1.0923 -1.7515
 3566SOL     OW22159   0.014   0.309   7.401 -0.1594  0.0816 -0.0040
 3566SOL    HW122160   4.717   0.281   7.312  2.1793  0.3315 -0.6486
 3566SOL    HW222161   4.669   0.259   7.445  1.3721 -1.8520  0.2061
 3567SOL     OW22162   3.498   0.292   4.196  0.5949 -0.3341  0.7077
 3567SOL    HW122163   3.576   0.315   4.147  0.6975  0.6200  1.3090
 3567SOL    HW222164   3.436   0.316   4.128  1.0856  0.1528  0.4385
 3568SOL     OW22165   2.460   0.128   8.741  0.0078  0.1704  0.4392
 3568SOL    HW122166   2.488   0.101   8.653  1.3758 -0.2236  0.9977
 3568SOL    HW222167   2.455   0.041   8.782  0.9206 -0.1157 -0.0418
 3569SOL     OW22168   0.868   2.745   4.686 -0.0355 -0.3678  0.0047
 3569SOL    HW122169   0.889   2.795   4.764 -0.2459 -0.7744  0.3200
 3569SOL    HW222170   0.874   2.818   4.624 -2.9507  0.7774  1.0688
 3570SOL     OW22171   3.516   1.976   3.298  0.1225 -0.0688 -0.4288
 3570SOL    HW122172   3.469   1.908   3.346 -0.3716  1.7722  1.7026
 3570SOL    HW222173   3.495   1.953   3.208  0.6471  2.1771 -1.1328
 3571SOL     OW22174   0.361   3.000   4.602 -0.0946  0.2504  0.2249
 3571SOL    HW122175   0.338   3.093   4.599  1.6815  0.6337 -0.9970
 3571SOL    HW222176   0.274   2.959   4.602 -0.9060  1.9871 -1.9370
 3572SOL     OW22177   0.062   4.048   4.532 -0.2521  0.2577  0.6645
 3572SOL    HW122178   0.039   3.963   4.495  0.8219  0.3752 -0.2677
 3572SOL    HW222179   4.703   4.096   4.539  1.3270  2.7256  2.9452
 3573SOL     OW22180   1.732   3.125  13.391  0.5661  0.6095  0.3003
 3573SOL    HW122181   1.751   3.206  13.438 -1.9057 -0.0870  2.5398
 3573SOL    HW222182   1.645   3.148  13.359  0.5548  0.7906  0.4625
 3574SOL     OW22183   2.260   2.661   0.719 -0.0374 -0.0349  0.3407
 3574SOL    HW122184   2.213   2.605   0.781  1.6893  0.9209  2.5223
 3574SOL    HW222185   2.274   2.743   0.768  2.5226 -0.4882  0.3634
 3575SOL     OW22186   4.701   1.992   3.995  0.4621  0.0749 -0.1730
 3575SOL    HW122187   4.694   1.897   3.987 -0.0171  0.1747 -0.9527
 3575SOL    HW222188   0.032   2.008   3.918  2.3101 -0.7038  0.9864
 3576SOL     OW22189   3.650   3.500   8.710  0.1843  0.2769  0.1315
 3576SOL    HW122190   3.725   3.446   8.685  0.7519 -0.3208  3.1667
 3576SOL    HW222191   3.681   3.539   8.791  1.3210  1.2202 -0.7533
 3577SOL     OW22192   3.775   2.114   3.144  0.8886  0.2067  0.9076
 3577SOL    HW122193   3.800   2.113   3.236 -0.5478 -1.9046  1.2769
 3577SOL    HW222194   3.815   2.198   3.120  0.1841  0.2464 -0.1283
 3578SOL     OW22195   3.017   1.521   4.032  0.1248  0.4977 -0.0634
 3578SOL    HW122196   2.956   1.585   3.996 -0.7122  1.0319  2.3082
 3578SOL    HW222197   3.013   1.452   3.966 -2.3356  0.7092 -0.1496
 3579SOL     OW22198   4.552   0.788  16.409  0.0380 -0.3666 -0.6368
 3579SOL    HW122199   4.607   0.823  16.339 -1.0535  1.0861 -0.7395
 3579SOL    HW222200   4.499   0.866  16.420 -0.3127 -0.5844 -0.7742
 3580SOL     OW22201   2.188   4.665   6.977 -0.1102  0.5108 -0.1712
 3580SOL    HW122202   2.145   4.640   7.058 -0.5250  2.3209  0.1612
 3580SOL    HW222203   2.276   4.679   7.012 -0.9776  0.6872  1.9203
 3581SOL     OW22204   2.248   4.320   2.754  0.0279  0.1405 -0.4546
 3581SOL    HW122205   2.194   4.243   2.739  1.3947 -0.6078 -1.5132
 3581SOL    HW222206   2.333   4.277   2.742  0.3332  0.2690  1.2866
 3582SOL     OW22207   4.034   3.051  14.588 -0.0734 -0.5021  0.4599
 3582SOL    HW122208   4.096   3.104  14.638 -1.0530  1.8061 -0.8257
 3582SOL    HW222209   3.985   3.004  14.656 -1.6305  1.2728  0.5452
 3583SOL     OW22210   1.044   2.498   5.308 -0.3159  0.2899  0.0677
 3583SOL    HW122211   1.103   2.475   5.379  1.6933 -2.0557 -2.3918
 3583SOL    HW222212   0.961   2.515   5.353  1.9998 -1.3680  4.8850
 3584SOL     OW22213   2.825   0.359   5.016  0.3383 -0.1457  0.5438
 3584SOL    HW122214   2.739   0.385   4.984  0.2822 -1.3282 -0.2910
 3584SOL    HW222215   2.807   0.311   5.097  1.8005 -3.2097 -0.9187
 3585SOL     OW22216   2.253   1.563   4.435 -0.4852 -0.0478  0.4173
 3585SOL    HW122217   2.307   1.495   4.474  1.2292  1.9854  1.6049
 3585SOL    HW222218   2.255   1.625   4.508  2.1126 -1.5065  1.5866
 3586SOL     OW22219   1.795   4.282  14.158  0.1881  0.2706 -0.0034
 3586SOL    HW122220   1.836   4.243  14.081  0.3301  0.6182 -0.1071
 3586SOL    HW222221   1.704   4.276  14.129  0.0001 -0.2133  0.6778
 3587SOL     OW22222   1.519   3.530   5.200  0.3281 -0.6402  0.0803
 3587SOL    HW122223   1.559   3.610   5.165  1.9034 -0.7106  1.7464
 3587SOL    HW222224   1.427   3.541   5.175  0.6605 -1.1072 -1.3402
 3588SOL     OW22225   2.938   3.063   8.786 -0.0774 -0.2554 -0.3259
 3588SOL    HW122226   2.918   3.077   8.878  2.7870  0.6132  0.1598
 3588SOL    HW222227   3.028   3.032   8.796 -0.3371 -0.2555  2.0244
 3589SOL     OW22228   3.078   2.608  16.212  0.0373  0.2640  0.1715
 3589SOL    HW122229   3.104   2.689  16.256  0.4776 -0.9550  2.2120
 3589SOL    HW222230   3.116   2.555  16.283  0.8343 -1.7788 -1.7791
 3590SOL     OW22231   1.337   2.132   3.905 -0.6150  0.2803  0.7412
 3590SOL    HW122232   1.380   2.132   3.819 -1.0865  0.6297  0.5051
 3590SOL    HW222233   1.324   2.225   3.921 -3.0774 -0.1008  0.9624
 3591SOL     OW22234   2.875   2.980   2.748  0.3501  0.2721  0.4661
 3591SOL    HW122235   2.837   2.946   2.828 -2.7076  1.1028 -0.6488
 3591SOL    HW222236   2.955   2.927   2.742 -0.1476 -0.5994  1.7156
 3592SOL     OW22237   2.787   1.771   1.563  0.0356 -0.0983 -0.2433
 3592SOL    HW122238   2.863   1.761   1.505 -0.2426  0.2922 -0.6794
 3592SOL    HW222239   2.717   1.718   1.526  1.9012 -1.9305 -1.1814
 3593SOL     OW22240   4.117   3.819  16.535  0.2248 -0.1782  0.8549
 3593SOL    HW122241   4.209   3.791  16.538  0.7066  1.3581  0.1903
 3593SOL    HW222242   4.070   3.739  16.559 -0.1874 -0.4585 -0.8870
 3594SOL     OW22243   1.963   1.054   8.025 -0.0643 -0.1016 -0.4260
 3594SOL    HW122244   1.969   0.958   8.028  1.9025  0.1480  4.3438
 3594SOL    HW222245   1.980   1.076   7.934 -3.1828  0.2563 -0.9125
 3595SOL     OW22246   2.093   4.032   1.684 -0.6068  0.4110 -0.2564
 3595SOL    HW122247   2.162   4.094   1.660  0.1105 -0.2004  0.2174
 3595SOL    HW222248   2.079   4.061   1.774  1.2750 -1.9323  0.8006
 3596SOL     OW22249   1.818   4.359   3.597 -0.4037 -0.0748  0.0781
 3596SOL    HW122250   1.799   4.332   3.507 -0.6593  1.8125 -0.4300
 3596SOL    HW222251   1.794   4.282   3.648  1.4692  0.0470  1.1526
 3597SOL     OW22252   4.627   3.363  10.628 -0.1524 -0.0230  0.0143
 3597SOL    HW122253   4.690   3.419  10.673 -1.4728  1.1620  0.4103
 3597SOL    HW222254   4.593   3.429  10.568  2.1251  1.4310  0.3287
 3598SOL     OW22255   1.933   3.481   6.490 -0.0589  0.3585  0.2233
 3598SOL    HW122256   1.941   3.386   6.492  1.7241  0.5375  1.5907
 3598SOL    HW222257   1.878   3.496   6.412 -0.9834 -2.0471  0.4269
 3599SOL     OW22258   3.529   1.900   4.605 -0.3168 -0.2527  0.0547
 3599SOL    HW122259   3.610   1.940   4.635 -1.0425  1.1009  0.1945
 3599SOL    HW222260   3.467   1.969   4.628 -0.6912 -1.1602  1.7946
 3600SOL     OW22261   0.626   0.735  13.909  0.4067  0.7096 -0.5429
 3600SOL    HW122262   0.568   0.804  13.875 -0.9247 -0.2690 -0.2866
 3600SOL    HW222263   0.705   0.785  13.927  1.0115 -0.6952  0.6438
 3601SOL     OW22264   3.065   2.996   7.490  0.2388 -0.6423  0.0025
 3601SOL    HW122265   3.042   3.083   7.520 -0.3510 -0.6778 -0.3429
 3601SOL    HW222266   3.151   3.008   7.449  0.6702 -2.8020  0.2892
 3602SOL     OW22267   1.600   2.010   3.051 -0.0322  0.2382  0.3502
 3602SOL    HW122268   1.551   2.032   3.130 -1.3937  0.4699 -0.5578
 3602SOL    HW222269   1.546   2.053   2.985  2.3082  1.9951 -0.4512
 3603SOL     OW22270   2.444   0.693   5.408  0.0359  0.0955  0.1560
 3603SOL    HW122271   2.438   0.598   5.422  0.9487  0.2089  1.3708
 3603SOL    HW222272   2.519   0.709   5.351  0.4346 -0.9845  0.3596
 3604SOL     OW22273   3.614   3.785   5.612  0.0596  0.1690  0.7931
 3604SOL    HW122274   3.646   3.875   5.601  3.4011 -1.4417 -2.9908
 3604SOL    HW222275   3.520   3.799   5.611  0.0121 -0.1069  1.5895
 3605SOL     OW22276   2.709   3.814   6.905  0.5147 -0.1958  0.2690
 3605SOL    HW122277   2.703   3.739   6.964 -1.3087 -1.4728 -1.5128
 3605SOL    HW222278   2.648   3.782   6.839  0.4283 -1.2815  0.8807
 3606SOL     OW22279   4.465   0.567  14.776 -0.5036  0.0293  0.6242
 3606SOL    HW122280   4.486   0.474  14.762 -0.8404  0.3454 -1.9389
 3606SOL    HW222281   4.451   0.590  14.685 -0.7424  0.4777  0.7710
 3607SOL     OW22282   3.217   1.144   8.911  0.2750 -0.4707 -0.7711
 3607SOL    HW122283   3.190   1.107   8.826  0.8173 -0.8419 -0.7747
 3607SOL    HW222284   3.303   1.105   8.923  0.7762  0.0630 -2.4948
 3608SOL     OW22285   2.648   2.260   5.362  0.2033  0.2006 -0.1293
 3608SOL    HW122286   2.592   2.257   5.284  0.3761  1.7631 -0.3157
 3608SOL    HW222287   2.727   2.306   5.333  0.0185  1.2189  0.9747
 3609SOL     OW22288   1.128   0.870   3.550  0.2016  0.1274  0.2657
 3609SOL    HW122289   1.184   0.932   3.597 -0.9395  0.1461  1.6125
 3609SOL    HW222290   1.194   0.825   3.497 -1.6045  2.0107 -3.6080
 3610SOL     OW22291   4.568   2.293   2.158 -0.1834  0.4700 -0.4949
 3610SOL    HW122292   4.570   2.209   2.112  0.7124  0.4779 -0.4746
 3610SOL    HW222293   4.614   2.345   2.091  0.4014 -0.8580 -1.1301
 3611SOL     OW22294   3.901   0.863   7.540  0.2233  0.3364  0.3275
 3611SOL    HW122295   3.993   0.848   7.517 -0.3932 -0.9356 -1.3559
 3611SOL    HW222296   3.879   0.770   7.541 -0.5082  0.4688 -2.3938
 3612SOL     OW22297   4.072   4.352   7.289 -0.2758  0.2273 -0.5603
 3612SOL    HW122298   4.087   4.258   7.294  1.6388  0.5868  0.2269
 3612SOL    HW222299   4.139   4.384   7.349  0.3449 -1.0180 -0.5895
 3613SOL     OW22300   0.498   1.471  15.783 -0.2041  0.2509  0.2316
 3613SOL    HW122301   0.509   1.422  15.701 -1.8322  0.1801  0.0662
 3613SOL    HW222302   0.403   1.466  15.780 -0.0233 -1.2512 -3.5372
 3614SOL     OW22303   3.682   1.759   6.107  0.2476 -0.1072 -0.7702
 3614SOL    HW122304   3.594   1.797   6.099 -0.0295 -0.4098  0.9575
 3614SOL    HW222305   3.733   1.838   6.093  0.9652 -0.7297 -1.7333
 3615SOL     OW22306   1.343   3.479   2.397 -0.3633 -0.1123 -0.1168
 3615SOL    HW122307   1.332   3.466   2.303  1.3079 -0.0503 -0.3114
 3615SOL    HW222308   1.297   3.399   2.421 -1.4364  0.3363 -0.6714
 3616SOL     OW22309   3.844   3.253   4.903  0.0785 -0.3001  0.4112
 3616SOL    HW122310   3.764   3.206   4.879  0.7734 -0.4914 -1.5583
 3616SOL    HW222311   3.913   3.188   4.897  0.9765  0.7087 -0.1178
 3617SOL     OW22312   4.469   2.747   2.390 -0.2291  0.3677 -0.8385
 3617SOL    HW122313   4.447   2.656   2.373  1.8850 -0.6046  1.4714
 3617SOL    HW222314   4.555   2.746   2.433 -0.4006  1.5701 -0.4592
 3618SOL     OW22315   1.840   4.707   6.525  0.5157  0.2081 -0.1717
 3618SOL    HW122316   1.753   4.706   6.485  0.4359 -1.6547  0.0512
 3618SOL    HW222317   1.910   4.677   6.466 -2.0554 -2.1969 -1.9950
 3619SOL     OW22318   4.085   3.486   5.998  0.0549 -0.2160  0.1279
 3619SOL    HW122319   4.166   3.506   6.045 -0.4709 -0.7981  1.2912
 3619SOL    HW222320   4.107   3.540   5.922 -0.7664  0.1560  0.1582
 3620SOL     OW22321   1.477   2.830   7.543  0.0349 -0.3471 -0.0959
 3620SOL    HW122322   1.532   2.892   7.592 -0.9090 -0.1656  0.7402
 3620SOL    HW222323   1.393   2.875   7.548 -0.2036 -0.5303 -2.5566
 3621SOL     OW22324   3.958   2.890   4.337 -0.1503 -0.4986 -0.2260
 3621SOL    HW122325   3.893   2.826   4.364  1.2850 -2.2159 -0.8450
 3621SOL    HW222326   4.024   2.873   4.405  0.5694  0.5699 -0.6546
 3622SOL     OW22327   3.313   3.522   7.542  0.5824 -0.0575 -0.4030
 3622SOL    HW122328   3.367   3.544   7.618 -0.3917  0.5645  0.1096
 3622SOL    HW222329   3.326   3.427   7.537 -0.3117 -0.0367 -2.9532
 3623SOL     OW22330   3.731   1.039   5.555 -0.0608  0.2831  0.6013
 3623SOL    HW122331   3.820   1.010   5.533 -0.3853 -0.8445  0.7822
 3623SOL    HW222332   3.687   0.958   5.580  1.5915 -1.5937 -2.6437
 3624SOL     OW22333   0.150   2.792   8.023  0.0931  0.5192  0.2007
 3624SOL    HW122334   0.099   2.869   8.048  1.8614  1.7601 -0.0222
 3624SOL    HW222335   0.096   2.719   8.052 -0.9635  0.2516 -2.4094
 3625SOL     OW22336   1.258   2.220   8.773 -0.4175  0.5455  0.4077
 3625SOL    HW122337   1.228   2.195   8.860  1.8668  0.3015  1.1109
 3625SOL    HW222338   1.343   2.178   8.759  0.0621  1.4527  0.6067
 3626SOL     OW22339   4.325   3.720  13.067 -0.4856 -0.2829  0.1535
 3626SOL    HW122340   4.416   3.750  13.074  0.0949 -1.8789 -0.5889
 3626SOL    HW222341   4.274   3.776  13.125 -1.4090 -3.3286  2.2734
 3627SOL     OW22342   1.768   3.438   4.585 -0.1905 -0.4105  0.3414
 3627SOL    HW122343   1.674   3.449   4.601  0.1659  0.8692  1.5266
 3627SOL    HW222344   1.807   3.492   4.654 -0.0424 -1.0770  0.7829
 3628SOL     OW22345   2.500   3.131  10.468  0.6006  0.6409 -0.1104
 3628SOL    HW122346   2.508   3.087  10.553  2.7917  0.9665 -0.1513
 3628SOL    HW222347   2.566   3.086  10.415  0.6022  1.2129 -0.5942
 3629SOL     OW22348   2.413   1.880   2.219  0.6254  0.0601  0.1285
 3629SOL    HW122349   2.489   1.848   2.171  2.4809  1.0696  2.4061
 3629SOL    HW222350   2.373   1.936   2.152 -1.1836  1.1037  2.0981
 3630SOL     OW22351   2.312   0.499   6.719  0.5807 -0.2552  0.2057
 3630SOL    HW122352   2.266   0.583   6.712  1.4011  0.2751  1.2863
 3630SOL    HW222353   2.276   0.464   6.801 -0.9227  2.8003  0.8333
 3631SOL     OW22354   2.999   4.688   8.798 -0.2572 -0.2798  0.0878
 3631SOL    HW122355   3.037   4.687   8.886 -0.2818 -1.6432  0.0817
 3631SOL    HW222356   2.907   4.710   8.813 -0.1247 -0.6292  1.3888
 3632SOL     OW22357   4.178   2.276   7.109  0.0550 -0.2143 -0.1155
 3632SOL    HW122358   4.196   2.237   7.195 -2.5270 -2.4560 -0.5977
 3632SOL    HW222359   4.239   2.349   7.105 -0.3016  0.0886  0.0630
 3633SOL     OW22360   1.142   3.366   4.127 -0.0072  0.0576 -0.0180
 3633SOL    HW122361   1.221   3.379   4.179  0.7673 -0.3588 -1.0830
 3633SOL    HW222362   1.106   3.454   4.120 -1.9039 -0.6598  0.8720
 3634SOL     OW22363   1.437   4.459   3.076 -0.7648  0.1042 -0.0426
 3634SOL    HW122364   1.436   4.363   3.066  2.0751  0.0488  0.3482
 3634SOL    HW222365   1.524   4.468   3.037 -0.4658  1.9905  1.0551
 3635SOL     OW22366   3.735   3.389  14.964 -0.1591  0.0962  0.2434
 3635SOL    HW122367   3.796   3.320  14.939  1.3159  2.0236 -1.4241
 3635SOL    HW222368   3.654   3.358  14.923  1.0944 -1.4690 -1.0203
 3636SOL     OW22369   3.022   1.138   7.005  0.2198  0.0560 -0.8017
 3636SOL    HW122370   3.071   1.213   7.039 -0.1493  0.1818 -0.5359
 3636SOL    HW222371   2.943   1.191   6.990 -0.5374 -1.1639 -1.1313
 3637SOL     OW22372   4.316   1.650  14.794 -0.6365 -0.9310  0.5444
 3637SOL    HW122373   4.258   1.724  14.773  0.4615 -1.2095 -3.5834
 3637SOL    HW222374   4.268   1.595  14.855  1.1320 -0.5920  2.2296
 3638SOL     OW22375   4.089   2.257   1.654 -0.4550 -0.2620 -0.0410
 3638SOL    HW122376   4.028   2.330   1.648  0.0843  0.2088  0.1589
 3638SOL    HW222377   4.081   2.243   1.748 -4.9088 -3.5085 -0.9390
 3639SOL     OW22378   3.968   1.566   1.271 -0.0486 -0.1713 -0.4297
 3639SOL    HW122379   3.994   1.553   1.180  0.0407 -0.8966 -0.3027
 3639SOL    HW222380   3.965   1.661   1.277  0.1199 -0.1481 -0.7051
 3640SOL     OW22381   1.860   0.509   7.105 -0.3702 -0.3207 -0.1793
 3640SOL    HW122382   1.791   0.459   7.147 -0.0693  0.7371  1.5376
 3640SOL    HW222383   1.803   0.583   7.086 -1.1703 -0.3520  2.1587
 3641SOL     OW22384   3.715   1.915   2.828 -0.1121 -0.2413  0.4438
 3641SOL    HW122385   3.700   1.866   2.747  0.1989  0.1486  0.1541
 3641SOL    HW222386   3.650   1.983   2.813  1.1448  1.1404  1.3221
 3642SOL     OW22387   0.910   0.947  14.473  0.1693  0.3957 -0.2905
 3642SOL    HW122388   0.928   0.910  14.559  0.2012  0.9129 -0.0763
 3642SOL    HW222389   0.936   0.870  14.421  1.7206  0.7061  0.0430
 3643SOL     OW22390   4.407   1.827   3.761  0.6611 -0.0986  0.9112
 3643SOL    HW122391   4.317   1.841   3.790 -0.2235 -0.3966 -1.7343
 3643SOL    HW222392   4.421   1.918   3.735 -1.1075 -0.5990 -1.8359
 3644SOL     OW22393   0.487   2.419  16.090  0.2361  0.5247  0.0003
 3644SOL    HW122394   0.452   2.407  16.178 -1.2532  0.8208 -0.5607
 3644SOL    HW222395   0.408   2.432  16.038  0.0136  2.0235  0.7321
 3645SOL     OW22396   0.686   2.706  11.511  0.0411  0.1490  0.6946
 3645SOL    HW122397   0.620   2.665  11.455 -0.1940  0.0738  1.0261
 3645SOL    HW222398   0.645   2.686  11.596  1.0829 -3.1486  0.4240
 3646SOL     OW22399   3.780   1.428   3.748  0.2546 -0.1267 -0.0120
 3646SOL    HW122400   3.871   1.417   3.775  0.4373 -1.0782 -1.0298
 3646SOL    HW222401   3.750   1.343   3.779 -0.3553  0.0394 -0.1601
 3647SOL     OW22402   2.521   1.936  14.847  0.4995  0.3110  0.5561
 3647SOL    HW122403   2.607   1.893  14.849 -0.7860 -2.2535  0.4896
 3647SOL    HW222404   2.544   2.027  14.829 -2.1711  0.7987 -0.2977
 3648SOL     OW22405   2.484   0.266   4.192 -0.0777 -0.2143 -0.6583
 3648SOL    HW122406   2.532   0.230   4.118  3.1988  1.8917  0.4343
 3648SOL    HW222407   2.430   0.189   4.212  1.0051 -0.7077  0.3733
 3649SOL     OW22408   3.034   1.204   8.338  0.0965  0.3503 -0.2334
 3649SOL    HW122409   3.004   1.224   8.250 -0.8458 -2.4812 -0.5669
 3649SOL    HW222410   3.104   1.268   8.348 -1.9942  2.4514  0.9114
 3650SOL     OW22411   1.241   2.513   7.198  0.0333  0.0340  0.0886
 3650SOL    HW122412   1.184   2.527   7.122 -0.2759 -0.8113  0.1656
 3650SOL    HW222413   1.320   2.562   7.175 -1.6863  2.5273 -0.5829
 3651SOL     OW22414   4.380   4.641  17.445 -0.1323 -0.0510 -0.1020
 3651SOL    HW122415   4.385   4.592  17.527 -3.2744  0.1574  0.2046
 3651SOL    HW222416   4.473   4.643  17.423 -0.2516  0.9762 -0.4883
 3652SOL     OW22417   2.530   3.546  14.160  0.0360 -0.1312  0.3254
 3652SOL    HW122418   2.583   3.511  14.089 -2.4166 -0.6468 -1.2655
 3652SOL    HW222419   2.563   3.499  14.236  1.5550  0.9885  0.3443
 3653SOL     OW22420   1.435   4.153  13.075 -0.1844 -0.5008  0.3594
 3653SOL    HW122421   1.461   4.231  13.123 -1.4074  0.3061 -0.2922
 3653SOL    HW222422   1.360   4.178  13.021 -1.4953 -0.8934  1.9842
 3654SOL     OW22423   0.078   4.063   1.262 -0.1368 -0.4337 -0.5172
 3654SOL    HW122424   0.060   4.134   1.201 -0.1010 -0.4994 -0.6036
 3654SOL    HW222425   0.170   4.079   1.282  0.2126 -2.6954 -0.2768
 3655SOL     OW22426   2.196   3.886  14.164  0.5364  0.0021  0.3725
 3655SOL    HW122427   2.169   3.978  14.164 -1.0150 -0.4655 -0.1443
 3655SOL    HW222428   2.112   3.843  14.153 -0.1934  1.7607 -0.9315
 3656SOL     OW22429   4.231   2.512   8.356 -0.1659 -0.2281 -0.4149
 3656SOL    HW122430   4.307   2.468   8.317  1.4039 -0.6382  3.1244
 3656SOL    HW222431   4.263   2.602   8.360 -0.0558 -0.1774 -2.5123
 3657SOL     OW22432   4.700   4.225   6.638 -0.6154  0.1643  0.0246
 3657SOL    HW122433   0.047   4.163   6.655 -0.4522 -0.2879 -2.2557
 3657SOL    HW222434   0.024   4.307   6.652  0.9993 -0.7219 -0.2116
 3658SOL     OW22435   0.143   2.134   3.776 -0.2181  0.0939 -0.5627
 3658SOL    HW122436   0.234   2.161   3.760 -0.5336  0.5105 -1.6196
 3658SOL    HW222437   0.120   2.219   3.815  0.9835 -1.8719  4.5149
 3659SOL     OW22438   2.697   2.948   4.167  0.0167 -0.9938 -0.6264
 3659SOL    HW122439   2.615   2.977   4.128 -0.4019 -1.1842  0.1013
 3659SOL    HW222440   2.765   2.994   4.119 -1.0048 -0.4280 -1.5264
 3660SOL     OW22441   0.838   4.241   3.818  0.3596 -0.2895  0.1172
 3660SOL    HW122442   0.901   4.180   3.858 -1.9277 -1.1058  2.4431
 3660SOL    HW222443   0.898   4.301   3.773  1.3132 -0.5255  1.0639
 3661SOL     OW22444   1.442   0.503   3.987  0.1605 -0.1094  0.0660
 3661SOL    HW122445   1.510   0.545   4.039  0.7119  0.2764 -0.9793
 3661SOL    HW222446   1.477   0.496   3.899  1.5539 -0.0618  0.6229
 3662SOL     OW22447   3.217   3.356  12.882  0.6327  0.0907 -0.7307
 3662SOL    HW122448   3.185   3.434  12.928  4.5701  0.2325  1.7464
 3662SOL    HW222449   3.305   3.347  12.918 -0.1010 -0.9085  0.8454
 3663SOL     OW22450   1.604   0.411   4.442 -0.1818 -0.2532 -0.2227
 3663SOL    HW122451   1.696   0.392   4.455 -0.0686 -0.2611 -1.0426
 3663SOL    HW222452   1.609   0.496   4.487 -2.1724 -0.0888 -0.3008
 3664SOL     OW22453   0.273   1.963   2.844 -0.0476  0.2203  0.6298
 3664SOL    HW122454   0.199   1.924   2.799 -0.6336 -0.1712  1.9317
 3664SOL    HW222455   0.298   2.043   2.798  2.8515 -1.8133 -1.2978
 3665SOL     OW22456   1.102   0.358   2.059  0.5109 -0.4398  0.1365
 3665SOL    HW122457   1.196   0.367   2.045  1.1955 -2.7323  3.0863
 3665SOL    HW222458   1.089   0.453   2.068  0.7507 -0.4529  0.6217
 3666SOL     OW22459   4.686   3.647   0.139  0.1315  0.1734  0.4545
 3666SOL    HW122460   4.630   3.710   0.094  0.2703  0.7149  1.0384
 3666SOL    HW222461   0.041   3.701   0.143  0.3441 -0.0855 -0.1897
 3667SOL     OW22462   3.950   2.698   8.276 -0.1614 -0.4652  0.2446
 3667SOL    HW122463   3.872   2.674   8.227  1.8483  1.7552 -4.0005
 3667SOL    HW222464   3.970   2.614   8.317  3.2530  0.6783  0.9683
 3668SOL     OW22465   4.183   2.792   7.149  0.0924 -0.4302 -0.1689
 3668SOL    HW122466   4.178   2.836   7.233  0.9011 -0.8056  0.0735
 3668SOL    HW222467   4.227   2.865   7.105 -0.1747 -0.6718 -0.8346
 3669SOL     OW22468   0.492   0.372  11.518 -0.2693 -0.3020  0.1451
 3669SOL    HW122469   0.546   0.375  11.440  0.3884  2.7809  0.7213
 3669SOL    HW222470   0.545   0.317  11.576 -0.8927  1.9254  2.8651
 3670SOL     OW22471   4.642   3.454   1.738 -0.4224 -0.4518 -0.2242
 3670SOL    HW122472   4.694   3.501   1.672 -0.4070  1.3962  1.0965
 3670SOL    HW222473   4.605   3.383   1.685 -1.1755 -0.0204 -0.2697
 3671SOL     OW22474   2.725   2.399   2.053 -0.2980  0.3967 -0.0176
 3671SOL    HW122475   2.795   2.453   2.089 -0.2764 -1.1091  2.2313
 3671SOL    HW222476   2.753   2.389   1.962  1.9885 -0.7697  0.7969
 3672SOL     OW22477   1.396   1.712   5.590 -0.2770  0.0195 -0.1410
 3672SOL    HW122478   1.367   1.803   5.594  1.5360  0.6281 -0.8380
 3672SOL    HW222479   1.473   1.716   5.533 -0.2865 -1.8833 -0.2944
 3673SOL     OW22480   4.680   2.089   0.498 -0.2067 -0.4295  0.0106
 3673SOL    HW122481   4.610   2.151   0.477 -0.4699 -0.3364  1.1915
 3673SOL    HW222482   4.635   2.008   0.475 -1.8881  0.0148  1.7776
 3674SOL     OW22483   4.409   0.530   3.135  0.4372 -0.1841  0.1539
 3674SOL    HW122484   4.348   0.602   3.120  0.2059 -0.7050 -1.4322
 3674SOL    HW222485   4.399   0.475   3.057  0.3899 -1.6414  1.1986
 3675SOL     OW22486   1.976   2.039   9.635 -0.4600 -0.5108  0.2866
 3675SOL    HW122487   2.008   1.982   9.705  0.3924 -2.2472 -1.5373
 3675SOL    HW222488   2.062   2.053   9.595  0.5889  1.0826  3.0812
 3676SOL     OW22489   2.440   1.117   6.057  0.2692 -0.1558 -0.0715
 3676SOL    HW122490   2.353   1.154   6.066  0.7210  1.3486 -1.8616
 3676SOL    HW222491   2.447   1.126   5.962 -0.5702 -1.7199 -0.2735
 3677SOL     OW22492   3.460   0.218   3.339  0.4971  0.3666 -0.4124
 3677SOL    HW122493   3.445   0.142   3.282  1.4438  0.2621 -0.5165
 3677SOL    HW222494   3.407   0.284   3.294  0.9288 -0.6954 -2.4960
 3678SOL     OW22495   2.874   0.537   9.099 -0.4090  0.2299 -0.1034
 3678SOL    HW122496   2.826   0.455   9.110 -0.8984  0.5161 -0.0864
 3678SOL    HW222497   2.904   0.562   9.187 -1.4699 -1.1133  0.6530
 3679SOL     OW22498   3.719   0.277   3.274  0.3541 -0.0471  0.2318
 3679SOL    HW122499   3.742   0.185   3.284 -0.5911 -0.0481  2.3574
 3679SOL    HW222500   3.624   0.277   3.259  0.6529  1.1264 -1.6427
 3680SOL     OW22501   4.187   2.675  10.949 -0.1624  0.2191  0.4150
 3680SOL    HW122502   4.266   2.635  10.913 -0.2881  0.6544 -0.3495
 3680SOL    HW222503   4.127   2.641  10.882  2.0685  0.0553 -1.5164
 3681SOL     OW22504   3.222   1.057   1.354 -0.1976 -0.3121 -0.4249
 3681SOL    HW122505   3.179   1.026   1.274 -0.0910  0.9282 -0.9623
 3681SOL    HW222506   3.187   1.001   1.423 -1.3079  0.9264  0.0072
 3682SOL     OW22507   2.416   2.399   2.210 -0.4590 -0.0467 -0.4012
 3682SOL    HW122508   2.421   2.402   2.306  1.0046 -0.6508 -0.4494
 3682SOL    HW222509   2.321   2.407   2.198 -0.6226 -0.1216  0.8883
 3683SOL     OW22510   0.396   1.713   1.743 -0.2095 -0.0823 -0.2827
 3683SOL    HW122511   0.387   1.659   1.822 -1.1534  0.4647 -0.0184
 3683SOL    HW222512   0.455   1.782   1.774 -0.0549  1.3087 -3.6470
 3684SOL     OW22513   3.178   3.267  16.928  0.6033  0.0742  0.8318
 3684SOL    HW122514   3.093   3.237  16.897  0.6212 -0.9692  1.8252
 3684SOL    HW222515   3.231   3.240  16.853  1.2357  0.9221  0.9696
 3685SOL     OW22516   1.030   4.455  13.228  0.1097  0.3403 -0.2807
 3685SOL    HW122517   1.065   4.417  13.148 -1.7471 -1.6552 -0.1494
 3685SOL    HW222518   1.094   4.434  13.295 -1.1451 -3.5647 -0.2997
 3686SOL     OW22519   3.811   1.795   4.375  0.1098  0.2562  0.7612
 3686SOL    HW122520   3.850   1.882   4.387  0.5749  0.2562 -0.6479
 3686SOL    HW222521   3.787   1.772   4.464  0.6685 -0.5223  0.7082
 3687SOL     OW22522   0.276   2.631   6.006  0.0120 -0.0435 -0.2577
 3687SOL    HW122523   0.216   2.571   6.052  1.1257 -0.2192  0.9656
 3687SOL    HW222524   0.347   2.618   6.069 -0.6431 -2.3399  0.0199
 3688SOL     OW22525   1.682   0.499   3.452  0.0657  0.2690  0.1706
 3688SOL    HW122526   1.628   0.506   3.373 -1.4433 -1.2126  1.1076
 3688SOL    HW222527   1.674   0.407   3.475 -1.1130  0.9810  2.6146
 3689SOL     OW22528   1.880   2.513   2.792  0.1317  0.2915  0.0426
 3689SOL    HW122529   1.822   2.581   2.825  0.2300  1.6875 -2.6167
 3689SOL    HW222530   1.834   2.430   2.789  0.4623  0.0756  0.9549
 3690SOL     OW22531   1.177   3.802   7.134  0.1576  0.0049 -0.7816
 3690SOL    HW122532   1.268   3.803   7.104  1.0141  3.4586  1.9322
 3690SOL    HW222533   1.154   3.883   7.088 -1.7070 -1.2676 -2.0580
 3691SOL     OW22534   4.203   2.535   4.014 -0.3953 -0.1388 -0.0156
 3691SOL    HW122535   4.190   2.622   4.051  2.2465 -0.2575  1.1856
 3691SOL    HW222536   4.203   2.568   3.925  3.2108 -1.6342 -0.5736
 3692SOL     OW22537   1.870   4.460   0.367 -0.4814 -0.2403  0.2012
 3692SOL    HW122538   1.774   4.464   0.358 -0.2300  3.1559 -1.2479
 3692SOL    HW222539   1.892   4.460   0.273  0.4148  2.8039  0.4119
 3693SOL     OW22540   1.966   1.581   7.636 -0.2311 -0.5969  0.3513
 3693SOL    HW122541   2.037   1.529   7.674  0.0663 -0.0872  0.4868
 3693SOL    HW222542   1.905   1.593   7.708  0.4401 -2.7019  1.2558
 3694SOL     OW22543   3.863   1.720   6.973  0.3117 -0.4417  0.0785
 3694SOL    HW122544   3.784   1.678   6.939 -0.2269  0.1603  0.6053
 3694SOL    HW222545   3.840   1.805   6.936  3.9254  0.0749 -0.9466
 3695SOL     OW22546   1.544   1.657   8.023 -0.1694 -0.0391  0.2415
 3695SOL    HW122547   1.606   1.719   8.062 -1.3576  1.3308 -0.0504
 3695SOL    HW222548   1.467   1.656   8.081 -2.1612  1.3845 -2.4047
 3696SOL     OW22549   1.485   0.115  15.396  0.3240  0.1335 -0.7245
 3696SOL    HW122550   1.552   0.179  15.422 -0.6541  0.4585  1.0215
 3696SOL    HW222551   1.415   0.181  15.393  0.7522  0.6969  1.5245
 3697SOL     OW22552   0.338   2.005   7.645 -0.4719 -0.6412  0.1968
 3697SOL    HW122553   0.381   1.937   7.593 -2.0413 -0.5839 -1.1649
 3697SOL    HW222554   0.271   1.956   7.693 -0.4532  0.4059  1.2794
 3698SOL     OW22555   3.612   2.626  10.420  0.2106  0.0114 -0.0661
 3698SOL    HW122556   3.573   2.694  10.474  1.6730  0.8489 -0.0493
 3698SOL    HW222557   3.556   2.550  10.431  0.0973  0.2380  0.8533
 3699SOL     OW22558   1.822   4.048   5.985 -0.6931 -0.5962 -0.4887
 3699SOL    HW122559   1.911   4.084   5.978 -0.0089 -1.7503  2.3461
 3699SOL    HW222560   1.795   4.044   5.893  0.4406  2.6632 -0.9861
 3700SOL     OW22561   2.640   3.042   2.276 -0.2539  0.0993  0.3655
 3700SOL    HW122562   2.683   3.119   2.242 -0.2265  0.2750  0.8011
 3700SOL    HW222563   2.576   3.081   2.336 -1.2498 -2.1620  0.7872
 3701SOL     OW22564   0.514   4.487   3.707 -0.2664  0.4533 -0.1511
 3701SOL    HW122565   0.608   4.501   3.691 -0.3838  0.6858 -0.6281
 3701SOL    HW222566   0.519   4.446   3.793 -1.4653  3.1027  1.1630
 3702SOL     OW22567   3.844   2.110  17.588 -0.1327 -0.3675  0.7321
 3702SOL    HW122568   3.818   2.027  17.627 -0.8207 -0.1131  0.8138
 3702SOL    HW222569   3.769   2.114  17.529  1.2719  1.7568 -0.9445
 3703SOL     OW22570   2.515   2.378   4.700  0.2239 -0.4145 -0.1117
 3703SOL    HW122571   2.588   2.316   4.694  0.5496 -0.1208  0.8654
 3703SOL    HW222572   2.547   2.423   4.778  0.1128  2.7361 -1.8722
 3704SOL     OW22573   0.341   4.335  17.322  0.3505  0.0966  0.4725
 3704SOL    HW122574   0.317   4.406  17.262 -0.4814 -0.2284  0.4267
 3704SOL    HW222575   0.399   4.294  17.259  1.5376 -0.2177  1.7634
 3705SOL     OW22576   2.805   1.163   7.661 -0.3209  0.3764  0.7518
 3705SOL    HW122577   2.897   1.141   7.676 -0.2197  1.1922  1.2983
 3705SOL    HW222578   2.791   1.239   7.718 -2.4232  1.2265 -0.8969
 3706SOL     OW22579   3.063   3.790   2.043  0.0004 -0.1054  0.8280
 3706SOL    HW122580   3.119   3.867   2.048  0.8320 -0.8385  2.8484
 3706SOL    HW222581   3.051   3.776   2.137  0.3566 -0.5415  0.8099
 3707SOL     OW22582   4.100   4.504   5.723  0.4173  0.5941  0.0932
 3707SOL    HW122583   4.185   4.526   5.763  1.4401 -0.7501 -1.3477
 3707SOL    HW222584   4.137   4.444   5.658 -3.7661 -1.0177 -0.7529
 3708SOL     OW22585   0.342   0.627   1.107  0.4545 -0.6869  0.6719
 3708SOL    HW122586   0.320   0.700   1.049  0.6022  0.4297  2.0014
 3708SOL    HW222587   0.253   0.610   1.138  0.4205 -0.7885  0.5185
 3709SOL     OW22588   1.740   0.177   8.140  0.2096  0.7423  0.6735
 3709SOL    HW122589   1.644   0.181   8.143  0.1041 -0.7596 -0.5603
 3709SOL    HW222590   1.766   0.108   8.080 -1.0184 -0.5689  1.6397
 3710SOL     OW22591   0.074   4.039   3.407 -0.2275 -0.3204  0.0145
 3710SOL    HW122592   0.056   4.117   3.354 -3.5640 -1.7789 -0.9831
 3710SOL    HW222593   0.006   3.980   3.374 -1.4759 -0.1438  2.2558
 3711SOL     OW22594   0.807   1.528   2.745  0.1019  0.3645 -0.2998
 3711SOL    HW122595   0.855   1.514   2.664  0.2822  2.1614 -0.4904
 3711SOL    HW222596   0.883   1.530   2.803  0.5804  1.3288 -0.9657
 3712SOL     OW22597   1.808   2.146   6.456 -0.8564 -0.6544 -0.5858
 3712SOL    HW122598   1.897   2.176   6.473 -1.6827  1.1412  0.5507
 3712SOL    HW222599   1.821   2.065   6.405 -0.8101 -1.8826  1.3907
 3713SOL     OW22600   1.564   2.998   6.120  0.4087  0.2871 -0.3424
 3713SOL    HW122601   1.534   3.021   6.032  0.5533 -0.8537 -0.6876
 3713SOL    HW222602   1.659   2.988   6.114  0.6208  1.8835  0.3542
 3714SOL     OW22603   4.382   0.256  13.508 -0.3924  0.2830  0.5082
 3714SOL    HW122604   4.445   0.327  13.519  0.1781  0.0990 -1.5078
 3714SOL    HW222605   4.358   0.255  13.415  1.4844  0.9421  0.0101
 3715SOL     OW22606   0.749   1.029   9.106 -0.3492 -0.3543  0.1786
 3715SOL    HW122607   0.763   1.117   9.071  0.7298 -0.7001 -0.2619
 3715SOL    HW222608   0.697   0.976   9.046 -0.7671  0.8816 -0.5401
 3716SOL     OW22609   3.068   2.716   9.039 -0.5027  0.0611 -0.2451
 3716SOL    HW122610   3.145   2.761   9.006  0.6899 -0.7116  1.5125
 3716SOL    HW222611   3.108   2.647   9.091 -1.4290  0.8119  1.4569
 3717SOL     OW22612   4.650   1.066  12.518 -0.0540 -0.1338 -0.3717
 3717SOL    HW122613   4.710   1.026  12.456  1.0863  2.0329 -0.6466
 3717SOL    HW222614   4.640   1.155  12.486  0.1679 -0.1422 -0.4590
 3718SOL     OW22615   4.293   1.957   5.506 -0.1492  0.0986 -0.1024
 3718SOL    HW122616   4.286   1.905   5.426 -1.3898 -0.2834  0.2577
 3718SOL    HW222617   4.360   2.019   5.479  0.8561 -1.2289 -0.6645
 3719SOL     OW22618   0.282   4.631   4.917  0.4724 -0.3578 -0.7223
 3719SOL    HW122619   0.343   4.580   4.971 -1.0769  0.8061  2.1501
 3719SOL    HW222620   0.252   4.566   4.854  0.7439 -0.4121 -0.7954
 3720SOL     OW22621   3.767   4.689  11.775  0.3831  0.2248 -0.1486
 3720SOL    HW122622   3.840   4.639  11.737 -0.6984  0.2752 -2.2416
 3720SOL    HW222623   3.816   0.021  11.836  2.9093 -1.0102 -1.0393
 3721SOL     OW22624   2.459   0.526   3.153 -0.3032 -0.3328 -0.5780
 3721SOL    HW122625   2.422   0.608   3.123 -0.1123 -0.1610 -0.3426
 3721SOL    HW222626   2.465   0.559   3.242  1.1187 -0.2049 -0.7078
 3722SOL     OW22627   0.969   1.768   6.515  0.1787  0.7981 -0.2265
 3722SOL    HW122628   1.047   1.810   6.551  0.2655 -0.3579  0.9767
 3722SOL    HW222629   0.900   1.833   6.521 -1.1457 -0.5349 -1.0701
 3723SOL     OW22630   2.883   3.700   5.586  0.1486 -0.1313 -0.5078
 3723SOL    HW122631   2.869   3.644   5.510  1.4131  0.5296 -1.2171
 3723SOL    HW222632   2.976   3.683   5.605  0.1747  0.6285  0.0362
 3724SOL     OW22633   1.245   3.371  10.709  0.2534  0.0565  0.0922
 3724SOL    HW122634   1.159   3.410  10.695  0.5053  0.9938  1.1662
 3724SOL    HW222635   1.296   3.449  10.729  0.0667  0.6431 -1.7532
 3725SOL     OW22636   2.562   2.651   3.933  0.3566 -0.1091  0.1662
 3725SOL    HW122637   2.646   2.649   3.887 -0.5386  0.5761 -1.4756
 3725SOL    HW222638   2.561   2.569   3.983  0.9629 -0.7201 -0.8224
 3726SOL     OW22639   3.070   0.485   6.744  0.4955 -0.1642  0.6641
 3726SOL    HW122640   3.037   0.498   6.655 -1.2565 -1.5667  1.1088
 3726SOL    HW222641   2.995   0.529   6.783  0.5620  0.8380 -0.3270
 3727SOL     OW22642   4.363   3.274   2.348  0.1039  0.6558  0.4340
 3727SOL    HW122643   4.356   3.210   2.278  0.1402  0.3201  0.7369
 3727SOL    HW222644   4.288   3.253   2.404  0.0716 -1.5991 -0.4645
 3728SOL     OW22645   2.014   0.252   4.832  0.2310 -0.8611 -0.6892
 3728SOL    HW122646   2.064   0.200   4.894  1.9364  0.2558 -1.1483
 3728SOL    HW222647   1.948   0.189   4.802 -2.1185  0.7608  0.9686
 3729SOL     OW22648   1.695   4.531   1.494  0.1142 -0.6423  0.2768
 3729SOL    HW122649   1.749   4.571   1.562 -1.5598  0.7494  0.7935
 3729SOL    HW222650   1.666   4.452   1.539 -0.5329 -0.0612  0.8841
 3730SOL     OW22651   4.645   0.973  11.384  0.3785  0.9183  0.8526
 3730SOL    HW122652   4.711   1.034  11.353  0.5290  1.4383  2.1906
 3730SOL    HW222653   4.699   0.894  11.381 -0.0522  0.6646 -0.2834
 3731SOL     OW22654   0.685   1.647   5.621 -0.2086  0.3933  0.1095
 3731SOL    HW122655   0.607   1.609   5.663  2.5893 -0.1162  4.8897
 3731SOL    HW222656   0.647   1.687   5.543 -3.2609 -1.8060  0.4339
 3732SOL     OW22657   0.528   2.525   1.961  0.5430  0.4574  0.0476
 3732SOL    HW122658   0.530   2.555   2.052 -0.2187  2.1640 -0.5075
 3732SOL    HW222659   0.613   2.554   1.929  1.4106 -2.9012 -0.7576
 3733SOL     OW22660   0.784   3.719   5.589 -0.9738 -0.2966  0.2033
 3733SOL    HW122661   0.734   3.765   5.521  2.0181  0.9852 -1.1308
 3733SOL    HW222662   0.871   3.753   5.569 -0.4134 -1.4261  0.7325
 3734SOL     OW22663   4.383   0.469   7.088  0.2560  0.0746 -0.6941
 3734SOL    HW122664   4.457   0.525   7.065  1.6219 -1.1768  0.6491
 3734SOL    HW222665   4.317   0.537   7.104 -0.5681 -0.8852 -0.0125
 3735SOL     OW22666   4.365   1.500   5.992 -0.6026 -0.4100  0.0030
 3735SOL    HW122667   4.407   1.578   5.958  2.0760 -2.0393 -0.4367
 3735SOL    HW222668   4.353   1.516   6.085 -0.2567  1.3068 -0.2596
 3736SOL     OW22669   2.895   2.807   7.346 -0.1178  0.2052 -0.1797
 3736SOL    HW122670   2.896   2.900   7.371  0.0747 -0.0043  0.6073
 3736SOL    HW222671   2.988   2.786   7.345  0.0740  1.0998 -0.8992
 3737SOL     OW22672   4.450   1.350   5.144 -0.1235  0.3634  0.2377
 3737SOL    HW122673   4.523   1.367   5.085  0.8938  0.1011  1.4091
 3737SOL    HW222674   4.469   1.407   5.219  3.3360  0.1223 -0.4465
 3738SOL     OW22675   4.265   2.684  15.045  0.2260 -0.0969 -0.0162
 3738SOL    HW122676   4.345   2.634  15.032 -0.1150  0.0248 -2.4555
 3738SOL    HW222677   4.270   2.762  14.990  0.1029  0.7631  1.1894
 3739SOL     OW22678   2.438   0.357   2.434 -0.0768 -0.0886  0.0132
 3739SOL    HW122679   2.350   0.392   2.445  0.8856  1.5868  2.3839
 3739SOL    HW222680   2.428   0.272   2.478 -1.9820 -0.6798 -1.5796
 3740SOL     OW22681   0.761   0.502   2.589 -0.4015  0.1628 -0.0790
 3740SOL    HW122682   0.844   0.464   2.617 -0.3900  0.1467 -0.1358
 3740SOL    HW222683   0.704   0.467   2.658 -0.8250  0.8699 -0.0721
 3741SOL     OW22684   0.430   2.904   3.057 -0.2231 -0.1328  0.9909
 3741SOL    HW122685   0.343   2.942   3.069 -0.8273 -1.2778  0.1837
 3741SOL    HW222686   0.485   2.982   3.053  1.8503 -1.6191  0.7231
 3742SOL     OW22687   0.909   0.428  15.279  0.1189 -0.4110 -0.0912
 3742SOL    HW122688   0.832   0.484  15.274  0.9688  0.9082  1.7552
 3742SOL    HW222689   0.887   0.369  15.207 -2.4875 -1.0932  1.2807
 3743SOL     OW22690   2.376   1.399  17.543  0.0530  0.8069 -0.1993
 3743SOL    HW122691   2.380   1.318  17.594 -0.1104  0.7507 -0.2754
 3743SOL    HW222692   2.381   1.469  17.608 -0.5988 -0.8085  1.6070
 3744SOL     OW22693   0.842   1.170   7.707 -0.0235  0.1034 -0.5768
 3744SOL    HW122694   0.755   1.163   7.745  0.2885  2.6375  0.6586
 3744SOL    HW222695   0.887   1.201   7.787  0.8819 -0.5428 -0.8358
 3745SOL     OW22696   4.452   2.540  15.709 -0.2687  0.7886 -0.1959
 3745SOL    HW122697   4.481   2.621  15.669  0.2270  0.4194 -0.5763
 3745SOL    HW222698   4.358   2.555  15.723 -0.7352 -2.9588  0.8809
 3746SOL     OW22699   0.250   4.541   9.333  0.1725 -0.0441  0.1792
 3746SOL    HW122700   0.260   4.567   9.242 -0.2857  0.6648  0.3352
 3746SOL    HW222701   0.158   4.565   9.338 -0.0055 -0.5910 -0.4735
 3747SOL     OW22702   2.280   4.631  11.595  0.5412 -0.0207 -0.0101
 3747SOL    HW122703   2.368   4.614  11.630  2.4070  3.8094 -2.8052
 3747SOL    HW222704   2.228   4.679  11.659 -0.6050  0.3959 -1.2788
 3748SOL     OW22705   4.609   3.944  10.911 -0.1356  0.5532  0.1637
 3748SOL    HW122706   4.580   3.981  10.994 -0.5816  1.2420 -0.2955
 3748SOL    HW222707   4.553   3.994  10.852 -1.4752 -0.9672  0.1510
 3749SOL     OW22708   2.386   4.009  11.536  0.1797  0.1894  0.5598
 3749SOL    HW122709   2.305   4.059  11.539  0.4628  0.6192  1.0357
 3749SOL    HW222710   2.437   4.072  11.486 -2.4081  2.4332  0.7548
 3750SOL     OW22711   2.136   0.005  16.776 -0.4876  0.2860 -0.0408
 3750SOL    HW122712   2.209   4.702  16.832 -1.2194  2.3652  1.9006
 3750SOL    HW222713   2.132   4.651  16.720 -0.3834 -0.0773  0.4586
 3751SOL     OW22714   1.743   3.314   4.935 -0.1735 -0.2282 -0.0479
 3751SOL    HW122715   1.742   3.283   5.026  1.2402  0.1201  0.0959
 3751SOL    HW222716   1.809   3.384   4.933 -1.0927  0.6024 -0.9316
 3752SOL     OW22717   1.838   1.927   6.282  0.2423  0.0296 -0.5806
 3752SOL    HW122718   1.850   1.876   6.202  1.4474 -1.4295  0.5316
 3752SOL    HW222719   1.911   1.893   6.333 -0.0241 -0.3819 -0.4745
 3753SOL     OW22720   0.519   1.583   7.281  0.4592  0.2251 -0.3322
 3753SOL    HW122721   0.449   1.591   7.345  2.5843  0.7567  1.9160
 3753SOL    HW222722   0.516   1.675   7.253  1.0595  1.0107  2.2044
 3754SOL     OW22723   4.298   2.928  14.020 -0.8362 -0.8085 -0.4356
 3754SOL    HW122724   4.206   2.945  14.039 -0.2381  0.6142  1.1447
 3754SOL    HW222725   4.300   2.883  13.936  2.1059  0.4195 -1.0413
 3755SOL     OW22726   1.627   1.847   5.208  0.7127  0.3676 -0.3160
 3755SOL    HW122727   1.619   1.785   5.136  0.5655 -0.7353  0.6460
 3755SOL    HW222728   1.643   1.785   5.280  0.8812  0.9305  0.1385
 3756SOL     OW22729   4.245   1.323   3.537 -0.2106 -0.0383 -0.2129
 3756SOL    HW122730   4.183   1.269   3.487 -2.1898  1.3067  0.7950
 3756SOL    HW222731   4.297   1.364   3.467  1.1323  0.6504  1.2039
 3757SOL     OW22732   1.036   3.008   7.271 -0.4846  0.3691 -0.3345
 3757SOL    HW122733   0.969   3.036   7.334 -0.3014 -0.6739  0.3260
 3757SOL    HW222734   1.114   3.053   7.303 -0.0415 -0.7797  0.1984
 3758SOL     OW22735   0.818   2.169   6.157  0.8568 -0.0333  0.2265
 3758SOL    HW122736   0.737   2.126   6.132 -0.1605  2.3625 -0.5623
 3758SOL    HW222737   0.871   2.093   6.183  0.0159 -1.1182 -1.2469
 3759SOL     OW22738   3.132   0.354   7.353 -0.2753 -0.0065  0.3469
 3759SOL    HW122739   3.109   0.439   7.316  0.6155  0.4922  0.9424
 3759SOL    HW222740   3.175   0.390   7.430  3.2259  0.7390 -1.9351
 3760SOL     OW22741   3.691   1.757   4.857 -0.1175 -0.2551 -0.0466
 3760SOL    HW122742   3.597   1.742   4.865 -0.2562  0.7533  0.1974
 3760SOL    HW222743   3.697   1.840   4.905 -0.3704  0.8559 -1.9464
 3761SOL     OW22744   1.188   2.859   1.867 -0.6207 -0.4396  0.0273
 3761SOL    HW122745   1.120   2.914   1.828 -0.3840  0.7809  1.3600
 3761SOL    HW222746   1.253   2.860   1.797  0.6507  1.9989  1.2601
 3762SOL     OW22747   1.498   0.741   5.733 -0.3054  0.4294 -0.3607
 3762SOL    HW122748   1.531   0.676   5.796  1.8472  0.2653 -1.6346
 3762SOL    HW222749   1.549   0.818   5.760  0.9308 -0.1900 -0.9099
 3763SOL     OW22750   1.675   3.998   8.579 -0.8924  0.2339 -0.1452
 3763SOL    HW122751   1.694   4.038   8.495 -2.4045  0.4024 -0.4156
 3763SOL    HW222752   1.705   4.059   8.646  0.9839 -0.6669 -0.1634
 3764SOL     OW22753   2.901   4.655   2.033  0.6641  0.0689 -0.6881
 3764SOL    HW122754   2.986   4.688   2.064 -0.7213  0.6779  2.4333
 3764SOL    HW222755   2.930   4.586   1.974  0.5937 -1.3346  0.9213
 3765SOL     OW22756   0.645   1.155   4.670  0.1512  0.3313  0.3111
 3765SOL    HW122757   0.613   1.069   4.644  0.6446  0.1591  0.2789
 3765SOL    HW222758   0.721   1.129   4.721 -0.5630 -1.2883  0.5438
 3766SOL     OW22759   2.837   1.913  11.994  0.0354  0.8637 -0.5087
 3766SOL    HW122760   2.857   1.902  12.087 -0.2229  1.0945 -0.4267
 3766SOL    HW222761   2.840   1.824  11.960 -1.4178  0.5998  0.0798
 3767SOL     OW22762   1.629   3.582   2.262  0.2854 -1.1401  0.0648
 3767SOL    HW122763   1.707   3.528   2.252 -0.4770 -2.7010  2.6252
 3767SOL    HW222764   1.565   3.511   2.265 -0.3103 -0.5502  1.5574
 3768SOL     OW22765   1.001   4.545  11.972  0.2588  0.1447  0.0089
 3768SOL    HW122766   1.068   4.494  11.925 -2.8003 -2.1672 -1.8162
 3768SOL    HW222767   1.012   4.496  12.054 -1.6450  2.0813  1.4035
 3769SOL     OW22768   2.279   3.623   7.444  0.5601  0.2194 -0.0419
 3769SOL    HW122769   2.370   3.641   7.469 -0.0917  0.5926  2.0441
 3769SOL    HW222770   2.282   3.530   7.420 -2.7850 -0.0393  0.5949
 3770SOL     OW22771   0.632   0.926   1.984 -0.2078  0.3646 -0.1151
 3770SOL    HW122772   0.658   0.862   2.050 -0.9067  0.3310  0.1178
 3770SOL    HW222773   0.654   0.880   1.903 -1.0029  1.0449 -0.7171
 3771SOL     OW22774   3.991   0.695   1.204  0.1770 -0.2605  0.1812
 3771SOL    HW122775   4.046   0.633   1.156  3.4643  1.7200  1.3548
 3771SOL    HW222776   4.067   0.752   1.221 -0.3840  0.4384  0.3319
 3772SOL     OW22777   3.917   0.961   6.894 -0.0666 -0.1543  0.1823
 3772SOL    HW122778   4.002   0.999   6.874  0.8453 -2.5755 -0.4654
 3772SOL    HW222779   3.914   0.950   6.989 -0.1002 -0.6211  0.1268
 3773SOL     OW22780   3.454   0.434   3.617  0.0510  0.1042 -0.1927
 3773SOL    HW122781   3.419   0.470   3.536  0.9104 -0.4965 -0.8305
 3773SOL    HW222782   3.502   0.508   3.656 -0.8566 -0.1203  1.3317
 3774SOL     OW22783   0.930   1.046  11.495  0.2696 -0.4360 -0.8118
 3774SOL    HW122784   0.989   0.972  11.483 -0.6906 -1.7725  2.6205
 3774SOL    HW222785   0.891   1.052  11.408  1.4060  3.4165 -1.0487
 3775SOL     OW22786   4.688   4.297   9.194 -0.3714  0.3563  0.3414
 3775SOL    HW122787   4.684   4.375   9.138 -0.7120  0.2959  0.2829
 3775SOL    HW222788   4.705   4.334   9.280 -0.9691 -0.6928  0.9053
 3776SOL     OW22789   4.688   1.992  10.271  0.4464  0.0594  0.5752
 3776SOL    HW122790   4.593   2.003  10.277  0.0887 -2.0401 -1.3006
 3776SOL    HW222791   0.003   2.030  10.349 -0.5479  0.6853  0.7687
 3777SOL     OW22792   2.138   1.415  12.631  0.3262 -0.2401 -0.2265
 3777SOL    HW122793   2.162   1.507  12.646 -2.1859  0.2293  0.9671
 3777SOL    HW222794   2.204   1.381  12.570  0.6224 -1.5323  0.8271
 3778SOL     OW22795   1.635   0.853   5.443  0.4170  0.1566 -0.1977
 3778SOL    HW122796   1.595   0.766   5.442 -0.3105  0.5145 -1.3865
 3778SOL    HW222797   1.597   0.899   5.518  2.9244 -0.1511  1.2682
 3779SOL     OW22798   4.362   0.160   6.286 -0.1943  0.0640 -0.1018
 3779SOL    HW122799   4.298   0.093   6.264 -0.5764  0.7823 -1.1577
 3779SOL    HW222800   4.330   0.188   6.371  2.7917 -0.4875  1.2249
 3780SOL     OW22801   1.299   3.363   1.881 -0.6180  0.8753 -0.2960
 3780SOL    HW122802   1.328   3.454   1.881  0.0624  0.6655 -0.2945
 3780SOL    HW222803   1.316   3.330   1.792  0.2073 -0.0263  0.1833
 3781SOL     OW22804   4.185   1.756   2.823 -0.2524 -0.5738  0.0897
 3781SOL    HW122805   4.122   1.702   2.871 -1.0574  2.1827  2.1398
 3781SOL    HW222806   4.192   1.704   2.743 -2.4734  1.7772 -1.6042
 3782SOL     OW22807   3.676   1.513   7.595 -0.3924 -0.2499  0.0451
 3782SOL    HW122808   3.629   1.438   7.558 -0.2266  0.8137 -2.3711
 3782SOL    HW222809   3.736   1.479   7.661 -0.3514  0.5381  0.4143
 3783SOL     OW22810   2.273   0.387   3.832 -0.2694  0.5319 -0.2543
 3783SOL    HW122811   2.298   0.339   3.753 -0.9621  1.4070 -1.0057
 3783SOL    HW222812   2.185   0.350   3.844  0.6124 -1.2621  0.7617
 3784SOL     OW22813   1.328   0.226  14.980 -0.1257 -0.0325  0.2281
 3784SOL    HW122814   1.250   0.178  14.950 -0.5319 -0.6139  2.1818
 3784SOL    HW222815   1.300   0.278  15.055  0.2118  2.9851 -1.7493
 3785SOL     OW22816   3.599   2.147  17.387  0.3521 -0.4866 -0.3224
 3785SOL    HW122817   3.588   2.058  17.421 -0.7366  0.5270  1.9769
 3785SOL    HW222818   3.538   2.137  17.313 -0.2286  0.5454  0.0072
 3786SOL     OW22819   2.319   1.046   8.348  0.1797  0.0306 -0.0119
 3786SOL    HW122820   2.226   1.068   8.352 -0.6286 -3.3941  0.4306
 3786SOL    HW222821   2.328   1.007   8.435  2.8057 -3.3230 -1.7849
 3787SOL     OW22822   4.046   2.841  16.438  0.5074 -0.7826  0.2019
 3787SOL    HW122823   4.076   2.931  16.449  0.1775 -0.5872 -0.4365
 3787SOL    HW222824   3.959   2.833  16.477 -0.3345  0.1543 -1.4966
 3788SOL     OW22825   3.671   1.576   9.593  0.2033 -0.0223 -0.8930
 3788SOL    HW122826   3.640   1.648   9.537 -0.1535  0.8620  0.4282
 3788SOL    HW222827   3.753   1.610   9.629  0.0278 -0.7545  0.1826
 3789SOL     OW22828   2.269   3.282   2.403  0.4438  0.1452  0.4333
 3789SOL    HW122829   2.184   3.268   2.444 -0.3873 -0.3421 -1.4620
 3789SOL    HW222830   2.261   3.234   2.321  1.5268 -1.1206  1.0632
 3790SOL     OW22831   3.581   1.290   9.774 -0.5813  0.2625  0.5534
 3790SOL    HW122832   3.505   1.286   9.833  0.4771 -1.4208  1.8141
 3790SOL    HW222833   3.613   1.380   9.784 -0.0387  0.2233 -0.9353
 3791SOL     OW22834   1.324   4.306  11.044  0.2035  0.1022 -0.2138
 3791SOL    HW122835   1.361   4.245  11.107 -0.5486 -0.9503 -0.7914
 3791SOL    HW222836   1.254   4.344  11.098 -0.4062 -1.7703  0.3408
 3792SOL     OW22837   1.033   3.632   8.030 -0.1018  0.3664  0.2736
 3792SOL    HW122838   0.967   3.620   8.097 -0.7320 -1.6528 -0.7054
 3792SOL    HW222839   1.106   3.582   8.067 -0.1884 -1.4661 -2.0158
 3793SOL     OW22840   3.388   4.447   6.068  0.0473 -0.0493  0.0922
 3793SOL    HW122841   3.409   4.436   5.975  0.9884 -2.9968  0.6614
 3793SOL    HW222842   3.377   4.355   6.093  2.6311 -0.6216 -0.9051
 3794SOL     OW22843   1.675   2.084  13.563  0.1916  0.0397 -0.4631
 3794SOL    HW122844   1.676   1.995  13.529 -1.7076  0.1119 -0.7147
 3794SOL    HW222845   1.755   2.120  13.524  0.4207  0.1628  0.1189
 3795SOL     OW22846   2.940   3.299   3.383  0.1617 -0.1518  0.4220
 3795SOL    HW122847   2.915   3.350   3.459 -2.3143 -1.0935  0.2504
 3795SOL    HW222848   3.027   3.261   3.397  1.3579  2.2192 -0.6407
 3796SOL     OW22849   3.764   1.345   1.838 -0.2887  0.4042 -0.0150
 3796SOL    HW122850   3.724   1.419   1.792  0.3454  0.3850 -0.6033
 3796SOL    HW222851   3.846   1.327   1.792  0.1748  0.5759  0.7489
 3797SOL     OW22852   0.367   4.326   1.877  0.7134  0.0767  0.3319
 3797SOL    HW122853   0.349   4.237   1.907  0.9927 -0.1672 -0.2404
 3797SOL    HW222854   0.368   4.375   1.960  0.6780  0.2022  0.2582
 3798SOL     OW22855   1.694   4.661   8.455  1.0112  0.1020 -0.4211
 3798SOL    HW122856   1.621   4.689   8.399  0.6153 -0.7782 -0.3415
 3798SOL    HW222857   1.768   4.653   8.395  0.8836 -2.1907 -0.2567
 3799SOL     OW22858   2.388   3.925   3.641  0.2607  0.3068  0.2582
 3799SOL    HW122859   2.302   3.962   3.623 -0.3771 -1.9474 -1.2813
 3799SOL    HW222860   2.417   3.990   3.706  0.5100 -0.1981  0.6528
 3800SOL     OW22861   2.991   1.300  10.160  0.2076  0.4864  0.3309
 3800SOL    HW122862   3.011   1.346  10.079  0.0272  0.2834  0.1685
 3800SOL    HW222863   2.904   1.332  10.184 -0.1159  1.1704 -1.6990
 3801SOL     OW22864   0.630   1.794   3.286  0.2072 -0.5006  0.0837
 3801SOL    HW122865   0.595   1.834   3.206 -0.3348 -0.4395  0.3478
 3801SOL    HW222866   0.605   1.703   3.270  1.2355 -0.3535 -2.4304
 3802SOL     OW22867   2.215   0.082   2.801 -0.7251 -0.4348  0.5596
 3802SOL    HW122868   2.158   0.006   2.807 -1.4343 -0.2075 -3.0153
 3802SOL    HW222869   2.170   0.149   2.853  1.4353  1.0529  0.5050
 3803SOL     OW22870   0.787   3.800   5.315  0.1228 -0.4292 -0.2300
 3803SOL    HW122871   0.868   3.844   5.289 -0.8412  0.3049 -1.9556
 3803SOL    HW222872   0.727   3.851   5.260 -0.4906 -0.4837  0.3880
 3804SOL     OW22873   3.747   4.421  15.326 -0.7378  0.0473  0.4828
 3804SOL    HW122874   3.679   4.363  15.292 -0.9599  0.8027 -0.3759
 3804SOL    HW222875   3.826   4.375  15.301 -0.5417  0.7178 -0.1228
 3805SOL     OW22876   3.538   4.324   3.515 -0.3071  0.6797 -0.7741
 3805SOL    HW122877   3.506   4.407   3.480 -1.5296 -0.2462 -1.8012
 3805SOL    HW222878   3.488   4.322   3.597 -0.9892 -0.9846 -1.2410
 3806SOL     OW22879   1.177   4.616   6.973  0.4033 -0.0660  0.4159
 3806SOL    HW122880   1.142   4.695   6.933  3.0692 -0.3736 -2.5077
 3806SOL    HW222881   1.110   4.595   7.038  0.3944  0.9780  0.7398
 3807SOL     OW22882   2.291   1.510   2.699  0.0767 -0.8167  0.0208
 3807SOL    HW122883   2.377   1.552   2.705 -0.2685 -0.1795  0.4746
 3807SOL    HW222884   2.241   1.569   2.642  0.4842  3.3048  3.9583
 3808SOL     OW22885   1.425   2.279   6.397  0.1441  0.0829  0.2515
 3808SOL    HW122886   1.396   2.361   6.358 -1.5383 -1.0859 -0.9870
 3808SOL    HW222887   1.482   2.257   6.323  4.2085  2.0569  2.8597
 3809SOL     OW22888   2.743   0.506  13.042 -0.2140  0.3309 -0.5686
 3809SOL    HW122889   2.762   0.480  13.132 -0.6286 -1.0952 -0.8902
 3809SOL    HW222890   2.705   0.423  13.013 -3.4839  1.6887 -0.1678
 3810SOL     OW22891   1.711   0.470  12.073 -0.0567 -0.3329  0.0331
 3810SOL    HW122892   1.618   0.479  12.049 -0.5421 -1.8979  1.3155
 3810SOL    HW222893   1.735   0.562  12.070  1.8748 -0.8650 -0.6610
 3811SOL     OW22894   0.436   0.855   4.243 -0.6407 -0.0831 -0.3552
 3811SOL    HW122895   0.500   0.853   4.172  0.8377  0.6647  0.9563
 3811SOL    HW222896   0.458   0.775   4.290 -1.2278  1.5171  2.6922
 3812SOL     OW22897   0.406   4.131   7.430  0.4547  0.1068  0.1828
 3812SOL    HW122898   0.333   4.119   7.492  0.0752 -0.7831 -0.4288
 3812SOL    HW222899   0.455   4.049   7.442  0.0399  0.0533  1.5539
 3813SOL     OW22900   1.551   2.331   3.850 -0.0604  0.7245  0.3062
 3813SOL    HW122901   1.581   2.417   3.821  1.9033  1.0349  3.2167
 3813SOL    HW222902   1.597   2.278   3.785  1.6211  2.2816  0.2291
 3814SOL     OW22903   4.691   1.268   6.376 -0.1955  0.1616  0.4287
 3814SOL    HW122904   4.706   1.354   6.335  2.9910 -0.2339  0.8363
 3814SOL    HW222905   4.627   1.294   6.443 -1.4678  0.1835 -0.7782
 3815SOL     OW22906   2.634   4.517   6.376  0.9784  0.1013  0.1246
 3815SOL    HW122907   2.564   4.582   6.369 -0.8078 -1.9513 -1.2359
 3815SOL    HW222908   2.625   4.502   6.470  0.6757 -2.2088 -0.2773
 3816SOL     OW22909   0.477   4.171   1.678  0.0040  0.2669  0.2232
 3816SOL    HW122910   0.458   4.240   1.741  1.4278 -0.0900  1.0385
 3816SOL    HW222911   0.491   4.094   1.733  1.7262 -0.0714 -0.7043
 3817SOL     OW22912   0.343   4.445   7.395  0.4458 -0.4987 -0.4603
 3817SOL    HW122913   0.289   4.413   7.322 -1.0677 -0.5821  0.7017
 3817SOL    HW222914   0.338   4.366   7.448 -0.2121  0.5226  1.0017
 3818SOL     OW22915   2.249   0.089   0.862 -0.4780 -0.2844 -0.2955
 3818SOL    HW122916   2.292   0.117   0.782  0.3715 -2.6447 -0.6724
 3818SOL    HW222917   2.243   4.719   0.844 -0.9603 -0.3378  0.1269
 3819SOL     OW22918   4.638   3.995   1.974 -0.1907 -0.1544  0.4230
 3819SOL    HW122919   4.592   4.072   2.009  0.4549  0.2446  0.3818
 3819SOL    HW222920   4.671   4.032   1.892  0.6506 -2.9009 -0.4755
 3820SOL     OW22921   2.226   2.972   3.937 -0.1104 -0.4700  0.2793
 3820SOL    HW122922   2.225   2.955   4.031 -2.3055 -2.9820 -0.1856
 3820SOL    HW222923   2.138   3.008   3.929 -0.9320 -2.3108  1.0379
 3821SOL     OW22924   0.948   4.511   8.213 -0.1122 -0.2697  0.0896
 3821SOL    HW122925   0.908   4.443   8.159 -1.2783  0.0563  0.5360
 3821SOL    HW222926   0.982   4.555   8.135  2.5440 -0.5390  1.1224
 3822SOL     OW22927   3.995   0.818   1.827 -0.0233  0.1867 -0.0948
 3822SOL    HW122928   3.991   0.912   1.842 -2.2055 -0.2358  1.9799
 3822SOL    HW222929   3.947   0.795   1.748  1.9721  0.7816 -1.4790
 3823SOL     OW22930   2.675   0.757   5.226 -0.1158 -0.2476 -0.4703
 3823SOL    HW122931   2.647   0.846   5.206 -0.5901 -0.5131 -1.0002
 3823SOL    HW222932   2.767   0.776   5.245 -0.4209  1.2792 -0.5730
 3824SOL     OW22933   0.958   3.548   7.675  0.7002  0.2425  0.4160
 3824SOL    HW122934   0.968   3.481   7.742 -0.2789 -0.9036 -0.5841
 3824SOL    HW222935   0.972   3.630   7.721  2.6075  0.3258 -0.2728
 3825SOL     OW22936   1.507   1.910   9.483  0.1397 -0.2709 -0.2383
 3825SOL    HW122937   1.495   2.000   9.454  1.2902  0.6537  2.1654
 3825SOL    HW222938   1.471   1.873   9.403  3.8131 -0.8817 -1.5956
 3826SOL     OW22939   1.792   3.573  10.498 -0.3194  0.0446  0.0265
 3826SOL    HW122940   1.793   3.664  10.527  1.2475  0.0250  0.0189
 3826SOL    HW222941   1.842   3.524  10.562  0.5477  1.8838  0.7663
 3827SOL     OW22942   1.740   2.947   4.122 -0.3713  0.2179  0.4801
 3827SOL    HW122943   1.781   2.863   4.140  1.3602  1.0213  0.2174
 3827SOL    HW222944   1.783   2.968   4.039 -1.1063 -0.5628 -0.0973
 3828SOL     OW22945   2.146   0.730   8.441 -0.0491  0.1715  0.0506
 3828SOL    HW122946   2.061   0.730   8.398  0.4142  1.3455 -0.8710
 3828SOL    HW222947   2.207   0.724   8.367 -0.9511 -1.7382 -0.5416
 3829SOL     OW22948   2.036   0.894   5.539 -0.4671 -0.5502 -0.2063
 3829SOL    HW122949   2.022   0.845   5.620  0.2924  1.3107  1.0540
 3829SOL    HW222950   2.132   0.894   5.539 -0.4649  1.2986  1.9543
 3830SOL     OW22951   2.750   2.120   1.177  1.4735 -0.0798  0.3707
 3830SOL    HW122952   2.665   2.118   1.222  1.0716  2.8147 -0.2172
 3830SOL    HW222953   2.750   2.185   1.106  1.1347  0.8144  1.1837
 3831SOL     OW22954   3.644   4.564   8.819  0.5538 -0.6057  0.4873
 3831SOL    HW122955   3.639   4.549   8.913  0.0774 -0.2514  0.5191
 3831SOL    HW222956   3.645   4.474   8.786 -1.7341 -1.7533  3.5763
 3832SOL     OW22957   4.072   4.696  10.805  0.3404  0.1205  0.5192
 3832SOL    HW122958   4.014   0.025  10.862  2.6803  0.8337  2.2330
 3832SOL    HW222959   4.157   0.011  10.824  1.1256 -1.1385 -0.5138
 3833SOL     OW22960   0.910   3.842   7.856 -0.4608  0.6184  0.1691
 3833SOL    HW122961   0.936   3.772   7.916 -0.1756 -0.3241 -1.0550
 3833SOL    HW222962   0.997   3.882   7.852 -1.0837  1.7531 -2.1970
 3834SOL     OW22963   2.079   2.990   7.962  1.0403 -0.2304  0.2994
 3834SOL    HW122964   2.063   2.948   7.878  2.2356 -0.2784  0.1019
 3834SOL    HW222965   2.146   2.932   7.997  1.5429  0.6435  0.7942
 3835SOL     OW22966   0.038   3.505   4.235 -0.6344 -0.5661 -0.7504
 3835SOL    HW122967   0.045   3.411   4.252 -1.9931 -0.7777 -1.3638
 3835SOL    HW222968   0.104   3.538   4.296 -0.4660 -0.9458 -0.7221
 3836SOL     OW22969   2.237   2.892   5.138 -0.0071 -0.2101 -0.2926
 3836SOL    HW122970   2.300   2.944   5.089 -2.1856  1.5905 -1.1638
 3836SOL    HW222971   2.281   2.807   5.148 -2.2563 -1.5494 -1.8646
 3837SOL     OW22972   2.944   0.639  16.759  0.1396  0.6092  0.0225
 3837SOL    HW122973   2.972   0.682  16.839  1.0040  0.2092 -0.0624
 3837SOL    HW222974   2.864   0.597  16.790 -0.5776  1.7521 -0.2983
 3838SOL     OW22975   0.191   3.807   0.467 -0.5659 -0.7928  0.1689
 3838SOL    HW122976   0.100   3.779   0.468 -0.4447 -1.2733 -1.2534
 3838SOL    HW222977   0.189   3.880   0.528  2.8091  0.1281 -0.7636
 3839SOL     OW22978   3.971   2.510   2.294 -0.5372  0.3854  1.1360
 3839SOL    HW122979   4.058   2.482   2.266 -0.5330  1.1333  0.3984
 3839SOL    HW222980   3.976   2.591   2.243  0.9134 -0.2282  0.2937
 3840SOL     OW22981   3.592   1.674   5.614  0.2143 -0.1203 -0.0918
 3840SOL    HW122982   3.680   1.693   5.580  0.5590 -0.6790  0.4896
 3840SOL    HW222983   3.552   1.658   5.529 -1.6894  4.5411 -0.0912
 3841SOL     OW22984   1.076   3.960   6.713  0.0926 -0.1688 -0.3481
 3841SOL    HW122985   1.158   3.913   6.698 -0.6241 -0.9911 -1.7464
 3841SOL    HW222986   1.095   3.999   6.798  1.4524 -1.1715 -0.1954
 3842SOL     OW22987   1.945   4.006  14.293 -0.3866  0.8154  0.6723
 3842SOL    HW122988   1.969   4.046  14.209 -0.4848  0.7075  0.5941
 3842SOL    HW222989   1.948   3.913  14.272  2.6464  0.1789  3.9348
 3843SOL     OW22990   0.862   1.170  15.593 -0.3539  0.0137 -0.1842
 3843SOL    HW122991   0.874   1.257  15.556  1.0852 -0.0906  0.0286
 3843SOL    HW222992   0.865   1.192  15.687 -1.2277  0.1818 -0.2001
 3844SOL     OW22993   4.629   0.599   7.066  0.2312 -0.7977 -0.0278
 3844SOL    HW122994   4.674   0.579   6.984  0.5551 -2.9179  0.6801
 3844SOL    HW222995   4.705   0.625   7.118  1.2262 -4.2673  0.2193
 3845SOL     OW22996   0.703   0.746   5.038  0.8050  0.4346 -0.0953
 3845SOL    HW122997   0.772   0.781   4.981  1.1774 -0.1716 -0.0139
 3845SOL    HW222998   0.628   0.768   4.984 -1.0441  0.2795  2.4161
 3846SOL     OW22999   1.720   3.388   7.180 -0.5465  0.0065  0.5803
 3846SOL    HW123000   1.719   3.329   7.104 -2.0421  0.2365  0.4310
 3846SOL    HW223001   1.691   3.324   7.245  1.2886  0.0108  1.4172
 3847SOL     OW23002   4.093   2.103   3.515  0.1956 -0.0068 -0.2494
 3847SOL    HW123003   4.121   2.156   3.441  0.4363 -0.4579 -0.4816
 3847SOL    HW223004   4.157   2.128   3.580 -0.6458  3.3954 -0.7174
 3848SOL     OW23005   0.089   3.574   1.553 -0.4576  0.4686  0.6887
 3848SOL    HW123006   0.056   3.525   1.478  2.4429 -0.5509  0.1005
 3848SOL    HW223007   0.060   3.661   1.523 -0.5939  0.4197  0.6777
 3849SOL     OW23008   0.743   4.590  13.543 -0.0890  0.1408 -0.0579
 3849SOL    HW123009   0.800   4.629  13.609  0.6922 -1.2342  0.0776
 3849SOL    HW223010   0.753   4.499  13.574 -1.6683  0.7654  2.3492
 3850SOL     OW23011   2.586   3.771   2.774  0.2675 -0.8304  0.2567
 3850SOL    HW123012   2.644   3.747   2.845 -0.3056 -1.2583  0.5848
 3850SOL    HW223013   2.509   3.728   2.811 -2.0510  1.1398 -2.2343
 3851SOL     OW23014   0.628   0.026   8.067  0.2321 -0.1935  0.3677
 3851SOL    HW123015   0.636   4.657   8.042  0.5784 -0.4833  1.5766
 3851SOL    HW223016   0.597   0.021   8.157 -0.8415 -0.9304 -0.0280
 3852SOL     OW23017   2.126   0.664  14.209  1.0524  0.2901 -0.2027
 3852SOL    HW123018   2.081   0.668  14.293 -2.5822  1.0280 -2.1561
 3852SOL    HW223019   2.082   0.586  14.175  2.7715 -0.8412  0.2044
 3853SOL     OW23020   2.533   3.406   4.931 -0.4446  0.1449  0.3672
 3853SOL    HW123021   2.491   3.440   5.010 -1.2792  1.3680 -0.5850
 3853SOL    HW223022   2.598   3.349   4.971 -0.6926 -0.0221  0.5343
 3854SOL     OW23023   1.761   1.061   1.056 -0.5626 -0.0451 -0.4251
 3854SOL    HW123024   1.704   1.017   1.119 -0.2117  0.9071  0.5498
 3854SOL    HW223025   1.699   1.107   0.999 -0.2448 -2.7041 -2.8965
 3855SOL     OW23026   1.887   2.920   2.819 -0.6030 -0.0974 -0.2705
 3855SOL    HW123027   1.980   2.942   2.826 -0.1980 -1.1370 -2.4011
 3855SOL    HW223028   1.852   2.976   2.750 -0.9962  1.0410  0.8518
 3856SOL     OW23029   3.347   1.254   0.019  0.1400  0.6642 -0.4148
 3856SOL    HW123030   3.367   1.339  17.676  0.4357  0.3161 -1.0120
 3856SOL    HW223031   3.401   1.254   0.098  0.0218 -0.7003 -0.3250
 3857SOL     OW23032   2.286   2.505   4.291  0.4885  0.7370 -0.0492
 3857SOL    HW123033   2.303   2.479   4.201 -0.7853  1.0767 -0.3968
 3857SOL    HW223034   2.374   2.519   4.325 -0.1103  4.0806  0.1584
 3858SOL     OW23035   0.772   2.918   9.642 -0.1179 -0.2128  0.1622
 3858SOL    HW123036   0.796   2.868   9.720 -0.5796 -1.7775 -0.6876
 3858SOL    HW223037   0.846   2.975   9.626 -0.0373 -0.3193  0.1532
 3859SOL     OW23038   0.395   3.627   0.526 -0.6049  0.3850  0.0397
 3859SOL    HW123039   0.475   3.673   0.499 -1.0231  0.9459 -0.2638
 3859SOL    HW223040   0.322   3.685   0.503  0.5494  1.7167 -0.2984
 3860SOL     OW23041   3.196   1.089  10.127  0.0388 -0.6346  0.2989
 3860SOL    HW123042   3.160   1.117  10.043  0.2399 -0.7087  0.1879
 3860SOL    HW223043   3.290   1.078  10.109  0.7094  4.4128  0.6995
 3861SOL     OW23044   4.210   2.220   0.683 -0.2221  0.2472  0.2877
 3861SOL    HW123045   4.149   2.216   0.609 -0.4978 -1.2472  0.5911
 3861SOL    HW223046   4.147   2.254   0.746 -2.2390 -3.2760  0.1744
 3862SOL     OW23047   0.309   2.666  11.542  0.2101  0.1574  0.0133
 3862SOL    HW123048   0.254   2.732  11.501 -0.0408  0.1270  0.3024
 3862SOL    HW223049   0.383   2.662  11.481  0.4110 -4.4775  0.5313
 3863SOL     OW23050   4.012   0.039   7.216  0.0563  0.2967 -0.2947
 3863SOL    HW123051   3.968   4.692   7.169 -1.3314  1.8468 -1.3308
 3863SOL    HW223052   3.949   0.111   7.206  0.7471  0.9589  0.1052
 3864SOL     OW23053   1.580   2.400   4.121 -0.5441  0.3719 -0.2509
 3864SOL    HW123054   1.570   2.366   4.032 -0.6969  0.7866 -0.3937
 3864SOL    HW223055   1.587   2.493   4.098  2.5370  0.7023  1.9554
 3865SOL     OW23056   3.525   0.381  12.101 -0.4561 -0.4701  0.4119
 3865SOL    HW123057   3.439   0.420  12.115 -0.4432 -1.0635  2.1452
 3865SOL    HW223058   3.526   0.308  12.163 -0.7620 -0.2820  0.6325
 3866SOL     OW23059   0.933   2.583   7.924  0.0438  0.2759 -0.1181
 3866SOL    HW123060   0.983   2.503   7.941  0.2830  0.3121 -0.6461
 3866SOL    HW223061   0.858   2.561   7.979  0.9026  1.0744  1.3529
 3867SOL     OW23062   0.863   2.742   6.263 -0.4889  0.0200  0.2408
 3867SOL    HW123063   0.901   2.828   6.246 -0.4572 -0.0546 -0.0722
 3867SOL    HW223064   0.814   2.760   6.343 -0.7296 -1.0564  0.3374
 3868SOL     OW23065   0.554   2.422  15.190 -0.2897 -0.1709 -0.6167
 3868SOL    HW123066   0.602   2.492  15.145  2.8932 -2.0177 -0.1141
 3868SOL    HW223067   0.581   2.437  15.281  2.3426  0.4967 -1.4877
 3869SOL     OW23068   0.082   2.185   5.346 -0.2348 -0.3554 -0.3321
 3869SOL    HW123069   0.024   2.117   5.314 -0.8246  0.2979 -0.6657
 3869SOL    HW223070   0.167   2.143   5.337  0.0786  0.2424 -0.1852
 3870SOL     OW23071   2.812   0.202   2.002 -0.2495  0.4367  0.1239
 3870SOL    HW123072   2.737   0.246   2.043 -1.6218 -2.5028  0.7615
 3870SOL    HW223073   2.817   0.114   2.040 -0.7116  0.0954 -0.6126
 3871SOL     OW23074   2.008   4.222   3.395  0.4516  0.1203  0.1579
 3871SOL    HW123075   2.095   4.192   3.368  0.3983  0.1515 -0.0449
 3871SOL    HW223076   2.022   4.312   3.423 -0.0595  0.3576 -0.3472
 3872SOL     OW23077   3.109   0.202   9.575  0.4472  0.4338 -0.3314
 3872SOL    HW123078   3.042   0.266   9.598  0.6225 -0.9715  4.1497
 3872SOL    HW223079   3.067   0.128   9.619 -0.8473  0.5841 -1.3390
 3873SOL     OW23080   1.617   2.039  16.144  0.3380 -0.2287  0.1478
 3873SOL    HW123081   1.647   1.996  16.224  1.1422 -1.3993 -0.7861
 3873SOL    HW223082   1.524   2.050  16.164  0.3033  1.7016 -1.1556
 3874SOL     OW23083   3.227   1.667   1.120  0.0990  0.2357  0.3106
 3874SOL    HW123084   3.182   1.585   1.141  2.1977 -1.0345 -0.2214
 3874SOL    HW223085   3.287   1.638   1.051 -0.2078 -0.2088  0.2273
 3875SOL     OW23086   2.476   4.488   2.599 -0.0528  0.4292  0.0857
 3875SOL    HW123087   2.478   4.449   2.686 -0.4648  3.3905  1.4322
 3875SOL    HW223088   2.565   4.519   2.581 -0.9253  2.1833 -1.2687
 3876SOL     OW23089   2.038   3.851   5.572 -0.8116 -0.5702 -0.0863
 3876SOL    HW123090   2.094   3.817   5.641 -0.2184 -0.7221 -0.6465
 3876SOL    HW223091   2.034   3.777   5.512 -3.8527 -0.6519  0.2115
 3877SOL     OW23092   1.683   1.595   0.155  0.1036  0.0940 -0.0822
 3877SOL    HW123093   1.714   1.529   0.093  0.9746 -1.1113  1.6215
 3877SOL    HW223094   1.593   1.569   0.173  0.3566 -0.0727  0.9345
 3878SOL     OW23095   4.129   3.921   3.894  0.2454 -0.3832 -0.3090
 3878SOL    HW123096   4.089   3.852   3.841  1.3311  0.0280 -1.6556
 3878SOL    HW223097   4.199   3.954   3.837 -1.7271  2.3732 -1.1307
 3879SOL     OW23098   4.505   0.010   1.608  0.2952  0.3418  0.7407
 3879SOL    HW123099   4.565   0.063   1.659 -0.4831  1.0791  0.8859
 3879SOL    HW223100   4.447   0.077   1.574 -0.4510 -0.8196 -0.2826
 3880SOL     OW23101   0.790   4.528   5.434 -0.0533 -0.2139 -0.6541
 3880SOL    HW123102   0.866   4.519   5.376  0.7530 -2.3125  0.7082
 3880SOL    HW223103   0.834   4.556   5.515  2.3374  0.3664 -2.1607
 3881SOL     OW23104   1.101   0.908  10.018 -0.0122  0.6349 -0.2487
 3881SOL    HW123105   1.114   0.944   9.930 -0.5068  0.3190 -0.4513
 3881SOL    HW223106   1.185   0.863  10.028 -0.8408 -0.9405 -0.4585
 3882SOL     OW23107   2.160   4.200   3.077  0.2272  0.1673 -0.2878
 3882SOL    HW123108   2.206   4.119   3.056 -0.0656 -0.2963  0.8472
 3882SOL    HW223109   2.206   4.231   3.156 -1.5753 -0.8649  1.1481
 3883SOL     OW23110   0.668   3.518   9.729 -0.4287  0.8347  0.7060
 3883SOL    HW123111   0.746   3.475   9.692 -0.5861  0.8786  0.3181
 3883SOL    HW223112   0.716   3.565   9.797  0.0305 -0.0520  0.9850
 3884SOL     OW23113   2.053   0.959  17.465 -0.0021  0.6415 -0.2768
 3884SOL    HW123114   2.002   0.891  17.422  0.3238 -0.1889  0.6215
 3884SOL    HW223115   2.036   1.034  17.409  1.2857 -0.8011 -2.6097
 3885SOL     OW23116   3.129   0.277   4.793  0.0815 -0.1287  0.1024
 3885SOL    HW123117   3.106   0.342   4.726 -1.2556  0.4780  1.1384
 3885SOL    HW223118   3.068   0.206   4.778 -0.3211 -0.1101  1.6432
 3886SOL     OW23119   3.206   3.484   3.590  0.4094 -0.2833  0.2619
 3886SOL    HW123120   3.188   3.414   3.527 -1.6039  0.1948  0.2758
 3886SOL    HW223121   3.208   3.433   3.670 -0.5520 -0.2530  0.3050
 3887SOL     OW23122   4.721   3.105   7.109  0.4009 -0.8308 -0.6079
 3887SOL    HW123123   4.649   3.052   7.073 -0.9622  2.2387 -2.3427
 3887SOL    HW223124   4.673   3.151   7.179  1.2574 -0.9180  0.0365
 3888SOL     OW23125   3.009   3.638   2.536 -0.0827  0.4191  0.1863
 3888SOL    HW123126   2.926   3.665   2.497 -0.3588  0.3580  0.7370
 3888SOL    HW223127   3.049   3.586   2.466 -2.0008 -1.1561  0.2688
 3889SOL     OW23128   3.050   3.205   7.189  0.5179 -0.1689  0.4853
 3889SOL    HW123129   2.980   3.252   7.233  1.1537  0.3747  0.9192
 3889SOL    HW223130   3.083   3.148   7.258  0.3963  0.7607  1.2998
 3890SOL     OW23131   2.411   4.384  16.731 -0.0417  0.3487  0.3061
 3890SOL    HW123132   2.416   4.409  16.638  1.2309 -0.3113  0.1951
 3890SOL    HW223133   2.505   4.371  16.743 -0.1126  0.2564  0.7759
 3891SOL     OW23134   0.311   4.311   3.134 -0.4027 -0.0219  0.2877
 3891SOL    HW123135   0.332   4.220   3.156  1.2912  0.4215  0.4956
 3891SOL    HW223136   0.256   4.329   3.210 -0.1808  1.4775  0.0948
 3892SOL     OW23137   1.751   3.767   9.366  0.2931 -0.3929  0.3190
 3892SOL    HW123138   1.693   3.824   9.317 -1.7399 -1.6440  1.2720
 3892SOL    HW223139   1.822   3.758   9.303  0.0008 -0.2965 -0.0233
 3893SOL     OW23140   2.124   4.625   5.806 -0.7026 -0.5366 -0.2138
 3893SOL    HW123141   2.063   4.681   5.854  2.5410  1.0549  2.0398
 3893SOL    HW223142   2.063   4.566   5.762 -1.0597 -0.7153  0.5177
 3894SOL     OW23143   2.951   2.312   1.347  0.4799 -0.1514 -0.0998
 3894SOL    HW123144   2.856   2.300   1.346  0.3329  0.7399  1.2929
 3894SOL    HW223145   2.987   2.228   1.320  1.0829  0.0556  0.0538
 3895SOL     OW23146   1.589   2.225   5.716  0.1662  0.7664  0.3992
 3895SOL    HW123147   1.636   2.167   5.655 -1.4227  0.0626 -0.1418
 3895SOL    HW223148   1.542   2.279   5.654  0.3984  1.7955  1.1296
 3896SOL     OW23149   2.616   3.820   9.663  0.0942  0.7280  0.1645
 3896SOL    HW123150   2.674   3.772   9.602 -1.4552 -1.0713  0.0985
 3896SOL    HW223151   2.576   3.875   9.596  1.6552  1.8836  0.1863
 3897SOL     OW23152   3.330   1.264   2.248  0.4171 -0.4776 -0.3170
 3897SOL    HW123153   3.285   1.236   2.169  1.6468  1.1353 -1.5649
 3897SOL    HW223154   3.250   1.260   2.300 -0.4399  0.8092 -1.5576
 3898SOL     OW23155   0.939   0.749  16.692 -0.5013 -0.3053  0.0061
 3898SOL    HW123156   0.971   0.748  16.602 -0.2850 -1.3803  0.0930
 3898SOL    HW223157   0.927   0.654  16.702  2.2810 -0.6277  0.4308
 3899SOL     OW23158   3.481   0.419  15.541 -0.2387  0.0858  0.4293
 3899SOL    HW123159   3.512   0.508  15.559 -1.3555  0.5683 -0.0543
 3899SOL    HW223160   3.451   0.389  15.627 -0.0945 -3.9382 -0.9663
 3900SOL     OW23161   0.238   1.046   4.238  0.3536  0.2155  0.0490
 3900SOL    HW123162   0.295   0.972   4.217 -1.9601 -2.6250  3.6641
 3900SOL    HW223163   0.303   1.110   4.265  0.3503  1.0149 -1.8468
 3901SOL     OW23164   4.480   0.281   4.416 -0.1442 -0.8184 -0.0582
 3901SOL    HW123165   4.565   0.241   4.439 -0.2534 -0.2521  1.3516
 3901SOL    HW223166   4.422   0.215   4.454 -0.8245 -0.4040 -0.3970
 3902SOL     OW23167   3.597   0.680   6.647  0.5481 -0.3368  0.5407
 3902SOL    HW123168   3.689   0.694   6.625 -0.0640  1.9802 -0.5468
 3902SOL    HW223169   3.571   0.770   6.670 -0.6157 -0.5916  0.2512
 3903SOL     OW23170   2.392   1.412   5.187 -0.0307  0.1628  0.0668
 3903SOL    HW123171   2.449   1.346   5.149  2.3609  1.5937  1.1431
 3903SOL    HW223172   2.316   1.364   5.219  0.5798 -0.5262  0.4822
 3904SOL     OW23173   0.142   4.177  17.407 -0.5925  0.1706  0.4917
 3904SOL    HW123174   0.092   4.230  17.469  1.1999  0.8566  1.3497
 3904SOL    HW223175   0.216   4.231  17.378 -1.0641  1.0262  0.8950
 3905SOL     OW23176   1.952   2.643   4.658 -0.2812 -0.5130  0.0943
 3905SOL    HW123177   2.008   2.713   4.691 -1.4386  0.5413 -0.1327
 3905SOL    HW223178   1.944   2.670   4.566  1.0716  0.9317  0.4037
 3906SOL     OW23179   4.370   1.733   4.049 -0.1719  0.1055 -0.0295
 3906SOL    HW123180   4.438   1.665   4.051 -0.5327 -0.2625 -0.3476
 3906SOL    HW223181   4.395   1.773   3.967 -0.7254 -0.1525 -0.3268
 3907SOL     OW23182   0.058   1.123   8.666 -0.0919 -0.0683  0.0774
 3907SOL    HW123183   0.126   1.117   8.734  1.2906  0.4413 -1.2509
 3907SOL    HW223184   4.724   1.175   8.723 -0.5112 -2.5082  1.8710
 3908SOL     OW23185   2.544   0.541   9.762  0.3806  0.5518  0.8366
 3908SOL    HW123186   2.538   0.636   9.758 -1.5082  0.4217  0.7796
 3908SOL    HW223187   2.638   0.533   9.780  0.3704 -0.9461  0.2111
 3909SOL     OW23188   0.380   2.761   1.525 -0.9753 -0.3224 -0.5110
 3909SOL    HW123189   0.352   2.695   1.589  1.4748  0.3521  1.2634
 3909SOL    HW223190   0.426   2.704   1.464 -1.7232 -1.2788 -0.1765
 3910SOL     OW23191   2.830   1.629  14.370  0.0768  0.3734 -0.0580
 3910SOL    HW123192   2.906   1.607  14.315 -0.3154  2.2097 -1.3261
 3910SOL    HW223193   2.775   1.551  14.371  2.6948 -1.4817  2.0221
 3911SOL     OW23194   2.541   3.691   4.894 -0.1863 -0.6127 -0.2943
 3911SOL    HW123195   2.559   3.598   4.879  1.4854 -0.1781 -0.9051
 3911SOL    HW223196   2.530   3.730   4.807 -2.6204  1.9032  1.1289
 3912SOL     OW23197   3.098   2.966   6.069  0.1592 -0.5081 -0.2651
 3912SOL    HW123198   3.010   2.972   6.105 -0.0443  0.4472 -0.9238
 3912SOL    HW223199   3.125   2.876   6.088  0.5321 -0.2494  0.4183
 3913SOL     OW23200   4.037   1.353  13.525  0.6283 -0.5793 -0.5987
 3913SOL    HW123201   3.962   1.404  13.492  1.2271  1.2196  0.8248
 3913SOL    HW223202   4.027   1.273  13.474  0.8791 -0.9733 -0.0273
 3914SOL     OW23203   0.703   1.246   6.144 -0.0553 -0.5039 -0.3981
 3914SOL    HW123204   0.682   1.338   6.125  0.5770 -0.5537 -1.3566
 3914SOL    HW223205   0.799   1.250   6.141 -0.0537  0.3937  0.8051
 3915SOL     OW23206   1.285   0.865  10.311 -0.3172  0.4029  0.1878
 3915SOL    HW123207   1.290   0.839  10.219 -2.0260  0.4532  0.0783
 3915SOL    HW223208   1.287   0.959  10.292  2.5948  0.1228 -0.8818
 3916SOL     OW23209   0.452   4.070   6.580  0.2105  0.3978 -0.3144
 3916SOL    HW123210   0.521   4.016   6.541  1.3450  0.2382  1.9118
 3916SOL    HW223211   0.483   4.072   6.671  1.7837  1.3501 -0.8555
 3917SOL     OW23212   0.887   2.246   8.144 -0.1098 -0.4139 -0.4049
 3917SOL    HW123213   0.881   2.195   8.063 -1.1855  0.2786 -0.7687
 3917SOL    HW223214   0.964   2.296   8.119 -1.6844  2.2745  0.0703
 3918SOL     OW23215   1.335   3.551  10.496  0.2834  0.2184  0.6274
 3918SOL    HW123216   1.375   3.548  10.583 -0.1218  0.0286  0.8076
 3918SOL    HW223217   1.267   3.610  10.529 -0.1760  0.7283 -1.2221
 3919SOL     OW23218   2.978   4.227   3.549  0.1054 -0.1106  0.0562
 3919SOL    HW123219   2.983   4.151   3.491  0.2461  0.3080 -0.4710
 3919SOL    HW223220   3.047   4.280   3.510 -0.3102  0.1042 -0.3798
 3920SOL     OW23221   1.346   0.861   6.880  0.3963 -0.2624 -0.1235
 3920SOL    HW123222   1.323   0.778   6.839  0.9935 -0.7211  0.4656
 3920SOL    HW223223   1.409   0.839   6.949 -0.2030  0.0707  0.5278
 3921SOL     OW23224   0.796   4.509   1.254 -0.5830 -0.1669 -0.1596
 3921SOL    HW123225   0.739   4.520   1.330 -2.3582 -0.1129 -1.4938
 3921SOL    HW223226   0.823   4.419   1.271 -0.3479  0.0611  0.6599
 3922SOL     OW23227   1.985   1.141   5.751 -0.4293  0.3122  0.2198
 3922SOL    HW123228   2.006   1.060   5.798 -1.8811  0.6819  1.5274
 3922SOL    HW223229   1.898   1.159   5.786 -0.3628 -0.3088  0.6961
 3923SOL     OW23230   2.407   0.995   8.077  0.1241 -0.0466  0.4738
 3923SOL    HW123231   2.344   0.972   8.145  0.4093 -1.6299  0.2040
 3923SOL    HW223232   2.362   0.980   7.994  1.5250  0.9687 -0.4819
 3924SOL     OW23233   2.622   2.091   1.785 -0.0060 -0.5547  0.1566
 3924SOL    HW123234   2.551   2.092   1.721 -0.5680  2.2656  0.7908
 3924SOL    HW223235   2.705   2.097   1.738  0.4480  0.2454  1.0519
 3925SOL     OW23236   0.263   2.510   5.044 -0.0523 -0.5261  0.0570
 3925SOL    HW123237   0.192   2.448   5.058  0.9298 -1.5159  0.5780
 3925SOL    HW223238   0.334   2.452   5.017 -2.5674 -3.6309  0.1839
 3926SOL     OW23239   1.587   1.152   7.218  0.3413  0.9202  0.1693
 3926SOL    HW123240   1.637   1.233   7.226  0.1910  1.4151 -4.4304
 3926SOL    HW223241   1.658   1.088   7.218  1.8677  2.6249  0.7161
 3927SOL     OW23242   2.627   4.528   5.976 -0.0416  0.1119  0.1893
 3927SOL    HW123243   2.554   4.543   5.917 -0.6903  0.1172  0.9899
 3927SOL    HW223244   2.614   4.436   6.000  0.4279  0.2140  0.8367
 3928SOL     OW23245   1.459   4.315   7.952 -0.1389  0.4019 -0.3643
 3928SOL    HW123246   1.467   4.401   7.910 -0.5949 -0.1855 -1.6351
 3928SOL    HW223247   1.472   4.256   7.878 -0.0583  0.5363 -0.4583
 3929SOL     OW23248   4.161   0.677   8.073  0.4143 -0.2453  0.4298
 3929SOL    HW123249   4.136   0.758   8.027  0.5169 -0.7768 -0.5499
 3929SOL    HW223250   4.152   0.610   8.005 -3.1057  0.9521 -0.3080
 3930SOL     OW23251   1.374   4.644   3.991  0.2178 -0.3129 -0.0568
 3930SOL    HW123252   1.293   4.627   4.038 -1.0669 -0.8486 -2.4690
 3930SOL    HW223253   1.427   4.572   4.025  0.5967 -0.2124 -0.4249
 3931SOL     OW23254   1.733   1.983   2.831  0.2556 -0.2318  0.5005
 3931SOL    HW123255   1.677   2.008   2.757  0.3353  2.7585  1.4519
 3931SOL    HW223256   1.683   2.000   2.910 -1.0128  0.9661 -0.5718
 3932SOL     OW23257   2.557   0.036   8.504 -0.5081  0.5216 -0.4278
 3932SOL    HW123258   2.595   4.678   8.535 -1.1391 -1.0083 -3.6821
 3932SOL    HW223259   2.483   0.005   8.450 -0.6769 -1.9549  1.2390
 3933SOL     OW23260   2.951   2.069  13.289  0.2209 -0.1029  0.0921
 3933SOL    HW123261   2.966   2.162  13.276  0.4391 -0.2678 -0.7773
 3933SOL    HW223262   2.876   2.068  13.349  0.4611 -0.9525  0.3771
 3934SOL     OW23263   4.368   4.242   0.491  0.4362 -0.1251 -0.0936
 3934SOL    HW123264   4.336   4.214   0.406 -0.2819 -0.2749  0.2247
 3934SOL    HW223265   4.407   4.162   0.528 -0.0705  0.1029  0.9497
 3935SOL     OW23266   2.867   2.569   5.089 -0.1145  0.2539 -0.1209
 3935SOL    HW123267   2.950   2.604   5.059 -0.1315  1.0276  0.7383
 3935SOL    HW223268   2.877   2.585   5.183 -0.8078  2.2815 -0.3901
 3936SOL     OW23269   3.936   4.694   8.796  0.2056  0.0824  0.5724
 3936SOL    HW123270   3.929   0.057   8.834 -2.5567  0.9741 -1.9839
 3936SOL    HW223271   3.849   4.656   8.808  0.7432 -1.1101  0.7599
 3937SOL     OW23272   0.228   0.600   5.374 -0.2144  0.6762 -0.1790
 3937SOL    HW123273   0.138   0.614   5.343 -0.5122  1.0883  0.8441
 3937SOL    HW223274   0.282   0.653   5.316  0.8051  2.2299  2.1748
 3938SOL     OW23275   1.894   4.346  15.776 -0.0867 -0.6344  0.4145
 3938SOL    HW123276   1.869   4.258  15.803  0.1978 -0.1459  2.3298
 3938SOL    HW223277   1.981   4.327  15.741 -0.3068  2.4125 -1.7691
 3939SOL     OW23278   0.427   3.897  17.245 -0.3978 -0.0361 -0.0837
 3939SOL    HW123279   0.399   3.805  17.246  5.0017 -1.6847 -1.4400
 3939SOL    HW223280   0.521   3.881  17.247 -0.1288  1.2274 -2.6808
 3940SOL     OW23281   0.874   2.707  10.203  0.2175 -0.1420  0.3256
 3940SOL    HW123282   0.801   2.743  10.252 -0.2274 -1.7948  0.8779
 3940SOL    HW223283   0.944   2.715  10.268  2.6619 -1.3205 -2.1174
 3941SOL     OW23284   3.218   4.593  13.086 -0.3430 -0.2323 -0.4437
 3941SOL    HW123285   3.225   4.634  13.000  3.0540  1.5643  0.6716
 3941SOL    HW223286   3.193   4.503  13.066 -2.0482  0.0688  0.3612
 3942SOL     OW23287   4.630   0.905   8.209 -0.4299  0.0499 -0.2176
 3942SOL    HW123288   4.593   0.879   8.125 -1.4427 -0.9865  0.5596
 3942SOL    HW223289   4.559   0.877   8.267 -0.3417  1.0870  0.3883
 3943SOL     OW23290   3.494   0.949   9.052  0.4756 -0.0274  0.3210
 3943SOL    HW123291   3.489   0.982   9.141  2.8215 -0.3929  0.5822
 3943SOL    HW223292   3.460   0.860   9.059  0.2269  0.3022  3.0237
 3944SOL     OW23293   1.532   4.115   6.712  0.5136  0.4742  0.0415
 3944SOL    HW123294   1.528   4.188   6.651  0.2606  1.1810  0.9019
 3944SOL    HW223295   1.622   4.112   6.746  0.7854 -0.3437 -0.7603
 3945SOL     OW23296   4.597   2.350   3.578  0.4323  0.0254  0.3071
 3945SOL    HW123297   4.687   2.347   3.546 -0.5625 -1.2330 -2.2969
 3945SOL    HW223298   4.589   2.260   3.608 -0.0551 -0.7120 -2.0464
 3946SOL     OW23299   3.226   4.284   7.520 -0.1630  0.7569  0.0832
 3946SOL    HW123300   3.167   4.233   7.576 -0.1960  0.9684  0.2390
 3946SOL    HW223301   3.191   4.372   7.530  2.3277  2.1177 -3.1594
 3947SOL     OW23302   3.257   4.287  12.099 -0.4866 -0.2473  0.2038
 3947SOL    HW123303   3.314   4.303  12.174 -1.3248  1.5961  0.4538
 3947SOL    HW223304   3.293   4.352  12.038  0.5614 -2.4024 -1.5090
 3948SOL     OW23305   1.609   4.117   1.167 -0.9527 -0.2173  0.1598
 3948SOL    HW123306   1.691   4.087   1.128  0.3492  1.1432  1.9196
 3948SOL    HW223307   1.628   4.113   1.260 -3.4134 -1.0856  0.6257
 3949SOL     OW23308   2.265   2.733   7.428 -0.0466  0.0052 -0.3650
 3949SOL    HW123309   2.309   2.807   7.470  1.6300 -0.0950 -1.9242
 3949SOL    HW223310   2.342   2.709   7.376  0.3616 -0.7965  0.6031
 3950SOL     OW23311   4.529   2.298   4.792 -0.4386 -0.3420  0.4313
 3950SOL    HW123312   4.448   2.252   4.772 -0.8357 -0.3713  2.1082
 3950SOL    HW223313   4.576   2.307   4.709  0.8469 -0.7949  1.0995
 3951SOL     OW23314   0.206   0.322   3.210  0.0924  0.7316 -0.1158
 3951SOL    HW123315   0.292   0.355   3.238  0.5253  0.1562 -0.7686
 3951SOL    HW223316   0.232   0.284   3.126  1.3749  0.5154  0.3761
 3952SOL     OW23317   2.962   0.168   0.258  0.3102 -0.0868 -0.2115
 3952SOL    HW123318   3.022   0.102   0.223  0.4042 -1.3579  2.3717
 3952SOL    HW223319   2.947   0.134   0.346  0.0936 -1.4593 -0.7687
 3953SOL     OW23320   1.984   0.144   7.243 -0.1753  0.5911  0.1409
 3953SOL    HW123321   1.972   0.050   7.253 -0.1495  0.8451  2.7471
 3953SOL    HW223322   1.907   0.167   7.191 -1.4332  1.0658  2.2190
 3954SOL     OW23323   4.420   0.921   1.855 -0.0895 -0.1211 -0.0254
 3954SOL    HW123324   4.377   1.007   1.862  2.0695  0.8452  1.1966
 3954SOL    HW223325   4.501   0.923   1.905 -0.4257 -0.3655  0.5326
 3955SOL     OW23326   3.364   2.618   3.526 -0.8627 -0.1617  0.1458
 3955SOL    HW123327   3.447   2.608   3.572 -1.5681 -0.4617  1.3484
 3955SOL    HW223328   3.393   2.684   3.462 -0.7658  1.6004  2.0210
 3956SOL     OW23329   1.865   4.137   8.955 -0.1007  0.6735 -0.2463
 3956SOL    HW123330   1.837   4.111   9.043  1.0042  0.9905  0.1953
 3956SOL    HW223331   1.884   4.054   8.911 -1.0105  0.6840 -0.6589
 3957SOL     OW23332   0.813   0.569   6.852  0.8031  0.0529  0.1849
 3957SOL    HW123333   0.745   0.592   6.788  1.2594  0.4663 -0.1484
 3957SOL    HW223334   0.860   0.652   6.861  1.8095 -0.4444 -0.5854
 3958SOL     OW23335   0.874   3.429   0.006  0.0853  0.1927  0.0290
 3958SOL    HW123336   0.886   3.512   0.051  0.8986 -0.8068  1.6459
 3958SOL    HW223337   0.950   3.378   0.032  0.1251 -0.1091 -0.6707
 3959SOL     OW23338   3.954   2.576   1.813  0.0191  0.3312  0.5584
 3959SOL    HW123339   4.047   2.567   1.834  0.1985 -0.7983 -0.7402
 3959SOL    HW223340   3.933   2.631   1.888 -2.7200  1.8825 -1.3225
 3960SOL     OW23341   1.246   1.641   7.435  0.4321 -0.3812 -0.1446
 3960SOL    HW123342   1.324   1.650   7.380 -0.6108 -2.6728 -1.9895
 3960SOL    HW223343   1.270   1.709   7.499  0.4951  0.5870 -1.1939
 3961SOL     OW23344   0.483   0.261   8.226  0.2267  0.2426  0.0268
 3961SOL    HW123345   0.528   0.218   8.298 -1.1384 -0.5267  0.4075
 3961SOL    HW223346   0.392   0.257   8.254  0.5447 -0.4991  0.9132
 3962SOL     OW23347   4.578   0.824   3.476  0.2822  0.1264  0.4616
 3962SOL    HW123348   4.567   0.776   3.394 -2.4842 -1.7369  1.9298
 3962SOL    HW223349   4.533   0.904   3.449  1.2887  0.0918 -1.3431
 3963SOL     OW23350   0.192   2.289   2.351 -0.0491  0.3503  0.1993
 3963SOL    HW123351   0.116   2.232   2.344  1.6243 -1.6767 -1.6285
 3963SOL    HW223352   0.240   2.253   2.426  3.4172  2.5480 -0.9357
 3964SOL     OW23353   4.304   2.878  17.361 -0.0777  0.3766 -0.2970
 3964SOL    HW123354   4.256   2.959  17.375 -2.9881 -1.2012 -1.1778
 3964SOL    HW223355   4.358   2.867  17.440 -0.5339  2.7895  0.3411
 3965SOL     OW23356   1.984   4.180   1.225 -0.3239 -0.2796  0.3386
 3965SOL    HW123357   1.925   4.255   1.217 -0.3428  0.1878  4.4468
 3965SOL    HW223358   2.016   4.158   1.138 -0.1485  0.6287  0.1735
 3966SOL     OW23359   3.255   2.706   9.288  0.4005 -0.0223 -0.1875
 3966SOL    HW123360   3.272   2.798   9.272 -0.6090  0.1930 -0.0266
 3966SOL    HW223361   3.333   2.672   9.244  1.3044 -0.7294  1.9383
 3967SOL     OW23362   4.005   3.614   3.297 -0.8702 -0.1176 -0.3037
 3967SOL    HW123363   3.993   3.572   3.212 -0.9509  3.2189 -1.9515
 3967SOL    HW223364   4.029   3.543   3.356 -1.0342  0.5294  0.5525
 3968SOL     OW23365   1.026   1.168   1.644 -0.4814 -0.1024 -0.5211
 3968SOL    HW123366   0.952   1.152   1.584 -0.3643  2.4551 -1.3707
 3968SOL    HW223367   1.029   1.096   1.707  2.5658 -0.2418 -0.8410
 3969SOL     OW23368   0.891   2.514   7.312 -0.4623 -0.2601 -0.3024
 3969SOL    HW123369   0.914   2.606   7.326  0.1282  0.1073 -3.8351
 3969SOL    HW223370   0.974   2.471   7.335 -0.8364 -1.2150 -0.7254
 3970SOL     OW23371   3.907   3.899  16.699 -0.1411  0.1238  0.6683
 3970SOL    HW123372   3.993   3.903  16.657 -0.4283  1.5776  0.2128
 3970SOL    HW223373   3.871   3.977  16.658  1.5144  1.2481  1.3497
 3971SOL     OW23374   4.482   3.991   0.517  0.0521 -0.0122 -0.9879
 3971SOL    HW123375   4.552   3.931   0.493 -0.6301 -1.2317  0.0992
 3971SOL    HW223376   4.421   3.928   0.556  1.4859 -2.1276 -2.2002
 3972SOL     OW23377   1.990   4.382   9.008  0.9315 -0.1907 -0.4708
 3972SOL    HW123378   1.950   4.296   8.999 -0.8860  0.5583  0.6367
 3972SOL    HW223379   1.959   4.409   9.095  1.4545 -0.1895 -0.2806
 3973SOL     OW23380   4.113   2.598  13.366  0.3100 -0.4613  0.0731
 3973SOL    HW123381   4.185   2.584  13.304 -0.1247  0.1761 -0.5717
 3973SOL    HW223382   4.072   2.511  13.366 -0.2343 -0.1940  4.2745
 3974SOL     OW23383   2.469   3.465   8.543 -0.0189 -0.0548 -0.2350
 3974SOL    HW123384   2.516   3.548   8.536 -2.5900  1.3230 -1.0232
 3974SOL    HW223385   2.388   3.507   8.572  0.1487 -0.1381  0.3641
 3975SOL     OW23386   3.684   4.604   7.431 -0.0280  0.9119  0.1536
 3975SOL    HW123387   3.700   4.511   7.414 -0.8514  0.5774  1.2498
 3975SOL    HW223388   3.592   4.614   7.407 -0.0123 -0.0079 -0.2812
 3976SOL     OW23389   1.232   0.954  11.707 -0.5091  0.0213  0.2396
 3976SOL    HW123390   1.194   0.920  11.626  0.6487 -1.1891  0.2211
 3976SOL    HW223391   1.166   0.978  11.772 -1.7832  1.6653 -1.6159
 3977SOL     OW23392   3.322   3.913   6.018  0.2455  0.1992 -0.2685
 3977SOL    HW123393   3.398   3.859   5.997 -0.2975 -0.3479 -0.8381
 3977SOL    HW223394   3.291   3.869   6.097  1.4551 -0.6389 -0.2699
 3978SOL     OW23395   4.377   4.071   8.631 -0.2413  0.2502  0.0465
 3978SOL    HW123396   4.343   4.058   8.719  0.1390  2.3904  0.5138
 3978SOL    HW223397   4.468   4.041   8.639 -0.0013  0.6990 -1.0387
 3979SOL     OW23398   3.107   2.458   0.643 -0.4798  0.5897  0.0563
 3979SOL    HW123399   3.121   2.552   0.652  0.3420  0.6873 -2.2732
 3979SOL    HW223400   3.131   2.444   0.551 -1.3953 -2.9800  0.3589
 3980SOL     OW23401   1.762   3.428   6.719  0.1287  0.2128 -0.4960
 3980SOL    HW123402   1.838   3.430   6.660  0.6549  0.4768  0.2010
 3980SOL    HW223403   1.758   3.507   6.773  0.2828 -0.2884  0.2474
 3981SOL     OW23404   1.517   2.831   2.848  0.2214  0.0578  0.5439
 3981SOL    HW123405   1.523   2.766   2.778  1.7338  0.9506 -0.1596
 3981SOL    HW223406   1.484   2.779   2.921 -0.9042  1.2093  0.8565
 3982SOL     OW23407   0.708   1.708   9.255  0.0151 -0.1200  0.0892
 3982SOL    HW123408   0.643   1.645   9.285 -3.2906  2.7985 -0.8913
 3982SOL    HW223409   0.673   1.786   9.298 -1.1975 -0.9478  0.6056
 3983SOL     OW23410   1.245   3.099  12.382  0.1137  0.6729  0.0276
 3983SOL    HW123411   1.241   3.058  12.468  3.6334  1.1803  0.4509
 3983SOL    HW223412   1.192   3.046  12.323  0.1497 -0.0673  0.6678
 3984SOL     OW23413   3.904   3.012   3.281 -0.2610 -0.9034 -0.1177
 3984SOL    HW123414   3.993   3.005   3.247  0.6135  0.9472  1.7906
 3984SOL    HW223415   3.935   3.021   3.371 -0.9965 -1.6656  0.2085
 3985SOL     OW23416   4.262   3.679   8.794 -0.2125  0.6714 -0.1417
 3985SOL    HW123417   4.295   3.645   8.711 -0.0917 -1.2366  0.6947
 3985SOL    HW223418   4.181   3.721   8.763 -0.3266  1.0754  0.6910
 3986SOL     OW23419   3.164   3.588  17.626 -0.6570  0.1253  0.4877
 3986SOL    HW123420   3.109   3.510  17.625 -0.4007 -0.0511  0.2211
 3986SOL    HW223421   3.118   3.638  17.558  0.5043 -1.7895 -1.7095
 3987SOL     OW23422   2.869   1.037   3.422 -0.0645  0.1510  0.2328
 3987SOL    HW123423   2.875   0.994   3.507  2.4799  0.1358  0.0482
 3987SOL    HW223424   2.838   0.967   3.365  0.6271 -0.2150  0.3101
 3988SOL     OW23425   4.149   4.141   6.963 -0.2334 -0.2558 -0.3685
 3988SOL    HW123426   4.184   4.067   6.912  0.0509  0.5505 -1.3389
 3988SOL    HW223427   4.067   4.100   6.991 -0.7118  1.2473  0.4511
 3989SOL     OW23428   0.169   3.164  13.097 -0.1692 -0.3013 -0.3199
 3989SOL    HW123429   0.149   3.240  13.043 -1.1953  0.2515  0.8372
 3989SOL    HW223430   0.263   3.173  13.109  0.0848 -0.1049 -2.4222
 3990SOL     OW23431   4.246   2.567   2.263  0.1289 -0.1399 -0.1660
 3990SOL    HW123432   4.210   2.636   2.318 -0.3227 -0.3610 -0.1823
 3990SOL    HW223433   4.311   2.521   2.315 -1.6429 -0.1270  2.0360
 3991SOL     OW23434   0.422   1.493   9.585  0.0052 -0.1027 -0.5833
 3991SOL    HW123435   0.347   1.521   9.638  1.2373 -0.1492  1.1853
 3991SOL    HW223436   0.502   1.530   9.623 -1.4298  0.4061  1.9708
 3992SOL     OW23437   1.300   2.789   1.595 -0.1547  0.0341 -0.4579
 3992SOL    HW123438   1.354   2.712   1.613  0.5884  0.8702  0.8885
 3992SOL    HW223439   1.279   2.785   1.501 -0.9366 -2.0367 -0.1904
 3993SOL     OW23440   4.249   2.711   3.557  0.4705 -0.4459  0.0289
 3993SOL    HW123441   4.207   2.652   3.619  4.4415 -2.4959  0.7875
 3993SOL    HW223442   4.315   2.656   3.514 -0.3152  0.3500 -2.2318
 3994SOL     OW23443   1.455   4.432   8.314  0.5476  0.2797 -0.2949
 3994SOL    HW123444   1.480   4.362   8.375  2.1604  0.4273 -0.7767
 3994SOL    HW223445   1.363   4.411   8.296  0.3121  1.0306  0.0289
 3995SOL     OW23446   0.654   1.204  13.190  0.4998 -0.3099  0.2377
 3995SOL    HW123447   0.647   1.226  13.097  1.0937 -0.2171  0.2189
 3995SOL    HW223448   0.747   1.219  13.204  0.7093 -1.9418  0.5893
 3996SOL     OW23449   1.355   0.295   2.411 -0.4130 -0.1131  0.0441
 3996SOL    HW123450   1.273   0.339   2.389  0.6572  2.7537  1.7613
 3996SOL    HW223451   1.366   0.311   2.505 -0.3947  0.2074 -0.0110
 3997SOL     OW23452   3.258   2.215   4.000 -0.1048 -0.1952 -0.3889
 3997SOL    HW123453   3.247   2.143   4.062  1.6827 -0.5722 -0.5339
 3997SOL    HW223454   3.274   2.161   3.922  0.7350 -0.4351 -0.0411
 3998SOL     OW23455   1.159   2.720   6.059 -0.4313  0.4771 -0.2942
 3998SOL    HW123456   1.140   2.644   6.114 -0.0915  1.1462  0.7624
 3998SOL    HW223457   1.159   2.666   5.980  0.7446 -1.1977  0.8503
 3999SOL     OW23458   3.234   0.720   3.922  0.3962 -0.2752  0.2581
 3999SOL    HW123459   3.144   0.749   3.910  0.3684  0.5457  2.4692
 3999SOL    HW223460   3.255   0.729   4.015  0.7839 -1.3822  0.2787
 4000SOL     OW23461   2.798   0.585   8.571 -0.0043 -0.5900  0.2692
 4000SOL    HW123462   2.860   0.564   8.642  0.0356 -1.1828  0.0575
 4000SOL    HW223463   2.729   0.526   8.603 -0.3168  0.5913  1.7732
 4001SOL     OW23464   1.502   0.438   5.676 -0.5167 -0.1791  0.0362
 4001SOL    HW123465   1.504   0.416   5.769  2.8197 -1.9772 -0.4626
 4001SOL    HW223466   1.416   0.480   5.682 -0.1973  0.4200  0.2946
 4002SOL     OW23467   0.711   1.121   2.777  0.5014  0.3406 -0.4893
 4002SOL    HW123468   0.752   1.143   2.860  1.8354 -1.2746 -0.7299
 4002SOL    HW223469   0.745   1.032   2.764  2.0230  0.9998 -1.0488
 4003SOL     OW23470   3.546   1.844   7.002 -0.5085 -0.1320  0.1219
 4003SOL    HW123471   3.480   1.822   6.937  0.1257 -3.4768  0.6201
 4003SOL    HW223472   3.585   1.923   6.963 -0.1677 -0.0482  0.6378
 4004SOL     OW23473   4.433   2.965   0.736  0.0504 -0.0377 -0.3699
 4004SOL    HW123474   4.355   2.911   0.724 -0.4330  0.5383  0.2039
 4004SOL    HW223475   4.476   2.968   0.650  0.4654  1.0777 -0.1222
 4005SOL     OW23476   3.530   1.265   4.319  0.2877  0.5488 -0.1996
 4005SOL    HW123477   3.578   1.296   4.242  0.5385 -0.7268 -0.5490
 4005SOL    HW223478   3.570   1.309   4.394  1.3070  0.6190 -0.7939
 4006SOL     OW23479   2.476   3.907   5.736 -0.0833 -0.0466  0.0677
 4006SOL    HW123480   2.547   3.880   5.678 -1.5263  0.1745 -1.8067
 4006SOL    HW223481   2.521   3.950   5.809  0.8686  0.9729 -1.1176
 4007SOL     OW23482   4.179   4.609   4.253 -0.1020 -0.5751  0.2167
 4007SOL    HW123483   4.117   4.540   4.229  0.9900 -2.0994  1.7724
 4007SOL    HW223484   4.212   4.574   4.336  1.3439  0.9210  0.2601
 4008SOL     OW23485   1.998   2.516  11.637  0.1357  0.1241  0.3667
 4008SOL    HW123486   2.074   2.555  11.680  1.2493 -0.9408 -0.6592
 4008SOL    HW223487   1.933   2.584  11.654 -0.4394 -0.5177  0.7790
 4009SOL     OW23488   2.988   0.836  14.290  0.2109  0.4834  0.2464
 4009SOL    HW123489   3.005   0.792  14.373 -0.5080  0.3624  0.3325
 4009SOL    HW223490   3.075   0.864  14.263  0.0022 -0.4363 -1.3739
 4010SOL     OW23491   4.468   4.062   6.546  0.3991 -0.3867 -0.0329
 4010SOL    HW123492   4.480   3.985   6.490 -1.1458  0.6277 -1.7478
 4010SOL    HW223493   4.559   4.078   6.572  0.9006 -2.4194 -0.4848
 4011SOL     OW23494   0.379   3.499   9.575  0.0819  0.1069  0.2138
 4011SOL    HW123495   0.290   3.472   9.555 -0.1936  1.0224  0.1965
 4011SOL    HW223496   0.426   3.472   9.496  1.0697 -1.5879  1.3669
 4012SOL     OW23497   0.303   1.056   1.945  0.3491  0.0757 -0.1638
 4012SOL    HW123498   0.253   0.975   1.934 -2.0644  1.4324  0.8056
 4012SOL    HW223499   0.366   1.018   2.006  1.0858  1.1212 -0.2531
 4013SOL     OW23500   1.683   0.284  15.467  0.4179 -0.1876 -0.3812
 4013SOL    HW123501   1.655   0.286  15.558  0.1976  1.5909 -0.4914
 4013SOL    HW223502   1.712   0.375  15.462  1.1373 -0.5126 -2.2842
 4014SOL     OW23503   2.883   1.858   9.286 -0.3170 -0.2825 -0.7735
 4014SOL    HW123504   2.968   1.823   9.260  0.6563  1.6780 -0.2067
 4014SOL    HW223505   2.836   1.831   9.206  0.3781 -3.8487  0.0194
 4015SOL     OW23506   2.281   4.194   1.506 -0.5249  0.1735  0.1909
 4015SOL    HW123507   2.309   4.249   1.432 -0.6331  1.8392  1.4049
 4015SOL    HW223508   2.200   4.242   1.520  0.6280  1.2785  3.0798
 4016SOL     OW23509   2.199   1.078   3.274 -0.1602 -0.0026  0.0397
 4016SOL    HW123510   2.267   1.107   3.335 -1.4057 -1.5976  2.1719
 4016SOL    HW223511   2.146   1.158   3.267  0.4015  0.4510  0.9944
 4017SOL     OW23512   2.646   3.597  17.442  0.1547  0.2900  0.1695
 4017SOL    HW123513   2.704   3.521  17.449 -1.8775 -1.3298 -0.4152
 4017SOL    HW223514   2.646   3.641  17.527  0.4328 -1.0990  0.9011
 4018SOL     OW23515   4.351   4.584  14.000 -0.2221 -0.2362  0.1770
 4018SOL    HW123516   4.352   4.679  14.017  0.5859 -0.0022 -1.1741
 4018SOL    HW223517   4.426   4.561  14.055 -1.1198 -1.9690  0.6530
 4019SOL     OW23518   4.631   3.018   8.934 -0.2179 -0.1508  0.4465
 4019SOL    HW123519   4.565   2.954   8.958 -0.5754 -0.1301 -0.4627
 4019SOL    HW223520   4.644   3.054   9.021  0.6537 -2.8172  1.4158
 4020SOL     OW23521   1.357   0.086   5.552  0.3431 -0.2840 -0.4185
 4020SOL    HW123522   1.328   0.005   5.510  1.7285  0.0703 -2.0810
 4020SOL    HW223523   1.285   0.076   5.614 -0.0335  0.5171 -0.7250
 4021SOL     OW23524   2.789   2.408   6.062  0.5291 -0.4935 -0.1193
 4021SOL    HW123525   2.804   2.375   6.151  1.8176 -1.3335 -0.6470
 4021SOL    HW223526   2.742   2.483   6.097  0.5637  0.0295 -1.2171
 4022SOL     OW23527   0.372   3.753   9.306  0.4192  0.0927  0.1904
 4022SOL    HW123528   0.441   3.733   9.242  1.1135 -1.1847  1.3361
 4022SOL    HW223529   0.333   3.665   9.316  0.3895  0.0966  0.1079
 4023SOL     OW23530   4.414   2.483  10.863 -0.2941  0.3993 -0.1210
 4023SOL    HW123531   4.464   2.418  10.911 -1.6023 -0.1789  0.4625
 4023SOL    HW223532   4.484   2.545  10.845  0.5763 -0.9198 -1.2292
 4024SOL     OW23533   0.613   1.106  11.308  0.2499  0.0878 -0.0385
 4024SOL    HW123534   0.670   1.178  11.336 -1.2332  0.3897  2.1841
 4024SOL    HW223535   0.553   1.158  11.255 -1.3740  0.4212  2.1047
 4025SOL     OW23536   2.616   1.651   5.116  0.5445  0.2600 -0.0084
 4025SOL    HW123537   2.677   1.704   5.064  1.3654 -0.0550  0.6392
 4025SOL    HW223538   2.549   1.624   5.054  1.1370 -0.1490 -0.4699
 4026SOL     OW23539   3.842   1.645   7.230  0.6771  0.8336  0.0958
 4026SOL    HW123540   3.893   1.661   7.151  0.6551 -0.0828 -0.0980
 4026SOL    HW223541   3.879   1.559   7.247 -2.3051 -0.5766 -0.6676
 4027SOL     OW23542   1.917   0.362   8.634  0.2084  0.5424  0.0492
 4027SOL    HW123543   1.910   0.342   8.541 -1.2185 -1.6433  0.6305
 4027SOL    HW223544   1.852   0.431   8.650  1.0321  1.1242  0.8630
 4028SOL     OW23545   3.078   3.285   8.221 -0.0550  0.0527  0.3610
 4028SOL    HW123546   3.156   3.266   8.274  0.4414 -1.6222 -0.9817
 4028SOL    HW223547   3.122   3.337   8.154  0.7619 -0.9049  0.1671
 4029SOL     OW23548   1.582   4.082   3.758 -0.5674 -0.3956  0.2441
 4029SOL    HW123549   1.647   4.012   3.749 -0.5358 -0.0871 -1.9243
 4029SOL    HW223550   1.519   4.045   3.820  0.6467 -2.4885  0.2074
 4030SOL     OW23551   1.601   1.584  10.510  0.6347 -0.3836  0.1280
 4030SOL    HW123552   1.575   1.504  10.466 -0.2756 -0.7385  1.3139
 4030SOL    HW223553   1.615   1.549  10.598 -0.5798  3.4341  1.8357
 4031SOL     OW23554   0.166   1.609   6.095  0.3827  0.0477 -0.1884
 4031SOL    HW123555   0.226   1.535   6.097  0.4122  0.1321  2.3769
 4031SOL    HW223556   0.104   1.593   6.165 -0.8132  0.6157 -1.1174
 4032SOL     OW23557   0.865   2.050   2.850  0.2041 -0.2757 -0.1243
 4032SOL    HW123558   0.810   2.056   2.772  0.3277 -1.8895 -0.3347
 4032SOL    HW223559   0.903   2.138   2.847  0.1183 -0.1503  2.5950
 4033SOL     OW23560   3.297   2.526   9.476  0.1797 -0.1958 -0.4177
 4033SOL    HW123561   3.260   2.599   9.428 -1.3715 -1.1143 -0.5998
 4033SOL    HW223562   3.379   2.523   9.426  0.1883 -0.0614 -0.4108
 4034SOL     OW23563   1.887   0.049  15.122 -0.4029  0.2126 -0.0196
 4034SOL    HW123564   1.858   0.122  15.068  0.3934 -0.2288 -1.0259
 4034SOL    HW223565   1.973   0.024  15.087 -1.4003  0.1835 -2.4208
 4035SOL     OW23566   1.479   0.460   1.069  0.2048 -0.1016 -0.0497
 4035SOL    HW123567   1.529   0.534   1.037  0.8798 -1.0782 -1.2793
 4035SOL    HW223568   1.508   0.432   1.156 -0.8429  0.3265  0.4341
 4036SOL     OW23569   2.937   2.569   2.156  0.1436  0.4565 -0.0202
 4036SOL    HW123570   3.032   2.569   2.141 -0.0231  3.4851 -0.8469
 4036SOL    HW223571   2.945   2.528   2.243  1.3744 -0.1279 -0.4069
 4037SOL     OW23572   1.640   3.657   0.099 -0.4476 -0.1820  0.8397
 4037SOL    HW123573   1.660   3.577   0.149 -1.6236 -0.2799  1.1432
 4037SOL    HW223574   1.682   3.713   0.164  1.6951  0.3306 -0.9942
 4038SOL     OW23575   3.272   0.424  12.219 -0.1259 -0.1902 -0.4461
 4038SOL    HW123576   3.287   0.392  12.308 -0.5119  1.6452  0.2743
 4038SOL    HW223577   3.186   0.390  12.196 -0.2994 -0.2009  0.2099
 4039SOL     OW23578   3.677   2.313   3.915  0.2147  0.0615  0.0237
 4039SOL    HW123579   3.761   2.272   3.894 -0.0299 -0.2043 -0.4286
 4039SOL    HW223580   3.616   2.246   3.882 -0.9756  0.2973  1.7500
 4040SOL     OW23581   2.530   4.710   1.959 -0.3667 -0.0544  0.5873
 4040SOL    HW123582   2.492   0.025   1.881 -1.3443  1.2630  1.7145
 4040SOL    HW223583   2.527   4.621   1.925 -0.6061 -0.3378  1.3431
 4041SOL     OW23584   4.289   4.157   3.133 -0.1543  0.1607 -0.1236
 4041SOL    HW123585   4.329   4.205   3.060  1.8246 -0.3603  0.6245
 4041SOL    HW223586   4.268   4.072   3.095  0.4113  0.0273 -0.1302
 4042SOL     OW23587   1.460   4.051   4.597 -0.3385 -0.2887 -0.2012
 4042SOL    HW123588   1.457   4.053   4.692  0.7691  0.2739 -0.1751
 4042SOL    HW223589   1.492   3.965   4.571  0.9175  0.6036 -1.6575
 4043SOL     OW23590   1.918   3.652   5.019 -0.5708 -0.4058 -0.3043
 4043SOL    HW123591   1.823   3.659   5.029 -0.2424  0.8642  2.0645
 4043SOL    HW223592   1.933   3.567   5.059 -1.0332 -0.1647  0.3943
 4044SOL     OW23593   4.081   3.697  11.999  0.6639 -0.2691 -0.0113
 4044SOL    HW123594   4.064   3.780  11.955  0.6362  0.4236  1.3164
 4044SOL    HW223595   4.042   3.635  11.937  0.1308  0.2173 -0.1696
 4045SOL     OW23596   0.528   4.489   9.359 -0.3861  0.0994  0.5860
 4045SOL    HW123597   0.465   4.535   9.415  1.1140  2.1659  0.5624
 4045SOL    HW223598   0.504   4.520   9.271  1.1273 -0.3311  0.0233
 4046SOL     OW23599   0.711   2.531  11.979 -0.3769  0.2217  0.3890
 4046SOL    HW123600   0.651   2.499  11.911 -0.4944  0.7797  0.2270
 4046SOL    HW223601   0.724   2.621  11.949 -0.3335  0.2269  0.4239
 4047SOL     OW23602   1.169   2.230   3.574  0.2637 -0.8457  0.0689
 4047SOL    HW123603   1.197   2.315   3.606  0.2100 -0.7240 -0.2109
 4047SOL    HW223604   1.104   2.266   3.513  0.0368 -0.3530  0.6051
 4048SOL     OW23605   4.642   0.205   0.516 -0.2695 -0.3193 -0.1006
 4048SOL    HW123606   4.628   0.227   0.607  0.7376 -0.8555  0.1899
 4048SOL    HW223607   4.713   0.141   0.515 -0.9822 -1.1175  1.3930
 4049SOL     OW23608   2.849   3.879   9.318  0.3772 -0.2615  0.8769
 4049SOL    HW123609   2.814   3.812   9.376  0.0765  0.5490  1.6363
 4049SOL    HW223610   2.941   3.870   9.342  0.7981 -0.4452 -0.8444
 4050SOL     OW23611   4.171   0.402   1.427  0.4344  0.0871  0.2502
 4050SOL    HW123612   4.092   0.373   1.474 -0.6131  0.3560 -1.3341
 4050SOL    HW223613   4.201   0.483   1.468  1.4079 -0.3939  0.4715
 4051SOL     OW23614   1.783   0.146  11.645 -0.0534 -0.2226  0.2778
 4051SOL    HW123615   1.690   0.151  11.624  0.1922  2.0991 -0.1820
 4051SOL    HW223616   1.808   0.082  11.578  0.4367  2.7317 -2.2990
 4052SOL     OW23617   3.476   2.286   0.061  0.4356  0.2864  0.1855
 4052SOL    HW123618   3.400   2.316   0.012  0.2511 -2.0699 -0.9821
 4052SOL    HW223619   3.473   2.194   0.036 -0.5336  0.8387 -1.7261
 4053SOL     OW23620   1.077   1.229  15.259 -0.4492 -0.4632 -0.6328
 4053SOL    HW123621   1.004   1.287  15.283  0.1867 -0.0133  0.2077
 4053SOL    HW223622   1.028   1.158  15.218 -0.6216 -0.1875 -0.9065
 4054SOL     OW23623   2.226   2.542  13.339  0.3795 -0.2692  0.3242
 4054SOL    HW123624   2.163   2.522  13.409 -2.1165  1.9160 -1.2897
 4054SOL    HW223625   2.191   2.490  13.267 -1.0003 -3.1314  3.0244
 4055SOL     OW23626   2.275   1.914  16.926  0.1343  0.3109  0.2416
 4055SOL    HW123627   2.274   1.905  16.831  0.5098  0.1939  0.2481
 4055SOL    HW223628   2.184   1.935  16.947  0.4167  0.7621  0.9941
 4056SOL     OW23629   1.629   4.572   0.386 -0.3567  0.1437  0.2878
 4056SOL    HW123630   1.652   4.663   0.406  0.6120  0.3589 -1.7130
 4056SOL    HW223631   1.580   4.547   0.464 -0.0657  0.0281  0.4318
 4057SOL     OW23632   3.422   1.845   6.118 -0.1813  0.3935 -0.2502
 4057SOL    HW123633   3.358   1.782   6.086 -0.0689  1.1484 -1.9336
 4057SOL    HW223634   3.367   1.917   6.149  0.2327  1.0555 -1.0342
 4058SOL     OW23635   3.722   4.325   5.994  0.0423 -0.4132 -0.6363
 4058SOL    HW123636   3.713   4.333   6.089 -0.7552 -0.8659 -0.6731
 4058SOL    HW223637   3.794   4.387   5.985 -0.0634 -0.0297  1.3051
 4059SOL     OW23638   0.442   2.005  17.116  0.3549 -0.1775 -0.3099
 4059SOL    HW123639   0.462   1.963  17.032 -0.0222 -1.2876  0.1497
 4059SOL    HW223640   0.405   2.090  17.094  0.6827 -0.4121 -1.7644
 4060SOL     OW23641   0.101   4.299   4.756 -0.6797  0.8693 -0.3318
 4060SOL    HW123642   0.138   4.359   4.691 -2.2710  1.9439 -0.2551
 4060SOL    HW223643   0.010   4.293   4.726 -1.3139  2.3420  1.3046
 4061SOL     OW23644   2.712   0.840  12.105  0.2362  0.1236 -0.0261
 4061SOL    HW123645   2.652   0.824  12.032 -0.2763 -0.8011  0.5958
 4061SOL    HW223646   2.695   0.753  12.141 -2.6846  0.9088  0.5350
 4062SOL     OW23647   1.152   0.187  17.021  0.0309 -0.0458  0.0457
 4062SOL    HW123648   1.210   0.264  17.026 -0.5209  0.4381 -0.9372
 4062SOL    HW223649   1.192   0.122  17.079  0.2403  0.7524  0.7965
 4063SOL     OW23650   1.246   4.430  13.438  0.3712 -0.5624 -0.1578
 4063SOL    HW123651   1.250   4.496  13.507  0.1217 -0.8636  0.1408
 4063SOL    HW223652   1.279   4.348  13.477 -0.6225 -1.0678 -0.3918
 4064SOL     OW23653   1.612   2.061  13.203 -0.5770 -0.4624 -0.5500
 4064SOL    HW123654   1.632   2.126  13.269  0.6495 -0.6323 -0.7567
 4064SOL    HW223655   1.699   2.026  13.183 -0.5794 -0.2519 -0.9262
 4065SOL     OW23656   2.847   2.500   2.418  0.2716  0.0346 -0.4165
 4065SOL    HW123657   2.941   2.518   2.426  0.4980 -0.5871 -1.6979
 4065SOL    HW223658   2.826   2.427   2.476 -0.8563  0.7862  0.1250
 4066SOL     OW23659   2.792   2.212  11.230  0.0206  0.0451 -0.0412
 4066SOL    HW123660   2.756   2.126  11.248 -1.9113  1.0709  1.0362
 4066SOL    HW223661   2.879   2.205  11.190  0.3088  2.9874  0.0014
 4067SOL     OW23662   2.732   1.252   1.549 -0.5164  0.3571  0.4792
 4067SOL    HW123663   2.748   1.261   1.455 -0.8989  0.1532  0.3940
 4067SOL    HW223664   2.637   1.241   1.543 -0.4898 -0.7585  2.1904
 4068SOL     OW23665   2.378   0.119   2.553  0.3184  0.5091 -0.3674
 4068SOL    HW123666   2.320   0.058   2.508 -1.6707  1.9010  0.3034
 4068SOL    HW223667   2.334   0.128   2.638 -1.4374 -0.3263 -1.1997
 4069SOL     OW23668   0.156   0.917  12.362  0.2680 -0.8336  0.0516
 4069SOL    HW123669   0.174   0.834  12.318  0.4487 -0.0650 -1.3273
 4069SOL    HW223670   0.172   0.972  12.285 -2.0428  0.8115  0.7577
 4070SOL     OW23671   0.208   1.306   7.701 -0.4341  0.3414  0.3661
 4070SOL    HW123672   0.197   1.214   7.724  1.9669  0.5652  2.3243
 4070SOL    HW223673   0.233   1.294   7.609 -0.0085  0.2357  0.5007
 4071SOL     OW23674   0.029   1.436   0.145  0.3609 -0.0357  0.1412
 4071SOL    HW123675   0.027   1.399   0.057  0.7463 -0.1471  0.1806
 4071SOL    HW223676   4.707   1.519   0.131  1.2280  0.8978  2.8291
 4072SOL     OW23677   2.557   2.070  15.237 -0.0600  0.4834 -0.9903
 4072SOL    HW123678   2.623   2.006  15.212  0.3376  0.6357 -0.3184
 4072SOL    HW223679   2.581   2.145  15.183  1.8990  1.8045  1.7372
 4073SOL     OW23680   1.340   4.034   1.776 -0.2469  0.2364 -0.5245
 4073SOL    HW123681   1.429   4.048   1.808 -0.8756 -0.8507  1.6586
 4073SOL    HW223682   1.358   3.998   1.689  0.7830 -0.8228  0.1170
 4074SOL     OW23683   1.702   4.292  11.200 -0.9147 -0.0663 -0.1476
 4074SOL    HW123684   1.776   4.298  11.261 -1.6931 -0.4796  0.8307
 4074SOL    HW223685   1.665   4.380  11.211 -0.7651  0.4778 -3.9546
 4075SOL     OW23686   3.649   2.229   5.324  0.0215  0.7310  0.7274
 4075SOL    HW123687   3.570   2.255   5.370 -1.0469  0.1920 -0.8021
 4075SOL    HW223688   3.708   2.182   5.383  1.3026 -1.1403 -1.9986
 4076SOL     OW23689   4.255   3.637  12.190  0.3485  0.7416  0.2368
 4076SOL    HW123690   4.301   3.719  12.205 -0.6794  1.2664  0.5052
 4076SOL    HW223691   4.208   3.659  12.110  0.3533 -2.3958 -0.6632
 4077SOL     OW23692   4.130   3.828  17.595 -0.2818 -0.0502 -0.1181
 4077SOL    HW123693   4.082   3.852  17.674  0.2039  0.1311  0.1182
 4077SOL    HW223694   4.159   3.742  17.626 -1.1665 -1.0995 -2.2466
 4078SOL     OW23695   4.121   0.416   4.677 -0.4539 -0.3233 -0.5435
 4078SOL    HW123696   4.072   0.439   4.756 -0.6484 -0.8277 -0.5115
 4078SOL    HW223697   4.085   0.472   4.608 -1.4960 -1.2543 -0.7728
 4079SOL     OW23698   1.175   4.032   9.288 -0.2489 -0.3254  0.4126
 4079SOL    HW123699   1.150   4.099   9.225  1.9952 -0.6608 -0.8446
 4079SOL    HW223700   1.166   4.088   9.365  0.8539  1.2607 -0.6049
 4080SOL     OW23701   3.181   2.780   7.242  0.2604 -0.3521  0.0241
 4080SOL    HW123702   3.151   2.737   7.162  0.1180 -1.2392  0.5581
 4080SOL    HW223703   3.248   2.839   7.206 -1.5524  1.9749  0.4506
 4081SOL     OW23704   4.316   2.758   7.597 -0.0823  0.9757  0.3149
 4081SOL    HW123705   4.317   2.679   7.652  0.6333 -1.0446 -2.5784
 4081SOL    HW223706   4.392   2.802   7.634  1.1031  1.8084 -3.0955
 4082SOL     OW23707   3.732   1.032   6.712 -0.6804 -0.0712  0.0858
 4082SOL    HW123708   3.810   1.011   6.764 -0.4168  1.0890  0.1604
 4082SOL    HW223709   3.771   1.003   6.629  0.5524 -0.7620  0.8982
 4083SOL     OW23710   0.970   1.203   6.173  0.1814 -1.0900  0.2474
 4083SOL    HW123711   1.039   1.185   6.109  0.5295 -1.8239  0.8390
 4083SOL    HW223712   1.023   1.228   6.248  0.4088 -2.9786  0.7151
 4084SOL     OW23713   0.928   2.264   8.701 -0.4791 -0.0764  0.6704
 4084SOL    HW123714   0.838   2.289   8.722 -0.2894  0.0948  1.2655
 4084SOL    HW223715   0.899   2.199   8.636  0.7266  1.2574 -1.2150
 4085SOL     OW23716   0.130   4.522   2.690  0.0230  0.7289 -0.1655
 4085SOL    HW123717   0.188   4.495   2.761  0.1672 -1.4698 -1.1130
 4085SOL    HW223718   0.043   4.527   2.730 -0.5437  0.6490 -1.3678
 4086SOL     OW23719   2.610   2.929   2.035  0.0664  0.2721  0.0070
 4086SOL    HW123720   2.629   2.989   2.107 -0.6424  1.6901 -0.9732
 4086SOL    HW223721   2.575   2.991   1.970  2.0824 -0.1981 -1.5148
 4087SOL     OW23722   3.710   1.085   3.083 -0.1924 -0.1661 -0.0639
 4087SOL    HW123723   3.764   1.006   3.088  1.7286  1.0641 -1.2796
 4087SOL    HW223724   3.645   1.060   3.018  1.2095 -0.6548 -1.2906
 4088SOL     OW23725   2.478   3.999   3.254  0.4925 -0.5150  0.3743
 4088SOL    HW123726   2.524   4.039   3.179 -0.9967 -0.2021 -0.3684
 4088SOL    HW223727   2.458   3.909   3.228  0.6388  0.0898 -1.8780
 4089SOL     OW23728   4.557   2.479   6.120  0.1676  0.1136  0.3299
 4089SOL    HW123729   4.544   2.401   6.174 -0.4980 -0.0608 -0.0861
 4089SOL    HW223730   4.511   2.545   6.172  1.3271  1.5321 -0.4420
 4090SOL     OW23731   0.397   0.883   2.509 -0.0123  0.4347 -0.1169
 4090SOL    HW123732   0.478   0.836   2.488  0.9964  1.3405  1.7998
 4090SOL    HW223733   0.424   0.974   2.500  2.7786 -0.5652 -2.1500
 4091SOL     OW23734   0.413   0.212   7.180  0.1229 -0.2260  0.4549
 4091SOL    HW123735   0.385   0.149   7.247  1.2504 -1.1868  0.0267
 4091SOL    HW223736   0.400   0.166   7.097  0.2436 -0.4537  0.5616
 4092SOL     OW23737   1.906   1.583   7.926  0.9769  0.2866 -0.6177
 4092SOL    HW123738   1.894   1.666   7.972  1.3022 -0.4646  0.8131
 4092SOL    HW223739   1.971   1.530   7.973  1.2332  1.2653  0.1302
 4093SOL     OW23740   0.384   3.453   9.195 -0.3145  0.2403  0.3216
 4093SOL    HW123741   0.449   3.500   9.143  1.2700 -2.3231 -0.0062
 4093SOL    HW223742   0.443   3.427   9.266 -1.2536  1.2347  1.4607
 4094SOL     OW23743   1.969   2.744  11.361 -0.3143 -0.3613  0.1606
 4094SOL    HW123744   1.974   2.707  11.273  2.6573  0.4637 -0.0088
 4094SOL    HW223745   1.950   2.663  11.408 -1.2875  1.1148  2.3116
 4095SOL     OW23746   2.359   0.552   7.970  0.5266  0.1940  0.2959
 4095SOL    HW123747   2.337   0.485   7.905 -1.2738  0.9555  0.1303
 4095SOL    HW223748   2.445   0.521   8.000  0.2175 -1.1792 -0.2393
 4096SOL     OW23749   4.576   2.739   4.518  0.0252  0.3356 -0.3757
 4096SOL    HW123750   4.546   2.652   4.491  1.7430  0.1621 -1.7372
 4096SOL    HW223751   4.597   2.718   4.609  0.9994  0.5779 -0.5451
 4097SOL     OW23752   2.360   2.930   0.862 -0.3528  0.2333 -0.2830
 4097SOL    HW123753   2.413   2.937   0.941 -0.1341 -0.7418 -0.3417
 4097SOL    HW223754   2.311   3.012   0.867 -1.0555 -0.0385 -2.5755
 4098SOL     OW23755   0.238   4.083   2.624  0.3544  0.0584  0.1374
 4098SOL    HW123756   0.291   4.008   2.652 -0.2521 -0.3159  0.2709
 4098SOL    HW223757   0.299   4.140   2.671  0.4203  0.4511 -0.4116
 4099SOL     OW23758   2.062   0.514   1.479 -0.0502 -0.1588 -0.1467
 4099SOL    HW123759   2.043   0.519   1.386 -2.4032 -0.9612  0.2850
 4099SOL    HW223760   2.020   0.588   1.523  2.1041  0.4914  0.8445
 4100SOL     OW23761   3.260   2.626   4.359  0.1688 -0.4133 -0.9772
 4100SOL    HW123762   3.198   2.681   4.409  2.2873  0.0807  1.1104
 4100SOL    HW223763   3.221   2.542   4.383 -0.3551  0.1720  0.2656
 4101SOL     OW23764   4.088   0.859  13.210  0.4840  0.5431 -0.5347
 4101SOL    HW123765   4.182   0.850  13.224  0.5810  0.8401 -1.0021
 4101SOL    HW223766   4.070   0.787  13.149  0.2469 -0.6778  0.9766
 4102SOL     OW23767   2.798   2.304  16.469  0.0856  0.0668 -0.0744
 4102SOL    HW123768   2.783   2.253  16.549  1.7807 -1.5657 -0.8028
 4102SOL    HW223769   2.819   2.240  16.401 -1.0964  1.2146 -1.5187
 4103SOL     OW23770   2.791   3.670   7.397  0.3036 -0.3643 -0.2807
 4103SOL    HW123771   2.855   3.647   7.465  0.5545 -0.6241 -0.6031
 4103SOL    HW223772   2.848   3.727   7.345  0.5951 -0.4020 -0.0070
 4104SOL     OW23773   1.829   4.650   5.818 -0.0244  0.0945 -0.4360
 4104SOL    HW123774   1.863   4.570   5.778  0.2646  0.5631 -1.1146
 4104SOL    HW223775   1.737   4.639   5.796 -0.6475  1.2011  1.6103
 4105SOL     OW23776   4.374   3.383   1.544 -0.2244 -0.3620 -0.4145
 4105SOL    HW123777   4.379   3.322   1.618  1.5455  0.1802 -0.0973
 4105SOL    HW223778   4.286   3.420   1.555 -0.4738 -1.6715  2.0611
 4106SOL     OW23779   3.995   4.296   8.346  0.0857  0.1242 -0.2691
 4106SOL    HW123780   3.977   4.295   8.440  2.5201 -0.8109  0.1742
 4106SOL    HW223781   3.955   4.212   8.325 -1.7939  0.9860 -0.1652
 4107SOL     OW23782   0.406   3.845   6.864 -0.3090 -0.5386  0.0606
 4107SOL    HW123783   0.474   3.860   6.930  0.8076 -1.8947 -0.7927
 4107SOL    HW223784   0.427   3.757   6.835  0.9092  0.4214 -1.9973
 4108SOL     OW23785   3.850   0.808   5.147 -0.2252 -0.0262 -0.5186
 4108SOL    HW123786   3.945   0.808   5.163 -0.5140 -0.9920  1.2203
 4108SOL    HW223787   3.842   0.867   5.073  2.2651 -0.9892 -1.5504
 4109SOL     OW23788   3.628   0.999  11.294 -0.7124 -0.3794 -0.0509
 4109SOL    HW123789   3.655   0.958  11.212  1.4973  0.0975  0.4378
 4109SOL    HW223790   3.706   0.981  11.347  0.8856  1.1539 -1.8744
 4110SOL     OW23791   2.283   3.180   5.294 -0.0970 -0.3755  0.1608
 4110SOL    HW123792   2.352   3.170   5.359 -1.8560 -3.6747  1.5034
 4110SOL    HW223793   2.204   3.148   5.338 -1.4732  0.4362 -1.6747
 4111SOL     OW23794   3.162   3.679   5.675  0.1865  0.5833 -0.1170
 4111SOL    HW123795   3.209   3.598   5.657  0.6909  1.3178 -2.0509
 4111SOL    HW223796   3.233   3.743   5.682  0.1526  0.4122  1.6819
 4112SOL     OW23797   4.193   0.181   1.809  0.2354 -0.2296  0.1858
 4112SOL    HW123798   4.214   0.197   1.717  3.0462 -1.2845  0.6616
 4112SOL    HW223799   4.110   0.230   1.809  0.2972 -0.1210  0.3692
 4113SOL     OW23800   3.773   2.133   9.995  0.2814  0.1745 -0.8340
 4113SOL    HW123801   3.810   2.167  10.076  2.1010 -0.3130 -1.4522
 4113SOL    HW223802   3.773   2.040  10.020  0.4721  1.4788  3.9932
 4114SOL     OW23803   3.744   2.414   6.153  0.1804 -0.1716  0.4103
 4114SOL    HW123804   3.750   2.477   6.225 -1.6453  0.8637 -0.3229
 4114SOL    HW223805   3.702   2.346   6.207 -1.7687  0.8751  0.2483
 4115SOL     OW23806   3.467   3.533   7.780 -0.0770  0.0113  0.0334
 4115SOL    HW123807   3.502   3.505   7.865  1.3457  0.1017 -0.5153
 4115SOL    HW223808   3.389   3.583   7.804 -0.1127 -0.6349  1.2760
 4116SOL     OW23809   1.205   0.417  15.743  0.8023 -0.1395  0.1035
 4116SOL    HW123810   1.235   0.327  15.757 -2.3269 -0.8287  2.4254
 4116SOL    HW223811   1.140   0.399  15.675  0.5256  3.4999 -0.5582
 4117SOL     OW23812   0.540   2.457   7.198 -0.4713  0.0729  0.3942
 4117SOL    HW123813   0.559   2.370   7.235 -1.1254 -0.5707 -0.7839
 4117SOL    HW223814   0.463   2.431   7.148  0.0874  0.6460 -0.7686
 4118SOL     OW23815   1.206   0.032   5.144  0.4695 -0.0317  0.3574
 4118SOL    HW123816   1.273   0.100   5.135 -0.2039  0.8411  1.8935
 4118SOL    HW223817   1.128   0.087   5.137 -0.9401 -1.8831  1.6236
 4119SOL     OW23818   2.728   0.521   4.250  0.0142  0.1497  0.6558
 4119SOL    HW123819   2.756   0.607   4.218  0.1154 -0.2583 -0.3434
 4119SOL    HW223820   2.648   0.507   4.199  1.9745 -3.8840 -1.3229
 4120SOL     OW23821   0.762   1.493  17.233  0.2826  0.1086 -0.4254
 4120SOL    HW123822   0.689   1.488  17.172  0.0782 -0.7138 -0.1181
 4120SOL    HW223823   0.740   1.561  17.295  1.0364 -0.0578  0.0342
 4121SOL     OW23824   0.068   3.464   9.575  0.1000  0.0253  0.1742
 4121SOL    HW123825   0.000   3.408   9.613  1.2831 -2.2351 -1.0358
 4121SOL    HW223826   0.054   3.449   9.481  0.4368  0.1098  0.1104
 4122SOL     OW23827   1.285   3.141   7.367  0.3807  0.0092 -0.0569
 4122SOL    HW123828   1.355   3.087   7.331 -1.7056 -0.6350 -3.1722
 4122SOL    HW223829   1.288   3.116   7.459  1.5640 -1.0480 -0.3777
 4123SOL     OW23830   1.754   0.627   3.007  0.2724 -0.1844 -0.4507
 4123SOL    HW123831   1.760   0.704   3.064 -1.0812  0.8179 -1.6767
 4123SOL    HW223832   1.740   0.660   2.918  2.3283  0.8161 -0.4095
 4124SOL     OW23833   2.284   3.038  17.025 -0.4168 -0.1449  0.4404
 4124SOL    HW123834   2.273   3.010  17.115  0.2455 -2.6671 -0.2831
 4124SOL    HW223835   2.209   2.991  16.989 -1.0779  0.6628  0.7345
 4125SOL     OW23836   4.501   0.842   2.178 -0.3911  0.0878  0.0823
 4125SOL    HW123837   4.557   0.876   2.109 -1.1884  0.1258 -0.5462
 4125SOL    HW223838   4.414   0.877   2.163 -1.2713 -2.5461 -1.0748
 4126SOL     OW23839   2.098   0.541   7.241  0.2485  0.2481  0.0597
 4126SOL    HW123840   2.153   0.466   7.219  0.9399 -0.0494  2.8756
 4126SOL    HW223841   2.010   0.512   7.218  0.2924  0.8731 -0.8853
 4127SOL     OW23842   1.811   3.264  14.905 -0.4193  0.2859  0.5360
 4127SOL    HW123843   1.784   3.275  14.814  0.1952  0.7686  0.4087
 4127SOL    HW223844   1.784   3.177  14.935  1.7228 -0.3774  0.5914
 4128SOL     OW23845   3.829   2.231  12.592  0.0901  0.5601  0.0214
 4128SOL    HW123846   3.857   2.318  12.566 -1.4380  0.5125 -1.8282
 4128SOL    HW223847   3.897   2.213  12.656  0.2663  2.3593  0.3375
 4129SOL     OW23848   1.976   4.448   0.128  0.2852 -0.5124 -0.4249
 4129SOL    HW123849   2.020   4.363   0.122  1.9072  0.1242  2.5533
 4129SOL    HW223850   1.956   4.468   0.037  2.5140  1.0094 -0.5815
 4130SOL     OW23851   1.090   0.945   5.258  0.1850  0.2024  0.4731
 4130SOL    HW123852   1.130   0.877   5.313 -1.4654 -0.4740  0.8456
 4130SOL    HW223853   1.161   0.955   5.196 -1.8210 -1.0172 -2.0242
 4131SOL     OW23854   1.333   4.530   5.006  0.5289  0.8974  0.0498
 4131SOL    HW123855   1.406   4.578   4.967  3.0439 -1.4319  1.9060
 4131SOL    HW223856   1.296   4.605   5.053 -1.0872  0.6916 -0.8869
 4132SOL     OW23857   2.203   4.634   2.278  0.1154  0.0987 -0.0508
 4132SOL    HW123858   2.287   4.615   2.237  0.6786 -0.8901  1.5564
 4132SOL    HW223859   2.163   4.659   2.195  1.7849 -0.2062 -0.9452
 4133SOL     OW23860   0.515   2.155   3.309 -0.5233 -0.2409  0.1984
 4133SOL    HW123861   0.519   2.185   3.400  0.0137 -1.0207  0.4319
 4133SOL    HW223862   0.606   2.148   3.280  0.2771  1.1291  2.4171
 4134SOL     OW23863   4.661   3.847  12.105  0.2270 -0.5482  0.1048
 4134SOL    HW123864   4.686   3.927  12.150  1.7766 -0.7417 -0.4014
 4134SOL    HW223865   0.012   3.789  12.120 -0.2279 -1.5229 -1.4334
 4135SOL     OW23866   3.315   4.596   8.203  0.2955  0.7145  0.9507
 4135SOL    HW123867   3.361   4.513   8.213  2.0597  1.5519 -0.0586
 4135SOL    HW223868   3.356   4.647   8.272  1.2975 -0.4486  1.2104
 4136SOL     OW23869   0.950   0.098   5.499  0.1748  0.2562 -0.2704
 4136SOL    HW123870   1.026   0.127   5.549 -1.0302  1.0377  1.0944
 4136SOL    HW223871   0.917   0.020   5.545 -0.1187  1.2164  1.1496
 4137SOL     OW23872   4.447   4.529  15.121  0.1680 -0.2530  0.1368
 4137SOL    HW123873   4.537   4.501  15.108 -0.3228 -1.5118 -0.4733
 4137SOL    HW223874   4.446   4.622  15.144 -0.7783 -0.1413 -0.3381
 4138SOL     OW23875   1.051   3.450  10.103 -0.2688  0.0897 -0.1331
 4138SOL    HW123876   1.020   3.538  10.082  0.5827  0.4735  0.2026
 4138SOL    HW223877   0.989   3.419  10.168 -0.2924  3.9739  1.7130
 4139SOL     OW23878   2.491   3.050   1.078  0.6191  0.4643 -0.2576
 4139SOL    HW123879   2.418   3.107   1.058 -1.1512 -2.1514 -1.3024
 4139SOL    HW223880   2.480   3.041   1.173 -0.4288  1.3649 -0.3009
 4140SOL     OW23881   2.625   4.245   2.032 -0.1204  0.4521  0.2088
 4140SOL    HW123882   2.716   4.243   2.063  0.6324  3.9019 -1.8744
 4140SOL    HW223883   2.592   4.156   2.045  0.9866  0.3287  2.2767
 4141SOL     OW23884   0.503   0.891  13.399  0.2388  0.2772  0.0196
 4141SOL    HW123885   0.540   0.838  13.329 -0.2366 -0.7573  0.5452
 4141SOL    HW223886   0.567   0.871  13.467 -0.9613  3.0407  1.9641
 4142SOL     OW23887   1.022   2.598   5.816 -0.4239 -0.1321 -0.2210
 4142SOL    HW123888   1.090   2.627   5.756  1.6723 -1.8511  1.3136
 4142SOL    HW223889   0.981   2.541   5.751  1.5774 -0.8649 -0.8465
 4143SOL     OW23890   0.785   0.943   6.110 -0.8658  0.1316 -0.4602
 4143SOL    HW123891   0.787   1.028   6.153 -2.1320  0.0413 -0.2272
 4143SOL    HW223892   0.771   0.967   6.018  0.9958  1.5014 -0.3966
 4144SOL     OW23893   1.521   4.605   0.142 -0.4647  0.6535 -0.0550
 4144SOL    HW123894   1.441   4.606   0.194 -0.9596  0.3325 -0.7930
 4144SOL    HW223895   1.584   4.589   0.212 -2.5882  0.2299  1.7497
 4145SOL     OW23896   2.119   2.180   5.202 -0.4791  0.2530  0.3557
 4145SOL    HW123897   2.092   2.094   5.234 -1.9527 -0.1888 -2.1036
 4145SOL    HW223898   2.132   2.151   5.112 -0.1820 -0.8087  0.7389
 4146SOL     OW23899   2.404   3.086  15.015  0.2506 -0.0757  0.6962
 4146SOL    HW123900   2.311   3.102  14.998  0.5101  0.9420  0.2678
 4146SOL    HW223901   2.439   3.174  15.026 -3.4804  1.5579 -0.4452
 4147SOL     OW23902   3.745   0.415   6.945 -0.1622 -0.5942 -0.5907
 4147SOL    HW123903   3.683   0.359   6.992 -2.3118  2.8025  0.6343
 4147SOL    HW223904   3.695   0.497   6.949  0.8633 -0.0783  1.3449
 4148SOL     OW23905   1.903   2.369   5.131  0.0631 -0.4309  0.7388
 4148SOL    HW123906   1.978   2.315   5.157  1.0318  1.0334  0.9634
 4148SOL    HW223907   1.941   2.418   5.059 -0.0674 -0.3154  0.7494
 4149SOL     OW23908   1.266   1.618   5.338  0.5987  0.1580  0.0463
 4149SOL    HW123909   1.208   1.693   5.349 -0.6419 -0.5335 -1.7272
 4149SOL    HW223910   1.313   1.627   5.421  1.0900  3.4578 -0.5854
 4150SOL     OW23911   1.246   2.970   6.411  0.4074  0.0368  0.1326
 4150SOL    HW123912   1.341   2.983   6.420  0.1875  0.8912  1.0957
 4150SOL    HW223913   1.238   2.915   6.489 -1.4729  0.4174  0.1942
 4151SOL     OW23914   3.410   1.736   6.397 -0.5058 -0.0824 -0.0069
 4151SOL    HW123915   3.422   1.730   6.302  1.6159  1.3517  0.1656
 4151SOL    HW223916   3.330   1.685   6.407 -0.6544  0.1447 -0.0458
 4152SOL     OW23917   0.288   3.089   9.811  0.1685  0.1429 -0.8150
 4152SOL    HW123918   0.199   3.116   9.836  0.3922  1.2464 -1.2328
 4152SOL    HW223919   0.287   3.119   9.721 -2.9571  4.1694  0.5552
 4153SOL     OW23920   4.245   2.730   3.149  0.1561 -0.0899  0.1977
 4153SOL    HW123921   4.330   2.693   3.124  1.3526  0.3968  3.4632
 4153SOL    HW223922   4.185   2.711   3.077  1.3581 -0.3215 -0.7418
 4154SOL     OW23923   3.671   4.706   5.914 -0.3432 -0.3572  0.1311
 4154SOL    HW123924   3.693   0.075   5.904 -0.7908 -0.2246  0.3723
 4154SOL    HW223925   3.614   0.002   5.988 -0.5154  2.0402 -0.6700
 4155SOL     OW23926   0.865   0.153   7.584  0.7983 -1.2849 -0.4083
 4155SOL    HW123927   0.781   0.110   7.601 -0.1995  0.4841 -0.8681
 4155SOL    HW223928   0.854   0.169   7.491  1.0968  0.5283 -0.1227
 4156SOL     OW23929   1.209   0.188  13.949 -0.0784  0.1783 -0.4425
 4156SOL    HW123930   1.202   0.231  13.864  0.4753 -1.0404 -1.1043
 4156SOL    HW223931   1.303   0.175  13.940  0.4663  3.7586 -0.0206
 4157SOL     OW23932   4.166   2.577   8.917 -0.3936  0.5144 -0.3263
 4157SOL    HW123933   4.137   2.520   8.846 -1.3534 -0.8461  1.1788
 4157SOL    HW223934   4.198   2.516   8.982  1.1672 -0.9948 -2.4921
 4158SOL     OW23935   0.003   1.492  16.556 -0.2277 -0.1927  0.0310
 4158SOL    HW123936   4.690   1.418  16.507 -0.9892 -1.4405  2.4512
 4158SOL    HW223937   4.683   1.476  16.639  0.3829  2.2943  0.8284
 4159SOL     OW23938   4.119   0.658   3.458 -0.0702  0.1846  0.3767
 4159SOL    HW123939   4.137   0.593   3.390  0.0022  1.1072 -0.4692
 4159SOL    HW223940   4.155   0.615   3.536  0.4260 -2.2047 -1.1648
 4160SOL     OW23941   0.498   0.860   0.486  0.4017  0.1971  0.4310
 4160SOL    HW123942   0.410   0.867   0.449  0.4032 -0.2748  0.3379
 4160SOL    HW223943   0.492   0.770   0.518 -1.0378  0.9547  2.2564
 4161SOL     OW23944   4.446   2.368   3.226  0.0068 -0.1571 -0.3317
 4161SOL    HW123945   4.408   2.404   3.145  0.3891  2.4563  0.6519
 4161SOL    HW223946   4.529   2.336   3.192  1.4354  2.1753  0.9886
 4162SOL     OW23947   3.878   4.364   1.052 -0.1388  0.3706 -0.3409
 4162SOL    HW123948   3.972   4.363   1.069 -0.5490 -0.3443  1.8344
 4162SOL    HW223949   3.878   4.368   0.956 -2.1124 -2.0075 -0.4223
 4163SOL     OW23950   3.012   3.405   6.220 -0.1821 -0.7424 -0.3594
 4163SOL    HW123951   2.919   3.393   6.202 -0.5961 -1.5601  2.3428
 4163SOL    HW223952   3.061   3.400   6.138  0.4603  0.4404 -0.0509
 4164SOL     OW23953   3.472   2.860   0.585  0.6426  0.2266 -0.6197
 4164SOL    HW123954   3.482   2.920   0.511 -0.7327  0.1556 -0.8655
 4164SOL    HW223955   3.443   2.917   0.657 -0.4442 -3.5698  1.9422
 4165SOL     OW23956   0.149   0.934  12.649  0.2806  0.3798 -0.0439
 4165SOL    HW123957   0.165   0.906  12.559 -2.6469  2.6030 -1.2238
 4165SOL    HW223958   0.054   0.942  12.655  0.2554  0.6013 -0.8343
 4166SOL     OW23959   2.402   2.602  12.564 -1.0771  0.0639 -0.2565
 4166SOL    HW123960   2.462   2.533  12.591  1.0802  1.5813 -1.2137
 4166SOL    HW223961   2.461   2.676  12.578  0.3617 -1.0073 -0.5846
 4167SOL     OW23962   1.324   0.467   7.255 -0.2785 -0.3319  0.3058
 4167SOL    HW123963   1.306   0.437   7.166  2.0290  1.1483 -0.6655
 4167SOL    HW223964   1.332   0.392   7.313 -2.2868 -0.4502  0.4307
 4168SOL     OW23965   1.899   2.083  11.139 -0.2642 -0.4201 -0.2866
 4168SOL    HW123966   1.926   2.103  11.229 -1.0906  1.4566 -0.4666
 4168SOL    HW223967   1.814   2.042  11.155  0.2211 -0.0060  3.5506
 4169SOL     OW23968   0.316   1.593   7.490  0.1407  0.7196 -0.3872
 4169SOL    HW123969   0.252   1.654   7.453  0.1191  1.8161  1.4388
 4169SOL    HW223970   0.366   1.659   7.538  0.0553 -1.2138  2.3801
 4170SOL     OW23971   1.285   0.764  12.164 -0.1815 -0.2904 -0.0418
 4170SOL    HW123972   1.247   0.700  12.104 -3.3092  1.8602 -0.3579
 4170SOL    HW223973   1.375   0.732  12.170 -0.2313 -0.7213 -1.6698
 4171SOL     OW23974   1.736   1.551   8.377  0.0270 -0.1987  0.1178
 4171SOL    HW123975   1.770   1.556   8.287  0.9847  1.0784  0.5460
 4171SOL    HW223976   1.721   1.459   8.396  2.2620 -0.3955  0.9506
 4172SOL     OW23977   2.279   1.682   3.768 -0.2904  0.2619 -0.0861
 4172SOL    HW123978   2.274   1.628   3.846  0.4182 -0.6612 -0.6782
 4172SOL    HW223979   2.195   1.727   3.763 -0.3068  0.4063  1.5673
 4173SOL     OW23980   3.538   0.504  11.734  0.5044  0.3526 -0.2931
 4173SOL    HW123981   3.519   0.590  11.771 -0.3643 -1.2110  2.8179
 4173SOL    HW223982   3.515   0.512  11.641  0.0298 -1.5543 -0.3256
 4174SOL     OW23983   0.609   3.095   4.321  0.3012 -0.2625  0.0681
 4174SOL    HW123984   0.576   3.184   4.316  0.0769 -0.4295 -1.4740
 4174SOL    HW223985   0.602   3.074   4.228 -2.7869 -0.7815  0.4359
 4175SOL     OW23986   1.301   4.043   2.593 -0.2167 -0.3084  0.1003
 4175SOL    HW123987   1.345   3.959   2.578 -0.0024  0.0341 -1.2542
 4175SOL    HW223988   1.208   4.025   2.580 -0.5670  1.1974  0.4627
 4176SOL     OW23989   1.154   3.116  13.722  0.0483  0.1405 -0.5673
 4176SOL    HW123990   1.114   3.108  13.636 -0.6235 -2.6592  0.0028
 4176SOL    HW223991   1.235   3.162  13.701  0.5150  0.5291  2.1168
 4177SOL     OW23992   4.202   2.449   2.019  0.0199  0.1127  0.8866
 4177SOL    HW123993   4.232   2.484   2.102 -0.1789 -0.3286  1.1425
 4177SOL    HW223994   4.183   2.528   1.968 -2.0251 -0.2461  1.0753
 4178SOL     OW23995   4.355   2.482   7.418 -0.4010  0.2754 -0.0528
 4178SOL    HW123996   4.409   2.402   7.426 -0.8925 -0.2274 -1.7985
 4178SOL    HW223997   4.426   2.545   7.407 -0.3230  0.5547  1.9649
 4179SOL     OW23998   0.547   4.572   4.745  0.2813 -0.1895  0.2796
 4179SOL    HW123999   0.579   4.649   4.792 -0.2847  0.2198 -0.0040
 4179SOL    HW224000   0.615   4.505   4.747 -0.4648 -0.9465  0.3965
 4180SOL     OW24001   1.169   3.932  14.521  0.0916 -0.4324  0.3210
 4180SOL    HW124002   1.170   3.890  14.435 -0.6561  1.5367 -0.6443
 4180SOL    HW224003   1.151   4.020  14.488  0.7741  0.1645  1.5620
 4181SOL     OW24004   4.451   3.464   4.897 -0.1437 -0.4276 -0.3574
 4181SOL    HW124005   4.404   3.429   4.821  0.5152  0.0422 -0.9820
 4181SOL    HW224006   4.378   3.457   4.959 -0.9088  0.4045 -1.1467
 4182SOL     OW24007   1.590   1.064   8.245  0.0836  0.2245  0.7277
 4182SOL    HW124008   1.597   1.014   8.163 -1.1112  1.4626 -0.1317
 4182SOL    HW224009   1.654   1.134   8.233  0.0025  0.4203  1.4324
 4183SOL     OW24010   0.516   1.479   8.946  0.2875 -0.1066 -0.5953
 4183SOL    HW124011   0.580   1.544   8.917 -1.3665  1.1931 -1.3788
 4183SOL    HW224012   0.561   1.426   9.011  0.3497  1.4686  0.6453
 4184SOL     OW24013   0.568   1.344   6.415  0.1660 -0.3243 -0.3953
 4184SOL    HW124014   0.579   1.403   6.490 -1.2149 -0.6610  0.0674
 4184SOL    HW224015   0.522   1.398   6.351 -1.5916 -1.8656 -0.4252
 4185SOL     OW24016   1.081   0.994  15.605 -0.4763 -0.2150 -0.4502
 4185SOL    HW124017   1.034   0.949  15.534  0.4855 -1.2672 -0.4296
 4185SOL    HW224018   1.062   1.085  15.584 -1.5833  0.0130  1.5989
 4186SOL     OW24019   0.417   0.904  11.322 -0.3609  0.4770  1.0711
 4186SOL    HW124020   0.468   0.984  11.338  0.0376  0.6244 -1.0226
 4186SOL    HW224021   0.332   0.940  11.300 -0.7875 -1.6414 -0.7237
 4187SOL     OW24022   2.288   4.228   3.873  0.8455  0.2995  0.1768
 4187SOL    HW124023   2.340   4.160   3.916 -0.4240 -1.7279 -1.4517
 4187SOL    HW224024   2.362   4.265   3.825 -0.8603  0.5662 -2.2881
 4188SOL     OW24025   3.642   3.833   4.172 -0.4694  0.6625 -0.1742
 4188SOL    HW124026   3.726   3.816   4.215 -1.7849 -1.3770  1.5457
 4188SOL    HW224027   3.613   3.914   4.213 -1.0053  0.2554  0.2334
 4189SOL     OW24028   3.312   1.309   7.722  0.1217 -0.2616  0.4279
 4189SOL    HW124029   3.333   1.365   7.798 -3.3439 -2.7264  3.2237
 4189SOL    HW224030   3.402   1.286   7.701 -0.3807 -1.7125 -0.1115
 4190SOL     OW24031   3.908   0.017  16.281  0.1905  0.0882 -0.4104
 4190SOL    HW124032   3.975   0.085  16.271  0.8072 -0.4762 -0.1362
 4190SOL    HW224033   3.878   0.011  16.190  2.0786 -0.4374 -1.0152
 4191SOL     OW24034   2.412   0.759   7.190  0.1295  0.7959 -0.1121
 4191SOL    HW124035   2.342   0.740   7.128  0.2961 -0.1980  0.0114
 4191SOL    HW224036   2.370   0.741   7.274 -0.0369 -2.3785 -0.8889
 4192SOL     OW24037   3.202   2.413  16.701 -0.0671  0.3064  0.1058
 4192SOL    HW124038   3.153   2.356  16.760 -0.3216 -0.2049 -0.6074
 4192SOL    HW224039   3.272   2.442  16.760  0.3648 -2.0831  0.7579
 4193SOL     OW24040   3.320   2.211  14.248  0.4850 -0.3100 -1.0226
 4193SOL    HW124041   3.272   2.202  14.166  1.0818  0.9332 -1.5059
 4193SOL    HW224042   3.300   2.304  14.258 -0.0459 -0.4661 -0.5848
 4194SOL     OW24043   3.804   1.939   5.844 -0.4523 -0.2186  0.4393
 4194SOL    HW124044   3.791   2.009   5.909 -0.2084 -0.3556  0.6353
 4194SOL    HW224045   3.878   1.897   5.888  0.6127  1.4025  0.2174
 4195SOL     OW24046   1.046   0.839   6.107 -0.4571 -0.0020 -0.0574
 4195SOL    HW124047   0.967   0.892   6.118 -0.3334 -0.2063  1.8757
 4195SOL    HW224048   1.092   0.861   6.189 -1.1242 -1.3576  0.6800
 4196SOL     OW24049   0.261   0.891   0.372  0.0274  0.3424 -0.3496
 4196SOL    HW124050   0.171   0.864   0.351  0.6525 -1.2628 -0.9389
 4196SOL    HW224051   0.289   0.889   0.281 -0.0233  1.1937 -0.3872
 4197SOL     OW24052   2.011   0.035   1.226 -0.3766  0.6137  0.3921
 4197SOL    HW124053   2.029   4.666   1.215 -0.3811  0.6247  0.2847
 4197SOL    HW224054   1.917   0.035   1.242 -0.4332 -0.8599  0.0219
 4198SOL     OW24055   1.676   1.752   3.150 -0.2286 -0.1094  0.1512
 4198SOL    HW124056   1.617   1.792   3.214  1.5310  2.1488  0.3379
 4198SOL    HW224057   1.630   1.669   3.134 -0.2521  0.1141 -0.9386
 4199SOL     OW24058   3.881   4.015   4.976 -0.1609  0.0439  0.6556
 4199SOL    HW124059   3.931   3.968   5.043  1.2611 -0.1281 -0.5057
 4199SOL    HW224060   3.927   4.099   4.976 -1.4910  0.7574  1.1892
 4200SOL     OW24061   2.699   1.725  15.893 -0.1674  0.1563 -0.5640
 4200SOL    HW124062   2.621   1.773  15.865  0.8273  1.3498 -1.3020
 4200SOL    HW224063   2.771   1.765  15.844  1.1321 -1.1340  0.2834
 4201SOL     OW24064   1.323   3.859  13.171  0.1469  0.2452 -0.9173
 4201SOL    HW124065   1.390   3.889  13.109 -0.2819  0.3722 -1.3167
 4201SOL    HW224066   1.346   3.919  13.243  0.6464 -2.9874  1.6135
 4202SOL     OW24067   2.750   0.967   4.582  0.9095  0.0642  0.2907
 4202SOL    HW124068   2.802   0.947   4.504 -1.3631 -2.1931 -0.6575
 4202SOL    HW224069   2.799   0.938   4.659  1.0822 -0.2489  0.0606
 4203SOL     OW24070   3.557   1.799   9.469 -0.6894 -0.3837 -0.0209
 4203SOL    HW124071   3.606   1.829   9.393 -0.1976 -0.6782  0.1759
 4203SOL    HW224072   3.467   1.811   9.440 -0.6314 -2.2067 -0.9262
 4204SOL     OW24073   1.051   2.530   6.240 -0.7601 -0.0663  0.3870
 4204SOL    HW124074   0.982   2.466   6.257  0.4939 -1.8100 -1.0810
 4204SOL    HW224075   1.005   2.604   6.279 -0.3183  0.7018 -0.5469
 4205SOL     OW24076   1.750   3.222   3.119 -0.1575  0.2231  0.1472
 4205SOL    HW124077   1.720   3.185   3.036 -3.0129  2.0223  0.3847
 4205SOL    HW224078   1.698   3.160   3.170 -1.2445 -0.2533 -1.5479
 4206SOL     OW24079   2.355   2.938   2.864 -0.0236 -0.0585  0.4612
 4206SOL    HW124080   2.294   2.986   2.920  0.5534 -0.1566  1.1804
 4206SOL    HW224081   2.296   2.892   2.805  0.5817  1.1303 -1.0609
 4207SOL     OW24082   1.049   1.062  11.908 -0.0654  0.5563  0.2514
 4207SOL    HW124083   0.955   1.060  11.888 -0.1923 -1.1278  0.9720
 4207SOL    HW224084   1.048   1.017  11.993  1.0196 -1.4874 -0.8290
 4208SOL     OW24085   2.988   2.130   6.444 -0.2526 -0.0436 -0.1636
 4208SOL    HW124086   3.029   2.217   6.441  0.5571 -0.4217 -0.0402
 4208SOL    HW224087   2.903   2.161   6.413  1.2422  3.6185 -0.6648
 4209SOL     OW24088   3.313   2.057   7.719 -0.8002 -0.3793  0.0128
 4209SOL    HW124089   3.302   1.962   7.712  0.0866 -0.5301  0.5422
 4209SOL    HW224090   3.290   2.070   7.811 -1.7753 -0.0190 -0.2830
 4210SOL     OW24091   2.780   2.839   0.922  0.0318  0.8171  0.7087
 4210SOL    HW124092   2.854   2.881   0.878  1.2003 -1.1108  0.8329
 4210SOL    HW224093   2.737   2.914   0.961 -0.7236  1.1317 -0.7223
 4211SOL     OW24094   0.168   3.966   5.295  0.2496 -0.0019  0.0282
 4211SOL    HW124095   0.112   3.948   5.371  2.5921 -2.5739  1.1502
 4211SOL    HW224096   0.100   3.953   5.229  0.7574  0.8337 -0.6652
 4212SOL     OW24097   3.696   0.103   3.843 -0.7929  0.8704  0.2879
 4212SOL    HW124098   3.723   0.048   3.916 -1.1494 -1.2814 -1.1944
 4212SOL    HW224099   3.729   0.050   3.770 -1.9429 -0.3761  0.6652
 4213SOL     OW24100   0.990   4.327  10.326 -0.1590  0.6450  0.0075
 4213SOL    HW124101   0.922   4.273  10.287  0.5994  0.2680 -0.8025
 4213SOL    HW224102   0.940   4.369  10.396 -1.8815 -0.0575 -0.8203
 4214SOL     OW24103   1.015   3.949   5.416  0.0622 -0.2097  0.0566
 4214SOL    HW124104   1.006   3.950   5.321  0.4381  1.0842  0.0402
 4214SOL    HW224105   0.952   4.016   5.441 -0.5661 -1.2191  1.1625
 4215SOL     OW24106   3.966   0.956   5.458 -0.2463  0.2077 -0.5561
 4215SOL    HW124107   3.979   0.929   5.367  0.3990  1.7277 -0.9296
 4215SOL    HW224108   4.049   0.954   5.506 -0.1478 -1.6950 -0.8342
 4216SOL     OW24109   2.099   3.878  14.555 -0.2848  0.6248  0.1501
 4216SOL    HW124110   2.158   3.942  14.516  0.2644 -1.0134 -1.7623
 4216SOL    HW224111   2.016   3.908  14.517 -0.4958 -1.0049 -0.6957
 4217SOL     OW24112   4.057   1.403   8.140  0.0800 -0.3100 -0.2276
 4217SOL    HW124113   4.114   1.469   8.099 -0.4950  0.1162 -0.3318
 4217SOL    HW224114   4.118   1.331   8.156  1.6380  1.4108  1.6510
 4218SOL     OW24115   2.868   4.428   8.764  0.7986 -0.2987  0.0383
 4218SOL    HW124116   2.944   4.486   8.766 -0.8630  1.9016 -1.0886
 4218SOL    HW224117   2.908   4.344   8.788  2.4299  0.8597  1.2966
 4219SOL     OW24118   3.945   2.769   6.159  0.3823  0.7418 -0.3452
 4219SOL    HW124119   3.932   2.862   6.140  1.5541  1.1090  0.6261
 4219SOL    HW224120   3.985   2.739   6.077 -0.3072 -1.3072  0.0673
 4220SOL     OW24121   1.402   2.479   7.490  0.2131  0.3756 -0.0458
 4220SOL    HW124122   1.467   2.455   7.424  0.3613 -0.3932  0.3829
 4220SOL    HW224123   1.394   2.394   7.533  1.1204  0.0225 -0.5878
 4221SOL     OW24124   0.050   2.353   5.109 -0.0752 -0.0675  0.4671
 4221SOL    HW124125   4.685   2.386   5.118  0.8063  2.6380 -0.5857
 4221SOL    HW224126   0.052   2.300   5.189  0.7615 -0.6184  0.0811
 4222SOL     OW24127   2.488   4.061  10.492  0.0559 -0.5501  0.2983
 4222SOL    HW124128   2.475   4.139  10.439  1.9671 -0.4743 -0.0594
 4222SOL    HW224129   2.531   4.097  10.570  0.6683  1.4900 -0.9984
 4223SOL     OW24130   0.382   4.252   8.489 -0.0203 -0.6763  0.4011
 4223SOL    HW124131   0.467   4.295   8.485  0.0880 -0.9807 -0.7338
 4223SOL    HW224132   0.419   4.164   8.495  2.5137  0.4947  1.5163
 4224SOL     OW24133   0.361   2.685   2.857  0.4732 -0.5037  0.2337
 4224SOL    HW124134   0.405   2.734   2.787 -0.4168 -1.1025 -0.7307
 4224SOL    HW224135   0.380   2.741   2.932  1.0880  1.1661 -1.1572
 4225SOL     OW24136   1.636   3.811  14.129  0.1468  0.2918  0.0237
 4225SOL    HW124137   1.651   3.884  14.069 -0.3136  0.1742 -0.2336
 4225SOL    HW224138   1.632   3.857  14.212  0.2644 -0.6231  0.5354
 4226SOL     OW24139   4.013   1.580   5.918 -0.0830 -0.0595 -0.7618
 4226SOL    HW124140   3.929   1.617   5.892 -0.3644 -1.7022 -2.1202
 4226SOL    HW224141   3.984   1.491   5.935  2.1244 -0.6112  0.1085
 4227SOL     OW24142   0.437   0.725   6.066  0.4733  0.3202  0.1329
 4227SOL    HW124143   0.461   0.674   5.988 -0.7054  0.2452 -0.1762
 4227SOL    HW224144   0.364   0.778   6.033  1.0648 -0.4947 -2.4736
 4228SOL     OW24145   0.123   2.542  11.257  0.1170 -0.0351  0.1070
 4228SOL    HW124146   0.129   2.613  11.321 -0.3753  0.4183 -0.3418
 4228SOL    HW224147   0.212   2.509  11.257  0.1459  0.0470 -0.5200
 4229SOL     OW24148   4.703   3.452   5.208 -0.7113  0.1129 -0.5249
 4229SOL    HW124149   0.016   3.518   5.267 -1.8380 -1.3599  1.8195
 4229SOL    HW224150   4.663   3.390   5.269 -0.1914  1.0625  0.8073
 4230SOL     OW24151   3.969   4.123   3.888  0.3583  0.5473 -0.1694
 4230SOL    HW124152   4.019   4.194   3.930 -0.0934  2.4297 -2.8297
 4230SOL    HW224153   4.039   4.059   3.885  0.1785  0.3890 -0.9658
 4231SOL     OW24154   1.237   2.757   4.629  0.2949  0.6637  0.5298
 4231SOL    HW124155   1.172   2.751   4.699  0.9097 -3.4416  0.7518
 4231SOL    HW224156   1.306   2.814   4.662 -0.2334  1.2386  0.6412
 4232SOL     OW24157   0.837   4.368   6.813 -0.4348 -0.3786 -0.8941
 4232SOL    HW124158   0.823   4.294   6.755 -1.3970 -2.0501  1.4660
 4232SOL    HW224159   0.817   4.436   6.749 -0.1614  1.1212  0.5911
 4233SOL     OW24160   1.751   2.392   6.638  0.3524 -0.0035 -0.1664
 4233SOL    HW124161   1.769   2.322   6.575  2.2911  1.8758 -1.6957
 4233SOL    HW224162   1.666   2.428   6.611 -1.1253 -2.9410  0.5295
 4234SOL     OW24163   0.857   3.004  12.749  0.0619  0.0446 -0.0119
 4234SOL    HW124164   0.921   3.064  12.711  1.7003 -1.2439  0.7120
 4234SOL    HW224165   0.866   2.926  12.693  0.2604  1.4315 -1.8979
 4235SOL     OW24166   1.916   3.521   5.417 -0.6934 -0.4692 -0.1265
 4235SOL    HW124167   2.010   3.522   5.437 -0.8069  2.4670  0.1858
 4235SOL    HW224168   1.877   3.532   5.503  0.4482 -0.3137  0.3734
 4236SOL     OW24169   3.164   4.177   4.446  0.2466  0.3817  0.0866
 4236SOL    HW124170   3.088   4.154   4.501 -0.8002 -0.7424 -1.8107
 4236SOL    HW224171   3.193   4.258   4.486  3.5452 -1.1867  0.8281
 4237SOL     OW24172   3.208   4.636  12.082 -0.0416  0.4638  0.1938
 4237SOL    HW124173   3.221   4.570  12.014  0.7368 -1.2931  2.0596
 4237SOL    HW224174   3.124   4.603  12.115  0.9439 -0.8172  1.3691
 4238SOL     OW24175   2.643   0.189   2.625 -0.7102  0.3934 -0.4475
 4238SOL    HW124176   2.632   0.244   2.702  2.0991 -0.2306  0.3860
 4238SOL    HW224177   2.559   0.144   2.612  0.6943 -1.5573 -2.7853
 4239SOL     OW24178   1.451   3.331   2.193  0.1715 -0.2546 -0.2221
 4239SOL    HW124179   1.396   3.260   2.159  0.9429 -1.0890  0.2560
 4239SOL    HW224180   1.530   3.286   2.222  0.5327 -0.1516 -1.0519
 4240SOL     OW24181   3.147   2.340   7.217  0.7687  0.2098 -0.2282
 4240SOL    HW124182   3.061   2.314   7.186  1.4647 -2.1459 -0.1759
 4240SOL    HW224183   3.133   2.365   7.309 -1.4316 -0.4415 -0.3973
 4241SOL     OW24184   4.598   3.364  14.606  0.0179  0.2424  0.6341
 4241SOL    HW124185   4.674   3.310  14.630  1.2235  1.2586 -0.9170
 4241SOL    HW224186   4.620   3.448  14.645  3.2231 -1.1329  1.8413
 4242SOL     OW24187   0.373   1.784  17.216  0.0367 -0.0582  0.1373
 4242SOL    HW124188   0.459   1.752  17.242  0.2095  1.2267  1.1590
 4242SOL    HW224189   0.390   1.877  17.202 -0.0084 -0.3053 -1.5400
 4243SOL     OW24190   3.783   2.874   4.974 -0.4090  0.4359 -0.4539
 4243SOL    HW124191   3.768   2.794   4.924  0.9378  0.3817 -0.7728
 4243SOL    HW224192   3.786   2.841   5.064  0.6762  0.9786 -0.2990
 4244SOL     OW24193   0.555   2.970   9.798 -0.2202  0.0555  0.1355
 4244SOL    HW124194   0.600   3.036   9.851  0.8766 -1.7984  1.5502
 4244SOL    HW224195   0.627   2.953   9.736 -0.2849  1.0134 -0.1953
 4245SOL     OW24196   2.392   4.414   5.298  0.3844  0.1490  0.0532
 4245SOL    HW124197   2.307   4.414   5.342  0.8771 -2.0242  1.0041
 4245SOL    HW224198   2.432   4.492   5.338  1.9913 -0.4799 -0.3446
 4246SOL     OW24199   1.259   2.876  11.674 -0.6193  0.3242  0.3676
 4246SOL    HW124200   1.171   2.914  11.664 -1.5857 -1.9957 -0.0820
 4246SOL    HW224201   1.265   2.895  11.768 -3.7738 -2.4935  1.1753
 4247SOL     OW24202   4.551   1.338   7.338  0.0693  0.1021  0.0787
 4247SOL    HW124203   4.577   1.278   7.408 -1.3140  0.8076  1.1918
 4247SOL    HW224204   4.506   1.283   7.274 -0.6478  0.2636  0.4408
 4248SOL     OW24205   3.011   0.660   2.150 -0.3362 -0.4767  0.1851
 4248SOL    HW124206   2.962   0.740   2.132 -2.8979 -1.2365  3.7314
 4248SOL    HW224207   3.003   0.602   2.075 -1.7432 -0.4786  0.3414
 4249SOL     OW24208   2.133   3.494  11.369  0.0957  0.2244 -0.3521
 4249SOL    HW124209   2.044   3.465  11.348 -0.6006 -0.0248  2.8310
 4249SOL    HW224210   2.174   3.410  11.388 -1.4328 -0.1088  1.5116
 4250SOL     OW24211   2.641   0.998  15.034  0.0005  0.1623  0.1255
 4250SOL    HW124212   2.602   0.917  15.066 -2.3365  2.1775  2.4127
 4250SOL    HW224213   2.715   0.969  14.981  0.2079  1.2937 -0.2095
 4251SOL     OW24214   3.201   2.898   1.013 -0.0982 -0.0968  0.1923
 4251SOL    HW124215   3.209   2.953   0.935 -1.9586  3.0000  2.1653
 4251SOL    HW224216   3.194   2.963   1.083 -1.7166 -1.0143  0.8953
 4252SOL     OW24217   1.347   0.451  12.226 -0.1921 -0.7397  0.0573
 4252SOL    HW124218   1.419   0.513  12.241 -1.3817  0.9465 -1.2199
 4252SOL    HW224219   1.366   0.413  12.140  2.0866  1.6665 -0.5225
 4253SOL     OW24220   1.892   1.581  10.170  0.1522  0.0896 -0.1579
 4253SOL    HW124221   1.930   1.668  10.171 -1.5046  0.8110 -0.4488
 4253SOL    HW224222   1.903   1.556  10.262 -2.8318 -0.0378  0.1649
 4254SOL     OW24223   1.580   0.960  14.163  0.2516  0.6720 -0.3317
 4254SOL    HW124224   1.538   1.032  14.210  0.9261  0.8002  0.0916
 4254SOL    HW224225   1.589   1.008  14.081  1.1997  0.9220 -0.0839
 4255SOL     OW24226   2.619   3.216   0.359 -0.0286 -0.0943  0.0192
 4255SOL    HW124227   2.628   3.171   0.443 -1.4574 -1.2528 -0.4601
 4255SOL    HW224228   2.619   3.141   0.300 -0.4903 -0.2423  0.2132
 4256SOL     OW24229   1.423   1.858   9.730 -0.4077 -0.1804 -0.1329
 4256SOL    HW124230   1.404   1.765   9.726  1.2283 -0.4362 -1.9466
 4256SOL    HW224231   1.438   1.873   9.637 -2.0594  0.5110 -0.2704
 4257SOL     OW24232   3.606   3.196   3.036  0.5314 -0.2907  0.1267
 4257SOL    HW124233   3.603   3.183   3.131  1.3283  1.4273  0.3840
 4257SOL    HW224234   3.608   3.104   3.008 -1.2658  0.6817 -3.2059
 4258SOL     OW24235   1.131   4.723   6.662  0.0167  0.5166 -0.2267
 4258SOL    HW124236   1.221   4.721   6.694 -0.4433  1.9404  1.1072
 4258SOL    HW224237   1.091   0.052   6.730 -0.1270  1.4561 -1.0398
 4259SOL     OW24238   4.667   2.388   2.543  0.3182  0.4318 -0.4063
 4259SOL    HW124239   4.694   2.357   2.629  0.8610 -0.6686 -0.9685
 4259SOL    HW224240   4.615   2.315   2.512  1.6740  0.3455 -2.4855
 4260SOL     OW24241   3.475   2.191   5.720 -0.9489  0.0677  0.6046
 4260SOL    HW124242   3.384   2.170   5.698 -0.5872 -0.8335 -0.0582
 4260SOL    HW224243   3.510   2.109   5.754  0.9665  0.3398 -0.6892
 4261SOL     OW24244   0.275   0.448   4.727  0.0432 -0.4659 -0.5832
 4261SOL    HW124245   0.199   0.507   4.725 -1.2365 -2.1389 -1.0038
 4261SOL    HW224246   0.310   0.475   4.812  1.6836  1.0217 -1.7252
 4262SOL     OW24247   3.082   0.390  10.952  0.3974 -0.2763 -0.5745
 4262SOL    HW124248   3.072   0.296  10.967  0.3038 -0.1332  0.2237
 4262SOL    HW224249   3.155   0.385  10.890 -0.7133 -1.2375 -1.8216
 4263SOL     OW24250   3.949   1.427   5.248  0.3514  0.2540 -0.1839
 4263SOL    HW124251   4.030   1.401   5.291 -0.0183  0.0766  0.4070
 4263SOL    HW224252   3.983   1.470   5.170 -2.1076 -2.4174 -2.7637
 4264SOL     OW24253   1.184   3.822  15.086  0.6407  0.1082  0.5319
 4264SOL    HW124254   1.133   3.899  15.062 -1.6862 -1.4881  0.4356
 4264SOL    HW224255   1.191   3.759  15.014 -0.4118 -1.0175  1.4234
 4265SOL     OW24256   4.034   3.134   7.951  0.2010 -0.4381  0.5690
 4265SOL    HW124257   3.943   3.141   7.922  0.7278  0.0767 -0.9579
 4265SOL    HW224258   4.053   3.226   7.970 -1.4903  0.3057 -1.3247
 4266SOL     OW24259   4.304   4.551   5.873  0.3004 -0.0126  0.6570
 4266SOL    HW124260   4.361   4.480   5.901  0.5803  0.6926  1.8699
 4266SOL    HW224261   4.359   4.629   5.880  0.1682  0.2119 -0.6959
 4267SOL     OW24262   4.644   4.326   2.790 -0.7270 -0.2546 -0.8022
 4267SOL    HW124263   4.654   4.321   2.885 -0.4133  1.5946 -0.7365
 4267SOL    HW224264   4.563   4.374   2.774 -0.4813  0.7140  0.8345
 4268SOL     OW24265   1.986   2.514   6.705 -0.5192  0.0625  0.4983
 4268SOL    HW124266   1.895   2.487   6.690 -0.1388 -1.8887  1.6623
 4268SOL    HW224267   1.967   2.552   6.791  0.0588 -0.5725  0.9062
 4269SOL     OW24268   0.059   2.980   2.484  0.2930  0.2490 -0.4956
 4269SOL    HW124269   0.045   3.073   2.498  2.5349  0.8916 -2.5551
 4269SOL    HW224270   0.027   2.958   2.572  1.0903  1.6351  0.1358
 4270SOL     OW24271   4.485   3.106   3.744  0.0245 -0.5446 -0.1860
 4270SOL    HW124272   4.554   3.045   3.770 -0.3838 -0.5120  0.9773
 4270SOL    HW224273   4.471   3.066   3.658 -1.1864 -1.6109  0.4932
 4271SOL     OW24274   0.281   3.446   6.558  0.1672 -0.0581  0.1460
 4271SOL    HW124275   0.227   3.429   6.481 -0.1476 -1.0803  0.6003
 4271SOL    HW224276   0.355   3.387   6.546  1.6380  1.8183 -0.0094
 4272SOL     OW24277   0.236   2.994   2.726 -0.0133 -0.0696  0.7216
 4272SOL    HW124278   0.331   2.992   2.735  0.3938  1.5679 -3.5136
 4272SOL    HW224279   0.218   2.911   2.681  0.9878 -0.8223  1.7020
 4273SOL     OW24280   0.898   0.915   8.242  0.0215  0.3764 -0.0960
 4273SOL    HW124281   0.994   0.919   8.238 -0.0704  0.9044 -2.0914
 4273SOL    HW224282   0.883   0.961   8.159  0.1209  2.3261  0.9743
 4274SOL     OW24283   0.901   2.567   6.845 -0.0744  0.0421  0.1644
 4274SOL    HW124284   0.966   2.626   6.885  1.2457 -1.0906 -0.3060
 4274SOL    HW224285   0.942   2.542   6.762  2.8821  2.4032  0.8897
 4275SOL     OW24286   0.520   3.778   3.600 -0.2370 -0.1590 -0.1088
 4275SOL    HW124287   0.547   3.816   3.683 -2.5262  1.3647 -0.0453
 4275SOL    HW224288   0.427   3.801   3.607  0.2012 -0.1457  5.4062
 4276SOL     OW24289   3.532   3.508   3.434 -0.2172 -0.4371  0.4258
 4276SOL    HW124290   3.516   3.591   3.478 -0.5608 -1.1485  1.6510
 4276SOL    HW224291   3.488   3.522   3.350 -0.9137 -1.1075  0.6823
 4277SOL     OW24292   4.025   0.132   9.343  0.0685  0.2968  0.2456
 4277SOL    HW124293   4.006   0.046   9.381  3.5788 -0.7553 -0.4444
 4277SOL    HW224294   4.120   0.139   9.349  0.1123  0.4371 -0.6793
 4278SOL     OW24295   2.942   3.219   0.479 -0.8588 -0.3150  0.1116
 4278SOL    HW124296   3.020   3.164   0.482 -1.5205 -1.3130 -0.6886
 4278SOL    HW224297   2.888   3.177   0.546 -1.0656 -1.0765 -0.5315
 4279SOL     OW24298   1.138   2.909   3.937  0.2674  0.0186  0.2134
 4279SOL    HW124299   1.134   2.971   4.010 -0.9428 -0.0254  0.1889
 4279SOL    HW224300   1.126   2.977   3.871 -2.6779 -0.8375 -0.1595
 4280SOL     OW24301   0.107   3.416   6.346 -0.0749  0.1728  0.2718
 4280SOL    HW124302   0.112   3.511   6.342 -0.0001  0.0656 -2.2654
 4280SOL    HW224303   0.032   3.404   6.404 -1.9226  3.6586 -1.3918
 4281SOL     OW24304   2.666   1.134   3.687 -0.0665 -0.0396  0.7491
 4281SOL    HW124305   2.662   1.126   3.782  1.3277 -1.2991  0.7001
 4281SOL    HW224306   2.605   1.205   3.668 -0.4300  1.1069  6.2041
 4282SOL     OW24307   1.571   4.059  13.295  0.3906  0.3380 -0.0858
 4282SOL    HW124308   1.524   4.071  13.213  0.6776  1.5965 -0.0709
 4282SOL    HW224309   1.660   4.072  13.261  0.2407  0.3136 -0.4805
 4283SOL     OW24310   3.713   2.004   4.105  0.1793  0.0656 -0.0067
 4283SOL    HW124311   3.785   2.065   4.120  0.5282 -0.7669  1.6229
 4283SOL    HW224312   3.688   1.999   4.197 -1.4749  0.2551 -0.4534
 4284SOL     OW24313   1.228   1.065   8.428 -0.0678  0.4255  0.1614
 4284SOL    HW124314   1.205   0.984   8.383 -3.0413  0.4959  1.5427
 4284SOL    HW224315   1.307   1.040   8.476 -0.9499 -2.0064  0.3390
 4285SOL     OW24316   0.563   1.680   6.434  0.4799  0.1917  0.0145
 4285SOL    HW124317   0.640   1.641   6.474  0.7142  1.8186  1.1424
 4285SOL    HW224318   0.604   1.755   6.391  1.4318  0.4239  1.3540
 4286SOL     OW24319   2.871   2.014   7.783  0.7368 -0.2516  0.2545
 4286SOL    HW124320   2.892   2.058   7.700 -0.9347 -0.5198 -0.3104
 4286SOL    HW224321   2.945   1.955   7.796  1.7143  0.5818 -1.3721
 4287SOL     OW24322   0.105   2.078   8.250  0.2309  0.0702 -0.0654
 4287SOL    HW124323   0.038   2.012   8.232 -0.7028  0.8597  0.5515
 4287SOL    HW224324   0.181   2.022   8.270  0.5100 -0.0559 -1.4966
 4288SOL     OW24325   3.220   0.516   0.603 -0.1099 -0.0663 -0.2880
 4288SOL    HW124326   3.304   0.518   0.558 -0.5682  1.6627 -1.0890
 4288SOL    HW224327   3.154   0.532   0.535 -1.5649 -0.0951  1.1319
 4289SOL     OW24328   3.172   0.015  12.844  0.2698 -0.2524  0.0699
 4289SOL    HW124329   3.177   4.658  12.793  2.0101 -1.1045  1.6003
 4289SOL    HW224330   3.249   0.065  12.816  0.9622 -1.6702 -0.5072
 4290SOL     OW24331   1.018   1.547   7.513  0.2756  0.2014  0.1967
 4290SOL    HW124332   1.091   1.588   7.467 -1.2250 -0.5773 -2.8948
 4290SOL    HW224333   1.040   1.576   7.602 -0.3973  0.9911  0.1031
 4291SOL     OW24334   4.034   3.759   1.821 -0.5898 -1.1830 -0.1581
 4291SOL    HW124335   3.965   3.825   1.830  1.0436  0.3531  1.2718
 4291SOL    HW224336   4.046   3.762   1.726 -0.1895 -1.0121 -0.1023
 4292SOL     OW24337   2.444   2.023   4.636  0.2340  0.1165 -0.0244
 4292SOL    HW124338   2.410   2.023   4.725  0.8678 -1.0821  0.2121
 4292SOL    HW224339   2.417   1.937   4.605 -0.3151  1.7567 -4.1139
 4293SOL     OW24340   0.280   1.142   6.069  0.1487  0.2946  0.0284
 4293SOL    HW124341   0.220   1.149   6.144  0.6940 -0.7064  0.5541
 4293SOL    HW224342   0.282   1.237   6.059  0.7862  0.2727 -0.0478
 4294SOL     OW24343   0.135   0.919   4.850 -0.0735  0.1579  0.8625
 4294SOL    HW124344   0.057   0.939   4.902 -0.5228 -1.9572  0.9824
 4294SOL    HW224345   0.186   0.992   4.885  0.2760 -0.1183  0.9267
 4295SOL     OW24346   3.796   0.981   8.531 -0.5650 -0.0101 -0.1531
 4295SOL    HW124347   3.706   1.001   8.505 -0.9547  0.4549  1.5981
 4295SOL    HW224348   3.831   1.059   8.489 -0.3789  0.3065  0.5976
 4296SOL     OW24349   0.115   0.448   2.638 -0.0240  0.0553  0.0496
 4296SOL    HW124350   0.104   0.452   2.543  0.9882  0.0243 -0.0695
 4296SOL    HW224351   0.126   0.355   2.659  0.7898  0.9992  3.7115
 4297SOL     OW24352   3.287   0.579   4.992  0.2289  0.2958 -0.4239
 4297SOL    HW124353   3.257   0.492   5.017 -1.6108  1.2845  0.7871
 4297SOL    HW224354   3.225   0.629   5.044 -0.7107 -2.1671  0.8040
 4298SOL     OW24355   0.171   3.665   3.035 -0.4491  0.0402  0.5518
 4298SOL    HW124356   0.223   3.738   3.002  1.9160 -2.1927 -0.6646
 4298SOL    HW224357   0.108   3.665   2.963  1.7532 -0.9478 -1.3911
 4299SOL     OW24358   1.196   0.234   7.932 -0.8199  0.2216 -0.1210
 4299SOL    HW124359   1.195   0.288   7.854  2.2309 -2.1129 -1.7339
 4299SOL    HW224360   1.141   0.163   7.898 -3.1002  1.2711  1.3576
 4300SOL     OW24361   0.540   4.532   3.032 -0.2008  0.0592  0.2200
 4300SOL    HW124362   0.615   4.494   3.077  0.0471 -1.6661 -1.6975
 4300SOL    HW224363   0.564   4.624   3.026 -0.2530 -0.0841 -1.9624
 4301SOL     OW24364   0.999   1.204  12.428  0.3412  0.6790  0.1800
 4301SOL    HW124365   1.082   1.247  12.408  1.3127 -1.6119 -0.6979
 4301SOL    HW224366   1.032   1.120  12.459  2.1645  0.4455 -2.3574
 4302SOL     OW24367   4.307   2.005   7.527  0.0569 -0.7282 -0.0152
 4302SOL    HW124368   4.221   1.982   7.492  0.6230 -1.8120 -0.6507
 4302SOL    HW224369   4.361   1.933   7.495 -1.0416 -1.2338 -0.7327
 4303SOL     OW24370   2.796   0.421  12.059 -0.3691  0.1230 -0.2077
 4303SOL    HW124371   2.768   0.501  12.015 -0.4082  0.6311  0.7667
 4303SOL    HW224372   2.727   0.360  12.032  1.4808 -0.6957 -3.1697
 4304SOL     OW24373   4.193   0.714   4.204  0.5092  0.7081  0.0872
 4304SOL    HW124374   4.112   0.710   4.153  0.3744  1.5139  0.2366
 4304SOL    HW224375   4.173   0.663   4.283 -1.4286  0.5961 -0.4695
 4305SOL     OW24376   3.211   1.025  16.081  0.3527  0.1544  0.0626
 4305SOL    HW124377   3.229   1.011  16.174 -0.0821  0.0533  0.1310
 4305SOL    HW224378   3.234   0.942  16.039 -0.1798  0.9264 -1.7164
 4306SOL     OW24379   3.007   2.604  15.010 -0.0086 -0.1388 -0.3538
 4306SOL    HW124380   2.928   2.596  14.955 -0.3233  0.8218 -0.0452
 4306SOL    HW224381   3.074   2.616  14.943  1.2971  0.9202  1.1488
 4307SOL     OW24382   2.630   3.186   9.575  0.7702  0.0865 -0.0644
 4307SOL    HW124383   2.679   3.133   9.513  0.8492  1.1030 -0.8691
 4307SOL    HW224384   2.670   3.163   9.659  0.5929  3.1226  0.8363
 4308SOL     OW24385   2.404   0.490   4.048  0.1087  0.2449  0.0969
 4308SOL    HW124386   2.423   0.403   4.082  0.7936  0.3880  0.0829
 4308SOL    HW224387   2.356   0.471   3.967 -1.9368  0.5945  1.2177
 4309SOL     OW24388   1.965   2.926   8.632 -0.3535 -0.0520  0.5046
 4309SOL    HW124389   2.024   2.999   8.613 -0.6112 -0.0580 -0.3083
 4309SOL    HW224390   2.000   2.896   8.716  2.2342  0.3726 -0.3955
 4310SOL     OW24391   3.048   4.712   3.285 -0.2463  0.5563 -0.2136
 4310SOL    HW124392   3.097   0.006   3.204 -1.2234 -1.8383 -1.3232
 4310SOL    HW224393   3.052   0.074   3.329  2.3281  1.2585 -1.7887
 4311SOL     OW24394   2.812   4.433   2.850  0.1593  0.0180 -0.0906
 4311SOL    HW124395   2.728   4.392   2.829 -0.0157  0.7668 -0.8290
 4311SOL    HW224396   2.777   4.492   2.916  0.8338 -1.1843  1.3485
 4312SOL     OW24397   3.934   1.132  11.320  0.3668  0.1493  0.2887
 4312SOL    HW124398   3.906   1.068  11.386  2.1649  0.4470  1.3617
 4312SOL    HW224399   4.028   1.129  11.336  0.5721 -0.2761 -1.0007
 4313SOL     OW24400   3.416   0.352  12.789  0.7470  0.2949 -0.3998
 4313SOL    HW124401   3.392   0.262  12.765  1.3139 -0.1451  0.6907
 4313SOL    HW224402   3.397   0.402  12.710 -2.1257  3.0664  2.0850
 4314SOL     OW24403   2.113   1.296   9.898  0.3377 -0.4488 -0.4067
 4314SOL    HW124404   2.037   1.344   9.931  0.1596 -0.8855 -0.1875
 4314SOL    HW224405   2.107   1.221   9.956  1.7731 -0.5842 -0.4320
 4315SOL     OW24406   1.012   0.097   6.883 -0.0949 -0.1174  0.2714
 4315SOL    HW124407   0.963   0.178   6.891 -1.1113 -0.7086  0.0240
 4315SOL    HW224408   0.964   0.039   6.942  1.5967  0.5499  2.3111
 4316SOL     OW24409   4.432   3.737   4.340  0.0429  0.2258  0.2785
 4316SOL    HW124410   4.394   3.670   4.396 -2.5466  0.2298 -1.5043
 4316SOL    HW224411   4.475   3.685   4.272 -0.0516  1.7558 -0.9443
 4317SOL     OW24412   2.078   2.447  12.916 -0.6596  0.2802 -0.3510
 4317SOL    HW124413   1.997   2.396  12.910  0.5627 -1.8789  1.5768
 4317SOL    HW224414   2.128   2.407  12.844 -0.0065  1.1203 -0.3578
 4318SOL     OW24415   1.675   3.624   4.836 -0.2693  0.1703 -0.4934
 4318SOL    HW124416   1.618   3.549   4.852 -1.6285  1.5702  1.2664
 4318SOL    HW224417   1.628   3.699   4.872  2.7411  0.6087  2.5118
 4319SOL     OW24418   2.892   2.287   5.527 -0.4615  0.5726 -0.3288
 4319SOL    HW124419   2.840   2.208   5.540 -0.7283  0.9800  1.0633
 4319SOL    HW224420   2.938   2.290   5.443 -0.4129 -0.5511 -0.3431
 4320SOL     OW24421   1.198   2.980   3.559  0.0955 -0.6577 -0.0830
 4320SOL    HW124422   1.182   3.055   3.502  1.7074 -0.4857 -0.3169
 4320SOL    HW224423   1.135   3.003   3.626 -0.3152  0.3140 -0.8146
 4321SOL     OW24424   2.357   0.154  10.632  0.4354 -0.3251  0.2458
 4321SOL    HW124425   2.301   0.189  10.563  0.9607 -0.4960 -0.2581
 4321SOL    HW224426   2.416   0.228  10.641  1.0526 -0.7645 -0.2357
 4322SOL     OW24427   0.408   2.481  13.473  0.8503 -0.4231 -0.4680
 4322SOL    HW124428   0.482   2.428  13.444  0.8056 -0.1255 -1.1229
 4322SOL    HW224429   0.333   2.437  13.432  0.2199  1.4597 -1.3315
 4323SOL     OW24430   2.140   4.051   2.247 -0.5746  0.1062 -0.3061
 4323SOL    HW124431   2.076   4.105   2.293  0.1511  0.6976  0.0230
 4323SOL    HW224432   2.085   3.974   2.236 -0.3927 -0.3796  2.1617
 4324SOL     OW24433   4.640   1.075   4.911 -0.3486  0.3019 -0.7414
 4324SOL    HW124434   4.581   1.134   4.864 -2.4057 -2.1157 -1.1776
 4324SOL    HW224435   4.587   1.049   4.986  1.9283  1.2226  1.1987
 4325SOL     OW24436   1.448   4.146  11.247  0.1405  0.0164  0.3679
 4325SOL    HW124437   1.517   4.197  11.289  0.0005 -0.9927  1.8311
 4325SOL    HW224438   1.497   4.073  11.210  0.2998  0.3438 -0.0706
 4326SOL     OW24439   3.466   0.867  10.074 -0.4042 -0.1177  0.3032
 4326SOL    HW124440   3.486   0.946  10.024  0.2362  0.1991  1.0566
 4326SOL    HW224441   3.413   0.816  10.013  0.3680 -0.1554 -0.3211
 4327SOL     OW24442   3.246   1.472  17.101  0.0712 -0.5184 -0.3215
 4327SOL    HW124443   3.326   1.433  17.066  0.4524 -0.0444  0.0159
 4327SOL    HW224444   3.285   1.536  17.161 -2.1566 -0.1139  0.6893
 4328SOL     OW24445   3.452   4.344   8.274  0.1653 -0.3087  0.5590
 4328SOL    HW124446   3.535   4.325   8.229 -0.3043  0.5069 -0.6534
 4328SOL    HW224447   3.427   4.255   8.301  0.5460 -1.4822 -2.9697
 4329SOL     OW24448   2.012   1.979   2.964 -0.0622 -0.3626  0.1972
 4329SOL    HW124449   1.932   1.981   2.912  0.3533  2.8555 -0.3040
 4329SOL    HW224450   1.998   1.895   3.008  1.7016  0.6152  2.6829
 4330SOL     OW24451   2.162   2.203   3.163 -0.4184 -0.1129  0.0712
 4330SOL    HW124452   2.219   2.131   3.138 -2.0250 -0.9161 -1.2376
 4330SOL    HW224453   2.079   2.163   3.191  0.6731 -1.5773  1.1907
 4331SOL     OW24454   2.089   2.672  12.702 -0.7585 -0.2508 -0.8706
 4331SOL    HW124455   2.022   2.610  12.672 -0.7958 -1.1174  0.9757
 4331SOL    HW224456   2.117   2.624  12.780  2.3586  2.0342 -0.5810
 4332SOL     OW24457   2.056   2.839   8.871 -0.2706 -0.5192  0.0387
 4332SOL    HW124458   2.082   2.916   8.922  0.2106 -0.8087  0.2363
 4332SOL    HW224459   2.129   2.780   8.890  0.4988  0.5355  0.3576
 4333SOL     OW24460   3.804   3.429  17.062 -0.5196  0.4911 -0.2845
 4333SOL    HW124461   3.742   3.502  17.052  1.1929  2.1092  0.9305
 4333SOL    HW224462   3.794   3.406  17.154  0.9493  0.2838 -0.1779
 4334SOL     OW24463   3.132   2.412   1.990  0.5658 -0.3206  0.5489
 4334SOL    HW124464   3.070   2.346   1.960 -0.8667  0.6499  1.3998
 4334SOL    HW224465   3.110   2.485   1.932 -0.4764  0.1773  1.5660
 4335SOL     OW24466   1.506   2.103   8.752  0.1930 -0.2171  0.5367
 4335SOL    HW124467   1.456   2.035   8.797  2.4052 -1.9692  0.3607
 4335SOL    HW224468   1.581   2.117   8.809 -0.3614 -0.6815  1.3790
 4336SOL     OW24469   0.274   3.058   3.940 -0.0157 -0.5700 -0.8832
 4336SOL    HW124470   0.254   3.139   3.986  0.7752 -1.6219  1.3213
 4336SOL    HW224471   0.340   3.099   3.885 -0.9584 -0.5978 -2.0366
 4337SOL     OW24472   1.341   2.966   5.622  0.4683 -0.2237  0.8652
 4337SOL    HW124473   1.305   2.995   5.538 -1.4060  1.6532  2.3274
 4337SOL    HW224474   1.317   3.035   5.683  0.9704  0.6260  0.1127
 4338SOL     OW24475   2.779   1.172   8.446 -0.7233 -0.1952  0.0679
 4338SOL    HW124476   2.714   1.135   8.387  1.2082 -1.1278 -1.5088
 4338SOL    HW224477   2.861   1.162   8.397  0.3872 -0.3695  1.9603
 4339SOL     OW24478   0.718   1.649   8.813 -0.2459 -0.1072 -0.2025
 4339SOL    HW124479   0.643   1.649   8.753 -1.1487 -0.7461  0.9302
 4339SOL    HW224480   0.791   1.662   8.752  0.5881  2.1826  1.2802
 4340SOL     OW24481   0.724   3.506   2.850 -0.2427  0.2935  0.5907
 4340SOL    HW124482   0.701   3.494   2.758 -0.9679  0.2974  0.7679
 4340SOL    HW224483   0.738   3.415   2.878  1.7448  0.2186 -0.6819
 4341SOL     OW24484   1.353   2.585   8.276 -0.7296 -0.2401 -0.1681
 4341SOL    HW124485   1.312   2.503   8.250 -0.1525 -0.6281  0.1286
 4341SOL    HW224486   1.334   2.576   8.369  0.9170 -2.5129 -0.0333
 4342SOL     OW24487   1.890   0.435   2.100  0.0606  0.4436  0.4681
 4342SOL    HW124488   1.959   0.486   2.056  1.2928 -0.0236  1.8551
 4342SOL    HW224489   1.902   0.341   2.088  0.6152  0.5799 -0.0855
 4343SOL     OW24490   0.316   1.217   2.642 -0.4574 -0.4211 -0.2504
 4343SOL    HW124491   0.228   1.252   2.655 -0.3860 -0.2772 -0.1515
 4343SOL    HW224492   0.318   1.149   2.710 -0.1043 -1.9996 -1.8506
 4344SOL     OW24493   1.633   3.237   0.215  0.0026 -0.4262 -0.0117
 4344SOL    HW124494   1.539   3.253   0.226 -0.0427 -0.5205 -0.2740
 4344SOL    HW224495   1.671   3.323   0.234  0.6793 -1.1036  1.6400
 4345SOL     OW24496   1.046   2.881   8.299 -0.4995  0.5039  0.0373
 4345SOL    HW124497   1.130   2.894   8.255 -1.3083 -1.0953 -1.9385
 4345SOL    HW224498   1.030   2.961   8.351  2.6638  1.4755 -0.5217
 4346SOL     OW24499   4.686   2.331   6.714 -0.0691 -0.0525  0.3596
 4346SOL    HW124500   0.022   2.259   6.691  0.0204 -0.5597  2.1367
 4346SOL    HW224501   4.608   2.303   6.667  0.3483  2.7848 -1.9742
 4347SOL     OW24502   2.112   1.603   0.766  0.2560  0.6794  0.2328
 4347SOL    HW124503   2.158   1.680   0.730 -0.1066  1.2217  0.9284
 4347SOL    HW224504   2.057   1.636   0.837 -2.5706 -2.6373 -0.4445
 4348SOL     OW24505   2.895   1.528   4.787  0.1669  0.2200 -0.2107
 4348SOL    HW124506   2.984   1.560   4.797 -0.3083  0.9203  1.7989
 4348SOL    HW224507   2.905   1.490   4.699  3.5666 -2.1941  1.2438
 4349SOL     OW24508   0.045   1.164   8.404  0.4196  0.2496 -0.0358
 4349SOL    HW124509   0.067   1.146   8.496 -0.0882  0.6307  0.1605
 4349SOL    HW224510   4.677   1.138   8.406  1.1364 -2.2977  0.3507
 4350SOL     OW24511   0.601   4.184   2.232 -0.4153  0.4600  0.5692
 4350SOL    HW124512   0.647   4.256   2.188 -0.2330 -0.0562 -0.0993
 4350SOL    HW224513   0.609   4.212   2.323  1.0835  3.6905 -0.5532
 4351SOL     OW24514   2.548   3.870   2.258  0.2240  0.2978  0.3805
 4351SOL    HW124515   2.473   3.812   2.274 -1.0622  1.6557 -0.7871
 4351SOL    HW224516   2.512   3.954   2.284  0.5821  0.7951 -0.7327
 4352SOL     OW24517   2.969   2.242   0.911 -0.1651  0.5505 -0.0063
 4352SOL    HW124518   2.957   2.149   0.894  2.7893  0.1752  0.0373
 4352SOL    HW224519   2.882   2.280   0.924  0.0465  0.7526  0.7873
 4353SOL     OW24520   2.778   0.400   6.954 -0.1729  0.1957 -0.5590
 4353SOL    HW124521   2.816   0.367   6.873  2.4523  0.5687  0.5295
 4353SOL    HW224522   2.753   0.489   6.931  1.2901  1.4012  2.5700
 4354SOL     OW24523   2.150   3.984   8.343  0.5897 -0.1712 -0.4845
 4354SOL    HW124524   2.165   4.048   8.274  0.7236 -0.7212 -0.9643
 4354SOL    HW224525   2.238   3.982   8.381  0.0285  1.9937  0.9178
 4355SOL     OW24526   4.675   1.269   8.008  0.4555 -0.2764 -0.2159
 4355SOL    HW124527   4.613   1.207   7.971  0.4275 -1.1543  1.2961
 4355SOL    HW224528   0.039   1.240   7.981  0.0686 -1.8245  0.2220
 4356SOL     OW24529   1.515   4.546   7.265 -0.1624  0.3289  0.0221
 4356SOL    HW124530   1.426   4.510   7.270  0.1358 -0.0464  2.6806
 4356SOL    HW224531   1.520   4.602   7.342 -2.5803  1.8448 -0.9208
 4357SOL     OW24532   0.798   3.006   1.451 -0.4828  0.4552 -0.1869
 4357SOL    HW124533   0.794   3.101   1.440  0.0379  0.1384 -3.1714
 4357SOL    HW224534   0.707   2.984   1.473  0.6998 -2.0130  2.2901
 4358SOL     OW24535   0.859   1.695  11.855 -0.4386 -0.0764  0.0097
 4358SOL    HW124536   0.822   1.682  11.942 -1.0249  0.0813 -0.2133
 4358SOL    HW224537   0.925   1.627  11.847  0.9102  1.4557 -1.7386
 4359SOL     OW24538   3.625   2.406   7.475 -0.4561 -0.3122 -0.2297
 4359SOL    HW124539   3.548   2.359   7.441 -0.0290 -0.6752 -0.6983
 4359SOL    HW224540   3.620   2.375   7.566  0.7411  0.9007  0.2396
 4360SOL     OW24541   2.586   1.325   4.779 -0.2465 -0.3494 -0.1495
 4360SOL    HW124542   2.617   1.342   4.690  0.5332 -3.8189 -0.5249
 4360SOL    HW224543   2.573   1.232   4.761 -0.8372 -0.1312 -0.8650
 4361SOL     OW24544   1.965   0.188   2.467  0.2185  0.3972  0.1284
 4361SOL    HW124545   1.895   0.150   2.521 -1.2190  2.6717 -0.1429
 4361SOL    HW224546   1.960   0.123   2.398 -0.3830  1.2493 -0.6262
 4362SOL     OW24547   2.210   2.991  14.440 -0.6092  0.3882  0.4710
 4362SOL    HW124548   2.195   3.039  14.359 -1.5676 -0.2994  0.2491
 4362SOL    HW224549   2.137   2.929  14.434 -1.3570  1.1285  1.9222
 4363SOL     OW24550   3.164   0.025   8.589  0.5045  0.7508  0.9071
 4363SOL    HW124551   3.115   4.721   8.666 -0.3298  2.9757  1.1599
 4363SOL    HW224552   3.117   4.698   8.523  2.7369  1.2213 -1.0829
 4364SOL     OW24553   0.128   0.189  10.132  0.2357 -0.0314 -0.0525
 4364SOL    HW124554   0.140   0.174  10.226 -0.6549 -2.2617 -0.2990
 4364SOL    HW224555   0.209   0.231  10.102  3.6329 -5.0265  2.1715
 4365SOL     OW24556   0.016   1.525   7.601  0.2744  0.1461  0.6736
 4365SOL    HW124557   0.076   1.482   7.663  1.3593 -0.2526 -0.6367
 4365SOL    HW224558   0.029   1.467   7.526  1.8991  1.9500 -0.4169
 4366SOL     OW24559   0.598   0.475   3.235  0.1838 -0.4606  0.0917
 4366SOL    HW124560   0.682   0.502   3.199  0.0502  1.8640  1.5164
 4366SOL    HW224561   0.628   0.481   3.326 -0.3730 -2.6164  0.4162
 4367SOL     OW24562   3.975   3.890   7.320 -0.1126 -0.2752 -0.1642
 4367SOL    HW124563   3.947   3.954   7.385 -0.0738 -0.7679  0.3308
 4367SOL    HW224564   4.007   3.823   7.380 -0.4759  0.8370  1.2456
 4368SOL     OW24565   1.626   0.879  10.250  0.6945 -0.7660 -0.0497
 4368SOL    HW124566   1.670   0.963  10.231 -0.2470 -0.1406  0.5451
 4368SOL    HW224567   1.564   0.887  10.178  2.1313 -0.3677 -1.2653
 4369SOL     OW24568   0.854   4.120   6.637  0.6384  0.1560 -0.2015
 4369SOL    HW124569   0.871   4.080   6.552 -0.9600  0.4837 -0.6792
 4369SOL    HW224570   0.931   4.085   6.681 -0.1543 -1.6987 -0.3179
 4370SOL     OW24571   2.644   1.840   8.459 -0.3290  0.0140 -0.2080
 4370SOL    HW124572   2.608   1.783   8.391 -0.2601 -1.1530  0.7305
 4370SOL    HW224573   2.588   1.914   8.437  1.3656  0.4830 -2.8970
 4371SOL     OW24574   4.097   4.424   7.955 -0.3955  0.3992 -0.0957
 4371SOL    HW124575   4.170   4.440   8.014  1.4522 -1.4188 -1.8785
 4371SOL    HW224576   4.112   4.491   7.889  2.2051 -0.5728 -0.5023
 4372SOL     OW24577   0.482   2.236   7.635 -0.0005 -0.0704  0.7903
 4372SOL    HW124578   0.441   2.283   7.707 -0.9517  0.8065 -0.3082
 4372SOL    HW224579   0.433   2.154   7.646  0.9718 -1.2115 -3.3767
 4373SOL     OW24580   4.242   0.883   2.188  0.5578 -0.0979  0.2831
 4373SOL    HW124581   4.175   0.856   2.252  0.3208 -4.0201 -1.6265
 4373SOL    HW224582   4.186   0.941   2.137  0.7972  0.4631  0.6558
 4374SOL     OW24583   1.366   3.406   1.303 -0.1833  0.8178  0.0416
 4374SOL    HW124584   1.363   3.333   1.241 -0.9637 -0.0495  1.1161
 4374SOL    HW224585   1.293   3.459   1.272  0.0960  0.9490 -0.3941
 4375SOL     OW24586   2.980   0.489   1.920  0.1116 -0.2930 -0.1523
 4375SOL    HW124587   2.895   0.479   1.964 -0.5550 -2.1588 -1.8626
 4375SOL    HW224588   2.957   0.534   1.839 -1.5712 -0.2500  0.3489
 4376SOL     OW24589   4.554   1.575   4.481 -0.0731  0.3026 -0.4469
 4376SOL    HW124590   4.526   1.578   4.390  0.6706  2.0470 -0.6056
 4376SOL    HW224591   4.559   1.481   4.499  0.8043  0.5109  0.4258
 4377SOL     OW24592   1.625   4.611   3.515 -0.5174 -0.3481 -0.3544
 4377SOL    HW124593   1.716   4.589   3.495 -0.3062 -1.0619  1.3905
 4377SOL    HW224594   1.635   4.694   3.562  0.5124 -1.2012  0.9171
 4378SOL     OW24595   3.888   2.559   4.090 -0.0487 -0.2098 -0.3506
 4378SOL    HW124596   3.934   2.501   4.030  1.2337  2.0209 -1.5164
 4378SOL    HW224597   3.958   2.624   4.100 -0.0603 -0.1695 -0.5293
 4379SOL     OW24598   0.311   4.627   4.051  0.2244  0.5521  0.3296
 4379SOL    HW124599   0.248   4.655   3.985 -0.2487  1.0020  0.9638
 4379SOL    HW224600   0.398   4.631   4.011 -0.6793  1.8060 -1.4665
 4380SOL     OW24601   2.735   3.656  16.244 -0.2348 -0.3609 -0.0869
 4380SOL    HW124602   2.679   3.689  16.175  1.3206 -0.1897 -1.2626
 4380SOL    HW224603   2.774   3.726  16.297  2.4897 -0.1678 -2.3883
 4381SOL     OW24604   2.492   4.707  15.234 -0.6607  0.0100  0.1574
 4381SOL    HW124605   2.419   0.044  15.245  0.4717  1.2785  0.7349
 4381SOL    HW224606   2.490   4.650  15.311 -3.1558 -1.7285 -1.2307
 4382SOL     OW24607   2.139   4.184  10.070  0.1565 -0.1839 -0.1655
 4382SOL    HW124608   2.145   4.279  10.070 -4.0019  0.0950  0.3245
 4382SOL    HW224609   2.047   4.177  10.098  0.0170  0.6794 -0.4266
 4383SOL     OW24610   2.233   1.963   7.704  0.2422 -0.6042  0.1935
 4383SOL    HW124611   2.306   1.961   7.642  0.4370  1.8529  0.3599
 4383SOL    HW224612   2.247   1.881   7.752 -2.0051 -1.3837 -0.4840
 4384SOL     OW24613   1.801   2.722  13.992  0.3079  0.1005  0.4657
 4384SOL    HW124614   1.882   2.671  13.996 -0.7452 -1.5663  0.5658
 4384SOL    HW224615   1.733   2.654  13.986 -0.5942  1.0140  0.2779
 4385SOL     OW24616   1.552   1.004   5.215  0.3574 -0.5366 -0.6067
 4385SOL    HW124617   1.572   0.972   5.303 -1.1964  0.4150  0.1088
 4385SOL    HW224618   1.628   1.060   5.200 -0.8192  1.7084  1.9660
 4386SOL     OW24619   2.052   0.017   3.072  0.0948  0.3649  0.2087
 4386SOL    HW124620   2.086   4.666   3.024 -1.0864 -1.1437  1.7367
 4386SOL    HW224621   1.961   0.004   3.043 -0.5098  1.8661  1.4087
 4387SOL     OW24622   2.752   2.428   1.786  0.2050 -0.4821  0.1647
 4387SOL    HW124623   2.673   2.407   1.737  0.3658 -2.4113  0.7276
 4387SOL    HW224624   2.807   2.475   1.723 -1.4153  1.2998  0.1056
 4388SOL     OW24625   3.543   3.052   5.256 -0.4856 -0.9086  0.0813
 4388SOL    HW124626   3.496   3.021   5.179  0.2005 -0.3384 -0.5692
 4388SOL    HW224627   3.542   2.980   5.319 -4.8685  0.0680  1.1379
 4389SOL     OW24628   0.759   0.547  16.288  0.0194 -0.0652  0.0731
 4389SOL    HW124629   0.822   0.476  16.301  0.7181  0.3659 -0.9216
 4389SOL    HW224630   0.811   0.627  16.295 -1.1987  0.5145  2.3423
 4390SOL     OW24631   0.766   3.084   3.836  0.2260  0.8695  0.3496
 4390SOL    HW124632   0.739   3.173   3.815  2.7038  1.3099 -1.0199
 4390SOL    HW224633   0.711   3.064   3.912 -2.5726  0.2917 -1.8465
 4391SOL     OW24634   1.207   4.465   2.640  0.0538  0.1152  0.6745
 4391SOL    HW124635   1.238   4.384   2.600 -1.0508  1.0575 -2.0745
 4391SOL    HW224636   1.280   4.525   2.628  1.2762 -1.8002 -1.5088
 4392SOL     OW24637   3.268   3.115   5.066  0.0770  0.1251 -0.0561
 4392SOL    HW124638   3.274   3.123   4.971  2.9473 -1.1291  0.0258
 4392SOL    HW224639   3.299   3.198   5.102  1.3192 -1.8739  3.5738
 4393SOL     OW24640   4.234   1.838  16.384 -0.2631  0.0741  0.6005
 4393SOL    HW124641   4.151   1.793  16.400  0.4693 -1.4511  0.0638
 4393SOL    HW224642   4.288   1.759  16.376 -0.1280  0.2341 -0.0613
 4394SOL     OW24643   1.545   3.340   5.548 -0.3336  0.0765 -0.0826
 4394SOL    HW124644   1.562   3.321   5.640  0.3901 -0.2372 -0.2791
 4394SOL    HW224645   1.457   3.373   5.565 -0.4129  0.5026 -1.3505
 4395SOL     OW24646   0.645   1.203   4.407  0.2818  0.1028  0.2395
 4395SOL    HW124647   0.634   1.184   4.501 -1.6964  0.2304  0.0239
 4395SOL    HW224648   0.711   1.272   4.417  0.0381  0.4147 -0.3339
 4396SOL     OW24649   3.247   1.259   8.090  0.8006 -0.1390 -0.3319
 4396SOL    HW124650   3.255   1.172   8.052  2.2418  0.4001 -1.2628
 4396SOL    HW224651   3.152   1.267   8.100  0.8847 -2.9408  2.6436
 4397SOL     OW24652   4.256   3.175  11.473 -0.1793 -0.0003 -0.0803
 4397SOL    HW124653   4.216   3.250  11.516 -0.0324  0.2704 -0.4128
 4397SOL    HW224654   4.196   3.169  11.399  0.4439  0.1567 -0.6053
 4398SOL     OW24655   0.227   0.518   7.990 -0.3029  0.1521  0.2751
 4398SOL    HW124656   0.178   0.517   8.072  2.4394 -1.2388  1.8861
 4398SOL    HW224657   0.314   0.494   8.022  0.0257 -0.8545 -1.3801
 4399SOL     OW24658   2.164   2.374  11.359  0.5202  0.0542 -0.0355
 4399SOL    HW124659   2.073   2.401  11.348 -0.0573 -1.7290  0.4897
 4399SOL    HW224660   2.150   2.327  11.441  3.5052 -0.8755 -0.0655
 4400SOL     OW24661   2.914   0.275   2.281  0.2052  0.1297  0.1255
 4400SOL    HW124662   2.904   0.318   2.196  4.0200  1.3539  0.2984
 4400SOL    HW224663   2.829   0.235   2.298 -0.5216  1.3482 -0.7338
 4401SOL     OW24664   2.919   0.011   6.935  0.0660  0.6581  0.0651
 4401SOL    HW124665   2.948   0.067   7.007 -0.2862  0.2082  0.5521
 4401SOL    HW224666   2.896   0.080   6.872 -1.2561  0.0198 -0.1480
 4402SOL     OW24667   0.469   3.456   3.634 -0.1507  0.2033 -0.2614
 4402SOL    HW124668   0.503   3.464   3.545  1.3321  0.7101  0.3501
 4402SOL    HW224669   0.386   3.504   3.625 -0.3609 -0.3206 -1.1182
 4403SOL     OW24670   2.161   2.824   3.718  0.5961  0.4966 -0.1869
 4403SOL    HW124671   2.171   2.879   3.796  1.1759 -1.5980  1.2237
 4403SOL    HW224672   2.232   2.761   3.730 -1.6732 -1.6952  1.8641
 4404SOL     OW24673   2.785   2.246   4.310 -0.6252  0.4157 -0.1240
 4404SOL    HW124674   2.875   2.236   4.278 -0.6771 -0.7264  0.1033
 4404SOL    HW224675   2.785   2.190   4.388 -0.1239 -0.0037 -0.4328
 4405SOL     OW24676   0.170   1.139   7.274 -0.3478 -0.2642 -0.3281
 4405SOL    HW124677   0.219   1.169   7.197  2.1410 -0.3516  1.2007
 4405SOL    HW224678   0.197   1.206   7.337 -0.0517 -0.6224 -0.0732
 4406SOL     OW24679   3.136   3.275   2.230  0.4564  0.1934  0.0044
 4406SOL    HW124680   3.067   3.211   2.213 -1.0025  0.9729  2.9633
 4406SOL    HW224681   3.207   3.243   2.175  0.9801  0.3016  0.6205
 4407SOL     OW24682   0.813   3.442   8.122 -0.3638 -0.0926  0.4047
 4407SOL    HW124683   0.730   3.486   8.140  0.3361  0.8412  1.3630
 4407SOL    HW224684   0.782   3.358   8.088 -0.4996 -0.1245  0.6102
 4408SOL     OW24685   0.693   4.457   4.105 -0.8117  0.5946  0.0283
 4408SOL    HW124686   0.671   4.455   4.198 -0.0473 -0.5058  0.1826
 4408SOL    HW224687   0.787   4.444   4.096 -1.0780 -2.1245  1.1489
 4409SOL     OW24688   3.140   1.570   3.341 -0.3363 -0.1657  0.5072
 4409SOL    HW124689   3.150   1.482   3.378 -0.4955 -0.7472 -0.8161
 4409SOL    HW224690   3.233   1.593   3.343 -0.4125  0.2476 -0.7376
 4410SOL     OW24691   2.720   4.554   8.570 -0.3168  0.1913 -0.0399
 4410SOL    HW124692   2.808   4.568   8.534 -1.0942  0.0613 -1.9687
 4410SOL    HW224693   2.730   4.495   8.645  2.6919  1.2463  0.3939
 4411SOL     OW24694   4.154   1.192   7.853  0.4416  0.0366 -0.2936
 4411SOL    HW124695   4.174   1.234   7.769 -1.0185  0.9708 -0.1884
 4411SOL    HW224696   4.188   1.106   7.830  1.1255  0.8606 -2.4228
 4412SOL     OW24697   2.994   3.908   3.454  0.0236 -0.6991  0.0223
 4412SOL    HW124698   2.948   3.835   3.412 -3.7086  0.4631  2.0500
 4412SOL    HW224699   3.066   3.863   3.498  1.9777  1.9982 -0.4321
 4413SOL     OW24700   2.559   4.207   7.096 -0.4692 -0.0434  0.2224
 4413SOL    HW124701   2.582   4.123   7.136 -1.2322  0.0362  0.8483
 4413SOL    HW224702   2.647   4.218   7.061 -0.2123 -0.1248  0.8390
 4414SOL     OW24703   4.582   4.311   2.353  0.1296  0.3753  0.2061
 4414SOL    HW124704   4.667   4.294   2.393  1.0023  1.2425 -1.2795
 4414SOL    HW224705   4.546   4.387   2.398 -4.5844 -0.9871 -1.2494
 4415SOL     OW24706   4.322   3.170  14.258 -0.6257  0.1337 -0.3828
 4415SOL    HW124707   4.238   3.133  14.285 -0.3144 -2.2953 -2.7121
 4415SOL    HW224708   4.299   3.263  14.257  3.2448  1.1112  1.1704
 4416SOL     OW24709   1.565   1.676  16.121 -0.2324 -0.5886  0.1613
 4416SOL    HW124710   1.598   1.733  16.191  0.5104  0.1429 -0.7976
 4416SOL    HW224711   1.559   1.732  16.044 -0.7464  1.2145  1.4957
 4417SOL     OW24712   2.722   3.317   1.456  0.1613  0.3710  0.2805
 4417SOL    HW124713   2.794   3.269   1.414 -0.7719  2.1097 -3.3018
 4417SOL    HW224714   2.748   3.404   1.426 -1.5780  0.8320  0.1591
 4418SOL     OW24715   3.596   4.513   3.114 -0.3278 -0.0909  0.7344
 4418SOL    HW124716   3.599   4.420   3.094 -2.9511 -0.4420  2.0835
 4418SOL    HW224717   3.571   4.554   3.031  3.7054  0.1917 -0.3747
 4419SOL     OW24718   4.012   2.867   2.252  0.9047 -0.7610  0.0990
 4419SOL    HW124719   3.997   2.955   2.217  0.1827 -0.7146  0.5419
 4419SOL    HW224720   4.101   2.875   2.285  1.2828  0.9674 -1.2851
 4420SOL     OW24721   2.787   2.045   5.584  0.1985  0.3429 -0.1029
 4420SOL    HW124722   2.720   1.984   5.553  0.5554 -1.1228  2.0117
 4420SOL    HW224723   2.749   2.054   5.671 -0.8385  0.1356 -0.5355
 4421SOL     OW24724   3.698   0.096  15.827  0.1414 -0.3954  0.0853
 4421SOL    HW124725   3.687   0.092  15.732  0.4356  0.5753  0.0054
 4421SOL    HW224726   3.628   0.158  15.848 -1.5737 -1.9340 -1.1608
 4422SOL     OW24727   2.041   0.135   8.449 -0.0260 -0.3801 -0.0521
 4422SOL    HW124728   2.016   0.056   8.496 -1.0319 -0.2220 -0.3277
 4422SOL    HW224729   2.127   0.144   8.490 -0.7221  1.4735  1.0014
 4423SOL     OW24730   3.150   4.700  10.950  0.0769  0.0447  0.2410
 4423SOL    HW124731   3.170   4.639  11.022  0.1263  1.4367  1.3979
 4423SOL    HW224732   3.088   0.040  10.984 -1.7015  0.3675 -3.6415
 4424SOL     OW24733   0.426   4.481   5.149 -0.1555  0.3656  0.0493
 4424SOL    HW124734   0.348   4.510   5.197 -0.8304  1.3263 -1.6224
 4424SOL    HW224735   0.492   4.490   5.218  0.4937  0.9533 -0.6598
 4425SOL     OW24736   0.517   3.204   1.131  0.6612 -0.4355  1.0682
 4425SOL    HW124737   0.436   3.189   1.081 -0.0201  1.1402  1.7277
 4425SOL    HW224738   0.575   3.194   1.055 -0.2705 -0.6684  0.3799
 4426SOL     OW24739   2.814   4.220   7.068 -0.7301 -0.0812 -0.2174
 4426SOL    HW124740   2.878   4.288   7.088 -0.3138 -0.7947  0.8502
 4426SOL    HW224741   2.875   4.148   7.056 -3.3458 -2.1344 -1.2230
 4427SOL     OW24742   0.328   2.303   6.095 -0.0269  0.1357  0.1106
 4427SOL    HW124743   0.334   2.295   6.000  1.3577  0.3235  0.1808
 4427SOL    HW224744   0.247   2.354   6.105  0.4406  1.0531 -0.7688
 4428SOL     OW24745   0.107   3.829   1.376 -0.4220  0.2416 -0.5990
 4428SOL    HW124746   0.086   3.913   1.336  3.3562  0.9362 -1.1756
 4428SOL    HW224747   0.193   3.829   1.419 -0.0480  1.7969 -1.3831
 4429SOL     OW24748   1.850   0.816   3.658  0.1801  0.2006 -0.2323
 4429SOL    HW124749   1.866   0.873   3.583 -2.6790  0.1756 -0.8566
 4429SOL    HW224750   1.812   0.873   3.725 -0.2113 -0.1628 -0.1495
 4430SOL     OW24751   1.905   0.321   2.782 -0.4359  0.7615  0.4039
 4430SOL    HW124752   1.984   0.318   2.836 -0.1803 -0.9859 -0.0808
 4430SOL    HW224753   1.952   0.337   2.700 -1.6436  1.4095 -0.1576
 4431SOL     OW24754   0.932   0.747   4.896 -0.0048 -0.1067 -0.1536
 4431SOL    HW124755   0.922   0.672   4.837  3.2923  1.0758 -2.2223
 4431SOL    HW224756   1.023   0.735   4.923  0.5303 -0.0226 -1.9086
 4432SOL     OW24757   3.080   4.016  13.901  0.4291  0.2075  0.3105
 4432SOL    HW124758   3.031   3.996  13.821 -0.3882  1.3578  0.5168
 4432SOL    HW224759   3.143   4.081  13.870  0.3511 -0.1083 -0.5010
 4433SOL     OW24760   2.643   0.833   6.327 -0.0559 -0.3780 -0.0943
 4433SOL    HW124761   2.559   0.787   6.322 -0.2687 -0.2524  2.3486
 4433SOL    HW224762   2.643   0.889   6.249 -0.4095  0.9463  0.8555
 4434SOL     OW24763   0.219   3.403   9.852  0.2906  0.0309 -0.1042
 4434SOL    HW124764   0.194   3.409   9.760  1.7026  1.3281 -0.3885
 4434SOL    HW224765   0.148   3.450   9.895  0.1939 -0.1395 -0.0735
 4435SOL     OW24766   2.998   3.829  10.675  0.7879 -0.1784 -0.4379
 4435SOL    HW124767   3.025   3.745  10.711 -0.8732 -0.3936  0.2908
 4435SOL    HW224768   3.086   3.865  10.663  0.4162  0.6488 -0.7078
 4436SOL     OW24769   3.153   4.415   2.512  0.6462 -0.1583  0.0164
 4436SOL    HW124770   3.203   4.476   2.457  1.0091 -0.1739  0.3328
 4436SOL    HW224771   3.171   4.453   2.598 -0.8103 -0.8057  0.5987
 4437SOL     OW24772   2.652   3.930   7.615 -0.1762  0.3247  0.0267
 4437SOL    HW124773   2.705   3.857   7.646  1.8960  2.2243  0.8917
 4437SOL    HW224774   2.707   4.005   7.636  1.0165  0.4818 -3.5568
 4438SOL     OW24775   2.648   3.908  10.258  0.4393  0.5256  0.2974
 4438SOL    HW124776   2.703   3.844  10.303  0.2869  1.1398  1.3706
 4438SOL    HW224777   2.697   3.914  10.176 -0.8281  0.5846 -0.4516
 4439SOL     OW24778   2.583   0.704   4.957 -0.0523  0.2889  0.5830
 4439SOL    HW124779   2.611   0.629   4.906  0.2913  0.2109  0.8898
 4439SOL    HW224780   2.560   0.662   5.040  0.4410 -2.5257 -0.7192
 4440SOL     OW24781   3.214   1.034   9.692 -0.0865  0.2633  0.0597
 4440SOL    HW124782   3.185   1.101   9.753 -2.3498  1.7944 -2.6704
 4440SOL    HW224783   3.171   0.956   9.727  0.2042  0.2389  0.3522
 4441SOL     OW24784   1.246   1.866   0.313  0.0649  0.2438  0.0983
 4441SOL    HW124785   1.196   1.794   0.275  0.1591 -0.5552  1.4829
 4441SOL    HW224786   1.318   1.818   0.356  0.5573  0.6126 -0.3174
 4442SOL     OW24787   3.481   4.690   4.184  0.0991 -0.5902 -0.4333
 4442SOL    HW124788   3.517   4.699   4.095  1.1430  0.7481  0.1340
 4442SOL    HW224789   3.389   4.682   4.156  0.4054  1.6542 -2.0721
 4443SOL     OW24790   3.676   0.387   7.689  0.5211  0.4700 -0.0888
 4443SOL    HW124791   3.606   0.325   7.668  1.6736 -1.2108  0.9978
 4443SOL    HW224792   3.749   0.330   7.712 -0.2962 -0.9614 -1.0269
 4444SOL     OW24793   3.764   0.411   3.534  0.3902 -0.2527  0.1466
 4444SOL    HW124794   3.749   0.377   3.446 -0.2057  0.4105 -0.0086
 4444SOL    HW224795   3.855   0.388   3.553  0.8560  4.3713  3.4554
 4445SOL     OW24796   3.893   4.663   5.760  0.2715 -0.4160 -0.2361
 4445SOL    HW124797   3.955   4.590   5.762 -0.9841 -1.5946 -3.6135
 4445SOL    HW224798   3.838   4.655   5.837  1.3648 -0.2063  0.5694
 4446SOL     OW24799   2.488   4.424   4.022  0.0689  0.0319  0.1822
 4446SOL    HW124800   2.541   4.494   4.061  0.1208 -0.5219  1.1004
 4446SOL    HW224801   2.547   4.349   4.030 -3.1464 -2.3905  1.2298
 4447SOL     OW24802   2.752   3.622  15.906  0.6773  0.2598 -0.1618
 4447SOL    HW124803   2.742   3.687  15.836  1.2697 -0.1478 -0.6260
 4447SOL    HW224804   2.826   3.663  15.950  1.5104 -1.1972 -0.2251
 4448SOL     OW24805   2.891   3.352   7.362  0.5908 -0.2882  0.1801
 4448SOL    HW124806   2.813   3.341   7.415  0.3503 -1.2551 -0.3801
 4448SOL    HW224807   2.933   3.424   7.409  0.8921  0.6258 -1.4715
 4449SOL     OW24808   2.462   2.878   4.048  0.1587 -0.2284  0.4755
 4449SOL    HW124809   2.487   2.792   4.013 -0.2869 -0.0947 -0.1651
 4449SOL    HW224810   2.386   2.898   3.994  0.2636 -2.7896 -0.6337
 4450SOL     OW24811   0.862   3.070  12.375  0.0590  0.3175  0.2094
 4450SOL    HW124812   0.779   3.028  12.397  1.3818 -2.2199  0.3196
 4450SOL    HW224813   0.924   2.997  12.383 -0.9772 -0.6206 -0.3180
 4451SOL     OW24814   2.142   0.797   3.724 -0.3013  0.2678 -0.3475
 4451SOL    HW124815   2.169   0.785   3.815  0.2958  0.1106 -0.5461
 4451SOL    HW224816   2.052   0.828   3.730 -0.2588 -0.3047  3.2170
 4452SOL     OW24817   2.316   0.313   4.411  0.0253  0.0334  0.1523
 4452SOL    HW124818   2.373   0.335   4.338 -2.0855 -0.4358 -1.6533
 4452SOL    HW224819   2.373   0.287   4.483  0.3440 -0.9052 -0.4394
 4453SOL     OW24820   0.721   4.163   1.923 -0.2285  0.1182  0.5929
 4453SOL    HW124821   0.792   4.128   1.978  1.6663 -0.8069 -2.4447
 4453SOL    HW224822   0.707   4.240   1.980 -4.5348 -0.4758  0.2713
 4454SOL     OW24823   2.605   3.953   6.066 -0.0333  0.4355 -0.0885
 4454SOL    HW124824   2.612   3.869   6.110  2.2095  0.4259 -0.4494
 4454SOL    HW224825   2.694   3.986   6.077 -0.4248  1.8113 -1.0630
 4455SOL     OW24826   0.664   1.463   7.641 -0.2561 -0.1748  0.7212
 4455SOL    HW124827   0.608   1.399   7.685 -0.2139 -0.1141  0.8620
 4455SOL    HW224828   0.680   1.536   7.702 -1.0228  1.1866 -0.6999
 4456SOL     OW24829   3.411   3.085   3.930  0.2534  0.6587  0.2201
 4456SOL    HW124830   3.383   3.010   3.878 -2.4341  0.2305  2.3157
 4456SOL    HW224831   3.455   3.051   4.009 -1.7892 -4.0305 -0.6721
 4457SOL     OW24832   1.525   1.844   5.987 -0.1961 -0.2925 -0.5093
 4457SOL    HW124833   1.583   1.919   5.982  0.9986 -1.2761 -1.4077
 4457SOL    HW224834   1.459   1.877   5.926  0.1683  0.6476 -0.3851
 4458SOL     OW24835   2.016   4.080   9.481  0.0784  0.3521  0.0458
 4458SOL    HW124836   2.094   4.086   9.536 -1.1895  0.1701  1.8524
 4458SOL    HW224837   2.015   4.163   9.433 -0.5765  1.4772  2.0011
 4459SOL     OW24838   2.662   2.342  13.879  0.6197  0.1928  0.2805
 4459SOL    HW124839   2.638   2.360  13.970 -1.2317  0.1209 -0.1994
 4459SOL    HW224840   2.658   2.433  13.850 -0.0520 -0.0411 -0.3420
 4460SOL     OW24841   2.749   2.859   8.731 -0.0269 -0.0806 -0.4359
 4460SOL    HW124842   2.762   2.813   8.814 -0.7380 -0.7917 -0.7251
 4460SOL    HW224843   2.823   2.920   8.732  0.4961 -0.7066 -0.7649
 4461SOL     OW24844   4.380   0.456   4.192  0.1670  0.2712 -0.1650
 4461SOL    HW124845   4.374   0.387   4.258  0.1915  1.4080  1.0333
 4461SOL    HW224846   4.288   0.468   4.170 -0.3602 -1.1761  1.2204
 4462SOL     OW24847   3.401   4.222  16.537  0.3219 -0.2150 -0.3966
 4462SOL    HW124848   3.474   4.284  16.534 -0.5206  0.8850  1.7016
 4462SOL    HW224849   3.334   4.268  16.588 -0.0047  0.9745 -1.9289
 4463SOL     OW24850   1.340   2.581  14.238 -0.4725  0.9656  0.4786
 4463SOL    HW124851   1.298   2.520  14.177 -0.7831  2.5713 -0.9465
 4463SOL    HW224852   1.310   2.544  14.321  0.8055 -0.2130  0.4041
 4464SOL     OW24853   3.794   3.052  16.339  0.1269 -0.2499  0.2419
 4464SOL    HW124854   3.864   3.109  16.371  1.4371 -0.5798 -2.0605
 4464SOL    HW224855   3.778   2.993  16.413  1.3729 -1.2285 -0.2678
 4465SOL     OW24856   1.006   1.379  12.712 -0.1370  0.3075  0.4422
 4465SOL    HW124857   0.930   1.387  12.655 -0.8149  0.7782  1.4170
 4465SOL    HW224858   1.019   1.284  12.715 -1.4306  0.1300  0.1580
 4466SOL     OW24859   0.483   1.794   7.559  0.7608 -0.4002 -0.0695
 4466SOL    HW124860   0.562   1.842   7.535  0.1101 -0.7535 -2.9221
 4466SOL    HW224861   0.511   1.775   7.649  1.9918  0.0656 -0.3515
 4467SOL     OW24862   2.875   2.546   3.095  0.2285 -0.4707 -0.1158
 4467SOL    HW124863   2.941   2.501   3.148  0.2008 -2.5319 -1.8367
 4467SOL    HW224864   2.832   2.604   3.158  3.5218  1.6403  0.1962
 4468SOL     OW24865   4.165   1.181   5.316 -0.0676 -0.3698 -0.8482
 4468SOL    HW124866   4.195   1.263   5.357  1.0231  1.2430 -4.8015
 4468SOL    HW224867   4.082   1.153   5.354  0.5770 -0.4309  0.5117
 4469SOL     OW24868   0.331   2.991   1.976 -0.7381 -0.3334 -0.0361
 4469SOL    HW124869   0.291   3.067   2.017 -1.8701 -0.5644 -0.6961
 4469SOL    HW224870   0.252   2.948   1.943 -1.3796  0.3333  0.6298
 4470SOL     OW24871   2.540   2.889   5.369  0.0783  0.5506  0.2045
 4470SOL    HW124872   2.605   2.895   5.298  1.6193 -0.3342  1.5207
 4470SOL    HW224873   2.537   2.979   5.402 -0.4559  0.5669  0.1074
 4471SOL     OW24874   1.266   2.680   5.643 -0.6741  0.0305  0.0691
 4471SOL    HW124875   1.332   2.740   5.608 -0.7137  0.3867  0.5996
 4471SOL    HW224876   1.248   2.626   5.566 -2.0437  2.3632 -1.2541
 4472SOL     OW24877   0.096   4.647  12.950 -0.5846 -0.3214 -0.0742
 4472SOL    HW124878   0.100   4.671  12.857 -0.6776  2.9040  0.7694
 4472SOL    HW224879   0.126   0.002  12.995 -2.3953  0.8290 -0.8941
 4473SOL     OW24880   0.652   1.935   6.337 -0.3008 -0.6112 -0.1722
 4473SOL    HW124881   0.582   1.980   6.385  0.3085  0.0014  0.1553
 4473SOL    HW224882   0.602   1.907   6.261 -0.9054 -0.7442  0.2713
 4474SOL     OW24883   0.406   2.320   7.916  0.1753 -0.0972 -0.8567
 4474SOL    HW124884   0.486   2.366   7.891  0.5278 -0.4490 -0.3942
 4474SOL    HW224885   0.439   2.250   7.973 -0.8985  0.1426  0.0634
 4475SOL     OW24886   4.661   0.836  17.399  0.2183 -0.0165  0.1836
 4475SOL    HW124887   4.700   0.917  17.367 -1.5248  1.2380  1.1814
 4475SOL    HW224888   4.668   0.771  17.329 -0.4034  0.8088 -0.6541
 4476SOL     OW24889   0.161   1.062  14.354 -0.0056  0.4908 -0.0662
 4476SOL    HW124890   0.131   1.115  14.280 -0.7950 -0.5092 -0.4660
 4476SOL    HW224891   0.104   0.986  14.352  0.0029  0.6102 -3.9371
 4477SOL     OW24892   0.050   4.143  11.592 -0.0392 -0.3789  0.6968
 4477SOL    HW124893   0.004   4.083  11.534  0.6766  0.6673 -0.9798
 4477SOL    HW224894   0.024   4.227  11.555  0.3046  0.2391  1.8582
 4478SOL     OW24895   3.834   4.629   7.903  0.7730 -0.6716  0.1701
 4478SOL    HW124896   3.914   4.582   7.878  0.6237 -1.0852  0.4671
 4478SOL    HW224897   3.818   4.688   7.829 -2.1796 -0.3108  1.0754
 4479SOL     OW24898   3.501   1.185   2.674  0.1362  0.2197  0.1139
 4479SOL    HW124899   3.435   1.204   2.741  2.1845 -0.0627  2.2085
 4479SOL    HW224900   3.445   1.142   2.610 -1.4767  2.6988 -0.1300
 4480SOL     OW24901   3.744   4.235   6.500 -0.4881 -0.3322  0.0279
 4480SOL    HW124902   3.710   4.155   6.539  0.2613 -0.8044 -0.2715
 4480SOL    HW224903   3.782   4.279   6.576  2.3173  0.6736 -1.9590
 4481SOL     OW24904   4.149   1.173  13.104 -0.4704 -0.2328  0.0938
 4481SOL    HW124905   4.113   1.091  13.136 -1.8624  0.0006 -0.8661
 4481SOL    HW224906   4.228   1.139  13.062 -0.4067 -1.1462  0.9672
 4482SOL     OW24907   1.451   4.204  14.521 -0.2266  0.1835  0.3693
 4482SOL    HW124908   1.358   4.222  14.511  0.2443  2.2538 -0.3567
 4482SOL    HW224909   1.463   4.245  14.606 -0.9274 -1.5276  1.2929
 4483SOL     OW24910   0.096   2.906   1.872 -0.0730 -0.4796  0.6176
 4483SOL    HW124911   0.036   2.968   1.913 -0.6793 -0.8008  0.2072
 4483SOL    HW224912   0.038   2.870   1.805 -1.0529  1.3544  0.4795
 4484SOL     OW24913   4.689   1.139   3.681  0.5801 -0.5691 -0.3341
 4484SOL    HW124914   4.642   1.065   3.720 -1.1680  0.2329 -0.9116
 4484SOL    HW224915   4.617   1.184   3.636  1.3084  2.0164  1.1085
 4485SOL     OW24916   1.090   4.465   2.031 -0.8090 -0.4266  0.1488
 4485SOL    HW124917   1.161   4.503   1.978  1.5052 -1.6427  2.3733
 4485SOL    HW224918   1.028   4.425   1.971 -2.3466  2.2189 -0.0117
 4486SOL     OW24919   1.522   3.252  11.523  0.1903 -0.4720  0.0266
 4486SOL    HW124920   1.491   3.207  11.444 -0.1866 -2.3522  1.2429
 4486SOL    HW224921   1.487   3.339  11.504  1.7726  0.0292 -0.5733
 4487SOL     OW24922   4.057   2.558   0.705  0.2875 -0.2719 -0.2588
 4487SOL    HW124923   4.020   2.480   0.665  0.8393 -1.1125  0.8548
 4487SOL    HW224924   3.981   2.582   0.759 -0.1890 -4.6774  0.9870
 4488SOL     OW24925   2.076   4.385   4.394 -0.3195 -0.4907 -0.0721
 4488SOL    HW124926   1.985   4.357   4.385 -0.1869 -0.9595  0.0732
 4488SOL    HW224927   2.109   4.392   4.304 -2.3134  0.6610 -0.7297
 4489SOL     OW24928   1.681   4.229   3.407 -0.1551  0.1193  0.3233
 4489SOL    HW124929   1.709   4.139   3.391  0.0056  0.1755  0.2881
 4489SOL    HW224930   1.588   4.211   3.421  0.3675 -2.2217  0.8401
 4490SOL     OW24931   2.496   1.238  11.346  0.1418 -0.0198 -0.6020
 4490SOL    HW124932   2.456   1.315  11.387 -2.1172 -0.9013 -1.1534
 4490SOL    HW224933   2.548   1.206  11.419 -1.3259  0.5627  0.7094
 4491SOL     OW24934   4.498   4.499   3.776  0.4514  0.0304 -0.0816
 4491SOL    HW124935   4.503   4.582   3.728 -0.5913 -0.9325 -1.8070
 4491SOL    HW224936   4.430   4.521   3.839  0.4677 -1.3653  0.4060
 4492SOL     OW24937   1.769   4.711  11.433 -0.0746 -0.3441 -0.0147
 4492SOL    HW124938   1.709   4.708  11.358  1.3147  1.3095 -1.1700
 4492SOL    HW224939   1.708   4.682  11.501  1.7431  0.3418  1.9082
 4493SOL     OW24940   3.297   2.962   9.202 -0.0634 -0.4555 -0.0776
 4493SOL    HW124941   3.386   2.995   9.212  0.5042 -1.7072 -0.9857
 4493SOL    HW224942   3.240   3.039   9.192  0.8776  0.3648  0.8519
 4494SOL     OW24943   0.939   0.537  10.215 -0.0523 -0.6742  0.3963
 4494SOL    HW124944   0.920   0.480  10.141 -1.9466  0.9260 -0.3655
 4494SOL    HW224945   1.021   0.494  10.238 -0.0512 -0.8476  0.0620
 4495SOL     OW24946   3.961   0.788   4.063 -0.6862 -0.3278  0.2048
 4495SOL    HW124947   3.988   0.876   4.035 -0.6706 -0.0930  0.9526
 4495SOL    HW224948   3.983   0.733   3.988  1.8903 -1.3865  1.7462
 4496SOL     OW24949   2.864   4.065   6.350  0.3324  0.6054  0.1198
 4496SOL    HW124950   2.783   4.116   6.350  1.2562  2.0980  1.5155
 4496SOL    HW224951   2.818   3.988   6.382  0.3678  0.5094 -0.0622
 4497SOL     OW24952   4.232   4.681  14.730  0.5998 -0.4065  0.1211
 4497SOL    HW124953   4.199   4.625  14.660  0.3006  0.7706 -0.6786
 4497SOL    HW224954   4.220   4.623  14.805 -0.9584  0.5133  0.5978
 4498SOL     OW24955   0.846   0.619   5.260  0.2216 -0.6547 -0.0017
 4498SOL    HW124956   0.767   0.565   5.254 -1.1351  0.9955  2.6316
 4498SOL    HW224957   0.807   0.701   5.230  1.8113 -0.1565 -0.6819
 4499SOL     OW24958   2.591   4.074  11.723 -0.1409 -0.0240 -0.7067
 4499SOL    HW124959   2.509   4.052  11.679 -0.5923  0.9717 -0.3585
 4499SOL    HW224960   2.652   4.061  11.649  1.3031 -0.5304  0.5794
 4500SOL     OW24961   2.280   1.721  10.679  0.2757  0.1183  0.2020
 4500SOL    HW124962   2.340   1.760  10.616  0.6114 -2.9219 -1.3654
 4500SOL    HW224963   2.307   1.777  10.752  0.9684 -0.7665  0.6121
 4501SOL     OW24964   0.118   2.585  16.287  0.1239 -0.4865  0.1588
 4501SOL    HW124965   0.070   2.639  16.224  0.9550  1.9203  1.5674
 4501SOL    HW224966   0.074   2.607  16.369 -1.6420  0.0291 -0.9223
 4502SOL     OW24967   2.790   4.155  16.461  0.4969  0.4979  0.4701
 4502SOL    HW124968   2.843   4.234  16.469  1.5683 -0.1713 -0.0747
 4502SOL    HW224969   2.784   4.129  16.553  1.0306  0.8271  0.5974
 4503SOL     OW24970   2.362   2.654   5.726  0.0060  0.1134 -0.1893
 4503SOL    HW124971   2.299   2.699   5.669  0.4434  1.3432  0.3084
 4503SOL    HW224972   2.438   2.674   5.672 -0.3538 -0.5005 -0.9386
 4504SOL     OW24973   2.414   1.885   5.824  0.2739 -0.2139 -0.0506
 4504SOL    HW124974   2.355   1.883   5.748  0.2682 -0.0494 -0.0492
 4504SOL    HW224975   2.389   1.808   5.875  0.0866 -0.4101 -0.4381
 4505SOL     OW24976   0.700   0.433   4.087  0.1106 -0.6139 -0.1073
 4505SOL    HW124977   0.779   0.436   4.141 -0.5610  2.2646  0.7160
 4505SOL    HW224978   0.663   0.355   4.129 -1.7596 -0.6974 -1.8871
 4506SOL     OW24979   0.059   3.641   5.389  0.0980  0.0002 -0.7401
 4506SOL    HW124980   0.054   3.736   5.379  0.3920  0.2612  1.5834
 4506SOL    HW224981   0.144   3.634   5.432 -1.0798 -1.4042  1.3406
 4507SOL     OW24982   2.698   0.312   4.446 -0.0970  0.3711 -0.0493
 4507SOL    HW124983   2.705   0.375   4.374 -0.2216  1.3162  0.7612
 4507SOL    HW224984   2.781   0.265   4.451 -0.5216 -0.2810  1.1084
 4508SOL     OW24985   2.428   4.689   6.342  0.0426 -0.9512  0.5032
 4508SOL    HW124986   2.386   4.709   6.426 -1.4758 -3.3096  0.3175
 4508SOL    HW224987   2.351   4.694   6.285  2.3139  0.2054 -2.4607
 4509SOL     OW24988   2.679   1.288  10.449  0.2129  0.5429  0.3065
 4509SOL    HW124989   2.620   1.214  10.433  2.3599 -0.4952 -2.7628
 4509SOL    HW224990   2.621   1.352  10.407  0.7182 -0.0102 -1.2542
 4510SOL     OW24991   3.293   2.083   6.170 -0.0909  0.5941 -0.0281
 4510SOL    HW124992   3.338   2.151   6.121  2.6297 -1.2570 -0.1480
 4510SOL    HW224993   3.199   2.097   6.160 -0.3404 -1.0588 -0.1443
 4511SOL     OW24994   3.178   0.984   7.895  0.3409  0.0462  0.4181
 4511SOL    HW124995   3.107   0.982   7.958  0.1189  0.8121  0.1946
 4511SOL    HW224996   3.181   0.895   7.860 -1.8869  1.2965 -2.9551
 4512SOL     OW24997   4.055   2.229   1.925  0.3400  0.5212 -0.3283
 4512SOL    HW124998   3.986   2.257   1.986  0.9130 -0.0102  0.5628
 4512SOL    HW224999   4.108   2.305   1.951  0.7072  0.6355 -1.4416
 4513SOL     OW25000   0.084   1.161  14.116 -0.1723 -0.2655 -0.0615
 4513SOL    HW125001   4.713   1.153  14.115 -0.1372 -0.2761 -2.2340
 4513SOL    HW225002   0.103   1.248  14.081  0.8022 -0.1642  0.6999
 4514SOL     OW25003   4.515   2.815   9.148 -0.3536  0.6962  0.1852
 4514SOL    HW125004   4.581   2.746   9.145 -0.1154  0.9632 -0.7995
 4514SOL    HW225005   4.540   2.879   9.215  1.0469 -0.3868  0.6891
 4515SOL     OW25006   3.679   3.260   8.942 -0.0844  0.0462 -0.0419
 4515SOL    HW125007   3.633   3.342   8.961 -0.1552  0.0770 -0.3439
 4515SOL    HW225008   3.753   3.272   9.001 -0.1822  0.5205 -0.0105
 4516SOL     OW25009   4.427   2.978   8.665 -0.4164  0.1295  0.5442
 4516SOL    HW125010   4.335   2.987   8.687 -0.1663 -0.8978  1.9427
 4516SOL    HW225011   4.458   2.915   8.730 -2.5937 -0.2366  1.2094
 4517SOL     OW25012   0.049   4.332   8.016 -0.1409  0.9445 -0.0468
 4517SOL    HW125013   0.099   4.403   8.057 -0.1913 -0.3234  2.1910
 4517SOL    HW225014   0.009   4.380   7.943  1.5863  3.3930  0.5933
 4518SOL     OW25015   2.295   0.632   2.612 -0.0145 -0.0013  0.0288
 4518SOL    HW125016   2.313   0.616   2.704 -0.5042  1.0178  0.3029
 4518SOL    HW225017   2.199   0.636   2.614 -0.0184  0.1824 -0.4935
 4519SOL     OW25018   2.095   1.311   1.944  0.2914 -0.2712  0.1522
 4519SOL    HW125019   2.052   1.346   2.022  2.0722 -3.4644  2.5346
 4519SOL    HW225020   2.022   1.321   1.883 -0.2650  1.3880  1.0852
 4520SOL     OW25021   1.666   1.534   7.582 -0.4669  0.5866 -0.3789
 4520SOL    HW125022   1.602   1.591   7.539 -1.1106  0.1510 -0.0055
 4520SOL    HW225023   1.738   1.537   7.519 -0.8039  2.0850 -0.6945
 4521SOL     OW25024   1.502   1.871   4.185 -0.0878 -0.1611 -0.5694
 4521SOL    HW125025   1.516   1.864   4.090 -1.0482  0.8228 -0.7779
 4521SOL    HW225026   1.444   1.947   4.191 -0.4282 -0.3700 -1.1576
 4522SOL     OW25027   0.531   1.344   3.359  0.5015 -0.4848  0.1127
 4522SOL    HW125028   0.528   1.255   3.396 -0.1463  0.3985  2.1860
 4522SOL    HW225029   0.454   1.340   3.302 -0.7491 -0.1212  1.7504
 4523SOL     OW25030   3.880   4.470  13.497 -0.1783  1.0290  0.3291
 4523SOL    HW125031   3.891   4.542  13.435 -0.8976 -0.9586 -2.0914
 4523SOL    HW225032   3.826   4.504  13.568 -0.2666  1.0366  0.2584
 4524SOL     OW25033   4.561   4.226   3.793  0.7493 -0.1664  0.3484
 4524SOL    HW125034   4.609   4.178   3.726 -2.4723  1.2009 -2.9390
 4524SOL    HW225035   4.558   4.315   3.759 -0.0008  0.0872  1.0759
 4525SOL     OW25036   0.244   4.507   5.569 -0.7034  0.5462 -0.4351
 4525SOL    HW125037   0.224   4.430   5.517  0.3647  0.6944 -1.0541
 4525SOL    HW225038   0.280   4.559   5.497 -2.6970  0.0129 -1.8448
 4526SOL     OW25039   3.471   2.322   1.342  0.5093  0.4658 -0.2829
 4526SOL    HW125040   3.528   2.352   1.412  0.1599 -0.2592  0.3180
 4526SOL    HW225041   3.408   2.394   1.352 -1.1303 -0.9636 -0.2009
 4527SOL     OW25042   1.420   4.086   8.332  1.0422  0.4642  0.2796
 4527SOL    HW125043   1.349   4.088   8.397 -0.6804 -3.0624 -1.5315
 4527SOL    HW225044   1.486   4.136   8.381  1.1160  0.1488  0.5052
 4528SOL     OW25045   3.599   1.794  15.848 -0.1496 -0.1585 -0.1784
 4528SOL    HW125046   3.684   1.751  15.855  0.6621  1.4813  0.2486
 4528SOL    HW225047   3.557   1.743  15.779  0.0543  0.1305 -0.5184
 4529SOL     OW25048   1.423   4.082   4.898 -0.0320  0.6167 -0.2417
 4529SOL    HW125049   1.434   4.151   4.963  0.9457  1.5278 -1.3726
 4529SOL    HW225050   1.366   4.024   4.949  3.2394 -0.9707  1.6219
 4530SOL     OW25051   4.666   0.441  16.834  0.7529  0.3091  0.3104
 4530SOL    HW125052   4.662   0.495  16.755 -1.4944  0.3982  0.5014
 4530SOL    HW225053   4.649   0.511  16.896  1.5774  1.7699 -1.1062
 4531SOL     OW25054   1.751   3.524  16.385 -0.2574 -0.3499 -0.0095
 4531SOL    HW125055   1.698   3.555  16.311  2.0155  1.0473 -1.0492
 4531SOL    HW225056   1.678   3.539  16.446 -1.0984 -0.7473 -0.9159
 4532SOL     OW25057   0.771   1.702   4.183  0.3169 -0.1853  0.6973
 4532SOL    HW125058   0.852   1.685   4.231  0.2085 -0.8653  0.6493
 4532SOL    HW225059   0.765   1.622   4.131  1.0000  0.1974  0.0502
 4533SOL     OW25060   3.011   4.105  10.214 -0.0862 -0.1432  0.0083
 4533SOL    HW125061   3.071   4.156  10.160 -0.7591 -0.1054 -0.6973
 4533SOL    HW225062   2.995   4.025  10.163  2.8176  1.8946 -4.0817
 4534SOL     OW25063   3.634   1.435   2.922 -0.1966 -0.5492  0.4172
 4534SOL    HW125064   3.699   1.439   2.853  1.0966  1.7569  1.7809
 4534SOL    HW225065   3.570   1.369   2.893  1.6713 -1.3955 -1.7438
 4535SOL     OW25066   3.627   3.784   7.232  0.1555  0.0205  0.2118
 4535SOL    HW125067   3.621   3.877   7.256 -1.7476  0.0003 -0.1886
 4535SOL    HW225068   3.534   3.763   7.233  0.1658 -0.0059  0.4251
 4536SOL     OW25069   1.683   1.876   6.732  0.1914  0.0537 -0.0469
 4536SOL    HW125070   1.639   1.952   6.695  1.9483  0.1657 -1.8844
 4536SOL    HW225071   1.636   1.809   6.683  1.6512 -1.9462  1.2714
 4537SOL     OW25072   2.003   0.841   2.189  0.1214  0.3042  0.3006
 4537SOL    HW125073   2.080   0.832   2.246  0.8354 -0.6072 -0.7966
 4537SOL    HW225074   1.947   0.899   2.240  0.0329  0.0954  0.4427
 4538SOL     OW25075   3.651   3.957   8.170 -0.4139  0.5009 -0.2630
 4538SOL    HW125076   3.562   3.992   8.161 -0.2444  1.0376  0.2175
 4538SOL    HW225077   3.625   3.866   8.156  0.3342 -0.1506  2.6248
 4539SOL     OW25078   4.496   2.636  16.704 -0.3916 -0.2755  0.0438
 4539SOL    HW125079   4.467   2.633  16.795 -0.2582  0.6990  0.1142
 4539SOL    HW225080   4.419   2.671  16.659 -0.7249 -1.1750 -0.0901
 4540SOL     OW25081   3.708   0.974   1.903 -0.1945 -0.5433  0.1850
 4540SOL    HW125082   3.738   0.998   1.815 -0.2350  2.7853  1.0680
 4540SOL    HW225083   3.741   1.049   1.953 -2.0280  1.0358 -0.9740
 4541SOL     OW25084   0.320   1.727   8.014  0.0455  0.1385  0.8276
 4541SOL    HW125085   0.368   1.646   8.036  1.2983  0.9001  0.8900
 4541SOL    HW225086   0.249   1.737   8.077  0.5812 -0.7808  1.5945
 4542SOL     OW25087   1.772   0.781   2.631 -0.1388 -0.0538 -0.3448
 4542SOL    HW125088   1.837   0.825   2.685  0.5371 -0.5241 -0.7867
 4542SOL    HW225089   1.698   0.786   2.692 -0.6539  0.4681 -1.0016
 4543SOL     OW25090   0.493   0.338   4.971 -0.0668 -0.0041 -0.0127
 4543SOL    HW125091   0.430   0.266   4.982 -0.6423  0.1756 -2.2213
 4543SOL    HW225092   0.427   0.405   4.990  1.5997  1.2753  1.2205
 4544SOL     OW25093   0.009   4.237   1.532  0.6168  0.6768  0.3086
 4544SOL    HW125094   4.708   4.327   1.553  1.2787  1.3247 -1.6644
 4544SOL    HW225095   0.079   4.257   1.470  1.8227 -0.0742  1.4157
 4545SOL     OW25096   1.650   4.135   5.551  0.1942  0.3099 -0.5261
 4545SOL    HW125097   1.598   4.054   5.553 -0.7017  0.9404  1.6485
 4545SOL    HW225098   1.635   4.171   5.464  0.0641  3.9018  0.9873
 4546SOL     OW25099   2.491   4.722   5.665  0.3406 -0.2615  0.5645
 4546SOL    HW125100   2.530   0.076   5.706  0.4078 -0.2397  0.4604
 4546SOL    HW225101   2.474   4.664   5.739 -1.5417 -0.1496  0.2131
 4547SOL     OW25102   3.819   0.889   1.119 -0.0472  0.5653  0.3358
 4547SOL    HW125103   3.883   0.824   1.090 -2.1777 -0.5742 -1.8532
 4547SOL    HW225104   3.759   0.828   1.161 -2.0142  1.5779 -0.9671
 4548SOL     OW25105   3.594   1.723   8.714  0.3134 -0.1254  0.0939
 4548SOL    HW125106   3.525   1.684   8.769 -0.7921  2.8109  0.7888
 4548SOL    HW225107   3.663   1.657   8.710  0.8937  0.4157  1.2266
 4549SOL     OW25108   1.689   1.376   3.972 -0.4874 -0.3658 -0.2346
 4549SOL    HW125109   1.666   1.328   4.051  2.8052  0.1600  1.0350
 4549SOL    HW225110   1.676   1.305   3.909 -0.1910 -1.8091  1.3163
 4550SOL     OW25111   2.129   4.675   4.152  0.2762  0.0689  0.0593
 4550SOL    HW125112   2.075   4.684   4.074 -2.5306  0.2859  2.0202
 4550SOL    HW225113   2.175   4.597   4.123 -0.3479 -0.0553 -0.5903
 4551SOL     OW25114   0.428   3.046   7.275  0.3664 -0.0369 -0.1242
 4551SOL    HW125115   0.366   3.115   7.298  0.2213  0.5284 -2.2576
 4551SOL    HW225116   0.463   3.080   7.193 -1.3766  2.9595  0.4036
 4552SOL     OW25117   4.463   1.246   7.686  0.1024  0.0692  0.1219
 4552SOL    HW125118   4.506   1.176   7.735  0.8893  0.4207 -0.0667
 4552SOL    HW225119   4.544   1.285   7.653  0.8253 -1.7083 -0.2382
 4553SOL     OW25120   4.633   2.389   7.872  0.1167  0.2765 -0.0136
 4553SOL    HW125121   4.694   2.393   7.946  0.4620  0.4040 -0.3033
 4553SOL    HW225122   4.562   2.335   7.907  0.3421  0.1315  0.2230
 4554SOL     OW25123   4.080   4.379   6.892  0.2231 -0.0910 -0.5667
 4554SOL    HW125124   4.104   4.292   6.924 -1.6102 -0.3015  0.2388
 4554SOL    HW225125   4.166   4.421   6.891  0.1154  0.1496  0.0954
 4555SOL     OW25126   2.829   0.707  14.638 -0.7002  0.3713  0.0562
 4555SOL    HW125127   2.859   0.641  14.576 -0.0095  1.5095 -0.8235
 4555SOL    HW225128   2.761   0.660  14.685  0.5879 -0.8198  0.7331
 4556SOL     OW25129   0.943   0.860   1.079  0.3420  0.1459  0.1576
 4556SOL    HW125130   0.871   0.848   1.017 -0.1645 -0.7995  0.9157
 4556SOL    HW225131   0.982   0.937   1.038 -1.8144  2.2584  2.1010
 4557SOL     OW25132   4.425   3.839  12.248  0.6843 -0.4743  0.0485
 4557SOL    HW125133   4.464   3.760  12.286  1.8860  0.4805  0.7801
 4557SOL    HW225134   4.476   3.854  12.169  2.1689  2.0150  1.4806
 4558SOL     OW25135   3.465   1.885  15.189 -0.3493  0.5234  0.1437
 4558SOL    HW125136   3.532   1.942  15.227 -0.6791  1.6768 -0.9839
 4558SOL    HW225137   3.410   1.868  15.265 -0.8093  2.2576  0.1972
 4559SOL     OW25138   0.836   2.497   3.791  0.7657 -0.2162 -0.4015
 4559SOL    HW125139   0.864   2.421   3.843 -1.6120 -0.3276  0.7370
 4559SOL    HW225140   0.912   2.554   3.784  1.3723 -1.0274 -0.4936
 4560SOL     OW25141   2.761   0.499   2.073  0.7146 -0.5287  0.5352
 4560SOL    HW125142   2.721   0.519   2.158  1.0918 -3.3818  1.3775
 4560SOL    HW225143   2.700   0.540   2.011  1.4286  1.4562  1.1369
 4561SOL     OW25144   3.726   0.289   1.774 -0.3226 -0.1457  0.7291
 4561SOL    HW125145   3.817   0.318   1.778 -0.2630 -0.3891  1.1548
 4561SOL    HW225146   3.685   0.310   1.858 -1.6579  1.7847 -0.4194
 4562SOL     OW25147   2.922   0.632   9.348 -0.3241  0.2341 -0.6733
 4562SOL    HW125148   2.880   0.591   9.424 -2.7796 -3.4616 -4.0816
 4562SOL    HW225149   2.910   0.725   9.366 -1.1255  0.4462 -2.3435
 4563SOL     OW25150   2.814   3.781   8.319  0.1403  0.2328 -0.6730
 4563SOL    HW125151   2.895   3.776   8.269 -0.2795  1.3400 -1.4740
 4563SOL    HW225152   2.762   3.832   8.257 -0.5313 -0.1451 -0.4298
 4564SOL     OW25153   2.014   0.278   3.819  0.0904 -0.0296 -0.5976
 4564SOL    HW125154   2.003   0.186   3.794 -0.7950  0.1616 -0.8943
 4564SOL    HW225155   1.936   0.285   3.874 -0.1611 -1.1515 -0.7983
 4565SOL     OW25156   1.972   1.437   5.717 -0.3042  0.1412  0.0592
 4565SOL    HW125157   2.004   1.509   5.772  3.0859 -0.3083 -1.3551
 4565SOL    HW225158   2.016   1.358   5.748 -1.0327 -0.1635  0.3277
 4566SOL     OW25159   0.909   4.012   2.857  0.3921 -0.0428  0.0461
 4566SOL    HW125160   0.903   4.085   2.795  1.6290  1.9609  2.2874
 4566SOL    HW225161   0.844   4.033   2.925 -2.0529 -0.7449 -2.0544
 4567SOL     OW25162   0.060   2.636   7.614  0.3436 -0.1602  0.0503
 4567SOL    HW125163   0.150   2.659   7.638 -0.1272  2.5020 -0.7709
 4567SOL    HW225164   0.017   2.624   7.698 -1.1646  1.3586 -0.5120
 4568SOL     OW25165   3.131   3.015   0.482 -0.3161 -0.4009 -0.7673
 4568SOL    HW125166   3.194   2.994   0.413 -0.5471 -3.1468 -0.1172
 4568SOL    HW225167   3.179   3.080   0.535  0.0070 -0.4012 -1.0578
 4569SOL     OW25168   2.897   0.807  14.047  0.0828 -0.2606  0.1770
 4569SOL    HW125169   2.929   0.825  14.135  0.6241 -1.6954  0.2809
 4569SOL    HW225170   2.959   0.862  14.000 -0.6510 -0.5539 -1.1413
 4570SOL     OW25171   0.382   1.003  11.989  0.0075 -0.2421  0.1900
 4570SOL    HW125172   0.407   0.912  11.978 -0.7969 -0.1121 -2.6890
 4570SOL    HW225173   0.402   1.040  11.903  0.3457  2.0456  1.2410
 4571SOL     OW25174   2.209   1.847   8.099 -0.3904 -0.3743 -0.1474
 4571SOL    HW125175   2.197   1.841   8.194  1.3502 -0.3046  0.0715
 4571SOL    HW225176   2.243   1.760   8.076 -0.8622 -0.8103  0.8049
 4572SOL     OW25177   4.194   1.653   3.141 -0.4953 -0.1107 -0.4959
 4572SOL    HW125178   4.163   1.598   3.069 -0.1983  0.9884 -1.4655
 4572SOL    HW225179   4.123   1.715   3.156 -0.4997 -0.3513  0.4599
 4573SOL     OW25180   1.072   0.758   1.605  0.7749  0.1567 -0.0359
 4573SOL    HW125181   1.022   0.783   1.527 -1.1757  0.7104  1.3981
 4573SOL    HW225182   1.066   0.663   1.607 -0.8016  0.2489  0.0176
 4574SOL     OW25183   4.528   0.374   5.370 -0.6423  0.3985  0.3582
 4574SOL    HW125184   4.567   0.304   5.319  0.1729  0.6794  0.6023
 4574SOL    HW225185   4.438   0.345   5.384 -1.4147  1.6040 -1.9803
 4575SOL     OW25186   0.342   0.222   8.839 -0.1641 -0.3812 -0.0475
 4575SOL    HW125187   0.250   0.224   8.867 -0.1792 -2.2015  0.0628
 4575SOL    HW225188   0.334   0.258   8.751 -1.5307  1.7074  0.9153
 4576SOL     OW25189   3.240   1.641  11.141 -0.2632 -0.1812 -0.0404
 4576SOL    HW125190   3.314   1.607  11.091 -2.0264 -0.9858 -2.0700
 4576SOL    HW225191   3.185   1.680  11.073  0.3905 -1.0552 -1.0731
 4577SOL     OW25192   2.320   0.851   4.231 -0.4540  0.7263 -0.1730
 4577SOL    HW125193   2.311   0.850   4.327 -1.1199  1.6405 -0.2304
 4577SOL    HW225194   2.280   0.934   4.206 -1.0552 -0.0404 -1.7293
 4578SOL     OW25195   2.656   0.566   6.398 -0.5681  0.2153  0.2447
 4578SOL    HW125196   2.613   0.486   6.368  0.1244 -0.6924  1.6773
 4578SOL    HW225197   2.712   0.594   6.325 -0.3799 -1.3836 -0.2255
 4579SOL     OW25198   4.264   3.208   3.376  0.9086 -0.3899 -0.2781
 4579SOL    HW125199   4.237   3.155   3.301 -0.6347 -0.0143  0.0158
 4579SOL    HW225200   4.274   3.141   3.443 -0.8803 -0.4872 -0.1197
 4580SOL     OW25201   4.191   3.078   7.143 -0.6327 -0.1915  0.4438
 4580SOL    HW125202   4.150   3.155   7.182  0.5411  1.6949 -2.1034
 4580SOL    HW225203   4.117   3.019   7.128 -0.9980  0.7531 -1.5154
 4581SOL     OW25204   3.377   1.831   7.353  0.0576  0.6486  0.4744
 4581SOL    HW125205   3.439   1.764   7.324 -0.1760  0.2698  0.8470
 4581SOL    HW225206   3.321   1.848   7.278 -0.5666  0.2713  0.8545
 4582SOL     OW25207   0.384   0.946   8.538 -0.1274 -0.0483 -0.1113
 4582SOL    HW125208   0.339   0.929   8.621  0.9896 -2.0645  0.0928
 4582SOL    HW225209   0.313   0.951   8.474  1.4259 -0.5852 -1.8917
 4583SOL     OW25210   1.979   4.692   3.367  0.1456 -0.6598 -0.1193
 4583SOL    HW125211   1.986   4.681   3.272 -2.3723 -2.3209 -0.1320
 4583SOL    HW225212   2.027   0.050   3.380 -1.3327  0.2434 -0.3327
 4584SOL     OW25213   4.575   4.348   0.028  0.1563 -0.0843  0.0104
 4584SOL    HW125214   4.643   4.379  17.665 -0.1921 -0.7763 -0.7450
 4584SOL    HW225215   4.622   4.326   0.109 -1.6956 -0.2897  1.0309
 4585SOL     OW25216   1.272   1.440   2.144 -0.0532  0.2431  0.5711
 4585SOL    HW125217   1.232   1.386   2.075  4.4201 -1.0774 -0.9857
 4585SOL    HW225218   1.282   1.381   2.219  1.9981  2.8510  2.3400
 4586SOL     OW25219   0.828   1.773  10.455  0.2803 -0.2966  0.6202
 4586SOL    HW125220   0.869   1.858  10.472 -1.0484  0.2399  1.1746
 4586SOL    HW225221   0.856   1.754  10.365  1.8706  1.0633  0.8192
 4587SOL     OW25222   2.987   2.284   7.896  0.6134  0.4434 -0.0460
 4587SOL    HW125223   2.998   2.214   7.832 -0.2170  0.1612  0.1167
 4587SOL    HW225224   2.962   2.361   7.844 -0.2113 -0.3662 -0.8526
 4588SOL     OW25225   0.477   0.933  16.577 -0.1345 -0.2440 -0.4535
 4588SOL    HW125226   0.460   0.922  16.671  0.3798  2.4975 -0.0516
 4588SOL    HW225227   0.495   0.841  16.555  0.0667  0.1962 -2.0820
 4589SOL     OW25228   2.672   4.160   5.809 -0.0628 -0.1928 -0.2033
 4589SOL    HW125229   2.747   4.215   5.788 -0.5765  0.2469 -0.8902
 4589SOL    HW225230   2.697   4.129   5.896 -1.0841  1.8972  0.8155
 4590SOL     OW25231   1.408   3.949   6.515  0.2979 -0.5588  0.1085
 4590SOL    HW125232   1.448   3.863   6.519 -2.0367 -1.6564  0.0765
 4590SOL    HW225233   1.453   4.002   6.580  1.3581 -0.9549 -0.3123
 4591SOL     OW25234   1.799   2.468   3.312  0.2244 -0.1931  0.1901
 4591SOL    HW125235   1.872   2.423   3.355  0.0659 -0.6949 -0.0690
 4591SOL    HW225236   1.838   2.546   3.274  2.5479 -0.4661  2.0041
 4592SOL     OW25237   0.753   4.173  12.170  0.1776  0.1037  0.3443
 4592SOL    HW125238   0.723   4.156  12.260  1.4104 -1.0978  0.5261
 4592SOL    HW225239   0.746   4.086  12.129  1.6232 -0.8321  2.0688
 4593SOL     OW25240   3.431   4.475   7.398 -0.2809  0.1579 -0.2957
 4593SOL    HW125241   3.349   4.504   7.359 -1.0107 -0.2042  0.9614
 4593SOL    HW225242   3.463   4.408   7.338 -1.0078 -0.7002  0.2906
 4594SOL     OW25243   1.552   2.632   4.381 -0.2413  0.3817  0.0151
 4594SOL    HW125244   1.510   2.546   4.387  0.7377 -0.0882  0.0466
 4594SOL    HW225245   1.629   2.619   4.327 -0.7063 -2.9107  0.0919
 4595SOL     OW25246   0.717   4.442  10.626  0.4361 -0.3595  0.1415
 4595SOL    HW125247   0.800   4.416  10.665 -0.0401 -3.8073 -1.1543
 4595SOL    HW225248   0.712   4.528  10.669 -1.1948 -0.5369  0.3097
 4596SOL     OW25249   3.740   3.176   6.423  0.5408  0.3159  0.5048
 4596SOL    HW125250   3.824   3.158   6.466  1.4312 -0.4744 -1.5735
 4596SOL    HW225251   3.700   3.237   6.485 -0.5951  0.6320 -0.5392
 4597SOL     OW25252   1.195   3.210   5.216 -0.0841  0.4693  0.5211
 4597SOL    HW125253   1.171   3.141   5.278  0.1178  1.5055  1.7692
 4597SOL    HW225254   1.149   3.176   5.140 -0.0211  1.8217 -0.1271
 4598SOL     OW25255   0.895   3.779   6.933  0.2045  0.5482 -0.1243
 4598SOL    HW125256   0.908   3.817   7.020  0.1754  1.4590 -0.5128
 4598SOL    HW225257   0.972   3.820   6.894  0.7030 -0.7400 -0.4923
 4599SOL     OW25258   2.837   1.418   7.480 -0.2833 -0.0418 -0.7910
 4599SOL    HW125259   2.932   1.421   7.476 -0.0984 -1.9146  2.3169
 4599SOL    HW225260   2.811   1.473   7.406  1.0626  0.7140 -0.7052
 4600SOL     OW25261   1.982   1.190  12.623  0.0781  0.0353 -0.6397
 4600SOL    HW125262   2.011   1.276  12.593  0.4616 -0.0112 -0.4038
 4600SOL    HW225263   2.045   1.167  12.692 -0.2042  0.9995 -0.0524
 4601SOL     OW25264   1.752   3.089   7.517  0.4891  0.1453 -0.0346
 4601SOL    HW125265   1.736   3.042   7.599 -1.5371 -0.5055 -0.8035
 4601SOL    HW225266   1.764   3.178   7.551 -1.7596  0.7581 -0.8182
 4602SOL     OW25267   4.561   3.566   3.493  0.1389  0.4231 -0.4000
 4602SOL    HW125268   4.539   3.486   3.445  1.6961 -1.9123  2.7820
 4602SOL    HW225269   4.559   3.632   3.424  1.4402  1.6357  0.7123
 4603SOL     OW25270   0.902   1.788   8.632 -0.1473 -0.0139  0.0610
 4603SOL    HW125271   0.920   1.839   8.711  1.2838  1.5591 -1.2963
 4603SOL    HW225272   0.867   1.859   8.579 -1.6985 -0.2323  0.8007
 4604SOL     OW25273   2.844   0.034   8.223  0.3186  0.3999 -0.4100
 4604SOL    HW125274   2.885   0.107   8.269 -0.6980  1.2841 -0.8827
 4604SOL    HW225275   2.760   0.076   8.201  1.3959  2.5416 -0.3664
 4605SOL     OW25276   2.684   3.928   8.141  0.2458  0.0209 -0.2999
 4605SOL    HW125277   2.706   4.020   8.159  0.7401  0.2450 -2.0158
 4605SOL    HW225278   2.589   3.939   8.144 -0.0272 -2.4045 -0.0155
 4606SOL     OW25279   2.418   2.142   1.568  0.2048 -0.3166  0.0518
 4606SOL    HW125280   2.404   2.177   1.481  0.8138  1.6182  0.7325
 4606SOL    HW225281   2.339   2.091   1.588 -0.5487  0.5527 -0.7376
 4607SOL     OW25282   4.696   4.525   9.046  0.1223 -0.4186  0.2422
 4607SOL    HW125283   0.009   4.612   9.033 -0.3171 -0.0655  1.4243
 4607SOL    HW225284   4.719   4.479   8.965 -1.1320 -0.1919 -0.2431
 4608SOL     OW25285   2.010   4.010   8.570  1.0339 -0.3670  0.0126
 4608SOL    HW125286   2.046   3.991   8.484 -0.6312  0.4521 -0.8643
 4608SOL    HW225287   2.075   3.956   8.616 -0.9207 -3.0491 -0.3946
 4609SOL     OW25288   1.897   2.427   7.069  0.1781 -0.4145 -0.0041
 4609SOL    HW125289   1.954   2.376   7.128  0.1521  0.0237  0.4024
 4609SOL    HW225290   1.889   2.367   6.996  1.2618 -3.2801  2.2299
 4610SOL     OW25291   3.296   4.594   4.778  0.1306  0.8484  0.0678
 4610SOL    HW125292   3.230   4.591   4.709  0.9275 -0.3431 -0.6284
 4610SOL    HW225293   3.316   4.501   4.775  0.1021  0.9116 -2.0529
 4611SOL     OW25294   0.079   3.835  16.697  0.0573 -0.1036  0.5329
 4611SOL    HW125295   0.162   3.866  16.660 -0.9970  1.6077 -0.3899
 4611SOL    HW225296   0.075   3.856  16.791 -2.1505  1.2063  0.1455
 4612SOL     OW25297   0.997   1.758   5.346 -0.2035  0.2849  0.7522
 4612SOL    HW125298   0.932   1.825   5.325  0.2280 -0.1468 -2.0180
 4612SOL    HW225299   0.937   1.688   5.322 -1.2571  0.7778  1.9320
 4613SOL     OW25300   2.759   3.016   8.072 -0.4904 -0.7059  0.3821
 4613SOL    HW125301   2.726   3.027   8.161 -0.7903  0.2417  0.1469
 4613SOL    HW225302   2.840   2.968   8.088 -0.0061 -0.5766 -1.7328
 4614SOL     OW25303   1.042   2.411   1.789 -0.2356  0.1434 -0.1482
 4614SOL    HW125304   1.034   2.433   1.696  0.6373 -0.8739 -0.4619
 4614SOL    HW225305   1.091   2.329   1.789 -1.9651 -0.8986  0.1407
 4615SOL     OW25306   3.637   1.856  16.749 -0.7848 -0.1082  0.5850
 4615SOL    HW125307   3.644   1.863  16.844  1.9171 -2.3623  0.5532
 4615SOL    HW225308   3.697   1.923  16.717 -1.8010 -0.2297 -1.5912
 4616SOL     OW25309   4.006   1.074   2.825 -0.3174 -0.0321  0.2552
 4616SOL    HW125310   3.922   1.084   2.781  0.9614 -2.5857 -2.8382
 4616SOL    HW225311   3.989   0.994   2.874  2.8790 -2.0651 -1.9694
 4617SOL     OW25312   0.425   2.789   8.082  0.6140  0.0971 -0.2892
 4617SOL    HW125313   0.418   2.851   8.155 -0.7386  0.5809 -0.8352
 4617SOL    HW225314   0.335   2.790   8.050  0.2438 -2.8232  0.6309
 4618SOL     OW25315   2.143   3.165  15.225 -0.3491  0.2401 -0.0338
 4618SOL    HW125316   2.231   3.132  15.240  0.2726  1.9655  0.0666
 4618SOL    HW225317   2.144   3.204  15.137 -0.2184 -0.6834 -0.4420
 4619SOL     OW25318   2.551   1.158   3.136 -0.2698 -0.5779 -0.0717
 4619SOL    HW125319   2.467   1.157   3.180 -1.0405 -1.3996 -1.5682
 4619SOL    HW225320   2.606   1.177   3.213 -2.7830  2.5270  0.9644
 4620SOL     OW25321   3.741   2.842  16.830 -0.3718 -0.0161 -0.0375
 4620SOL    HW125322   3.766   2.823  16.920 -2.2415 -0.4317  0.3972
 4620SOL    HW225323   3.650   2.871  16.836 -0.2102  0.4217  0.3090
 4621SOL     OW25324   3.967   2.824   8.779 -0.4927  0.2581 -0.2403
 4621SOL    HW125325   3.923   2.775   8.847 -1.4233  0.1863 -0.8986
 4621SOL    HW225326   3.904   2.893   8.760  3.3595  3.8641 -0.0473
 4622SOL     OW25327   2.447   4.284   3.495 -0.8368  0.1832 -0.0178
 4622SOL    HW125328   2.538   4.299   3.468 -0.1215 -0.3239  2.1592
 4622SOL    HW225329   2.441   4.325   3.581 -3.0021 -0.3427  0.0897
 4623SOL     OW25330   1.637   0.621  10.657  0.2564  1.3622  0.0685
 4623SOL    HW125331   1.686   0.703  10.664  0.2882  1.3156  0.3815
 4623SOL    HW225332   1.582   0.642  10.582  0.8480  1.3832 -0.3566
 4624SOL     OW25333   4.428   1.651   5.077  0.2274  0.0778  0.1305
 4624SOL    HW125334   4.437   1.660   4.982 -0.5502  1.3486  0.1809
 4624SOL    HW225335   4.359   1.584   5.077  0.4523 -0.1690 -3.2555
 4625SOL     OW25336   2.013   2.281   1.508 -0.1571 -0.3361  0.1017
 4625SOL    HW125337   2.073   2.317   1.574 -0.7574 -1.2087  1.1106
 4625SOL    HW225338   1.930   2.323   1.528 -0.4161  0.3016 -2.3113
 4626SOL     OW25339   2.586   3.608   2.085 -0.7680 -0.0123  0.3659
 4626SOL    HW125340   2.549   3.583   2.170 -0.8841 -2.8490 -0.5096
 4626SOL    HW225341   2.534   3.687   2.074 -2.1879 -1.0905 -0.6326
 4627SOL     OW25342   1.395   2.627   3.848 -0.8099 -0.2318 -0.4674
 4627SOL    HW125343   1.472   2.608   3.794 -0.2590  2.1013 -0.5224
 4627SOL    HW225344   1.445   2.644   3.928 -1.0618 -0.2994 -0.2972
 4628SOL     OW25345   0.736   2.475   3.490 -0.1056  0.1345  0.5170
 4628SOL    HW125346   0.710   2.511   3.575 -3.6811  0.6095 -0.7827
 4628SOL    HW225347   0.685   2.395   3.499  0.0951 -0.1324 -0.8044
 4629SOL     OW25348   0.478   2.264   2.859  0.6650 -0.8139  0.0017
 4629SOL    HW125349   0.518   2.306   2.935  0.5243  0.0988 -0.4364
 4629SOL    HW225350   0.549   2.204   2.835  2.3664  1.2231  0.0467
 4630SOL     OW25351   1.203   3.622   6.356  0.5541 -0.1865 -0.3081
 4630SOL    HW125352   1.225   3.530   6.339  3.1055  0.7026 -1.7547
 4630SOL    HW225353   1.278   3.669   6.322  1.0019  0.6877  1.8801
 4631SOL     OW25354   4.488   4.075   3.299 -0.1803 -0.3817  0.4231
 4631SOL    HW125355   4.435   4.121   3.234 -0.0450 -1.4376 -0.4307
 4631SOL    HW225356   4.455   3.986   3.309 -3.0721  0.6191 -0.4701
 4632SOL     OW25357   0.219   0.975   4.601  0.4750  0.0965  0.2563
 4632SOL    HW125358   0.254   0.890   4.572  0.8334  0.5011 -0.4990
 4632SOL    HW225359   0.185   0.948   4.686  0.6092  0.3062  0.3775
 4633SOL     OW25360   0.672   3.327   4.187  0.1567  0.1669  0.0091
 4633SOL    HW125361   0.645   3.415   4.214 -0.7940  0.0266 -0.4755
 4633SOL    HW225362   0.740   3.342   4.122  0.8128 -0.2412  0.6000
 4634SOL     OW25363   3.015   1.551   5.350 -0.3687 -0.1573 -0.0560
 4634SOL    HW125364   2.999   1.582   5.261 -0.0168 -2.1455 -0.8324
 4634SOL    HW225365   3.107   1.574   5.364 -0.6254  0.4098  0.7032
 4635SOL     OW25366   3.170   1.669   6.715 -0.5330 -1.0060 -0.1124
 4635SOL    HW125367   3.110   1.744   6.723  2.7349  1.6909 -0.7585
 4635SOL    HW225368   3.165   1.651   6.621 -1.6793 -0.1776 -0.2139
 4636SOL     OW25369   3.728   2.009  12.394 -0.0983  0.0881 -0.1974
 4636SOL    HW125370   3.749   2.051  12.311 -1.7158 -1.0304 -1.1690
 4636SOL    HW225371   3.816   2.015  12.431 -0.4402  1.1702  0.4456
 4637SOL     OW25372   1.577   0.922   2.269  0.5116  0.2854 -0.0683
 4637SOL    HW125373   1.668   0.928   2.298  1.0644 -0.3251 -1.6897
 4637SOL    HW225374   1.585   0.956   2.179  0.1375  0.0067 -0.2057
 4638SOL     OW25375   0.523   1.256   5.869 -0.2169  0.0042 -0.2621
 4638SOL    HW125376   0.566   1.211   5.941 -0.9495 -2.2797 -1.2555
 4638SOL    HW225377   0.574   1.221   5.795  0.0951  0.3806 -0.2236
 4639SOL     OW25378   2.603   1.015   8.302 -0.4114  0.1023  0.3751
 4639SOL    HW125379   2.508   1.015   8.291 -0.2379  1.1245 -1.0615
 4639SOL    HW225380   2.611   0.920   8.302  5.0973  0.5765 -0.4677
 4640SOL     OW25381   3.728   0.131   2.984  0.3743  0.6790 -0.4025
 4640SOL    HW125382   3.784   0.099   3.055 -0.7481 -0.5422 -0.0754
 4640SOL    HW225383   3.729   0.059   2.922 -0.1918  0.6319 -0.3528
 4641SOL     OW25384   3.696   4.111   0.749 -0.1827 -0.0374 -0.2292
 4641SOL    HW125385   3.670   4.200   0.726 -0.6414 -0.5307 -1.6022
 4641SOL    HW225386   3.702   4.121   0.844 -0.4554  2.4072 -0.4770
 4642SOL     OW25387   2.895   2.955   1.159  0.1462  0.2472  0.2711
 4642SOL    HW125388   2.970   2.945   1.099 -0.3304 -0.1086 -0.2631
 4642SOL    HW225389   2.910   2.894   1.232 -0.7999 -0.9727 -0.5582
 4643SOL     OW25390   1.945   1.733   3.102  0.6083 -0.0027 -0.6086
 4643SOL    HW125391   1.934   1.695   3.015  0.8689 -1.1593 -0.1404
 4643SOL    HW225392   1.851   1.732   3.122  0.6282 -0.4697 -0.5426
 4644SOL     OW25393   3.930   1.444  12.945 -0.3615  0.2887 -0.2657
 4644SOL    HW125394   3.837   1.466  12.949 -0.4580 -0.4225  1.5081
 4644SOL    HW225395   3.963   1.428  13.034  1.0338 -3.7612 -1.4966
 4645SOL     OW25396   1.346   3.272  10.966 -0.1444  0.4060 -0.4250
 4645SOL    HW125397   1.308   3.284  10.879  2.4934  1.1512 -1.4686
 4645SOL    HW225398   1.271   3.278  11.026 -0.4816 -0.6417 -0.7464
 4646SOL     OW25399   4.499   4.200   7.239  0.5716  0.5119  0.3709
 4646SOL    HW125400   4.588   4.216   7.210  0.2498 -0.9353 -1.4449
 4646SOL    HW225401   4.463   4.281   7.202  2.0868 -0.3918 -3.0313
 4647SOL     OW25402   0.220   1.027   7.666 -0.2068  0.4485  0.3933
 4647SOL    HW125403   0.205   0.942   7.706  0.4767  0.2075  0.1331
 4647SOL    HW225404   0.305   1.000   7.632 -0.4655  0.3707 -0.1922
 4648SOL     OW25405   2.355   3.610   4.336 -0.6084 -0.4384  0.2372
 4648SOL    HW125406   2.278   3.666   4.338 -1.3709 -1.5096  0.5526
 4648SOL    HW225407   2.306   3.533   4.364  1.0799 -1.4477  0.4351
 4649SOL     OW25408   3.145   0.890   9.382 -0.1685  0.2616 -0.1354
 4649SOL    HW125409   3.231   0.933   9.388  0.3045 -0.1548 -4.5211
 4649SOL    HW225410   3.082   0.961   9.383 -1.5272 -0.9114 -3.3383
 4650SOL     OW25411   0.928   3.450   3.466  0.1525 -0.4566  0.3980
 4650SOL    HW125412   0.867   3.523   3.476 -1.2154 -1.6263  0.5604
 4650SOL    HW225413   0.948   3.426   3.556  4.8654  0.6017 -0.3707
 4651SOL     OW25414   4.555   3.778  17.628 -0.4377 -0.8371  0.5422
 4651SOL    HW125415   4.512   3.752  17.547  0.3453  1.7844 -0.7243
 4651SOL    HW225416   4.614   3.844  17.591 -1.9866 -1.3583 -2.8186
 4652SOL     OW25417   2.241   2.344   4.775 -0.3733  0.3492  0.3122
 4652SOL    HW125418   2.330   2.360   4.744  0.0548 -0.0423  1.3192
 4652SOL    HW225419   2.203   2.350   4.688  0.5415 -1.2733 -0.1863
 4653SOL     OW25420   0.112   1.660  12.879 -0.0818 -0.1556  0.6223
 4653SOL    HW125421   0.107   1.749  12.913  0.5472  0.5663 -1.1297
 4653SOL    HW225422   0.202   1.673  12.847  0.4683 -1.8266  1.4782
 4654SOL     OW25423   2.716   4.389   5.261 -0.0180  0.4121 -0.2484
 4654SOL    HW125424   2.810   4.382   5.243 -0.2630 -0.9041 -1.0372
 4654SOL    HW225425   2.694   4.473   5.301  1.5794  0.1223  1.2391
 4655SOL     OW25426   2.369   4.702   4.316 -0.5064 -0.5613  0.1313
 4655SOL    HW125427   2.287   4.664   4.285 -0.8817  1.6569 -1.6127
 4655SOL    HW225428   2.376   4.656   4.399  1.9417  0.7593  0.6623
 4656SOL     OW25429   1.404   3.326   4.568  0.3732  0.9586  0.2225
 4656SOL    HW125430   1.311   3.320   4.591  0.4206  0.4692  0.2923
 4656SOL    HW225431   1.429   3.347   4.658 -1.3539 -0.5675  1.0572
 4657SOL     OW25432   0.655   2.014   7.695  0.3758 -0.2316  0.1236
 4657SOL    HW125433   0.610   1.972   7.768 -1.6111  0.6874 -0.5551
 4657SOL    HW225434   0.605   2.093   7.671 -2.4434 -1.3981  2.1333
 4658SOL     OW25435   3.629   0.589   7.350  0.2886 -0.1688 -0.5116
 4658SOL    HW125436   3.692   0.573   7.421 -0.1838 -0.7403 -0.2177
 4658SOL    HW225437   3.616   0.495   7.335  0.0325 -0.4704  1.4950
 4659SOL     OW25438   2.893   1.315   3.004  0.5305  1.0309  0.3309
 4659SOL    HW125439   2.884   1.380   3.074  1.4351  1.4547  0.0567
 4659SOL    HW225440   2.923   1.372   2.933 -0.0058 -4.3412 -4.1670
 4660SOL     OW25441   2.747   1.608   2.451 -0.6828 -0.2519 -0.2696
 4660SOL    HW125442   2.686   1.534   2.443 -0.6166 -0.4963  1.3102
 4660SOL    HW225443   2.767   1.636   2.363 -1.1047  3.3570  0.8059
 4661SOL     OW25444   0.494   1.560   9.327 -0.0254  0.6583 -0.3118
 4661SOL    HW125445   0.489   1.474   9.285  2.2924  1.4754 -2.2542
 4661SOL    HW225446   0.475   1.536   9.418  2.4619  2.5615  0.7214
 4662SOL     OW25447   1.221   3.774   9.373 -0.6807  0.2775 -0.2609
 4662SOL    HW125448   1.211   3.865   9.347  2.8372  0.3955 -1.1894
 4662SOL    HW225449   1.313   3.764   9.347 -0.3771  1.8502  0.1769
 4663SOL     OW25450   2.619   2.581   6.173 -0.0895  0.0479 -0.5084
 4663SOL    HW125451   2.526   2.603   6.163 -0.4687 -1.3557 -0.1570
 4663SOL    HW225452   2.644   2.617   6.258 -2.0583 -0.8668  0.4652
 4664SOL     OW25453   4.559   1.763  16.167  0.1131 -0.2192  0.0632
 4664SOL    HW125454   4.527   1.849  16.143  0.2449  0.1528  1.1882
 4664SOL    HW225455   4.593   1.731  16.084  0.3038  1.8671 -0.6556
 4665SOL     OW25456   0.471   3.437   5.799 -0.0698  0.9502  0.1230
 4665SOL    HW125457   0.449   3.462   5.709 -2.3733 -0.4093  0.3168
 4665SOL    HW225458   0.555   3.484   5.801  1.8027 -2.2850 -2.4145
 4666SOL     OW25459   3.274   3.613   4.629  0.1538  0.3705  0.0322
 4666SOL    HW125460   3.341   3.559   4.586 -0.3812 -1.3155  1.3072
 4666SOL    HW225461   3.283   3.594   4.723 -1.9914 -1.3774 -0.1278
 4667SOL     OW25462   0.789   1.348  12.525 -0.1882 -0.0625  0.2420
 4667SOL    HW125463   0.852   1.296  12.476  0.5417  0.8216  0.2341
 4667SOL    HW225464   0.707   1.322  12.482  0.7151 -1.3894 -0.6478
 4668SOL     OW25465   1.826   1.789   9.549 -0.1735 -0.2893 -0.0411
 4668SOL    HW125466   1.731   1.798   9.557 -0.3096 -1.5283 -0.1539
 4668SOL    HW225467   1.856   1.839   9.625  0.2505  0.0664 -0.4432
 4669SOL     OW25468   3.677   2.932  10.551 -0.2624  0.1276  0.1711
 4669SOL    HW125469   3.673   2.987  10.629  0.5697 -0.2274  0.4690
 4669SOL    HW225470   3.590   2.893  10.553  0.1445 -0.7227  1.5747
 4670SOL     OW25471   2.566   0.019   1.091 -0.0120 -0.1026 -0.2608
 4670SOL    HW125472   2.621   4.674   1.131  2.7898  1.3977 -1.5335
 4670SOL    HW225473   2.481   4.719   1.127 -0.9517  1.8563 -1.2322
 4671SOL     OW25474   0.119   3.070   5.107  0.2625  0.6348  0.3954
 4671SOL    HW125475   0.147   3.082   5.197  0.4995 -2.0218  0.6574
 4671SOL    HW225476   0.034   3.113   5.099  0.2408  0.7380  1.2497
 4672SOL     OW25477   2.755   4.354  17.329 -0.1779  0.2686 -0.4448
 4672SOL    HW125478   2.763   4.282  17.391 -0.5402  1.7279  1.2713
 4672SOL    HW225479   2.789   4.318  17.247 -0.1496  1.2526 -0.8594
 4673SOL     OW25480   3.034   0.330   2.515  0.5298 -0.3356 -0.4895
 4673SOL    HW125481   2.956   0.385   2.527  0.4454 -0.8427  1.1932
 4673SOL    HW225482   2.994   0.260   2.463 -0.2353 -0.9776  0.9672
 4674SOL     OW25483   1.208   1.888  16.562 -0.8202  0.0453  0.2783
 4674SOL    HW125484   1.180   1.861  16.649  0.0893  1.1126  0.8979
 4674SOL    HW225485   1.143   1.839  16.511 -2.1430  0.6230  1.4136
 4675SOL     OW25486   4.622   2.901   3.198 -0.4605 -0.0333 -0.3939
 4675SOL    HW125487   4.596   2.926   3.109  0.4732 -0.4322 -0.7729
 4675SOL    HW225488   4.534   2.910   3.235 -0.8346 -0.3676 -1.1906
 4676SOL     OW25489   3.526   1.292   5.109  0.2792  0.1329  0.4641
 4676SOL    HW125490   3.570   1.349   5.173 -1.4806  1.3600  0.5794
 4676SOL    HW225491   3.529   1.206   5.151  1.0943  0.5967  1.3601
 4677SOL     OW25492   3.583   1.266   7.538  0.5913  0.2718  0.0179
 4677SOL    HW125493   3.630   1.183   7.527 -0.3412 -0.1877 -0.4808
 4677SOL    HW225494   3.540   1.258   7.453 -0.2456 -1.7026  0.6261
 4678SOL     OW25495   3.456   1.947   3.031  0.3408  0.0575 -0.7035
 4678SOL    HW125496   3.485   2.027   2.988 -0.3996  1.2792  1.0993
 4678SOL    HW225497   3.514   1.888   2.983  1.4281  1.0759 -0.6284
 4679SOL     OW25498   2.066   2.158   6.530  0.1937  0.1408  0.3252
 4679SOL    HW125499   2.109   2.214   6.594 -0.0424 -0.9123  1.3966
 4679SOL    HW225500   2.070   2.073   6.573 -2.0551 -0.4821 -0.6743
 4680SOL     OW25501   1.335   0.288   5.234  0.1732  0.0430  0.5087
 4680SOL    HW125502   1.425   0.320   5.225  0.1923 -0.4066 -0.8242
 4680SOL    HW225503   1.288   0.343   5.171  1.4484  0.3073 -0.2172
 4681SOL     OW25504   0.020   0.997   6.668  0.2058 -0.1359  0.4217
 4681SOL    HW125505   4.700   1.067   6.716 -1.5487 -1.7111  1.0486
 4681SOL    HW225506   0.110   1.031   6.666  0.4309 -0.7859 -0.9606
 4682SOL     OW25507   3.637   0.236   8.788  0.0303 -0.8219  0.1585
 4682SOL    HW125508   3.678   0.167   8.735 -1.0162  0.1310 -1.8964
 4682SOL    HW225509   3.553   0.192   8.799 -0.2550 -0.2644  0.2082
 4683SOL     OW25510   3.322   4.710   4.478  0.2716  0.3122  0.1009
 4683SOL    HW125511   3.392   4.655   4.441  0.6275 -0.8272  2.4859
 4683SOL    HW225512   3.351   0.067   4.435 -1.7905  0.9305 -0.1281
 4684SOL     OW25513   1.603   4.714   4.344  0.8783  0.2041 -0.3486
 4684SOL    HW125514   1.530   0.044   4.312  0.5283 -0.6083 -0.9244
 4684SOL    HW225515   1.660   4.721   4.268  1.4216 -0.7071 -0.0296
 4685SOL     OW25516   4.060   0.121   7.554  0.2934 -0.0330  0.4140
 4685SOL    HW125517   3.976   0.152   7.589  0.2093  0.1885  0.0052
 4685SOL    HW225518   4.024   0.045   7.508  1.2943  0.2138 -0.7799
 4686SOL     OW25519   0.662   3.079   6.595 -0.3046 -0.5759  0.3363
 4686SOL    HW125520   0.694   3.101   6.683 -2.2449 -2.0293  1.4355
 4686SOL    HW225521   0.742   3.090   6.544 -0.5789 -1.2783 -0.2523
 4687SOL     OW25522   0.523   0.138   5.228  0.0290 -0.2737 -0.0636
 4687SOL    HW125523   0.573   0.218   5.211  1.2209 -0.8464  0.7506
 4687SOL    HW225524   0.440   0.143   5.179  0.6826  0.4619 -1.0970
 4688SOL     OW25525   0.439   3.977   8.257  0.5342  0.3221  0.4102
 4688SOL    HW125526   0.485   3.998   8.338 -3.6772  0.4687  2.7434
 4688SOL    HW225527   0.347   3.997   8.271  0.3781 -1.2147  1.5351
 4689SOL     OW25528   3.565   3.496   6.115 -0.0356 -0.3647  0.3409
 4689SOL    HW125529   3.611   3.446   6.182 -0.3783 -0.0894  0.7832
 4689SOL    HW225530   3.617   3.480   6.036  0.2504  1.8097  0.0721
 4690SOL     OW25531   4.180   3.536   3.704 -0.2124 -0.3926  0.3286
 4690SOL    HW125532   4.135   3.501   3.627  1.0308 -0.2467 -0.4598
 4690SOL    HW225533   4.265   3.494   3.693  0.8829  1.5887  1.2029
 4691SOL     OW25534   0.916   2.088  16.729  0.6517 -0.2934 -0.0297
 4691SOL    HW125535   0.889   2.076  16.820  1.6313  0.6536  0.3839
 4691SOL    HW225536   0.897   2.180  16.714  0.3807 -0.0378  1.9803
 4692SOL     OW25537   4.652   3.054  13.184  0.4866  0.6675 -0.5361
 4692SOL    HW125538   4.608   3.085  13.105 -0.8447 -2.4810 -1.0296
 4692SOL    HW225539   0.015   3.078  13.150  1.4214 -0.3522  1.1149
 4693SOL     OW25540   3.541   3.407   2.384 -0.1996 -0.3119  0.2924
 4693SOL    HW125541   3.515   3.366   2.302 -0.7984  0.1874  0.2267
 4693SOL    HW225542   3.564   3.494   2.350  0.5921 -0.6092  0.0667
 4694SOL     OW25543   4.633   2.708   3.443 -0.3109 -0.1375 -0.3785
 4694SOL    HW125544   4.701   2.674   3.385 -0.8185  1.2411 -1.7814
 4694SOL    HW225545   4.554   2.658   3.422 -0.4026 -0.2050  0.1097
 4695SOL     OW25546   3.392   4.384  15.554  0.1118  0.3485  0.1159
 4695SOL    HW125547   3.459   4.350  15.495 -0.6354  0.2491 -0.6861
 4695SOL    HW225548   3.362   4.302  15.594  0.9453  0.2503  0.5475
 4696SOL     OW25549   0.924   0.280   5.855 -0.6334  1.1333 -0.1138
 4696SOL    HW125550   0.842   0.266   5.807 -0.9928  0.7219  0.6283
 4696SOL    HW225551   0.988   0.311   5.791 -1.6583  2.9783 -0.2578
 4697SOL     OW25552   2.174   2.284   4.407 -0.1595  0.8018 -0.5398
 4697SOL    HW125553   2.095   2.305   4.457 -0.8069 -1.4197 -0.6680
 4697SOL    HW225554   2.193   2.372   4.373  0.9893 -0.0279 -2.0316
 4698SOL     OW25555   3.987   3.348   4.010 -0.6799 -0.0345 -0.4668
 4698SOL    HW125556   4.062   3.407   4.007 -0.1521 -0.7212 -0.6516
 4698SOL    HW225557   4.019   3.271   3.963  2.6751  1.9397 -1.3883
 4699SOL     OW25558   2.517   1.083   4.279 -0.1023  0.5557 -0.1925
 4699SOL    HW125559   2.481   1.035   4.353  1.1017  2.0084  1.3215
 4699SOL    HW225560   2.452   1.152   4.264  2.5073  3.1481  0.3643
 4700SOL     OW25561   2.665   4.622   3.462 -0.4820  0.7947  0.0403
 4700SOL    HW125562   2.733   4.610   3.396 -1.6154 -0.8836 -0.8191
 4700SOL    HW225563   2.688   4.559   3.530 -0.2380  0.0827 -0.6995
 4701SOL     OW25564   3.121   2.957   3.995 -0.3297  0.5640 -0.6813
 4701SOL    HW125565   3.139   2.874   4.039  2.4647  1.5466  0.0500
 4701SOL    HW225566   3.187   3.013   4.036  1.1317  1.0646 -3.6851
 4702SOL     OW25567   0.505   0.130   1.076 -0.3513  0.0480  0.4116
 4702SOL    HW125568   0.429   0.188   1.069  0.4717  1.1764  1.0338
 4702SOL    HW225569   0.495   0.067   1.005 -1.4373 -0.5791  1.1037
 4703SOL     OW25570   0.270   3.851  13.998 -0.4161 -0.7144 -0.4428
 4703SOL    HW125571   0.256   3.799  13.918  2.0998 -0.8341 -0.8133
 4703SOL    HW225572   0.227   3.795  14.062 -2.5215  1.4984  0.0564
 4704SOL     OW25573   4.515   3.275  11.454 -0.1248  1.0663  0.2644
 4704SOL    HW125574   4.441   3.224  11.422  0.3625  0.0079  0.8250
 4704SOL    HW225575   4.571   3.204  11.486 -1.5254 -1.4787 -2.8245
 4705SOL     OW25576   4.103   2.744   5.919 -0.0668  0.8866 -0.4010
 4705SOL    HW125577   4.178   2.684   5.927 -0.0324  1.1331  1.1567
 4705SOL    HW225578   4.152   2.826   5.923 -0.6410  1.1939  0.4253
 4706SOL     OW25579   0.030   1.019   4.060  0.1396 -0.6548 -0.4236
 4706SOL    HW125580   0.097   1.056   4.118  0.6506 -0.6998 -0.9881
 4706SOL    HW225581   0.062   0.932   4.037  0.4990 -0.7249  0.3492
 4707SOL     OW25582   0.355   1.049   2.858  0.2463  0.0915 -0.6721
 4707SOL    HW125583   0.340   0.955   2.862  0.8054  0.0914  1.4022
 4707SOL    HW225584   0.438   1.062   2.905  0.9914 -0.3676 -1.8647
 4708SOL     OW25585   1.015   0.112   2.123  0.3511 -0.1085  0.5052
 4708SOL    HW125586   1.057   0.193   2.096 -0.9914  1.1719  2.2615
 4708SOL    HW225587   1.094   0.069   2.158 -0.3765 -0.5108  1.6639
 4709SOL     OW25588   3.856   1.063   4.219 -0.9575  0.0054  0.0546
 4709SOL    HW125589   3.880   1.024   4.303  2.4050 -1.0805 -1.4202
 4709SOL    HW225590   3.929   1.027   4.169 -0.3061  1.2717  0.1022
 4710SOL     OW25591   4.585   3.367   2.100  0.0959  0.4345  0.5522
 4710SOL    HW125592   4.655   3.315   2.141  4.1036  1.7174 -4.5503
 4710SOL    HW225593   4.511   3.309   2.118 -0.4557  1.3693  1.2680
 4711SOL     OW25594   2.590   3.539  11.344 -0.2063  0.2436 -0.2949
 4711SOL    HW125595   2.677   3.523  11.308  0.7862  1.3537  1.6120
 4711SOL    HW225596   2.612   3.571  11.431  0.7798 -0.5935 -0.2461
 4712SOL     OW25597   3.880   0.606   0.119  0.3874  1.1323 -0.1104
 4712SOL    HW125598   3.793   0.647   0.123 -0.1264 -0.0784  1.3207
 4712SOL    HW225599   3.863   0.529   0.173  0.3863  2.3261  1.5731
 4713SOL     OW25600   4.233   1.137   4.440 -0.2614 -0.2834  0.1358
 4713SOL    HW125601   4.327   1.131   4.456  0.0413 -0.9748 -1.9042
 4713SOL    HW225602   4.197   1.173   4.521  2.3051 -1.8259  1.9449
 4714SOL     OW25603   2.921   0.063  15.083  0.2430 -0.3989 -0.0244
 4714SOL    HW125604   2.915   0.129  15.152 -0.2756 -0.3497 -0.1161
 4714SOL    HW225605   2.974   4.720  15.126  1.6216 -0.3388 -1.5975
 4715SOL     OW25606   0.301   3.849   4.844  0.3660  0.1561  0.0414
 4715SOL    HW125607   0.224   3.905   4.855  0.5999  0.8737 -2.0568
 4715SOL    HW225608   0.252   3.768   4.826  0.5945  0.0460 -0.0859
 4716SOL     OW25609   3.981   3.871   9.995  0.7212  0.3528 -0.4499
 4716SOL    HW125610   4.038   3.800   9.963  1.9381  1.8467 -1.5942
 4716SOL    HW225611   4.017   3.951   9.957  0.2615 -0.0679 -1.7706
 4717SOL     OW25612   2.373   4.057  12.517  0.0141  0.2849  0.3347
 4717SOL    HW125613   2.392   4.102  12.599  0.2167  0.5629  0.1336
 4717SOL    HW225614   2.456   4.023  12.483 -0.0478  0.1910  0.2791
 4718SOL     OW25615   3.147   0.771   4.821  0.2068  0.4311  0.2026
 4718SOL    HW125616   3.180   0.856   4.851 -0.3880  0.6352  0.2799
 4718SOL    HW225617   3.139   0.710   4.894  0.7729  0.9074  0.6565
 4719SOL     OW25618   0.142   1.161   0.506 -0.9367 -0.6416  0.1161
 4719SOL    HW125619   0.082   1.222   0.463 -2.1556 -1.2801  0.8966
 4719SOL    HW225620   0.175   1.112   0.430 -0.9504 -2.6974  1.4242
 4720SOL     OW25621   4.594   0.531   5.600  0.1867 -0.4555  0.1369
 4720SOL    HW125622   4.631   0.605   5.551 -1.5540  0.5651  0.3736
 4720SOL    HW225623   4.592   0.466   5.531  1.0985  0.1550 -0.4772
 4721SOL     OW25624   3.759   2.387  13.166 -0.0743  0.4146  0.3964
 4721SOL    HW125625   3.841   2.379  13.214  0.0413 -0.7674 -0.0042
 4721SOL    HW225626   3.751   2.301  13.124 -1.6420  2.3190 -3.2245
 4722SOL     OW25627   0.325   0.107   5.946 -0.0092  0.1857  0.3832
 4722SOL    HW125628   0.324   0.015   5.922 -4.0067  0.2476  0.3130
 4722SOL    HW225629   0.264   0.108   6.020  0.4274 -2.4612  0.7724
 4723SOL     OW25630   2.253   0.313   9.921 -0.1533  0.5167 -0.0095
 4723SOL    HW125631   2.302   0.298   9.840 -2.2739 -0.8847 -1.0049
 4723SOL    HW225632   2.174   0.355   9.889 -0.4892  1.2796  1.7915
 4724SOL     OW25633   3.922   2.359   3.065 -0.0011  0.1209  0.0184
 4724SOL    HW125634   3.893   2.401   3.146  0.3082 -1.1353  0.7835
 4724SOL    HW225635   3.858   2.390   3.001  0.3482  3.5203  1.2976
 4725SOL     OW25636   0.821   2.043   6.509  0.9380  0.1222 -0.0608
 4725SOL    HW125637   0.747   2.047   6.570  0.7860  3.2346 -0.4702
 4725SOL    HW225638   0.778   2.021   6.427 -1.3313  0.8363  0.9383
 4726SOL     OW25639   3.711   1.926  10.605 -0.3081  0.0641 -0.7343
 4726SOL    HW125640   3.736   2.018  10.607 -0.7060  0.1524  0.1247
 4726SOL    HW225641   3.620   1.918  10.633 -0.8425  0.5178 -2.3664
 4727SOL     OW25642   4.332   0.190   7.655 -0.4050  0.0818 -0.0487
 4727SOL    HW125643   4.242   0.164   7.633  0.4835 -2.6893 -0.3910
 4727SOL    HW225644   4.319   0.268   7.708  1.8011 -0.9703  2.0243
 4728SOL     OW25645   3.011   2.291  16.837  0.0156 -0.0104  0.0387
 4728SOL    HW125646   2.927   2.329  16.861  1.1957  2.3683  0.3722
 4728SOL    HW225647   2.994   2.200  16.813 -2.3184 -0.3380  2.9443
 4729SOL     OW25648   0.817   3.999   4.520  0.1502 -0.8246 -0.8404
 4729SOL    HW125649   0.754   4.045   4.465 -1.0908  0.0641  1.3541
 4729SOL    HW225650   0.873   4.073   4.545 -0.7511 -0.5480  0.3774
 4730SOL     OW25651   1.218   1.808   6.658 -0.1290  0.0175  0.1378
 4730SOL    HW125652   1.223   1.896   6.696  0.2163 -0.7422  1.8452
 4730SOL    HW225653   1.302   1.786   6.617  0.4752  2.5788 -0.0126
 4731SOL     OW25654   0.419   1.967   4.425 -0.1785 -0.4403  0.1176
 4731SOL    HW125655   0.414   2.059   4.399  0.4201 -0.8221 -1.3049
 4731SOL    HW225656   0.453   1.934   4.342 -0.3882 -1.2569  0.3573
 4732SOL     OW25657   1.338   1.645   8.238 -0.2338 -0.3457  0.1422
 4732SOL    HW125658   1.271   1.576   8.238  0.2250 -0.7974  0.6233
 4732SOL    HW225659   1.332   1.699   8.317 -0.6535  0.8687 -0.7262
 4733SOL     OW25660   0.132   0.546   8.277 -0.2281  0.3940  0.3594
 4733SOL    HW125661   0.183   0.626   8.286 -1.1130  0.9318  0.5027
 4733SOL    HW225662   0.053   0.573   8.322 -1.7151 -2.2700 -0.6430
 4734SOL     OW25663   2.621   3.973   4.868 -0.3155  0.1990  0.0708
 4734SOL    HW125664   2.653   3.933   4.949  2.0597 -0.4125 -1.1526
 4734SOL    HW225665   2.525   3.976   4.873 -0.2332  1.3050  0.9650
 4735SOL     OW25666   3.430   4.663   5.038 -0.6371  0.1466  0.2125
 4735SOL    HW125667   3.377   4.648   4.959 -0.4632 -0.9488  0.2953
 4735SOL    HW225668   3.500   4.598   5.029  1.2853  2.3363 -0.5812
 4736SOL     OW25669   1.840   0.687   0.818 -0.2991 -0.0251 -0.0076
 4736SOL    HW125670   1.789   0.610   0.793 -0.0581  0.3127 -1.5757
 4736SOL    HW225671   1.931   0.657   0.808  0.2121  1.2575  0.7973
 4737SOL     OW25672   1.581   0.016   4.603  0.1577 -0.4333  0.7576
 4737SOL    HW125673   1.619   0.028   4.516  1.2621  0.5659  1.3755
 4737SOL    HW225674   1.523   0.093   4.607 -1.8629 -1.9577  1.0232
 4738SOL     OW25675   2.373   4.475   7.827  0.0001 -0.2202  0.1512
 4738SOL    HW125676   2.374   4.404   7.891  0.7765 -0.1102  0.2571
 4738SOL    HW225677   2.346   4.547   7.885  2.7785  1.2446 -0.3501
 4739SOL     OW25678   3.978   2.363   9.243  0.2222 -0.1887  0.1280
 4739SOL    HW125679   3.962   2.315   9.325  0.4160 -0.7413 -0.1599
 4739SOL    HW225680   4.051   2.415   9.279  1.1918 -0.4317 -1.4788
 4740SOL     OW25681   2.931   1.305   3.867 -0.3547 -0.8436  0.3345
 4740SOL    HW125682   2.951   1.227   3.815 -0.0405 -2.2662  2.6346
 4740SOL    HW225683   2.837   1.318   3.862 -0.1617 -0.1763 -1.7690
 4741SOL     OW25684   4.146   0.596   4.451 -0.1100  0.0324 -0.4406
 4741SOL    HW125685   4.227   0.555   4.483 -0.0413  0.1387 -0.4764
 4741SOL    HW225686   4.130   0.650   4.529  0.2114  1.0514 -1.0741
 4742SOL     OW25687   4.094   3.677   8.003 -0.5826  0.1001 -0.4167
 4742SOL    HW125688   4.041   3.729   7.942 -1.4910 -1.7026 -1.1423
 4742SOL    HW225689   4.116   3.742   8.069 -1.3336  1.1480 -1.1924
 4743SOL     OW25690   2.093   0.539   7.654 -0.0702 -0.8595  0.0711
 4743SOL    HW125691   2.014   0.566   7.608 -0.7089  1.7612  2.6412
 4743SOL    HW225692   2.097   0.444   7.640 -0.9838 -0.6609 -1.4804
 4744SOL     OW25693   1.898   4.666  16.501 -0.7365  0.3300 -0.1500
 4744SOL    HW125694   1.902   4.612  16.580  2.0008 -0.1621 -0.6234
 4744SOL    HW225695   1.985   4.655  16.462 -1.5685 -4.0119 -0.6666
 4745SOL     OW25696   3.464   3.428   4.563  0.6050  0.3116 -0.3389
 4745SOL    HW125697   3.528   3.357   4.574 -2.3567 -2.2718  0.0095
 4745SOL    HW225698   3.514   3.494   4.515 -2.2486  1.8739 -1.1317
 4746SOL     OW25699   1.613   0.256   3.706  0.4707  0.0140  0.1399
 4746SOL    HW125700   1.633   0.234   3.615 -1.2432 -0.6370 -0.0654
 4746SOL    HW225701   1.578   0.172   3.736  1.6340 -0.3514  0.5057
 4747SOL     OW25702   3.166   3.930   5.455  0.4083  0.1704  0.1630
 4747SOL    HW125703   3.072   3.948   5.445  0.3205  0.8458  2.1130
 4747SOL    HW225704   3.193   4.018   5.429  0.6274  0.0405 -0.0406
 4748SOL     OW25705   1.334   3.345  16.094 -0.0940 -0.4314  0.0467
 4748SOL    HW125706   1.422   3.315  16.070 -0.6637 -1.9394 -0.1639
 4748SOL    HW225707   1.286   3.282  16.040 -0.4629  2.3867 -2.9068
 4749SOL     OW25708   3.333   1.649   9.937  0.0707  0.2030 -0.3513
 4749SOL    HW125709   3.403   1.713   9.952  0.7807 -0.0251 -2.6989
 4749SOL    HW225710   3.303   1.644  10.028  0.6511 -2.9980 -0.3439
 4750SOL     OW25711   0.655   2.087   5.003 -0.4150 -0.6781 -0.6707
 4750SOL    HW125712   0.679   2.116   4.915  0.3759  0.3686 -0.1101
 4750SOL    HW225713   0.626   2.172   5.038  0.6045 -0.3958 -0.5040
 4751SOL     OW25714   0.699   0.474   3.815  0.1577 -0.1705  0.0890
 4751SOL    HW125715   0.774   0.430   3.776 -0.1249  0.4856 -1.1819
 4751SOL    HW225716   0.682   0.422   3.894  0.7484 -1.4337 -0.6189
 4752SOL     OW25717   1.441   2.284   5.449  0.6806  0.0613  0.5980
 4752SOL    HW125718   1.504   2.335   5.398  1.1524 -0.5261  0.5798
 4752SOL    HW225719   1.453   2.196   5.413  2.6367  0.5867 -0.0376
 4753SOL     OW25720   1.945   2.935   6.224 -0.2588 -0.0540 -0.3348
 4753SOL    HW125721   1.907   2.992   6.290  0.2032 -0.0705 -0.0514
 4753SOL    HW225722   1.894   2.966   6.149  0.0595  1.3220  0.0100
 4754SOL     OW25723   4.442   1.259   1.021  0.8531  0.3967  0.1118
 4754SOL    HW125724   4.412   1.288   0.935  1.4654 -1.7626 -0.8358
 4754SOL    HW225725   4.396   1.178   1.043  1.0662  0.0670 -0.6305
 4755SOL     OW25726   4.376   3.732   7.365 -0.6276  0.1039 -0.1974
 4755SOL    HW125727   4.364   3.824   7.341  2.3432  1.0400  1.9094
 4755SOL    HW225728   4.324   3.735   7.445 -0.7319 -2.0398 -0.1968
 4756SOL     OW25729   3.690   2.408   5.103  0.1230  0.3150 -0.6652
 4756SOL    HW125730   3.674   2.407   5.197 -0.5117  3.3192 -0.7241
 4756SOL    HW225731   3.722   2.320   5.086 -1.3527 -0.0412 -1.5624
 4757SOL     OW25732   2.038   2.875   7.566  0.0451  0.0745  0.0821
 4757SOL    HW125733   2.045   2.799   7.624 -2.6783  0.4193  0.8255
 4757SOL    HW225734   1.980   2.843   7.498  1.4885 -0.8415 -0.7080
 4758SOL     OW25735   3.286   0.328  12.475 -0.2497 -0.0084 -0.4684
 4758SOL    HW125736   3.218   0.315  12.541  0.4996 -1.7266 -0.0365
 4758SOL    HW225737   3.348   0.259  12.498 -0.2440 -0.5302 -2.0256
 4759SOL     OW25738   0.810   0.606  12.581  0.5246  0.2311 -0.5114
 4759SOL    HW125739   0.788   0.545  12.652 -0.5057  1.2942  0.0851
 4759SOL    HW225740   0.904   0.589  12.573  0.9449  1.3342  2.0757
 4760SOL     OW25741   1.912   3.786  11.771  0.2719  0.3444 -0.5877
 4760SOL    HW125742   2.003   3.767  11.795  0.3097 -0.7191 -1.5892
 4760SOL    HW225743   1.887   3.694  11.777 -0.0246  0.4312 -0.4795
 4761SOL     OW25744   2.754   4.439   3.651 -0.2173 -0.4420  0.3124
 4761SOL    HW125745   2.812   4.460   3.725  0.4646  0.6340 -0.5228
 4761SOL    HW225746   2.803   4.378   3.595 -0.2867  0.6153 -0.8849
 4762SOL     OW25747   0.215   0.195   5.265  0.1018 -0.3726  0.3880
 4762SOL    HW125748   0.209   0.220   5.172  0.3668 -0.4022  0.3630
 4762SOL    HW225749   0.134   0.144   5.266  0.5793 -1.1629 -0.3939
 4763SOL     OW25750   0.421   3.408  13.037  0.4135 -0.5003 -0.1599
 4763SOL    HW125751   0.430   3.325  13.084  0.7680 -1.1341 -1.3442
 4763SOL    HW225752   0.502   3.454  13.059 -0.8759  0.6584  2.1417
 4764SOL     OW25753   0.465   1.791   4.758 -0.8068  0.3218  0.4330
 4764SOL    HW125754   0.382   1.743   4.751 -1.5521  1.5196  1.1436
 4764SOL    HW225755   0.518   1.750   4.689  0.2420  0.0273  1.4274
 4765SOL     OW25756   2.043   0.761   8.093  0.1292 -0.0361  0.0179
 4765SOL    HW125757   2.007   0.775   8.005  0.3606  1.1203  0.1153
 4765SOL    HW225758   2.087   0.676   8.088 -0.0003 -0.2416  2.6117
 4766SOL     OW25759   4.184   2.247   6.061  0.3707 -0.0730 -0.5843
 4766SOL    HW125760   4.200   2.161   6.100  1.6462  0.1087 -0.7183
 4766SOL    HW225761   4.195   2.294   6.144 -1.2231  0.1317 -0.4757
 4767SOL     OW25762   2.943   2.068   3.992  1.0441 -0.0868 -0.5691
 4767SOL    HW125763   2.998   1.991   3.980  0.4188 -0.4012 -1.4637
 4767SOL    HW225764   2.922   2.077   3.898  0.4926 -0.5572 -0.4937
 4768SOL     OW25765   3.337   2.005  15.612 -0.2775  0.1878  0.0547
 4768SOL    HW125766   3.290   2.077  15.653 -0.1334 -0.6643  1.7353
 4768SOL    HW225767   3.419   2.001  15.662 -0.4199  0.8919  0.3439
 4769SOL     OW25768   4.459   3.492  15.609 -0.3797 -0.0754 -0.4249
 4769SOL    HW125769   4.368   3.516  15.593 -1.0055 -1.8627  0.4641
 4769SOL    HW225770   4.480   3.571  15.660 -0.1876  1.3019 -2.6232
 4770SOL     OW25771   0.013   2.354   3.887  0.5273 -0.1134 -0.1335
 4770SOL    HW125772   0.032   2.446   3.905 -2.0803  0.0086  1.9736
 4770SOL    HW225773   4.642   2.361   3.889  0.5438  0.0157  0.2616
 4771SOL     OW25774   2.906   1.773   5.828 -0.8763 -0.6636 -0.2429
 4771SOL    HW125775   2.921   1.683   5.857 -3.4075 -0.0939  2.7381
 4771SOL    HW225776   2.927   1.762   5.735  0.6099 -0.7687  0.1059
 4772SOL     OW25777   4.629   3.036   4.117 -0.7887 -0.0382  0.5952
 4772SOL    HW125778   4.582   3.021   4.035  0.9063 -1.1377 -0.1734
 4772SOL    HW225779   4.708   2.982   4.114 -1.2848 -0.5931 -1.9565
 4773SOL     OW25780   2.558   2.815   2.424  0.3075 -0.3935  0.3553
 4773SOL    HW125781   2.599   2.896   2.392  2.3014 -1.4979  0.1027
 4773SOL    HW225782   2.606   2.803   2.506  0.9868 -0.4162 -0.0385
 4774SOL     OW25783   2.286   1.381   1.734 -0.4520  0.3028 -0.5351
 4774SOL    HW125784   2.242   1.461   1.762  0.7258 -0.1056  2.4843
 4774SOL    HW225785   2.257   1.325   1.806  2.0202 -0.8904 -0.4505
 4775SOL     OW25786   2.188   2.340   6.694  0.6488 -0.0509  0.2072
 4775SOL    HW125787   2.121   2.407   6.709  0.1119 -0.7062  0.8077
 4775SOL    HW225788   2.238   2.347   6.775  1.8305 -0.6200 -0.4775
 4776SOL     OW25789   1.988   2.643  12.262 -0.2622 -0.4750  0.0906
 4776SOL    HW125790   2.049   2.676  12.329  0.1396 -2.0442  0.4844
 4776SOL    HW225791   2.022   2.682  12.182  0.3149  0.1339  0.6259
 4777SOL     OW25792   1.902   0.155   2.081  0.4724  0.2837  0.1003
 4777SOL    HW125793   1.893   0.078   2.138 -2.7730 -0.4377 -1.4079
 4777SOL    HW225794   1.982   0.126   2.037  0.4800  2.2183 -1.1497
 4778SOL     OW25795   3.214   3.070   5.850 -0.6421 -0.0938  0.2418
 4778SOL    HW125796   3.192   3.045   5.940 -0.1002  0.8380  0.6368
 4778SOL    HW225797   3.195   2.988   5.805  2.3240  0.6248 -2.3020
 4779SOL     OW25798   1.531   4.585  14.725  0.1193 -1.1574 -0.4647
 4779SOL    HW125799   1.542   4.610  14.817 -1.8969 -0.2142 -0.4944
 4779SOL    HW225800   1.462   4.647  14.701  1.3917  1.0714  1.5849
 4780SOL     OW25801   2.297   4.132  14.861 -0.4889 -0.2688 -0.1823
 4780SOL    HW125802   2.278   4.114  14.953  0.2858 -0.3173 -0.0272
 4780SOL    HW225803   2.353   4.055  14.856  0.2007  0.2968 -1.2592
 4781SOL     OW25804   1.099   4.005  15.714  0.2184  0.5722 -0.1082
 4781SOL    HW125805   1.022   4.041  15.759  1.0318  1.3263  0.6768
 4781SOL    HW225806   1.171   4.026  15.774  0.4359 -0.0083 -0.1690
 4782SOL     OW25807   2.799   0.125   1.209  0.6661 -0.2991 -0.1358
 4782SOL    HW125808   2.727   0.080   1.163 -1.7443  0.7483  2.6479
 4782SOL    HW225809   2.831   0.195   1.152 -2.2716  0.6754 -0.6090
 4783SOL     OW25810   1.214   3.412   4.916 -0.1693 -0.5740  0.0693
 4783SOL    HW125811   1.202   3.413   4.821 -0.9248 -0.5063  0.1618
 4783SOL    HW225812   1.167   3.332   4.940 -1.7132  0.0066 -1.0275
 4784SOL     OW25813   0.326   0.012   0.860  0.5434 -0.2921 -0.5142
 4784SOL    HW125814   0.279   4.675   0.918  0.4465  0.6824  0.4200
 4784SOL    HW225815   0.258   0.077   0.846  0.2203 -1.1506 -2.9645
 4785SOL     OW25816   4.188   3.828   3.507 -0.3693  0.1910  0.3494
 4785SOL    HW125817   4.108   3.782   3.531 -1.2413  1.8293  0.6086
 4785SOL    HW225818   4.159   3.919   3.505  1.4573  0.7906  1.3981
 4786SOL     OW25819   0.966   3.352   5.848  0.6050 -0.1822  0.0330
 4786SOL    HW125820   1.003   3.440   5.843 -0.8244  0.3937 -0.5242
 4786SOL    HW225821   0.874   3.376   5.835  0.4828  0.5041  2.3120
 4787SOL     OW25822   3.941   3.354   1.504  0.3815 -0.6370  0.1092
 4787SOL    HW125823   3.864   3.311   1.542  1.1032 -0.4948  1.7218
 4787SOL    HW225824   3.966   3.288   1.440  1.6298  0.9496 -1.0160
 4788SOL     OW25825   4.023   0.070   1.138 -0.2421 -0.2019  0.0604
 4788SOL    HW125826   4.051   0.042   1.051 -1.3410  0.9814 -0.6577
 4788SOL    HW225827   3.958   0.000   1.151  2.3091 -2.2531  1.8287
 4789SOL     OW25828   3.961   4.657  11.586 -0.5991  0.7746  0.3389
 4789SOL    HW125829   3.963   4.618  11.499 -1.9233  0.3861  0.4723
 4789SOL    HW225830   3.984   0.024  11.567 -2.5976  1.3350  0.5367
 4790SOL     OW25831   2.996   2.403  14.575  0.4019 -0.6429  0.6565
 4790SOL    HW125832   2.966   2.321  14.536 -0.4311  0.1108 -0.2951
 4790SOL    HW225833   2.953   2.400  14.660 -2.9829 -0.0215 -1.0369
 4791SOL     OW25834   3.263   0.076   5.196  0.4290  0.1465  0.3303
 4791SOL    HW125835   3.309   0.002   5.157 -0.0078  0.6577 -1.1480
 4791SOL    HW225836   3.188   0.065   5.139  0.1076  2.0385  0.3720
 4792SOL     OW25837   1.624   3.818  13.115 -0.3748 -0.5789  0.0790
 4792SOL    HW125838   1.622   3.744  13.054 -0.0939 -1.0407  0.6309
 4792SOL    HW225839   1.584   3.795  13.198 -2.2865 -1.3569 -1.0659
 4793SOL     OW25840   4.359   4.548   7.738  0.1492  0.9984 -0.0782
 4793SOL    HW125841   4.435   4.542   7.679 -1.3468  1.4043 -2.0420
 4793SOL    HW225842   4.398   4.574   7.822 -0.8217 -0.0078  0.6774
 4794SOL     OW25843   3.940   4.309  14.945 -0.7407 -0.2789 -0.5110
 4794SOL    HW125844   3.951   4.356  15.028 -0.7783 -3.9938  1.6302
 4794SOL    HW225845   3.845   4.294  14.940 -0.8411  0.5594 -1.0414
 4795SOL     OW25846   3.774   4.318   7.309 -0.4977  0.1816  0.1933
 4795SOL    HW125847   3.792   4.237   7.357 -1.0392 -0.1564 -0.1776
 4795SOL    HW225848   3.860   4.349   7.281 -1.6012  1.1839 -2.0843
 4796SOL     OW25849   4.632   2.565   8.805  0.6936  0.4988 -0.2337
 4796SOL    HW125850   4.564   2.632   8.819  1.8414  1.0073  2.8702
 4796SOL    HW225851   4.707   2.619   8.781  1.2605 -0.8720 -1.5303
 4797SOL     OW25852   4.075   2.063   7.961  0.0637  0.5002  0.3757
 4797SOL    HW125853   3.980   2.069   7.955  0.2509  0.6690 -2.5821
 4797SOL    HW225854   4.096   2.123   8.033 -2.2746  2.9364 -0.9882
 4798SOL     OW25855   2.202   3.932  10.335  1.0830  0.2264 -0.5182
 4798SOL    HW125856   2.114   3.966  10.320  0.8675 -0.5566 -1.0210
 4798SOL    HW225857   2.181   3.848  10.376  0.0138  0.1217 -1.2762
 4799SOL     OW25858   0.782   4.085  16.733 -0.3248 -0.2183  0.6188
 4799SOL    HW125859   0.746   4.167  16.700  1.1572 -0.0009 -0.4794
 4799SOL    HW225860   0.780   4.032  16.653  2.7694 -0.4240  0.6687
 4800SOL     OW25861   0.981   1.577   6.323 -0.0284  0.5558  0.1076
 4800SOL    HW125862   1.043   1.619   6.264  0.3052  0.0213  0.0786
 4800SOL    HW225863   0.965   1.641   6.392  1.6128  2.2756 -1.1056
 4801SOL     OW25864   0.508   4.402   6.780 -0.1381  0.0201  0.5068
 4801SOL    HW125865   0.535   4.315   6.808  1.0027  0.4225  0.6740
 4801SOL    HW225866   0.552   4.415   6.696  0.9445 -1.1045  0.9088
 4802SOL     OW25867   3.997   3.726   6.954 -0.0472  0.1888 -0.5015
 4802SOL    HW125868   4.034   3.718   6.866 -2.3701  1.9205 -1.6457
 4802SOL    HW225869   4.079   3.717   7.003 -0.5566 -0.4240  0.2364
 4803SOL     OW25870   3.073   2.434   7.498  0.0268 -0.3725  0.1885
 4803SOL    HW125871   3.053   2.490   7.572 -1.0308 -1.1397  0.4764
 4803SOL    HW225872   3.075   2.347   7.538 -2.6377 -0.3566  0.2995
 4804SOL     OW25873   1.606   0.757  13.665 -0.1322 -0.1821 -0.0565
 4804SOL    HW125874   1.575   0.847  13.675  0.6304  0.0342  0.4102
 4804SOL    HW225875   1.547   0.720  13.600 -0.3220  0.6675 -0.3613
 4805SOL     OW25876   4.315   3.516  12.911 -0.0681 -0.4841 -0.0550
 4805SOL    HW125877   4.330   3.562  12.829 -0.9491  0.4454  0.3015
 4805SOL    HW225878   4.323   3.589  12.972  0.9448 -0.3388 -0.3685
 4806SOL     OW25879   2.776   1.786   7.591 -0.3964  0.0112 -0.2464
 4806SOL    HW125880   2.871   1.769   7.587 -0.2549 -0.1343  3.2830
 4806SOL    HW225881   2.770   1.869   7.544 -2.3264 -1.5736 -2.7869
 4807SOL     OW25882   0.512   1.529   6.206 -0.2067  0.7407  0.4405
 4807SOL    HW125883   0.606   1.528   6.187 -0.2205 -1.1767  0.4719
 4807SOL    HW225884   0.514   1.594   6.276 -1.3662 -0.3927  1.5296
 4808SOL     OW25885   2.972   3.760   2.839 -0.0190 -0.4109  0.2853
 4808SOL    HW125886   2.944   3.835   2.787 -0.9171 -0.6038  0.4831
 4808SOL    HW225887   2.918   3.684   2.816 -0.3580 -0.4013  1.0270
 4809SOL     OW25888   1.331   3.145   2.047  0.4451 -0.2515  0.1665
 4809SOL    HW125889   1.421   3.125   2.021  1.1608  1.6948  1.1312
 4809SOL    HW225890   1.306   3.204   1.976 -1.9317 -2.2268 -0.6599
 4810SOL     OW25891   0.366   2.034   8.005 -0.1123 -0.3342 -0.0777
 4810SOL    HW125892   0.320   1.957   8.039 -0.0170  0.5518  2.0285
 4810SOL    HW225893   0.299   2.054   7.939  0.4136  1.3563 -0.0755
 4811SOL     OW25894   4.571   4.568   5.161 -0.1527 -0.3005  0.6057
 4811SOL    HW125895   4.477   4.579   5.144  0.3397  2.0960 -0.5392
 4811SOL    HW225896   4.564   4.497   5.225 -0.4732 -1.7666 -1.0345
 4812SOL     OW25897   1.867   4.597   2.116 -0.0311  0.1280  0.1834
 4812SOL    HW125898   1.785   4.578   2.072 -0.6091 -1.1347  1.7892
 4812SOL    HW225899   1.917   4.516   2.109  2.3225  1.6170 -0.3115
 4813SOL     OW25900   2.297   0.081  16.104 -0.0425 -0.5466 -0.3215
 4813SOL    HW125901   2.289   0.174  16.084  2.2515 -0.2038  0.3432
 4813SOL    HW225902   2.354   0.047  16.035 -0.9404  1.5642 -2.0921
 4814SOL     OW25903   3.115   0.174   1.693 -0.0386 -0.0153  0.6288
 4814SOL    HW125904   3.035   0.224   1.706 -0.6790 -0.7527 -0.4363
 4814SOL    HW225905   3.087   0.094   1.648 -0.9923  0.2313  0.7861
 4815SOL     OW25906   4.306   1.586   3.391 -0.1819  0.1920  0.7075
 4815SOL    HW125907   4.290   1.624   3.305  1.0502  0.2252  0.4829
 4815SOL    HW225908   4.227   1.614   3.436 -0.6982 -0.6546  0.3191
 4816SOL     OW25909   3.504   4.462   6.736  0.3079 -0.2783  0.4016
 4816SOL    HW125910   3.519   4.415   6.818  0.6070 -0.1550  0.4171
 4816SOL    HW225911   3.485   4.547   6.774 -0.2030  0.9356 -2.5408
 4817SOL     OW25912   2.520   2.852   9.417 -0.1840 -0.2560 -0.6863
 4817SOL    HW125913   2.518   2.758   9.431 -1.5256 -0.3095 -1.2348
 4817SOL    HW225914   2.603   2.866   9.464 -0.7982 -2.4082  1.0103
 4818SOL     OW25915   4.689   0.280   4.873 -0.2223  0.2857  0.4432
 4818SOL    HW125916   0.022   0.240   4.807 -0.6689  1.1431 -0.4646
 4818SOL    HW225917   4.606   0.277   4.824 -0.7195 -3.4928  1.4926
 4819SOL     OW25918   1.768   3.936  13.659  0.1075  0.8293  0.1112
 4819SOL    HW125919   1.673   3.920  13.654  0.0730  0.6661  1.1645
 4819SOL    HW225920   1.795   3.931  13.568  3.0674  0.4151  1.0337
 4820SOL     OW25921   3.778   1.643   5.816 -0.5757 -0.2163  0.3716
 4820SOL    HW125922   3.740   1.636   5.729  1.6693 -0.2830 -0.6143
 4820SOL    HW225923   3.717   1.689   5.874 -0.2774  1.3398 -0.5368
 4821SOL     OW25924   0.276   0.166   4.981 -0.1749  0.4977 -0.0057
 4821SOL    HW125925   0.199   0.210   4.945 -0.1503  0.3613 -0.2290
 4821SOL    HW225926   0.267   0.071   4.968  2.3638  0.4727 -1.7553
 4822SOL     OW25927   1.797   4.246   1.504 -0.4284 -0.1485 -0.0181
 4822SOL    HW125928   1.890   4.255   1.527 -0.3486  0.2266 -0.4840
 4822SOL    HW225929   1.802   4.280   1.414  2.4086 -1.4320 -0.3534
 4823SOL     OW25930   3.923   4.303   5.762 -0.0502 -0.0754  0.0003
 4823SOL    HW125931   3.989   4.372   5.763 -2.7350  2.4929  0.1690
 4823SOL    HW225932   3.942   4.256   5.843  0.2658 -0.8590 -0.5287
 4824SOL     OW25933   3.600   0.752   1.278  0.0794 -0.1215 -0.3398
 4824SOL    HW125934   3.646   0.681   1.323 -0.3450 -0.2107 -0.0379
 4824SOL    HW225935   3.514   0.711   1.264  0.5905 -0.9933 -0.9145
 4825SOL     OW25936   1.270   4.273   2.215  0.3469  0.5301  0.5022
 4825SOL    HW125937   1.228   4.359   2.220 -0.5009  0.1142  0.5439
 4825SOL    HW225938   1.216   4.232   2.147  1.1283  0.8400 -0.3073
 4826SOL     OW25939   0.521   2.942  13.681  0.7300 -0.7340 -0.4919
 4826SOL    HW125940   0.566   2.995  13.616  0.0689  0.1258 -0.2530
 4826SOL    HW225941   0.550   2.863  13.635  1.3711  1.0871 -3.2589
 4827SOL     OW25942   3.338   0.679   9.070 -0.1653 -0.0822 -0.2304
 4827SOL    HW125943   3.405   0.617   9.042 -1.3827  0.2804 -3.8800
 4827SOL    HW225944   3.304   0.629   9.144  0.5497 -1.3351 -0.7573
 4828SOL     OW25945   2.291   0.792   1.186  0.2382  0.1292  0.3049
 4828SOL    HW125946   2.351   0.733   1.141  1.9081  0.5180  2.0348
 4828SOL    HW225947   2.214   0.736   1.192 -0.2437  0.7525 -0.0639
 4829SOL     OW25948   1.733   4.105  11.021  0.3812  0.5355 -0.5866
 4829SOL    HW125949   1.738   4.027  11.076 -2.5853 -1.2555 -2.9114
 4829SOL    HW225950   1.706   4.177  11.077 -0.9200 -0.3965 -0.0224
 4830SOL     OW25951   0.887   1.232   7.169  0.4134  0.6601 -0.6620
 4830SOL    HW125952   0.908   1.247   7.261  1.8161  0.5278 -0.9612
 4830SOL    HW225953   0.826   1.159   7.174 -1.2845  2.1180 -0.3553
 4831SOL     OW25954   3.590   2.547   4.055  0.4220 -0.1433  0.5635
 4831SOL    HW125955   3.683   2.569   4.049  0.3553 -0.0690 -0.2131
 4831SOL    HW225956   3.599   2.460   4.014 -2.9668 -0.4563  0.4774
 4832SOL     OW25957   0.361   1.184   9.377  0.0128 -0.4205  0.0359
 4832SOL    HW125958   0.417   1.144   9.444  0.5188  1.8318  0.9341
 4832SOL    HW225959   0.306   1.238   9.433 -1.6945 -0.7714 -1.2752
 4833SOL     OW25960   3.196   2.855   5.101  0.3444 -0.0773  0.4299
 4833SOL    HW125961   3.172   2.836   5.011 -0.0840 -0.8312  0.7006
 4833SOL    HW225962   3.185   2.949   5.114  1.0957  0.2921 -1.7068
 4834SOL     OW25963   2.424   1.167   8.669 -0.1581  0.2623 -0.2193
 4834SOL    HW125964   2.511   1.128   8.672 -1.2205 -2.1683 -1.7008
 4834SOL    HW225965   2.386   1.142   8.754  0.3189  0.3008  0.0031
 4835SOL     OW25966   1.672   0.303   7.521  0.5916 -0.1210  0.2719
 4835SOL    HW125967   1.590   0.264   7.550  0.3466  1.0607  1.1571
 4835SOL    HW225968   1.729   0.278   7.594 -2.3898 -2.2948  1.8620
 4836SOL     OW25969   2.691   4.221  16.098 -0.2360 -0.0131 -0.2553
 4836SOL    HW125970   2.777   4.179  16.090 -0.4696 -0.4419 -0.5404
 4836SOL    HW225971   2.707   4.295  16.039  0.0243 -0.9366 -1.3538
 4837SOL     OW25972   4.369   4.184   7.523 -0.1207  0.9921  0.4463
 4837SOL    HW125973   4.436   4.188   7.454 -2.0651  2.2865 -1.3420
 4837SOL    HW225974   4.423   4.194   7.602  1.1173 -1.6885 -0.0539
 4838SOL     OW25975   0.974   3.136  16.954 -0.6497 -0.2842 -0.0688
 4838SOL    HW125976   0.963   3.157  17.046  1.9590  0.6564  0.0250
 4838SOL    HW225977   0.904   3.072  16.943 -0.7501 -0.1610 -0.1429
 4839SOL     OW25978   1.573   3.610   7.275 -0.1663  0.1851  0.8431
 4839SOL    HW125979   1.599   3.533   7.224 -0.3238  0.7627 -0.1226
 4839SOL    HW225980   1.658   3.647   7.297  0.9347 -1.4159 -0.6026
 4840SOL     OW25981   3.529   0.536   5.665 -0.1039 -0.1366  0.1270
 4840SOL    HW125982   3.613   0.498   5.637  0.5317  0.5378  1.1200
 4840SOL    HW225983   3.461   0.499   5.609  2.2835 -2.4832 -1.2029
 4841SOL     OW25984   3.605   1.610   3.218  0.0940  0.5953 -0.2607
 4841SOL    HW125985   3.664   1.685   3.220 -1.1813  1.6806 -3.6759
 4841SOL    HW225986   3.627   1.567   3.301 -1.9814  1.0747  0.5477
 4842SOL     OW25987   2.012   1.388   2.957  0.2515 -0.0205 -0.1937
 4842SOL    HW125988   2.014   1.469   2.906 -0.6288  1.3932  2.0227
 4842SOL    HW225989   1.919   1.390   2.978  0.2947 -3.4610  0.3788
 4843SOL     OW25990   1.452   3.082   3.686 -0.1126 -0.3201 -0.4615
 4843SOL    HW125991   1.361   3.087   3.656  0.5773  1.8825 -2.2164
 4843SOL    HW225992   1.447   3.119   3.774  0.8495  0.1501 -0.6019
 4844SOL     OW25993   4.254   2.994   8.043 -0.4466  0.4976 -0.1101
 4844SOL    HW125994   4.225   2.904   8.031  1.3180 -0.2509  1.2205
 4844SOL    HW225995   4.178   3.040   8.008 -0.9697 -0.2629  0.0159
 4845SOL     OW25996   4.094   1.423  10.248  0.5133 -0.5408 -0.5173
 4845SOL    HW125997   4.086   1.508  10.291 -1.3222 -2.5256  3.1065
 4845SOL    HW225998   4.189   1.422  10.252  0.4708  0.4298  0.6019
 4846SOL     OW25999   3.157   0.579  14.189 -0.0735  0.6493  0.4251
 4846SOL    HW126000   3.085   0.528  14.153 -1.1174  1.7729  0.9324
 4846SOL    HW226001   3.168   0.635  14.112 -0.6107 -0.2126 -0.2877
 4847SOL     OW26002   1.533   1.591   6.074 -0.4881 -0.4505  0.0672
 4847SOL    HW126003   1.465   1.543   6.028  0.4434 -1.7372  0.0442
 4847SOL    HW226004   1.534   1.676   6.030 -0.5378 -0.9508 -0.8944
 4848SOL     OW26005   2.604   2.412   4.396  0.0405  0.3818 -0.3841
 4848SOL    HW126006   2.682   2.370   4.360 -0.5208  0.6596 -1.9023
 4848SOL    HW226007   2.549   2.334   4.388 -0.5793  0.7250  0.5640
 4849SOL     OW26008   1.026   0.046   3.426 -0.0096 -0.3427  0.8378
 4849SOL    HW126009   1.085   0.075   3.355 -3.2371  0.7428 -1.3880
 4849SOL    HW226010   1.061   4.681   3.430  0.6590 -0.1042  0.3102
 4850SOL     OW26011   4.344   2.703  10.712  0.2024 -0.4218  0.0495
 4850SOL    HW126012   4.387   2.707  10.627 -0.5083  0.0768 -0.2734
 4850SOL    HW226013   4.383   2.624  10.752 -0.9078 -0.2395  1.4980
 4851SOL     OW26014   4.391   4.136   4.062 -0.2657 -0.0411 -0.3557
 4851SOL    HW126015   4.389   4.093   4.147 -0.4106  1.6155  0.4755
 4851SOL    HW226016   4.464   4.094   4.016  1.2005  1.7700  0.3626
 4852SOL     OW26017   2.254   3.887  16.953 -0.1041 -0.0562 -0.4604
 4852SOL    HW126018   2.167   3.864  16.988  0.0751 -1.8865 -1.2166
 4852SOL    HW226019   2.223   3.960  16.900 -1.1159 -0.4311 -0.3894
 4853SOL     OW26020   0.796   4.701   3.798  0.1268  0.2580  0.1256
 4853SOL    HW126021   0.870   4.644   3.776  0.2102  0.3791  0.0854
 4853SOL    HW226022   0.782   0.018   3.712  1.3813 -3.3041 -1.7645
 4854SOL     OW26023   4.675   3.427   4.723  0.1047  0.7206 -0.1784
 4854SOL    HW126024   4.628   3.450   4.804  2.3355  0.1633  1.2913
 4854SOL    HW226025   4.609   3.372   4.680 -1.4081  0.3196  2.6288
 4855SOL     OW26026   0.615   3.947  13.272  0.5948  0.2186  0.3822
 4855SOL    HW126027   0.614   3.851  13.269 -0.9857  0.2690 -0.8738
 4855SOL    HW226028   0.593   3.963  13.364 -0.4149 -1.9811  0.5130
 4856SOL     OW26029   3.264   2.484   2.774 -0.1992  0.6236  0.1000
 4856SOL    HW126030   3.225   2.408   2.732  0.7425  0.5063 -0.5567
 4856SOL    HW226031   3.261   2.447   2.862  0.2925 -0.0152 -0.1536
 4857SOL     OW26032   4.706   1.890   7.170 -0.1302 -0.8033 -0.5954
 4857SOL    HW126033   4.627   1.869   7.120 -0.8048 -2.5245  1.2104
 4857SOL    HW226034   4.673   1.936   7.247 -1.8194 -1.6644 -0.8059
 4858SOL     OW26035   3.121   4.104   8.420  0.2930  0.8074  0.7377
 4858SOL    HW126036   3.090   4.103   8.329  1.4300 -2.3120  0.4032
 4858SOL    HW226037   3.077   4.179   8.460  0.7344  1.1623  0.5686
 4859SOL     OW26038   3.045   2.827  10.135 -0.1654 -0.3667 -0.1905
 4859SOL    HW126039   3.022   2.794  10.221  0.4812  1.5036  0.6870
 4859SOL    HW226040   3.063   2.745  10.087  0.2638  0.2766 -1.1328
 4860SOL     OW26041   0.324   2.503   9.961  0.2532  0.6317 -0.2078
 4860SOL    HW126042   0.257   2.456  10.010  1.6892  0.0906  1.2360
 4860SOL    HW226043   0.359   2.547  10.038  0.6136 -0.6587  0.3723
 4861SOL     OW26044   4.357   4.010   3.744  0.6829  0.4964  0.3732
 4861SOL    HW126045   4.390   4.099   3.755  0.4928  0.6802 -0.5298
 4861SOL    HW226046   4.398   3.982   3.662  0.9588 -1.6748  1.2531
 4862SOL     OW26047   4.161   2.369  13.846 -0.3720 -1.0056 -0.5176
 4862SOL    HW126048   4.159   2.288  13.795 -1.2368 -1.4769  0.2546
 4862SOL    HW226049   4.169   2.328  13.933 -2.2672  1.5113  0.8343
 4863SOL     OW26050   1.854   4.547   6.118  0.5200 -0.2859  0.2257
 4863SOL    HW126051   1.788   4.478   6.128  0.9926 -0.6591  0.8140
 4863SOL    HW226052   1.894   4.523   6.035 -0.1312 -3.0123  0.7086
 4864SOL     OW26053   1.554   2.721   7.315  0.0024 -0.4586  0.4874
 4864SOL    HW126054   1.508   2.638   7.329 -1.0669 -0.1814 -1.3539
 4864SOL    HW226055   1.546   2.767   7.399 -0.5466 -0.8179  0.6363
 4865SOL     OW26056   0.796   3.309  16.812  0.4509  0.1789  0.3356
 4865SOL    HW126057   0.731   3.260  16.862 -0.6085 -1.5890 -2.7660
 4865SOL    HW226058   0.883   3.271  16.825  0.2924 -0.2261  0.2002
 4866SOL     OW26059   4.104   2.075   1.453 -0.0833  0.0790  0.0936
 4866SOL    HW126060   4.094   2.161   1.493 -0.0868  0.1910 -0.1479
 4866SOL    HW226061   4.192   2.049   1.482  0.3243 -0.0978 -1.3086
 4867SOL     OW26062   0.329   1.175  12.625 -0.0543 -0.4923 -0.0596
 4867SOL    HW126063   0.256   1.116  12.641  0.2703 -1.6643 -3.0319
 4867SOL    HW226064   0.391   1.142  12.561  3.1355  1.4530  2.0524
 4868SOL     OW26065   3.066   2.431   4.445  0.3390 -0.3785  0.4653
 4868SOL    HW126066   3.026   2.373   4.380 -0.0112  0.6813 -0.2749
 4868SOL    HW226067   2.991   2.469   4.491  0.3471  1.7749 -1.2549
 4869SOL     OW26068   3.443   3.069  11.460 -0.0453 -0.3408 -0.0804
 4869SOL    HW126069   3.479   3.051  11.373  2.2498  1.5836  0.4720
 4869SOL    HW226070   3.490   3.151  11.476 -0.3065  0.2132 -2.1466
 4870SOL     OW26071   2.495   0.052  17.577 -0.3368  0.4229  0.4082
 4870SOL    HW126072   2.585   0.074  17.603 -0.2544 -1.6841  2.0082
 4870SOL    HW226073   2.458   0.029  17.663 -0.3016  0.3894  0.4147
 4871SOL     OW26074   4.306   4.666   5.149  0.1493  0.7194 -0.3163
 4871SOL    HW126075   4.313   0.028   5.109  0.4617  1.0277  0.3929
 4871SOL    HW226076   4.277   4.693   5.236 -0.0812  1.0789 -0.5042
 4872SOL     OW26077   2.214   0.825   2.335  0.0958 -0.0770  0.3927
 4872SOL    HW126078   2.214   0.824   2.431 -3.9466 -0.7385  0.3854
 4872SOL    HW226079   2.279   0.894   2.322 -2.2891  1.7729 -1.7600
 4873SOL     OW26080   1.157   0.127   8.590 -0.0590 -0.8120  0.8553
 4873SOL    HW126081   1.246   0.095   8.603  0.2411  0.0354  0.9144
 4873SOL    HW226082   1.157   0.214   8.632  1.7892 -0.9308  1.0898
 4874SOL     OW26083   3.246   2.808   1.913  0.1156  0.0801  0.5344
 4874SOL    HW126084   3.336   2.784   1.889 -0.4017 -1.2969 -0.0478
 4874SOL    HW226085   3.199   2.791   1.831  0.7150  0.7902  0.0432
 4875SOL     OW26086   2.619   3.783   7.929 -0.5009  0.0114  0.4501
 4875SOL    HW126087   2.568   3.728   7.988 -1.2464 -1.8146 -1.8878
 4875SOL    HW226088   2.664   3.838   7.994  0.1830  0.5919 -0.5093
 4876SOL     OW26089   1.156   0.371   3.358  0.2129  0.0443 -0.0895
 4876SOL    HW126090   1.099   0.295   3.372 -0.0168 -0.0987 -1.8192
 4876SOL    HW226091   1.230   0.334   3.310  0.7320 -1.0053  1.5096
 4877SOL     OW26092   4.191   2.394   4.424 -0.1816  0.7230 -0.0956
 4877SOL    HW126093   4.255   2.341   4.375  1.7354  0.6216  2.4999
 4877SOL    HW226094   4.191   2.475   4.374 -0.9092  0.5656 -0.3443
 4878SOL     OW26095   1.491   0.878  15.333  0.3841 -0.3146  0.1081
 4878SOL    HW126096   1.566   0.917  15.377 -0.8183  1.6446  0.4200
 4878SOL    HW226097   1.429   0.950  15.333  0.9573  0.1873  1.6800
 4879SOL     OW26098   4.059   0.055   8.558 -0.1034 -0.1490  0.0753
 4879SOL    HW126099   4.038   0.144   8.588  1.5064  0.6387 -1.1382
 4879SOL    HW226100   4.027   0.005   8.633 -1.1294 -1.4786 -1.2658
 4880SOL     OW26101   2.409   0.660   6.448 -0.3961 -0.3864 -0.1848
 4880SOL    HW126102   2.491   0.610   6.445  0.2347  0.6296  0.0408
 4880SOL    HW226103   2.401   0.673   6.543  0.3476  1.3726 -0.3509
 4881SOL     OW26104   4.423   0.844   4.719 -0.4608 -0.3196 -0.3124
 4881SOL    HW126105   4.431   0.904   4.645 -1.5039  0.4664  0.2056
 4881SOL    HW226106   4.475   0.894   4.783  0.8531 -1.9030 -0.1369
 4882SOL     OW26107   2.430   3.362  11.220 -0.0906 -0.5295 -0.2283
 4882SOL    HW126108   2.414   3.392  11.131  0.4541  0.1429 -0.1020
 4882SOL    HW226109   2.483   3.434  11.253 -1.7612  0.4508  0.2524
 4883SOL     OW26110   4.474   3.653   8.587 -0.1797  0.5411 -0.5066
 4883SOL    HW126111   4.491   3.689   8.674  0.1463 -0.0375 -0.3327
 4883SOL    HW226112   4.534   3.580   8.574 -0.1009  0.6647 -0.8341
 4884SOL     OW26113   2.986   1.862   6.253  0.3484  0.3279 -0.5099
 4884SOL    HW126114   3.025   1.775   6.243 -0.6461 -0.0531 -1.1270
 4884SOL    HW226115   3.009   1.879   6.344 -2.1125  2.1900 -0.2384
 4885SOL     OW26116   4.522   2.066   2.687  0.3601  0.2678  0.1425
 4885SOL    HW126117   4.530   2.085   2.593 -2.0283 -2.1055 -0.5395
 4885SOL    HW226118   4.452   2.002   2.679 -0.2337  1.1340 -1.7140
 4886SOL     OW26119   1.164   0.097   3.218  0.1253  0.4383  0.3406
 4886SOL    HW126120   1.258   0.111   3.225 -0.1225  0.6641  3.0798
 4886SOL    HW226121   1.151   0.090   3.123  0.4230 -0.8462  0.3956
 4887SOL     OW26122   1.979   0.228   7.999  0.4160 -0.1878 -0.1389
 4887SOL    HW126123   2.061   0.203   8.042  1.5198  1.9917 -0.9523
 4887SOL    HW226124   1.924   0.150   7.988 -1.0720  0.8270  0.1502
 4888SOL     OW26125   3.985   1.344   4.149  0.0050 -0.0793  0.6607
 4888SOL    HW126126   3.972   1.415   4.212 -2.5347 -0.9804  1.1678
 4888SOL    HW226127   3.912   1.290   4.178  0.2431 -0.5420  0.3912
 4889SOL     OW26128   2.849   3.472  11.250  0.2260 -0.3682 -0.0292
 4889SOL    HW126129   2.850   3.376  11.243  2.0353 -0.4537  1.3183
 4889SOL    HW226130   2.938   3.495  11.222  0.2522 -1.5035 -0.9060
 4890SOL     OW26131   4.128   0.628  14.598  0.7203  0.0023  0.2113
 4890SOL    HW126132   4.070   0.574  14.545 -0.7481  2.0082 -0.2419
 4890SOL    HW226133   4.210   0.579  14.593 -1.1579 -2.9548 -1.8886
 4891SOL     OW26134   3.456   1.897  17.093  0.5557 -0.5879 -0.4095
 4891SOL    HW126135   3.415   1.909  17.007 -0.7101 -1.8672  0.0163
 4891SOL    HW226136   3.432   1.985  17.123  0.8275 -0.4053 -0.7369
 4892SOL     OW26137   3.090   1.102   7.659 -0.3321  0.1196  0.3828
 4892SOL    HW126138   3.143   1.059   7.726  0.6316 -0.0917 -0.5145
 4892SOL    HW226139   3.147   1.179   7.654  1.3540 -1.1366  0.2046
 4893SOL     OW26140   0.728   3.637   3.468  0.4306 -0.3577  0.0169
 4893SOL    HW126141   0.662   3.682   3.520  1.1896 -1.7983  2.2157
 4893SOL    HW226142   0.663   3.589   3.417  0.5595 -1.5207  0.9562
 4894SOL     OW26143   3.582   1.010   1.329 -0.6842 -0.0262  0.1184
 4894SOL    HW126144   3.564   0.916   1.318 -0.3803 -0.0182 -0.4673
 4894SOL    HW226145   3.668   0.997   1.370 -0.4989  2.6944  0.5998
 4895SOL     OW26146   2.575   3.430   5.866 -0.4025  0.2700 -0.5047
 4895SOL    HW126147   2.582   3.425   5.962 -0.1027 -0.9800 -0.5910
 4895SOL    HW226148   2.663   3.455   5.839  0.0928 -0.9944 -0.0498
 4896SOL     OW26149   3.272   4.349  16.976  0.1096  0.1345 -0.3057
 4896SOL    HW126150   3.198   4.399  17.010 -1.3522 -1.7249 -0.7562
 4896SOL    HW226151   3.307   4.411  16.912  2.3382 -1.3225 -0.5248
 4897SOL     OW26152   0.451   1.164   8.386 -0.3456 -0.3407  0.6643
 4897SOL    HW126153   0.533   1.134   8.347 -1.0749 -1.9842  0.3667
 4897SOL    HW226154   0.433   1.098   8.454 -0.1172 -0.4009  0.6691
 4898SOL     OW26155   0.060   4.326   8.831  0.3334 -0.0202  0.1599
 4898SOL    HW126156   0.114   4.253   8.801  0.1518  0.1753 -0.6320
 4898SOL    HW226157   4.704   4.272   8.828 -0.5576  1.1656  1.9761
 4899SOL     OW26158   2.736   4.667   3.021 -0.0072 -0.2670  0.0532
 4899SOL    HW126159   2.751   0.038   3.028  2.2291 -0.6618  0.6580
 4899SOL    HW226160   2.754   4.650   3.114 -1.1530 -1.6348  0.0272
 4900SOL     OW26161   3.005   2.783   6.978  0.0399  0.7145  0.5089
 4900SOL    HW126162   2.922   2.743   6.951 -0.0514  1.8915 -0.9587
 4900SOL    HW226163   2.980   2.874   6.992  1.6645  1.5765 -2.3311
 4901SOL     OW26164   0.163   0.366  15.852 -0.0822  0.6594 -0.4602
 4901SOL    HW126165   0.163   0.352  15.757  1.4601 -0.1217 -0.3387
 4901SOL    HW226166   0.121   0.452  15.861 -1.1738  0.4933 -3.7753
 4902SOL     OW26167   4.042   2.946  14.101  0.6590 -0.0549  0.3680
 4902SOL    HW126168   3.959   2.956  14.053  1.7956 -0.4812 -1.7050
 4902SOL    HW226169   4.048   3.011  14.170 -1.3283  0.2094  0.3071
 4903SOL     OW26170   2.494   2.531  13.250 -0.3343  0.1780  0.2152
 4903SOL    HW126171   2.509   2.503  13.160  0.7660  1.5805 -0.0233
 4903SOL    HW226172   2.399   2.528  13.244 -0.3393 -0.8751  0.8209
 4904SOL     OW26173   1.598   4.304   5.745 -0.4678 -0.5999 -0.3112
 4904SOL    HW126174   1.591   4.391   5.707 -0.8111 -1.8462 -3.1087
 4904SOL    HW226175   1.631   4.251   5.673 -1.5531 -1.5038 -0.1525
 4905SOL     OW26176   3.929   1.664  14.197 -0.2046 -0.5504 -0.2635
 4905SOL    HW126177   3.941   1.601  14.268 -0.8814  2.0469  2.1698
 4905SOL    HW226178   3.971   1.621  14.123 -0.7571  3.2599 -2.7830
 4906SOL     OW26179   4.434   4.333   6.919  0.0289 -0.0728  0.0160
 4906SOL    HW126180   4.460   4.417   6.881  0.2887 -0.8645 -1.5873
 4906SOL    HW226181   4.383   4.359   6.995  1.2581  0.8434  0.5301
 4907SOL     OW26182   3.922   1.432   6.877 -0.0809  0.2630  0.1557
 4907SOL    HW126183   3.955   1.485   6.949 -1.1309  0.4059  0.5254
 4907SOL    HW226184   3.833   1.464   6.865 -0.7569 -1.2956  0.9753
 4908SOL     OW26185   3.221   0.087   5.958 -0.2935  0.0059  0.2914
 4908SOL    HW126186   3.281   0.161   5.949 -0.8376  0.7909  2.9776
 4908SOL    HW226187   3.137   0.127   5.937  0.2919 -0.2213 -2.5073
 4909SOL     OW26188   0.784   2.841   3.339  0.1018 -0.2598  0.2220
 4909SOL    HW126189   0.829   2.757   3.333 -2.6071 -1.7261  0.4982
 4909SOL    HW226190   0.701   2.814   3.378 -0.4822 -0.6798 -1.2985
 4910SOL     OW26191   0.541   2.675   5.200 -0.7978 -0.3678 -0.3079
 4910SOL    HW126192   0.559   2.655   5.108 -1.0913  1.9199 -0.8646
 4910SOL    HW226193   0.516   2.767   5.193  2.1774  0.3925 -0.9001
 4911SOL     OW26194   3.081   0.769   1.230  0.9952 -0.0012 -0.0173
 4911SOL    HW126195   3.041   0.808   1.152  0.1920  0.4131  0.6145
 4911SOL    HW226196   3.034   0.817   1.298  0.0169 -1.0406  0.0430
 4912SOL     OW26197   2.201   4.075   6.964 -0.6209  0.2938  0.1107
 4912SOL    HW126198   2.162   4.072   7.052  0.2393  0.1415  0.4935
 4912SOL    HW226199   2.227   4.167   6.964  0.2079  0.0595 -0.7331
 4913SOL     OW26200   3.807   4.159   9.299 -0.2021  0.6556 -0.1120
 4913SOL    HW126201   3.734   4.118   9.345  0.2416  2.1369  1.9386
 4913SOL    HW226202   3.861   4.174   9.377  0.4258  2.7662 -0.9582
 4914SOL     OW26203   2.904   2.928   6.249 -0.0784  0.2109  0.1969
 4914SOL    HW126204   2.815   2.898   6.229  0.5166 -0.8393 -0.8381
 4914SOL    HW226205   2.929   2.858   6.309 -3.0321  0.4619  1.7545
 4915SOL     OW26206   4.140   4.480  14.425  0.2161 -0.1739 -0.0258
 4915SOL    HW126207   4.148   4.385  14.421 -1.1411 -0.3136  0.4764
 4915SOL    HW226208   4.088   4.478  14.506  0.2191  0.3392 -0.0128
 4916SOL     OW26209   0.744   4.100   0.925  0.3192 -0.2568  0.0114
 4916SOL    HW126210   0.682   4.061   0.987 -0.4105 -1.0559 -1.2169
 4916SOL    HW226211   0.812   4.033   0.935  0.2160 -0.4507 -0.5457
 4917SOL     OW26212   1.942   2.517   5.551 -0.4865  0.1645  0.5168
 4917SOL    HW126213   2.020   2.488   5.505 -0.3392 -0.7118  1.3342
 4917SOL    HW226214   1.872   2.479   5.498  0.2185 -3.1356  2.0017
 4918SOL     OW26215   1.398   1.451   8.966 -0.3978 -0.2606  0.7670
 4918SOL    HW126216   1.310   1.415   8.958  0.4420 -1.8943 -0.9612
 4918SOL    HW226217   1.409   1.499   8.884  1.0473 -1.6841  0.1462
 4919SOL     OW26218   4.549   1.039   9.181  0.1403  0.8419 -0.0615
 4919SOL    HW126219   4.630   1.086   9.161  1.2618 -1.2898 -0.5396
 4919SOL    HW226220   4.500   1.120   9.194 -1.9365 -0.1958 -1.4655
 4920SOL     OW26221   1.163   4.300  11.249  0.6093 -0.3041  0.3602
 4920SOL    HW126222   1.129   4.229  11.195  1.5979 -0.8719  0.4850
 4920SOL    HW226223   1.205   4.246  11.316 -0.1444 -1.4443 -0.0979
 4921SOL     OW26224   2.647   1.560   9.976  0.1228  0.0230  0.2808
 4921SOL    HW126225   2.712   1.614   9.932  2.1677 -0.4528  2.6889
 4921SOL    HW226226   2.575   1.547   9.915  0.2583 -2.5313  0.6572
 4922SOL     OW26227   0.531   0.543  12.372 -0.2286  0.0500 -0.1448
 4922SOL    HW126228   0.564   0.632  12.386 -0.2756  0.0461 -0.0049
 4922SOL    HW226229   0.473   0.543  12.449 -1.1208 -0.2164 -0.8150
 4923SOL     OW26230   4.622   2.785   1.614  0.1116 -0.7290  0.3222
 4923SOL    HW126231   4.690   2.840   1.575  1.8657 -1.7694  1.9193
 4923SOL    HW226232   4.588   2.744   1.535  1.6025 -2.1657  0.4380
 4924SOL     OW26233   3.208   1.677   6.063  0.6527 -0.1553 -0.2559
 4924SOL    HW126234   3.231   1.643   5.977 -1.3452  0.3295 -0.9985
 4924SOL    HW226235   3.134   1.735   6.044  0.1156 -0.2843  1.4143
 4925SOL     OW26236   4.206   3.291   3.021  0.4933 -0.5099  0.3693
 4925SOL    HW126237   4.154   3.224   2.977 -2.7456  1.1498  1.6602
 4925SOL    HW226238   4.138   3.308   3.086 -0.4375  0.3988 -0.8532
 4926SOL     OW26239   2.295   3.185   1.453  0.4326  0.2578 -0.1141
 4926SOL    HW126240   2.341   3.243   1.392 -0.2884  1.4233  0.4588
 4926SOL    HW226241   2.347   3.197   1.533  0.0412 -1.1245  0.3532
 4927SOL     OW26242   2.831   0.993   2.666 -0.6132 -0.2283  0.0900
 4927SOL    HW126243   2.801   1.073   2.708 -1.6277 -0.0492 -0.9653
 4927SOL    HW226244   2.775   0.927   2.708 -1.4111 -0.6785 -1.6929
 4928SOL     OW26245   2.641   4.084   2.507  0.3921 -0.2140  0.2597
 4928SOL    HW126246   2.681   4.153   2.454  0.3621  0.1757  0.7465
 4928SOL    HW226247   2.557   4.085   2.461  0.8109  2.8240 -0.4165
 4929SOL     OW26248   2.273   2.839  11.798  0.6672  0.3743 -0.7109
 4929SOL    HW126249   2.366   2.859  11.800  0.5208  1.0555 -0.9292
 4929SOL    HW226250   2.221   2.918  11.783  0.7662  0.8540  1.4809
 4930SOL     OW26251   3.205   3.189  11.230  0.3259  0.8847 -0.0970
 4930SOL    HW126252   3.198   3.186  11.135  0.2462  0.9317 -0.0928
 4930SOL    HW226253   3.254   3.109  11.249 -0.3029  0.5055 -0.0705
 4931SOL     OW26254   1.390   0.157   1.463 -0.0933  0.1272  0.0411
 4931SOL    HW126255   1.403   0.112   1.380  0.7799 -1.0584  0.8163
 4931SOL    HW226256   1.300   0.187   1.449 -0.2508  0.2070  1.2040
 4932SOL     OW26257   0.559   4.634  11.779  0.5448  0.1091 -0.0811
 4932SOL    HW126258   0.480   4.625  11.832  0.5522 -0.6865 -0.2040
 4932SOL    HW226259   0.518   4.663  11.697  0.5430 -1.2936 -0.5848
 4933SOL     OW26260   1.368   3.214   2.544  0.2070  0.0034 -0.6935
 4933SOL    HW126261   1.273   3.225   2.552 -0.0236 -1.5444 -1.2765
 4933SOL    HW226262   1.372   3.202   2.449  1.0036  0.4471 -0.7149
 4934SOL     OW26263   0.669   1.390   5.548 -0.0620  0.4538 -0.1781
 4934SOL    HW126264   0.688   1.479   5.579  0.5105  0.6681 -1.1565
 4934SOL    HW226265   0.592   1.403   5.493  0.1756  0.0731 -0.5970
 4935SOL     OW26266   2.959   4.175   8.848 -0.6198 -0.6434 -0.4251
 4935SOL    HW126267   3.051   4.178   8.872 -0.7081  1.3659 -0.3576
 4935SOL    HW226268   2.962   4.122   8.768 -0.2548  0.9968 -1.4939
 4936SOL     OW26269   2.927   2.692   9.746  0.3785 -0.2994  0.0919
 4936SOL    HW126270   2.841   2.692   9.787  0.4544 -0.2603  0.2493
 4936SOL    HW226271   2.920   2.627   9.676  1.3084 -1.6614  1.2823
 4937SOL     OW26272   0.932   3.177  11.282 -0.4521 -0.2368 -0.7364
 4937SOL    HW126273   0.877   3.221  11.347  2.5820 -0.6080  2.0588
 4937SOL    HW226274   0.961   3.089  11.305  0.4490 -0.1286 -1.4624
 4938SOL     OW26275   1.047   3.182   5.614  0.2420 -0.0422  0.6308
 4938SOL    HW126276   1.024   3.094   5.646 -2.0035  0.4092  0.2201
 4938SOL    HW226277   1.050   3.239   5.691 -0.3374  0.9679 -0.1096
 4939SOL     OW26278   3.091   0.371   5.053 -0.4083 -0.3698  0.3157
 4939SOL    HW126279   3.117   0.337   4.968  0.6387 -0.9791  0.8790
 4939SOL    HW226280   2.998   0.363   5.032 -0.6783  1.5628  0.7857
 4940SOL     OW26281   0.974   1.020   6.973 -0.4931  0.3755 -0.1246
 4940SOL    HW126282   0.990   1.114   6.981  0.7029  0.2027 -0.4924
 4940SOL    HW226283   1.030   0.986   7.044 -0.4260  1.4212  0.3257
 4941SOL     OW26284   4.272   1.722  10.105  0.0145 -0.5805 -0.1051
 4941SOL    HW126285   4.345   1.676  10.146 -0.6776 -1.0433  0.6310
 4941SOL    HW226286   4.213   1.703  10.178  2.0899 -1.2479  1.4020
 4942SOL     OW26287   0.645   3.967   2.424  0.0058  0.1255  0.1271
 4942SOL    HW126288   0.647   3.917   2.506 -0.9144 -4.1969 -2.4655
 4942SOL    HW226289   0.732   4.005   2.415  0.1088 -0.2846 -0.5468
 4943SOL     OW26290   4.647   0.926   3.075  0.2905 -0.1003 -0.6438
 4943SOL    HW126291   0.011   0.953   3.104 -0.0524  0.6988 -0.3457
 4943SOL    HW226292   4.618   0.859   3.136  1.5412  0.6349  0.7553
 4944SOL     OW26293   1.893   1.585   0.308 -0.2880 -0.1326  0.4364
 4944SOL    HW126294   1.866   1.616   0.395  1.9723 -0.9102  1.4277
 4944SOL    HW226295   1.811   1.602   0.263  0.7732 -2.3840 -2.3195
 4945SOL     OW26296   2.558   2.693   5.528  0.4355  0.0281 -0.3178
 4945SOL    HW126297   2.566   2.771   5.472 -2.3064  1.1646  0.8869
 4945SOL    HW226298   2.642   2.650   5.508  0.6610  0.5021 -0.4118
 4946SOL     OW26299   3.849   0.382   8.068  0.4900 -0.2313 -0.5212
 4946SOL    HW126300   3.835   0.288   8.067 -0.7500 -0.0243 -2.5059
 4946SOL    HW226301   3.938   0.373   8.103  0.0862  1.3560  0.9221
 4947SOL     OW26302   2.597   0.910   3.058  0.7688 -0.2790  0.1946
 4947SOL    HW126303   2.589   0.999   3.092  0.9396  0.3160 -1.3130
 4947SOL    HW226304   2.671   0.876   3.109 -0.1431  1.7147  2.8373
 4948SOL     OW26305   2.454   2.004   5.193 -0.0385 -0.0112  0.7292
 4948SOL    HW126306   2.442   2.096   5.171  0.0757  0.1121  1.1806
 4948SOL    HW226307   2.384   1.967   5.139  0.4919  1.2939 -0.8493
 4949SOL     OW26308   3.987   3.239  15.252 -0.2059  0.4033  0.2612
 4949SOL    HW126309   4.053   3.249  15.321 -0.3711  0.5179  0.4034
 4949SOL    HW226310   3.917   3.286  15.297 -0.7318 -1.7682  1.7254
 4950SOL     OW26311   3.081   2.194   7.613 -0.1962  0.2466  0.3894
 4950SOL    HW126312   3.156   2.169   7.667 -1.1907 -0.3532  1.4909
 4950SOL    HW226313   3.098   2.132   7.543 -0.1686 -0.2217  0.8080
 4951SOL     OW26314   4.481   0.501   7.586 -0.0820 -0.7139 -0.5635
 4951SOL    HW126315   4.464   0.444   7.511  0.3222 -1.8006  0.1586
 4951SOL    HW226316   4.503   0.584   7.545 -1.0914  0.3483  1.0763
 4952SOL     OW26317   2.560   0.649   8.968  0.2279 -0.2799 -0.1421
 4952SOL    HW126318   2.582   0.639   9.061  1.4526  2.1620 -0.1324
 4952SOL    HW226319   2.643   0.695   8.952 -0.8413  1.2238 -1.3915
 4953SOL     OW26320   4.441   1.217   2.199 -0.1061 -0.2601 -0.6670
 4953SOL    HW126321   4.379   1.154   2.236 -1.3204  0.3978 -1.5921
 4953SOL    HW226322   4.442   1.198   2.105  1.4549  0.1751 -0.7420
 4954SOL     OW26323   2.507   1.734   6.552  0.1079 -0.0952 -1.0312
 4954SOL    HW126324   2.531   1.810   6.606 -1.3890  0.6267 -1.3740
 4954SOL    HW226325   2.418   1.732   6.588  0.4713 -1.4607 -0.2035
 4955SOL     OW26326   4.132   0.050   5.631 -0.4683  0.0260  0.4787
 4955SOL    HW126327   4.070   0.117   5.659 -2.5741 -2.6491  2.1322
 4955SOL    HW226328   4.089   4.692   5.654 -0.9650  1.2579  3.9387
 4956SOL     OW26329   0.647   0.866   8.913 -0.2446 -0.4615 -0.3204
 4956SOL    HW126330   0.626   0.782   8.954  1.3579 -0.1092  1.2369
 4956SOL    HW226331   0.643   0.844   8.820  2.4365  1.2198 -0.8256
 4957SOL     OW26332   2.374   2.620   8.347 -0.2918  0.2252  0.1480
 4957SOL    HW126333   2.430   2.693   8.320  0.2698  0.2922  1.4948
 4957SOL    HW226334   2.365   2.650   8.438 -0.4088  2.2694 -0.5403
 4958SOL     OW26335   0.769   1.097   8.059  0.0672 -0.4249 -0.3442
 4958SOL    HW126336   0.696   1.098   7.997  1.3656  0.0329 -1.8466
 4958SOL    HW226337   0.824   1.161   8.015  1.0094  0.0161  1.4685
 4959SOL     OW26338   3.958   0.226   5.798 -0.5736  0.6180 -0.4270
 4959SOL    HW126339   3.950   0.142   5.844  0.7396 -0.4141 -2.0972
 4959SOL    HW226340   3.881   0.275   5.826  0.2285  0.2903  2.3445
 4960SOL     OW26341   0.971   3.056   3.688  0.7859  0.3674  1.0444
 4960SOL    HW126342   1.019   3.127   3.730 -0.3222  2.3388 -1.0044
 4960SOL    HW226343   0.894   3.056   3.745 -0.6732  1.4186 -0.9364
 4961SOL     OW26344   2.046   0.660   1.252 -0.2117  0.0579  0.1277
 4961SOL    HW126345   2.019   0.747   1.281 -0.8095 -0.2288  0.4308
 4961SOL    HW226346   1.961   0.617   1.240 -0.0272 -0.4249  0.5712
 4962SOL     OW26347   0.453   4.029   4.694 -0.3441 -0.1872 -0.1595
 4962SOL    HW126348   0.399   3.999   4.767  1.9379 -2.2307  0.6996
 4962SOL    HW226349   0.532   4.061   4.738 -1.0931  1.9859 -0.4196
 4963SOL     OW26350   3.133   0.788   9.819  0.5225 -0.7319 -0.0956
 4963SOL    HW126351   3.187   0.776   9.897  1.3871 -0.2977 -0.6338
 4963SOL    HW226352   3.051   0.767   9.864 -0.7172  0.9273 -1.5678
 4964SOL     OW26353   2.240   3.660   3.547 -0.1919  0.0950  0.4594
 4964SOL    HW126354   2.296   3.600   3.598  1.0679 -0.5732 -1.7139
 4964SOL    HW226355   2.272   3.742   3.584 -0.3166  1.4481 -2.4795
 4965SOL     OW26356   0.631   2.693   3.901  0.0116  0.0678  0.0376
 4965SOL    HW126357   0.635   2.600   3.882 -2.6063 -0.0034 -0.1734
 4965SOL    HW226358   0.584   2.692   3.984  0.9551 -1.3926  0.5650
 4966SOL     OW26359   0.005   4.286   7.123 -0.2867 -0.3817  0.3337
 4966SOL    HW126360   0.077   4.232   7.157  0.2606  0.8383  1.1213
 4966SOL    HW226361   0.010   4.257   7.032  3.6207 -0.5133  0.5576
 4967SOL     OW26362   2.147   3.829   5.003 -0.3977 -0.2685  0.3798
 4967SOL    HW126363   2.075   3.769   4.988  0.1915 -0.9416  0.2576
 4967SOL    HW226364   2.118   3.902   4.948  2.0589  0.5062  0.1144
 4968SOL     OW26365   0.434   4.063   4.299  0.1395 -0.3568  0.6339
 4968SOL    HW126366   0.384   4.083   4.220 -0.7575  0.0139  1.2943
 4968SOL    HW226367   0.368   4.093   4.362 -1.4080 -1.9029 -0.2634
 4969SOL     OW26368   1.489   2.965   6.708  0.3073  0.6713 -0.3184
 4969SOL    HW126369   1.504   2.927   6.622 -0.0463  0.7074 -0.3945
 4969SOL    HW226370   1.537   3.047   6.697 -0.0659  0.3650 -3.9783
 4970SOL     OW26371   1.443   1.650   8.813  0.2235  0.1216 -0.2439
 4970SOL    HW126372   1.538   1.644   8.823 -0.1535 -0.7968  2.6092
 4970SOL    HW226373   1.440   1.666   8.718  1.7046 -0.4345 -0.3904
 4971SOL     OW26374   0.565   4.058   3.013 -0.2081 -0.1113  0.2764
 4971SOL    HW126375   0.572   4.149   3.042 -1.6551  0.5634 -1.5220
 4971SOL    HW226376   0.627   4.015   3.072 -1.7622 -0.5108  1.6350
 4972SOL     OW26377   1.460   2.809   8.538 -0.3592 -0.2349 -0.2018
 4972SOL    HW126378   1.505   2.822   8.621  0.2378 -1.2042 -0.3861
 4972SOL    HW226379   1.425   2.720   8.541 -1.8225  0.4174  3.1016
 4973SOL     OW26380   1.884   3.427   5.167  0.1057  0.0596  0.2511
 4973SOL    HW126381   1.843   3.348   5.201  0.1366 -0.7017 -1.4988
 4973SOL    HW226382   1.902   3.466   5.253  0.0710 -1.7238  1.0634
 4974SOL     OW26383   3.325   1.447  10.841 -0.1112 -0.4783  0.9104
 4974SOL    HW126384   3.376   1.455  10.922  0.5118  0.1654  0.4535
 4974SOL    HW226385   3.241   1.412  10.870 -1.1513 -0.7312 -2.4490
 4975SOL     OW26386   2.451   1.541  17.301  0.4039 -0.3337  0.2014
 4975SOL    HW126387   2.433   1.482  17.375  0.0798  0.8461  1.0599
 4975SOL    HW226388   2.467   1.482  17.227 -0.2062  0.9004 -0.9015
 4976SOL     OW26389   3.936   1.293   7.577 -0.0470 -0.3446  0.0670
 4976SOL    HW126390   4.018   1.317   7.621  0.1863  0.3342 -0.7385
 4976SOL    HW226391   3.884   1.245   7.641  0.0374 -1.3274 -0.5986
 4977SOL     OW26392   3.765   4.026   3.387 -0.5436  0.5406 -0.3560
 4977SOL    HW126393   3.748   3.934   3.366 -0.3888  0.7353 -1.3651
 4977SOL    HW226394   3.797   3.999   3.473 -1.2385  2.6625  0.5669
 4978SOL     OW26395   1.003   1.930   1.336 -0.0709 -0.3641 -0.0659
 4978SOL    HW126396   1.017   1.961   1.247 -3.2574 -0.2210 -0.5015
 4978SOL    HW226397   1.036   2.000   1.393  3.2321 -2.0519  0.1291
 4979SOL     OW26398   4.529   4.563   8.761  0.5617  0.0302 -0.1439
 4979SOL    HW126399   4.502   4.652   8.785  1.1025 -0.2055  1.3365
 4979SOL    HW226400   4.458   4.523   8.812  0.5970 -1.6364 -1.3846
 4980SOL     OW26401   1.243   4.552   0.302 -0.7440 -0.3516 -0.1296
 4980SOL    HW126402   1.212   4.556   0.211 -0.7456  1.4397 -0.0542
 4980SOL    HW226403   1.288   4.468   0.304 -0.8036 -0.3573  0.9098
 4981SOL     OW26404   1.642   2.535   3.709 -0.1537  0.0582  0.2114
 4981SOL    HW126405   1.649   2.501   3.620 -1.5365  2.5553 -0.8682
 4981SOL    HW226406   1.711   2.601   3.712  1.5748 -1.6571 -2.3235
 4982SOL     OW26407   4.601   3.340   2.468  0.1717  0.0587 -0.7012
 4982SOL    HW126408   4.606   3.294   2.551 -2.7459 -0.2841 -0.6842
 4982SOL    HW226409   4.508   3.326   2.449 -0.0725 -0.1426  0.6896
 4983SOL     OW26410   2.219   1.232   5.627  0.6335  0.2236  0.3323
 4983SOL    HW126411   2.206   1.280   5.546  0.9796 -0.0178  0.1346
 4983SOL    HW226412   2.144   1.172   5.622  0.8872 -0.0170 -0.5354
 4984SOL     OW26413   0.360   2.458  16.344  0.9118 -0.0750  0.6087
 4984SOL    HW126414   0.307   2.505  16.280 -1.6137  1.1023  3.5981
 4984SOL    HW226415   0.412   2.524  16.391  2.5213 -0.2591 -0.9053
 4985SOL     OW26416   1.541   0.703   5.078 -0.3584  0.0425  0.1931
 4985SOL    HW126417   1.528   0.795   5.099 -1.9460 -0.1314 -0.0208
 4985SOL    HW226418   1.552   0.706   4.983  0.2700  0.1491  0.2677
 4986SOL     OW26419   0.981   3.545   8.314  0.0127  0.1777 -0.2664
 4986SOL    HW126420   0.926   3.499   8.250 -0.4499 -0.0811  0.3126
 4986SOL    HW226421   0.926   3.538   8.392  1.0024  2.5083  0.6211
 4987SOL     OW26422   4.403   0.652  10.954 -0.7135  0.0656  0.4698
 4987SOL    HW126423   4.407   0.557  10.964 -0.4040  0.0474  0.1477
 4987SOL    HW226424   4.343   0.668  11.027 -0.4455 -0.0908  0.7245
 4988SOL     OW26425   0.849   0.572   5.769 -0.1723  0.1167 -0.2094
 4988SOL    HW126426   0.860   0.535   5.682  0.2842 -0.9920  0.3146
 4988SOL    HW226427   0.890   0.659   5.765  0.3305 -0.1006  0.2184
 4989SOL     OW26428   4.007   3.568  13.092  0.4146  0.3339 -0.1913
 4989SOL    HW126429   4.039   3.639  13.036  2.5723 -1.1935 -0.9042
 4989SOL    HW226430   3.940   3.526  13.038 -0.5655  0.6268  0.8201
 4990SOL     OW26431   3.217   1.873  14.186  0.4674 -0.3166  0.0610
 4990SOL    HW126432   3.224   1.857  14.281  1.8959  0.2076  0.0419
 4990SOL    HW226433   3.218   1.969  14.191  0.1577 -0.2378 -1.5470
 4991SOL     OW26434   2.435   0.048  12.303  0.0540 -0.0691 -0.0728
 4991SOL    HW126435   2.382   0.023  12.379 -0.6401  1.4449 -0.0674
 4991SOL    HW226436   2.512   0.092  12.336  1.8422 -1.1156 -2.8193
 4992SOL     OW26437   0.095   1.955   1.119 -0.1612  0.7742 -0.3169
 4992SOL    HW126438   0.148   1.909   1.054  1.4725  1.8820  0.2488
 4992SOL    HW226439   0.015   1.969   1.068 -0.3057 -0.9499 -0.5729
 4993SOL     OW26440   3.539   3.360   2.679  0.1119 -0.0988 -0.1054
 4993SOL    HW126441   3.543   3.390   2.589 -0.9752  0.8471  0.1580
 4993SOL    HW226442   3.514   3.440   2.726  0.0168 -0.9672  1.3505
 4994SOL     OW26443   1.854   4.667   2.377  0.1769 -0.2539 -0.1774
 4994SOL    HW126444   1.919   4.612   2.421  0.5428  0.8308  0.6269
 4994SOL    HW226445   1.826   4.610   2.305  1.8053 -0.8227 -0.3509
 4995SOL     OW26446   0.545   4.673   0.756 -0.6429  0.0780 -0.2777
 4995SOL    HW126447   0.456   4.700   0.780 -0.6380 -1.8052  1.8874
 4995SOL    HW226448   0.566   4.619   0.832  1.4564 -1.5564 -2.0045
 4996SOL     OW26449   4.690   1.983   8.515  0.1074  0.2944 -0.3442
 4996SOL    HW126450   0.008   1.955   8.597 -0.3583  2.1011  0.5221
 4996SOL    HW226451   0.041   1.983   8.456  0.5179 -1.9918  0.2084
 4997SOL     OW26452   2.439   2.862   4.724  0.2579  0.2650  0.1323
 4997SOL    HW126453   2.416   2.794   4.660 -1.8168  0.4536  0.6604
 4997SOL    HW226454   2.493   2.917   4.667  0.5830 -1.6173 -1.3868
 4998SOL     OW26455   1.332   0.592  14.531 -0.1784 -0.2089  0.0490
 4998SOL    HW126456   1.348   0.649  14.606  0.7312  1.2128 -1.1947
 4998SOL    HW226457   1.279   0.650  14.476  2.9270  0.6579 -2.0613
 4999SOL     OW26458   0.184   1.422  11.454 -0.3467  0.5207 -0.1026
 4999SOL    HW126459   0.220   1.435  11.367 -0.2662 -1.0440 -0.3080
 4999SOL    HW226460   0.094   1.401  11.430  0.6585 -3.0302 -0.7904
 5000SOL     OW26461   0.488   1.326   9.196  0.2115 -0.0163  0.5097
 5000SOL    HW126462   0.430   1.282   9.258  1.4393 -0.2135  1.5294
 5000SOL    HW226463   0.540   1.254   9.160 -0.7483 -0.8645  0.8184
 5001SOL     OW26464   1.913   0.001   1.639 -0.2094  0.1065  0.2245
 5001SOL    HW126465   1.984   0.028   1.698 -0.9516 -3.3873  2.6515
 5001SOL    HW226466   1.901   0.090   1.605 -0.0442  0.0761  0.0840
 5002SOL     OW26467   4.626   1.790   7.826  0.3208 -0.0926 -0.5236
 5002SOL    HW126468   4.614   1.696   7.838  1.8774 -0.0863  1.1181
 5002SOL    HW226469   4.537   1.827   7.824 -0.3206 -1.5038  1.4242
 5003SOL     OW26470   2.527   1.694  14.629 -0.0107 -0.0040 -0.2584
 5003SOL    HW126471   2.520   1.752  14.553  3.8865  0.2179 -0.4508
 5003SOL    HW226472   2.516   1.758  14.700  1.2172  1.8362 -1.7026
 5004SOL     OW26473   0.077   0.716   1.200  0.0382  0.1089 -0.4906
 5004SOL    HW126474   0.007   0.677   1.147  1.0387 -1.2435 -0.8133
 5004SOL    HW226475   0.099   0.791   1.144  1.6535  0.4090  0.5573
 5005SOL     OW26476   3.560   4.586   5.405 -0.1469 -0.0297  0.3333
 5005SOL    HW126477   3.475   4.608   5.443 -1.2877  0.0360 -2.2810
 5005SOL    HW226478   3.623   4.612   5.472 -0.1003 -2.7969  1.3673
 5006SOL     OW26479   4.513   0.531  13.505  0.7766 -1.1536  0.0914
 5006SOL    HW126480   4.435   0.541  13.450  1.4497  0.1235 -0.6347
 5006SOL    HW226481   4.482   0.561  13.590  1.0268  2.8789 -1.2386
 5007SOL     OW26482   0.482   1.728   8.360 -0.0471 -0.1229  0.4717
 5007SOL    HW126483   0.495   1.637   8.331  1.5635  0.3908 -0.4407
 5007SOL    HW226484   0.527   1.772   8.288 -2.4937 -0.3045 -1.1851
 5008SOL     OW26485   2.937   0.494  14.026 -0.0172 -0.1480  0.1121
 5008SOL    HW126486   2.877   0.566  14.013 -1.4148 -1.6371 -1.7059
 5008SOL    HW226487   2.879   0.425  14.059 -1.6840  1.0568 -0.3311
 5009SOL     OW26488   2.412   3.906  10.044 -0.0491 -0.4874  0.0507
 5009SOL    HW126489   2.353   3.882   9.973  2.1525 -2.2682 -1.1737
 5009SOL    HW226490   2.418   3.998  10.021 -1.7205 -0.5995 -0.8477
 5010SOL     OW26491   0.578   2.709  13.562 -0.3140 -0.2246 -0.6284
 5010SOL    HW126492   0.510   2.658  13.519  1.0348 -2.8557  0.3702
 5010SOL    HW226493   0.650   2.647  13.552 -0.3501 -0.1295 -1.4970
 5011SOL     OW26494   4.408   2.822   5.507  0.3561  0.5411 -0.1069
 5011SOL    HW126495   4.421   2.774   5.588 -1.6747 -0.9599 -0.6757
 5011SOL    HW226496   4.369   2.753   5.453  1.8053  1.9605 -2.9917
 5012SOL     OW26497   4.528   3.202   4.628  0.2296 -0.0079  0.3121
 5012SOL    HW126498   4.433   3.192   4.617  0.4683 -0.9588 -0.8255
 5012SOL    HW226499   4.552   3.132   4.689 -1.3831  1.2997  2.4701
 5013SOL     OW26500   0.981   0.488   6.053 -0.2258  0.2019  0.3471
 5013SOL    HW126501   0.910   0.552   6.063  0.7792  1.4038 -0.3339
 5013SOL    HW226502   0.944   0.444   5.976  0.7763  0.1656 -0.1090
 5014SOL     OW26503   0.262   4.533  17.131  0.2247  0.2493  0.1222
 5014SOL    HW126504   0.270   4.499  17.042 -1.7376  1.2239 -0.4317
 5014SOL    HW226505   0.167   4.519  17.141  0.3897 -0.2844  0.9301
 5015SOL     OW26506   1.772   4.540  15.939 -0.4233  0.5354 -0.7265
 5015SOL    HW126507   1.764   4.606  15.871  0.9707  2.1229  0.6730
 5015SOL    HW226508   1.828   4.474  15.900  0.5691  0.6590  0.4857
 5016SOL     OW26509   0.621   4.110  10.682  0.2913 -0.2614  0.3616
 5016SOL    HW126510   0.616   4.047  10.754 -2.2003  2.2252  2.3365
 5016SOL    HW226511   0.714   4.132  10.685 -0.2960  2.6657 -2.0595
 5017SOL     OW26512   0.176   3.411   7.938 -0.4469 -0.3060 -0.5669
 5017SOL    HW126513   0.177   3.506   7.948  1.7862 -0.3147 -0.8032
 5017SOL    HW226514   0.081   3.401   7.950 -0.0452 -2.0028  1.0862
 5018SOL     OW26515   3.472   0.822   3.780  0.2571 -0.2075  0.0001
 5018SOL    HW126516   3.509   0.755   3.722 -1.3025 -0.0908 -1.1470
 5018SOL    HW226517   3.378   0.801   3.785  0.1615  0.2293  0.0524
 5019SOL     OW26518   4.097   3.646   5.784 -0.2003  0.5314  0.3212
 5019SOL    HW126519   4.135   3.592   5.714 -0.0808 -0.0309  0.8165
 5019SOL    HW226520   4.004   3.641   5.763  0.1204 -0.9649 -0.7525
 5020SOL     OW26521   0.921   0.777   1.363 -0.0961 -0.6795  0.2832
 5020SOL    HW126522   0.847   0.718   1.376  0.0854 -0.4883  2.2773
 5020SOL    HW226523   0.894   0.815   1.280  1.3738  1.5429  0.8242
 5021SOL     OW26524   1.914   0.974  14.473 -0.3226  0.1827  0.1492
 5021SOL    HW126525   1.977   1.007  14.409  0.1959 -2.0748 -0.5012
 5021SOL    HW226526   1.856   1.050  14.483 -0.6366 -0.0887  0.4080
 5022SOL     OW26527   2.073   4.267  14.297 -0.1357 -0.2907 -0.4608
 5022SOL    HW126528   2.087   4.200  14.230  4.4726  1.5517 -1.3077
 5022SOL    HW226529   2.160   4.266  14.336 -0.3209  1.3544 -0.0382
 5023SOL     OW26530   2.199   3.546   7.760 -0.0315 -0.1420 -0.2326
 5023SOL    HW126531   2.256   3.611   7.718 -1.1738 -0.5544 -2.3980
 5023SOL    HW226532   2.140   3.529   7.687 -2.5416 -0.3027  1.8636
 5024SOL     OW26533   4.648   1.828   4.350  0.3741  0.1002  0.1100
 5024SOL    HW126534   4.690   1.749   4.384 -1.4591 -0.7496  0.4123
 5024SOL    HW226535   4.704   1.901   4.376  1.5994 -0.7931  0.0041
 5025SOL     OW26536   4.279   3.857   2.307  0.6944 -0.2776  0.6578
 5025SOL    HW126537   4.290   3.937   2.255  0.8997  0.6646  2.1613
 5025SOL    HW226538   4.240   3.801   2.240  2.8646 -2.2577  1.0566
 5026SOL     OW26539   3.315   0.526   2.883  0.0920  0.4151 -0.4973
 5026SOL    HW126540   3.292   0.485   2.966 -0.8438  2.1628  0.1167
 5026SOL    HW226541   3.244   0.588   2.866 -1.2093 -1.0261 -0.2359
 5027SOL     OW26542   0.003   1.662   2.553  0.1172 -0.1673 -0.8420
 5027SOL    HW126543   4.640   1.676   2.590  0.3858 -1.2317  0.2122
 5027SOL    HW226544   0.038   1.750   2.560  2.3953 -0.7558 -4.4736
 5028SOL     OW26545   2.599   2.960   6.745  0.4344  0.5621 -0.1102
 5028SOL    HW126546   2.552   3.025   6.694 -0.2364 -1.5034 -2.1219
 5028SOL    HW226547   2.583   2.981   6.837 -1.6821 -0.8020 -0.1933
 5029SOL     OW26548   0.184   1.798   6.989 -0.3630  0.0659  0.0619
 5029SOL    HW126549   0.114   1.811   7.053 -2.7580 -2.9214 -1.9578
 5029SOL    HW226550   0.253   1.856   7.021 -1.3644  0.8704  0.7938
 5030SOL     OW26551   3.026   0.481  13.432 -0.2187  0.2934 -0.1135
 5030SOL    HW126552   3.018   0.576  13.423 -0.0633  0.3125 -0.0550
 5030SOL    HW226553   3.119   0.477  13.408 -0.5021 -0.8143 -1.0170
 5031SOL     OW26554   1.913   4.297   3.100  0.7256 -0.1385 -0.6568
 5031SOL    HW126555   2.003   4.274   3.079  0.6811 -1.2031  0.3097
 5031SOL    HW226556   1.915   4.252   3.184 -2.3203  0.4448 -0.2764
 5032SOL     OW26557   4.698   3.374   1.094 -0.3644  0.1456 -0.3358
 5032SOL    HW126558   4.710   3.463   1.127  1.7521 -1.2253  2.5844
 5032SOL    HW226559   0.024   3.317   1.152 -0.8481 -0.2567 -0.3163
 5033SOL     OW26560   0.834   2.877   4.245  0.2206  0.5061  0.4022
 5033SOL    HW126561   0.877   2.809   4.193 -0.7823  0.8290 -0.8622
 5033SOL    HW226562   0.821   2.945   4.179 -0.3351 -0.0195 -0.0366
 5034SOL     OW26563   2.131   2.922  16.771 -0.2236 -0.2930  0.0318
 5034SOL    HW126564   2.108   2.850  16.830 -1.8320 -0.9677 -1.4003
 5034SOL    HW226565   2.120   2.897  16.679  0.1872  0.7290 -0.2934
 5035SOL     OW26566   2.177   2.758  15.298 -0.0241  0.2385  0.5970
 5035SOL    HW126567   2.259   2.725  15.262  0.5712  0.9239  1.3304
 5035SOL    HW226568   2.215   2.818  15.362 -1.2148  1.1194  0.4826
 5036SOL     OW26569   1.788   0.755  14.193 -0.7550  0.6257  0.2323
 5036SOL    HW126570   1.761   0.679  14.142  1.0338  0.6320 -0.7202
 5036SOL    HW226571   1.742   0.832  14.160  2.5913  2.6829  0.3760
 5037SOL     OW26572   0.670   4.228   6.081  0.0306  0.2081 -0.0253
 5037SOL    HW126573   0.668   4.208   6.175  3.6583  0.7014  0.1669
 5037SOL    HW226574   0.756   4.196   6.053  1.3161  1.9052  1.9758
 5038SOL     OW26575   0.941   2.076  12.609  0.0625  0.0769 -0.1103
 5038SOL    HW126576   0.961   1.982  12.617  1.1735  0.3188 -0.1063
 5038SOL    HW226577   1.032   2.103  12.614 -0.0130  0.2960  0.0587
 5039SOL     OW26578   4.639   3.470   8.478 -0.1657 -0.1006 -0.6852
 5039SOL    HW126579   4.659   3.391   8.428 -0.3111 -0.3025 -0.4289
 5039SOL    HW226580   4.693   3.459   8.557  1.4472  1.8770 -1.5239
 5040SOL     OW26581   1.547   0.326   1.276  0.4337 -0.5373 -0.0827
 5040SOL    HW126582   1.486   0.281   1.335  1.7462 -0.1335  1.5925
 5040SOL    HW226583   1.624   0.339   1.333 -0.6263 -0.4614  1.3375
 5041SOL     OW26584   0.204   0.505   6.705 -0.0768  0.0349 -0.6644
 5041SOL    HW126585   0.210   0.496   6.800 -0.1443  2.2963 -0.4405
 5041SOL    HW226586   0.204   0.600   6.696 -3.6053  0.0517 -0.7778
 5042SOL     OW26587   2.506   3.036   0.656  0.0294  0.3104  0.0643
 5042SOL    HW126588   2.514   2.962   0.596 -0.2466 -1.2762  1.9478
 5042SOL    HW226589   2.472   2.984   0.729 -1.1026  0.9135 -0.0434
 5043SOL     OW26590   3.025   3.437   0.344  0.0560  0.2050  0.3764
 5043SOL    HW126591   2.978   3.493   0.406 -0.2200 -0.5130  0.8167
 5043SOL    HW226592   3.009   3.356   0.391 -1.0600  0.0321 -0.2990
 5044SOL     OW26593   3.217   0.317   3.613 -0.1718  0.4545  0.5405
 5044SOL    HW126594   3.183   0.280   3.532  0.9296  0.9285 -0.1310
 5044SOL    HW226595   3.302   0.359   3.603  0.2463 -0.3279  0.8002
 5045SOL     OW26596   1.979   3.207   7.382  0.7823  0.0636 -0.1001
 5045SOL    HW126597   1.897   3.183   7.424  0.0691  2.2416 -0.2318
 5045SOL    HW226598   1.963   3.162   7.299 -1.3143  1.1670 -0.2792
 5046SOL     OW26599   1.211   2.023   4.123 -0.2248 -0.0794 -0.5646
 5046SOL    HW126600   1.243   2.065   4.043 -0.3469 -0.4028 -0.7813
 5046SOL    HW226601   1.119   2.011   4.098 -0.8221  0.6214  1.3404
 5047SOL     OW26602   2.825   3.915   1.941  0.2631 -0.1455 -0.5192
 5047SOL    HW126603   2.868   3.830   1.955  0.7978  0.1826 -0.1811
 5047SOL    HW226604   2.885   3.961   1.883  1.7378 -0.4680  0.7501
 5048SOL     OW26605   3.704   0.192   4.450  0.2136  0.3359 -0.5529
 5048SOL    HW126606   3.680   0.191   4.357 -2.0203 -1.1541  0.0613
 5048SOL    HW226607   3.800   0.199   4.442  0.2330  0.5060 -0.1781
 5049SOL     OW26608   3.326   3.199  14.084 -0.3761 -0.4697 -0.0885
 5049SOL    HW126609   3.255   3.136  14.097  0.4706 -1.3918  0.0867
 5049SOL    HW226610   3.359   3.159  14.004 -2.4923 -1.6337 -0.3887
 5050SOL     OW26611   1.583   1.356   5.216 -0.1247  0.1237 -0.0934
 5050SOL    HW126612   1.527   1.430   5.195  1.7580  1.1426 -1.4092
 5050SOL    HW226613   1.632   1.337   5.137 -0.7663 -0.8829 -0.2628
 5051SOL     OW26614   0.952   2.537   4.543  0.5151 -0.1506 -0.1052
 5051SOL    HW126615   0.983   2.578   4.462 -0.1128 -0.4330 -0.4878
 5051SOL    HW226616   0.934   2.611   4.601  1.0984 -0.2863  0.2440
 5052SOL     OW26617   3.944   3.055   3.948  0.1454 -0.1993  0.3281
 5052SOL    HW126618   3.891   3.111   3.892  1.1301 -0.3767 -0.7711
 5052SOL    HW226619   3.891   3.049   4.027  2.5125  2.8769  2.2112
 5053SOL     OW26620   1.965   3.837   4.583 -0.0791  0.1217  0.0311
 5053SOL    HW126621   2.042   3.791   4.616 -0.4838 -0.8432 -0.3565
 5053SOL    HW226622   1.964   3.900   4.655 -0.1531 -0.8397  0.8866
 5054SOL     OW26623   1.383   1.530   9.821 -0.6337 -0.4586 -0.3200
 5054SOL    HW126624   1.402   1.456   9.764 -2.5684  0.9183 -2.7106
 5054SOL    HW226625   1.324   1.578   9.764  0.5633 -0.4951 -1.5717
 5055SOL     OW26626   2.043   0.317  13.166 -0.1743 -0.0167 -0.4495
 5055SOL    HW126627   1.987   0.290  13.092 -0.9547 -0.3861  0.2727
 5055SOL    HW226628   2.024   0.410  13.176 -1.3316 -0.4876  1.7960
 5056SOL     OW26629   4.719   4.422  13.704  0.1323 -0.0132 -0.1245
 5056SOL    HW126630   4.671   4.504  13.713  2.2861  1.2987 -0.6089
 5056SOL    HW226631   4.701   4.387  13.617  0.2627 -1.3819  0.3932
 5057SOL     OW26632   1.046   1.012   9.121  0.2208  0.7155 -0.7677
 5057SOL    HW126633   1.070   0.931   9.165  1.2811  1.4123 -0.0588
 5057SOL    HW226634   0.951   1.001   9.115  0.3290 -0.1308 -0.8719
 5058SOL     OW26635   0.326   2.240   0.762  0.7778 -0.1723  0.8028
 5058SOL    HW126636   0.253   2.221   0.703  0.5157 -1.4358  1.5424
 5058SOL    HW226637   0.289   2.214   0.846  0.3407 -0.9109  0.3796
 5059SOL     OW26638   1.503   1.269   6.530  0.1630  0.0610  0.3537
 5059SOL    HW126639   1.515   1.295   6.622 -1.2095 -0.0703  0.5704
 5059SOL    HW226640   1.411   1.292   6.520  0.2872 -0.1487 -1.1386
 5060SOL     OW26641   3.316   2.229   2.592 -0.2126 -0.0126 -0.3346
 5060SOL    HW126642   3.382   2.160   2.583 -0.7402 -0.5473 -0.0823
 5060SOL    HW226643   3.232   2.183   2.601  0.0367 -0.3846  0.0992
 5061SOL     OW26644   2.176   0.150   8.190 -0.6038  0.1996 -0.2025
 5061SOL    HW126645   2.248   0.202   8.227  0.6209 -0.7778 -1.2139
 5061SOL    HW226646   2.124   0.125   8.266  0.2386 -0.4346  0.1694
 5062SOL     OW26647   3.316   1.424   7.296 -0.3411 -0.0073 -0.0706
 5062SOL    HW126648   3.279   1.460   7.376  1.9612  0.9391  0.5616
 5062SOL    HW226649   3.333   1.332   7.314 -1.3447 -0.5583 -1.9553
 5063SOL     OW26650   4.391   3.793  17.021  0.2780 -0.2199  0.2917
 5063SOL    HW126651   4.442   3.717  16.993  1.0101  0.0377  0.8971
 5063SOL    HW226652   4.377   3.833  16.936  0.7607 -0.0225  0.3050
 5064SOL     OW26653   0.061   3.917   5.845  0.2789 -0.1448 -0.0999
 5064SOL    HW126654   0.088   3.982   5.780 -0.1185  0.2324  0.1162
 5064SOL    HW226655   0.123   3.932   5.918 -2.5008 -1.3928  2.5153
 5065SOL     OW26656   4.370   1.380  14.975 -0.3171 -0.2433  0.4617
 5065SOL    HW126657   4.464   1.378  14.957 -0.2327  0.8569  0.7781
 5065SOL    HW226658   4.372   1.467  15.015  1.2754 -0.1877  0.2702
 5066SOL     OW26659   0.078   2.838   2.257 -0.3592 -0.2483  0.2791
 5066SOL    HW126660   0.109   2.751   2.284  1.3447 -0.4678 -2.2709
 5066SOL    HW226661   0.082   2.879   2.343 -0.7005 -1.2654  0.7845
 5067SOL     OW26662   4.600   0.805   6.826  0.6455  0.1151  0.1611
 5067SOL    HW126663   4.615   0.853   6.907 -0.1418 -2.0756  1.5900
 5067SOL    HW226664   4.642   0.864   6.763 -2.7983  0.5879 -1.7190
 5068SOL     OW26665   3.996   0.283   8.690  0.9319 -0.2482  0.3959
 5068SOL    HW126666   3.951   0.301   8.772  1.6825 -0.0894  0.7742
 5068SOL    HW226667   3.957   0.352   8.636 -2.1565 -1.7811  0.6542
 5069SOL     OW26668   4.248   3.996   9.891 -0.5455 -0.4609  0.4013
 5069SOL    HW126669   4.180   4.062   9.891 -0.0432  0.0313 -1.6435
 5069SOL    HW226670   4.287   4.004   9.979  1.9274 -0.6471 -0.6618
 5070SOL     OW26671   3.949   4.185   6.324 -0.3574 -0.5148  0.2374
 5070SOL    HW126672   3.912   4.204   6.410 -2.1993 -0.8259 -0.4947
 5070SOL    HW226673   4.015   4.254   6.315  0.4606 -1.3026  0.1930
 5071SOL     OW26674   3.817   3.958   1.017  0.1625  0.0836  0.3989
 5071SOL    HW126675   3.862   4.032   1.058 -1.1727 -0.1153  2.1955
 5071SOL    HW226676   3.801   3.900   1.091 -1.8772 -1.2149 -1.0570
 5072SOL     OW26677   2.996   0.854   7.146 -0.1040 -0.4274 -0.7186
 5072SOL    HW126678   3.057   0.857   7.072  2.7958  2.6520  1.7546
 5072SOL    HW226679   3.048   0.898   7.214 -0.2541 -1.2616 -0.0668
 5073SOL     OW26680   0.929   3.132  10.181  0.2313  0.8987  0.4944
 5073SOL    HW126681   0.908   3.220  10.211 -0.1037  0.9702  0.0609
 5073SOL    HW226682   0.864   3.083  10.231  1.3591 -0.5361  0.5645
 5074SOL     OW26683   1.387   3.897   1.543  0.4551 -0.1029  0.2301
 5074SOL    HW126684   1.482   3.904   1.531  0.4534  0.7352  0.6936
 5074SOL    HW226685   1.360   3.827   1.484 -0.0141  1.4653 -1.4135
 5075SOL     OW26686   0.130   0.808  17.604 -0.6970 -0.2825  0.4332
 5075SOL    HW126687   0.054   0.804  17.545  0.3529  0.1520 -0.9501
 5075SOL    HW226688   0.086   0.880  17.649  2.1869  1.0890  1.0679
 5076SOL     OW26689   3.499   3.391   1.250  0.2905 -0.1920 -0.4053
 5076SOL    HW126690   3.416   3.377   1.204  0.3805 -1.2201 -0.2678
 5076SOL    HW226691   3.468   3.376   1.340  2.1460 -0.2889  0.2117
 5077SOL     OW26692   1.018   4.533   6.162  0.2263 -0.0632 -0.2793
 5077SOL    HW126693   0.967   4.484   6.227 -0.6870 -1.0376 -1.7162
 5077SOL    HW226694   1.074   4.562   6.233 -0.2055  1.7965 -0.7037
 5078SOL     OW26695   2.398   2.123  12.779  0.4081 -0.3371 -0.3598
 5078SOL    HW126696   2.329   2.068  12.818  0.7657  0.6846  1.6768
 5078SOL    HW226697   2.464   2.125  12.848 -0.6726  1.8843  0.5872
 5079SOL     OW26698   2.876   3.261   4.670  0.6807 -0.2061  0.1918
 5079SOL    HW126699   2.914   3.302   4.748  3.0828 -0.9486 -0.6180
 5079SOL    HW226700   2.854   3.333   4.611 -0.9706  0.3142  1.4221
 5080SOL     OW26701   2.543   1.099   1.963  0.0128 -0.1362 -0.3722
 5080SOL    HW126702   2.449   1.082   1.956  0.1947 -1.0625 -0.6235
 5080SOL    HW226703   2.585   1.041   1.900  0.8615  1.2519 -1.0789
 5081SOL     OW26704   3.552   2.947   1.581 -0.1331  0.6367 -0.4226
 5081SOL    HW126705   3.540   2.985   1.668 -1.8220  2.8928 -1.6749
 5081SOL    HW226706   3.524   2.856   1.592 -0.4713  0.3736 -3.3802
 5082SOL     OW26707   2.887   3.081   9.069 -0.0302  0.9763  1.1288
 5082SOL    HW126708   2.812   3.140   9.077  0.3022  1.3810  1.2502
 5082SOL    HW226709   2.949   3.110   9.136 -0.0540  2.4174  0.5210
 5083SOL     OW26710   2.088   3.280   9.031  0.7449  0.3435 -0.2312
 5083SOL    HW126711   2.142   3.201   9.022 -0.9262 -0.7556 -0.7969
 5083SOL    HW226712   1.999   3.248   9.016  0.4219  1.2446 -0.2117
 5084SOL     OW26713   2.420   2.256   3.630  0.5458 -0.2516  0.6295
 5084SOL    HW126714   2.505   2.247   3.588  0.9065  3.5239  0.5379
 5084SOL    HW226715   2.356   2.248   3.559 -0.6826 -1.3095  1.8399
 5085SOL     OW26716   0.703   0.422   6.240  0.5179 -0.0815  0.2783
 5085SOL    HW126717   0.720   0.515   6.221  0.7422 -0.1171  0.3006
 5085SOL    HW226718   0.796   0.397   6.245  0.9257  0.9918 -1.8970
 5086SOL     OW26719   1.783   0.811   3.212  0.3085 -0.4292  0.0825
 5086SOL    HW126720   1.877   0.830   3.220  0.4444 -0.8116 -0.5846
 5086SOL    HW226721   1.765   0.873   3.141 -1.0322 -0.8255  0.0715
 5087SOL     OW26722   1.172   3.209   7.736  0.1915 -0.8392  0.2276
 5087SOL    HW126723   1.090   3.200   7.786 -1.1319  0.8969 -1.6129
 5087SOL    HW226724   1.233   3.234   7.805 -1.0091  0.2779  0.9016
 5088SOL     OW26725   0.525   2.610   9.130 -0.1026 -0.4543 -0.1225
 5088SOL    HW126726   0.439   2.589   9.166 -0.2888 -0.6222 -0.6649
 5088SOL    HW226727   0.530   2.705   9.139 -1.7150 -0.2193 -1.7134
 5089SOL     OW26728   3.393   2.319   5.089 -0.4299  0.2908 -0.2107
 5089SOL    HW126729   3.404   2.333   4.995 -2.7118  2.4035 -0.1495
 5089SOL    HW226730   3.479   2.352   5.117 -0.4721  2.0648 -2.2049
 5090SOL     OW26731   0.425   4.400   1.083 -0.0120  0.4300  0.0787
 5090SOL    HW126732   0.364   4.460   1.040  0.5235  0.2981 -0.8597
 5090SOL    HW226733   0.514   4.431   1.062 -0.5015  0.8788 -1.3143
 5091SOL     OW26734   3.232   2.593   7.918  0.5927 -0.3357 -0.0121
 5091SOL    HW126735   3.238   2.541   7.999  1.8185 -0.6867 -0.3304
 5091SOL    HW226736   3.292   2.664   7.940  0.0677 -0.6006  2.3344
 5092SOL     OW26737   1.689   2.095   3.454  0.4813  0.3494 -0.1568
 5092SOL    HW126738   1.721   2.118   3.366 -0.7664 -1.4366 -1.0915
 5092SOL    HW226739   1.706   2.001   3.446  0.7867  0.5414 -1.8245
 5093SOL     OW26740   4.494   1.753   8.418 -0.4587  0.4357 -0.5928
 5093SOL    HW126741   4.543   1.805   8.482 -1.1505 -0.3288  0.5677
 5093SOL    HW226742   4.514   1.663   8.445 -0.3979 -0.6840 -4.4238
 5094SOL     OW26743   2.919   2.965   1.866  0.1997  0.0323  0.0674
 5094SOL    HW126744   2.870   2.956   1.948  1.7321  1.7364  1.1509
 5094SOL    HW226745   2.992   3.023   1.887  0.2315  0.1369 -0.3370
 5095SOL     OW26746   1.164   2.156   1.813  0.4231  0.5422 -0.0812
 5095SOL    HW126747   1.121   2.081   1.771  1.4627 -0.0305 -0.1222
 5095SOL    HW226748   1.235   2.114   1.861 -0.1163  0.0839  0.3141
 5096SOL     OW26749   1.974   4.200  15.509 -0.3570  0.0594 -0.1229
 5096SOL    HW126750   1.961   4.111  15.543 -1.6856  0.2268 -0.1996
 5096SOL    HW226751   1.994   4.173  15.419 -0.0485 -0.8776  0.2209
 5097SOL     OW26752   1.295   4.411   4.213 -0.0947 -0.0498 -0.0172
 5097SOL    HW126753   1.242   4.482   4.178 -3.2870 -1.8349  1.1902
 5097SOL    HW226754   1.343   4.450   4.286  0.2758 -1.1990  0.3527
 5098SOL     OW26755   0.894   3.944   8.530 -0.0952  0.4100  0.3798
 5098SOL    HW126756   0.912   3.964   8.438 -1.3458  1.2819  0.3209
 5098SOL    HW226757   0.984   3.933   8.563  0.3815 -1.9908 -1.7507
 5099SOL     OW26758   1.520   2.024   2.300 -0.1206  0.6674 -0.1694
 5099SOL    HW126759   1.470   2.100   2.270 -0.0950  0.9593  0.5159
 5099SOL    HW226760   1.604   2.043   2.259 -0.2271  0.0293 -0.6903
 5100SOL     OW26761   3.910   1.615  10.693 -0.0894  0.1377  0.3810
 5100SOL    HW126762   3.932   1.636  10.602  0.5303  3.1099  1.1997
 5100SOL    HW226763   3.824   1.658  10.696 -0.6661 -1.1349  1.9175
 5101SOL     OW26764   2.199   1.528   8.987 -0.2330 -0.2163  0.3028
 5101SOL    HW126765   2.236   1.553   8.902 -3.1553  3.9549  0.2390
 5101SOL    HW226766   2.258   1.453   8.992 -0.1674 -0.1926 -0.0488
 5102SOL     OW26767   2.839   2.419  17.007  0.1990 -0.1881 -0.7161
 5102SOL    HW126768   2.751   2.383  17.012  0.6966 -1.3494 -0.2582
 5102SOL    HW226769   2.858   2.416  17.101 -2.2127  3.7129 -0.1176
 5103SOL     OW26770   1.954   0.593  17.498 -0.5053  0.0123 -0.0822
 5103SOL    HW126771   1.905   0.517  17.530 -0.8103  0.3636  0.2966
 5103SOL    HW226772   1.927   0.617  17.409 -1.2239 -0.7876 -0.0815
 5104SOL     OW26773   2.155   4.444  16.653 -0.1420 -0.2404  0.0778
 5104SOL    HW126774   2.175   4.377  16.587  0.8997 -0.4434  0.6011
 5104SOL    HW226775   2.243   4.435  16.689  1.1368 -0.6771 -3.0738
 5105SOL     OW26776   4.291   0.528  13.177  0.3658  0.2470 -0.6044
 5105SOL    HW126777   4.308   0.599  13.239  0.7404 -0.2966 -0.0870
 5105SOL    HW226778   4.218   0.561  13.125  0.0897 -0.7368 -0.8285
 5106SOL     OW26779   2.001   1.794   6.534 -0.2448 -0.2044  0.7262
 5106SOL    HW126780   2.000   1.832   6.622 -0.7388  1.8597 -0.1935
 5106SOL    HW226781   1.962   1.708   6.551  0.8554 -0.4068  2.1795
 5107SOL     OW26782   0.990   1.890   2.234  0.4894 -0.0694 -0.4511
 5107SOL    HW126783   1.062   1.910   2.174  0.1057 -0.8647 -1.1911
 5107SOL    HW226784   0.928   1.850   2.173 -0.1705  0.6053 -0.2081
 5108SOL     OW26785   1.203   4.478  16.982  0.3225 -0.5773 -0.4312
 5108SOL    HW126786   1.280   4.422  16.987  1.2685  0.7904  0.3486
 5108SOL    HW226787   1.154   4.433  16.913 -0.6067 -0.9030  0.4337
 5109SOL     OW26788   3.332   4.142   7.310 -0.5400  0.0647 -0.1121
 5109SOL    HW126789   3.351   4.216   7.253  1.4606  1.5691  2.5500
 5109SOL    HW226790   3.286   4.186   7.381  0.6409  1.4819 -0.2303
 5110SOL     OW26791   0.367   3.740   1.149  0.1836 -0.0532 -0.6057
 5110SOL    HW126792   0.417   3.666   1.184  1.0136  0.7026 -0.2179
 5110SOL    HW226793   0.402   3.737   1.060 -0.9121  1.8506 -1.1014
 5111SOL     OW26794   1.303   0.188   3.608  0.5313 -0.9857  0.1236
 5111SOL    HW126795   1.314   0.184   3.513 -0.1060 -2.0791  0.1006
 5111SOL    HW226796   1.330   0.103   3.644  1.0654 -1.6292 -1.7978
 5112SOL     OW26797   2.685   1.106   8.071  0.1616 -0.2509 -0.0646
 5112SOL    HW126798   2.667   1.098   8.164  2.1049 -2.2895  0.1463
 5112SOL    HW226799   2.599   1.110   8.029 -0.3329  1.9613  1.2027
 5113SOL     OW26800   3.981   0.101  15.761  0.3591 -0.6506 -0.1231
 5113SOL    HW126801   3.886   0.106  15.767  0.5101  3.0989 -0.6671
 5113SOL    HW226802   4.008   0.139  15.677 -0.9004  0.4454 -0.0388
 5114SOL     OW26803   0.021   1.775   9.330  0.8987  0.4174  0.3733
 5114SOL    HW126804   0.020   1.825   9.412  0.0613  1.3488 -0.2108
 5114SOL    HW226805   0.065   1.698   9.365 -0.4660 -0.5088  0.0279
 5115SOL     OW26806   3.306   0.524   0.865 -0.5993  0.6270 -0.6753
 5115SOL    HW126807   3.302   0.434   0.898  1.2572  1.6498  2.3602
 5115SOL    HW226808   3.253   0.515   0.786 -0.1669 -2.2470 -0.6212
 5116SOL     OW26809   0.398   3.342   2.333 -0.6955 -0.2963 -0.5867
 5116SOL    HW126810   0.462   3.289   2.382 -0.3217 -0.8426 -1.6702
 5116SOL    HW226811   0.316   3.306   2.367 -1.2324  1.0769 -0.4361
 5117SOL     OW26812   3.682   1.321   4.537 -0.2185  0.6949 -0.0078
 5117SOL    HW126813   3.758   1.360   4.580 -0.2302 -0.3376  0.9412
 5117SOL    HW226814   3.692   1.226   4.545  0.8353  0.7487 -0.7122
 5118SOL     OW26815   4.089   0.281  12.353  0.5861  0.0778  0.7678
 5118SOL    HW126816   4.150   0.326  12.294 -0.3699  0.2358 -0.1061
 5118SOL    HW226817   4.022   0.348  12.373 -0.6385 -1.3278  1.3642
 5119SOL     OW26818   1.461   3.187   6.915 -0.7364 -0.0701  0.1226
 5119SOL    HW126819   1.416   3.187   6.831  0.0471  0.9562 -0.3007
 5119SOL    HW226820   1.407   3.253   6.959 -0.6359 -0.3486  0.6576
 5120SOL     OW26821   4.072   1.139   3.701 -0.5732 -0.8037  0.3419
 5120SOL    HW126822   4.156   1.184   3.710 -1.5644  1.0372  0.5272
 5120SOL    HW226823   4.103   1.096   3.622 -1.6410  0.1766 -0.6197
 5121SOL     OW26824   1.520   0.757   0.832 -0.8376  0.0288 -0.4274
 5121SOL    HW126825   1.562   0.741   0.917  0.4586 -0.1351 -1.1049
 5121SOL    HW226826   1.546   0.675   0.791 -2.0358 -0.9062  0.6539
 5122SOL     OW26827   3.566   1.499   6.042  0.1950 -0.3926  0.4014
 5122SOL    HW126828   3.515   1.531   5.968  0.2677  1.1743  1.0235
 5122SOL    HW226829   3.616   1.570   6.084  0.0579 -0.5845  0.8965
 5123SOL     OW26830   0.180   0.489  11.261 -0.1823 -0.0658  0.4687
 5123SOL    HW126831   0.152   0.528  11.178  2.1651  0.0379 -0.2805
 5123SOL    HW226832   0.131   0.407  11.257  1.6301 -1.1869  1.0179
 5124SOL     OW26833   1.537   1.959   4.927  0.3258 -0.2189 -0.2575
 5124SOL    HW126834   1.536   2.030   4.863  0.6620 -1.5995 -1.7882
 5124SOL    HW226835   1.583   2.004   4.997  1.1513 -0.3405 -0.7308
 5125SOL     OW26836   2.904   0.368   9.624  0.0322  0.0718  0.1461
 5125SOL    HW126837   2.941   0.416   9.699 -1.0566  1.8666 -0.4676
 5125SOL    HW226838   2.854   0.441   9.587 -1.3127 -0.7263  0.3987
 5126SOL     OW26839   2.127   2.383  13.178  0.3124 -0.0469  0.2797
 5126SOL    HW126840   2.085   2.402  13.094  0.8803 -1.6441 -0.3725
 5126SOL    HW226841   2.123   2.288  13.191  0.8578 -0.1257 -0.1149
 5127SOL     OW26842   1.895   4.024  15.321  0.2403 -0.2412  0.4766
 5127SOL    HW126843   1.816   3.995  15.275 -0.4551  0.7725  1.0330
 5127SOL    HW226844   1.960   4.012  15.252 -2.9063 -1.8048 -2.2653
 5128SOL     OW26845   2.939   4.040   7.912 -0.0371 -0.0010  0.1010
 5128SOL    HW126846   2.956   3.947   7.900 -1.5840 -0.2425 -0.2156
 5128SOL    HW226847   2.844   4.033   7.903  0.0460  0.8210 -1.3956
 5129SOL     OW26848   0.076   4.154   3.658  0.1103  0.0998  0.5491
 5129SOL    HW126849   0.076   4.117   3.570 -1.5824 -1.5103  1.2031
 5129SOL    HW226850   0.119   4.239   3.652  0.1714 -0.3670 -5.3232
 5130SOL     OW26851   0.201   2.824   4.319  0.4100 -0.1621 -0.0920
 5130SOL    HW126852   0.248   2.741   4.308  0.6855  0.1250 -1.1127
 5130SOL    HW226853   0.175   2.852   4.231 -2.3524  0.7877  1.0211
 5131SOL     OW26854   4.447   3.139  10.750  0.2928 -0.2078  0.3612
 5131SOL    HW126855   4.507   3.209  10.724  0.2929  0.0354  1.0345
 5131SOL    HW226856   4.378   3.179  10.696  1.5800 -0.6885 -1.6664
 5132SOL     OW26857   2.201   2.456   3.684 -0.1643 -0.3932 -0.8743
 5132SOL    HW126858   2.255   2.534   3.699 -0.2207 -0.2205 -1.5386
 5132SOL    HW226859   2.272   2.392   3.688  1.7276  1.9294  2.2137
 5133SOL     OW26860   1.162   3.596  13.824 -0.1826  0.5716 -0.2902
 5133SOL    HW126861   1.241   3.624  13.777 -1.0717  1.9207 -0.9951
 5133SOL    HW226862   1.196   3.517  13.866  0.1999  0.2081 -1.2792
 5134SOL     OW26863   0.140   2.922   1.538  0.1444 -0.0647  0.2441
 5134SOL    HW126864   0.219   2.868   1.533  0.5958  0.4723  1.5063
 5134SOL    HW226865   0.174   3.011   1.526 -1.5757  0.0809 -3.7831
 5135SOL     OW26866   2.786   2.432   7.731 -0.3294  0.0837 -0.6799
 5135SOL    HW126867   2.702   2.478   7.728  0.0674  0.8046 -0.5179
 5135SOL    HW226868   2.843   2.508   7.735  1.9791 -1.6503 -0.8711
 5136SOL     OW26869   3.087   4.031   5.995 -0.0797 -0.5556  0.0919
 5136SOL    HW126870   3.168   3.982   5.989 -0.9062 -2.0671  1.2184
 5136SOL    HW226871   3.091   4.089   5.919  0.0502  2.0157  2.0534
 5137SOL     OW26872   4.222   0.710   1.930  0.5638  0.9390 -0.4648
 5137SOL    HW126873   4.294   0.772   1.915 -0.1311  2.2868  1.6684
 5137SOL    HW226874   4.154   0.762   1.889 -1.5566  0.4770  2.4605
 5138SOL     OW26875   0.741   4.685   5.210  0.0280  0.3081  0.1426
 5138SOL    HW126876   0.762   4.671   5.302 -1.0243 -0.5435  0.2574
 5138SOL    HW226877   0.655   4.721   5.231 -1.0076 -1.6045 -0.7724
 5139SOL     OW26878   2.952   2.281   3.562 -0.2393  0.0128  0.4446
 5139SOL    HW126879   3.043   2.311   3.566 -0.6861  1.8163 -2.0007
 5139SOL    HW226880   2.915   2.353   3.510 -0.3756  0.3653  1.0354
 5140SOL     OW26881   3.134   2.248   5.186 -0.2872 -0.3073 -0.4167
 5140SOL    HW126882   3.215   2.283   5.149 -0.6536  0.0218 -0.9291
 5140SOL    HW226883   3.148   2.269   5.278  1.3799 -0.7414 -0.5736
 5141SOL     OW26884   2.017   3.403  12.739 -0.4560 -0.3696 -0.2877
 5141SOL    HW126885   2.077   3.330  12.721  0.2774  0.3246 -0.6776
 5141SOL    HW226886   1.987   3.378  12.826 -0.3156 -3.1186 -1.0213
 5142SOL     OW26887   3.262   0.423   9.697 -0.2458 -0.3389  0.2082
 5142SOL    HW126888   3.223   0.353   9.644  0.5107  0.6796 -1.6944
 5142SOL    HW226889   3.226   0.502   9.658 -0.1874  0.4328  1.7230
 5143SOL     OW26890   0.357   0.045   3.669  0.1341 -0.1390 -0.0105
 5143SOL    HW126891   0.373   0.137   3.648  0.9918 -1.0024 -3.1850
 5143SOL    HW226892   0.441   0.005   3.645  0.5236  0.8600 -0.3548
 5144SOL     OW26893   1.540   1.975   7.751 -0.1947  0.7652 -0.1328
 5144SOL    HW126894   1.572   2.044   7.810 -0.2655  0.1611  0.6023
 5144SOL    HW226895   1.626   1.934   7.741  0.0184  1.0806  0.4459
 5145SOL     OW26896   3.434   2.899   7.149 -0.0286 -0.1159  0.3321
 5145SOL    HW126897   3.453   2.989   7.179  0.6040  0.0374 -0.5195
 5145SOL    HW226898   3.473   2.837   7.211  0.3403 -2.2712 -2.0808
 5146SOL     OW26899   0.321   4.637   6.773 -0.2838 -0.2481 -0.4336
 5146SOL    HW126900   0.406   4.593   6.778 -0.4208 -0.4185  0.3017
 5146SOL    HW226901   0.320   4.667   6.682  0.9609  1.9206  0.2546
 5147SOL     OW26902   0.141   0.626   7.196 -0.1880 -0.1191 -0.0274
 5147SOL    HW126903   0.215   0.569   7.217 -1.7419 -2.1299  0.0481
 5147SOL    HW226904   0.146   0.678   7.275 -0.6584  0.4034 -0.3460
 5148SOL     OW26905   3.356   2.383   7.739 -0.5494 -0.3035 -0.2116
 5148SOL    HW126906   3.364   2.477   7.725 -1.1892 -0.2453 -0.1872
 5148SOL    HW226907   3.261   2.384   7.755 -0.2955  3.1787  1.0925
 5149SOL     OW26908   3.465   3.965   0.685 -0.2757 -0.2272  0.3444
 5149SOL    HW126909   3.472   4.060   0.687 -0.7794 -0.1714 -0.3992
 5149SOL    HW226910   3.402   3.947   0.755  1.0579 -0.4510  1.4844
 5150SOL     OW26911   4.316   1.727   1.931 -0.0914 -0.4776  0.4233
 5150SOL    HW126912   4.360   1.702   1.850 -3.0736  0.7651 -1.5818
 5150SOL    HW226913   4.316   1.648   1.985 -0.1288 -0.8261 -0.0879
 5151SOL     OW26914   2.619   0.740   7.698  0.4262  0.2402 -0.0701
 5151SOL    HW126915   2.589   0.756   7.787 -1.6298 -0.7944 -0.5689
 5151SOL    HW226916   2.702   0.694   7.712 -0.6140 -1.4534  0.5053
 5152SOL     OW26917   1.574   4.369   1.680 -0.4307  0.1975  0.3060
 5152SOL    HW126918   1.631   4.297   1.707 -0.3938  0.4946  1.0162
 5152SOL    HW226919   1.485   4.339   1.699 -0.4013 -0.6406 -0.8796
 5153SOL     OW26920   0.619   4.476   6.181  0.4613  0.0138 -0.3203
 5153SOL    HW126921   0.556   4.426   6.234 -1.0440  1.4153 -0.8023
 5153SOL    HW226922   0.657   4.393   6.150 -1.0017 -0.6021 -0.4976
 5154SOL     OW26923   0.191   1.903   5.191 -0.9271 -0.1129  0.1839
 5154SOL    HW126924   0.110   1.853   5.183 -0.6127 -0.3187 -1.7000
 5154SOL    HW226925   0.209   1.941   5.104 -0.7341  0.1840  0.3522
 5155SOL     OW26926   4.047   1.936   6.772 -0.2497 -0.1158  0.1145
 5155SOL    HW126927   4.052   2.018   6.821 -0.6134  0.5718 -1.0065
 5155SOL    HW226928   3.955   1.945   6.749 -0.3900  1.4609  1.2751
 5156SOL     OW26929   1.595   0.441   4.921  0.1182 -0.0794  0.4726
 5156SOL    HW126930   1.681   0.444   4.878 -0.5586 -0.5105 -0.9116
 5156SOL    HW226931   1.541   0.509   4.883  2.5268  0.6962 -1.5879
 5157SOL     OW26932   2.805   3.703   7.719 -0.2873 -0.0572  0.0271
 5157SOL    HW126933   2.747   3.724   7.792  1.5260 -0.1015  1.4996
 5157SOL    HW226934   2.753   3.630   7.686 -0.4908  0.0426  0.1305
 5158SOL     OW26935   2.725   0.638   6.826  0.6420 -0.4052  0.2833
 5158SOL    HW126936   2.651   0.689   6.793 -0.3087 -0.1940  2.7240
 5158SOL    HW226937   2.769   0.714   6.862 -0.5657 -0.5416  2.0676
 5159SOL     OW26938   4.640   4.061   1.694 -0.5648 -0.2970 -0.1386
 5159SOL    HW126939   4.651   3.979   1.645  1.3832 -0.1956  0.1206
 5159SOL    HW226940   4.676   4.122   1.630 -0.2581 -2.7676 -2.3263
 5160SOL     OW26941   4.464   2.750   1.398 -0.4815 -0.2971 -0.0441
 5160SOL    HW126942   4.474   2.828   1.344 -0.2843 -1.0412 -1.0887
 5160SOL    HW226943   4.374   2.725   1.377 -0.1634 -0.7190 -0.9161
 5161SOL     OW26944   0.192   1.193   0.879 -0.2744 -0.3840  0.4074
 5161SOL    HW126945   0.237   1.150   0.952  1.0446 -1.2272 -0.8996
 5161SOL    HW226946   0.116   1.233   0.921 -0.0881  0.7094 -0.2994
 5162SOL     OW26947   4.039   3.218   5.934  0.1374  0.8589 -0.2811
 5162SOL    HW126948   4.134   3.224   5.928  0.3525 -2.0003  0.6776
 5162SOL    HW226949   4.010   3.307   5.954  1.4702  0.6547  2.4556
 5163SOL     OW26950   3.123   1.840   2.812 -0.0639 -0.3227 -0.1157
 5163SOL    HW126951   3.191   1.782   2.846  0.1363  0.4788  0.8588
 5163SOL    HW226952   3.086   1.797   2.735  1.2147 -1.0780 -0.3037
 5164SOL     OW26953   0.146   2.127  10.065 -0.3417 -0.1817  0.7266
 5164SOL    HW126954   0.147   2.217  10.097 -0.5604  0.5983 -1.5008
 5164SOL    HW226955   0.094   2.077  10.129 -1.1776 -1.8217 -1.2408
 5165SOL     OW26956   2.270   4.644   4.813  0.8746  0.3055 -0.0412
 5165SOL    HW126957   2.281   4.698   4.735  2.2993 -1.9637 -1.4548
 5165SOL    HW226958   2.354   4.608   4.842 -0.8971 -1.9444  2.3205
 5166SOL     OW26959   4.128   4.601  14.191  0.0994 -0.0731  0.4190
 5166SOL    HW126960   4.133   4.561  14.278  0.2972 -0.8845  0.0331
 5166SOL    HW226961   4.197   4.562  14.138 -0.3564 -0.9443  0.4617
 5167SOL     OW26962   1.962   0.003   3.666  0.1799  0.0082  0.1527
 5167SOL    HW126963   1.942   4.720   3.573  1.5040  2.8866 -0.3459
 5167SOL    HW226964   2.055   4.706   3.660  0.5041  1.8693 -1.3540
 5168SOL     OW26965   0.396   1.494  12.581 -0.2125  0.9771 -0.0311
 5168SOL    HW126966   0.335   1.424  12.603  0.6711  0.5053  0.9032
 5168SOL    HW226967   0.333   1.549  12.536 -0.7032  0.8379  0.4886
 5169SOL     OW26968   1.861   3.785  13.454  0.4499 -0.2736 -0.3680
 5169SOL    HW126969   1.932   3.812  13.396  0.8771 -1.6224 -0.4624
 5169SOL    HW226970   1.896   3.707  13.496  0.7316 -0.1430 -0.3631
 5170SOL     OW26971   1.849   1.198   8.244 -0.5809 -0.3395  0.2962
 5170SOL    HW126972   1.916   1.147   8.289 -0.0108  1.1104  1.0853
 5170SOL    HW226973   1.876   1.165   8.158 -0.7397 -0.9725  0.4942
 5171SOL     OW26974   1.595   4.123   1.849 -0.1327 -0.4887 -0.1953
 5171SOL    HW126975   1.611   4.075   1.768 -2.3344  0.9171 -1.4652
 5171SOL    HW226976   1.683   4.154   1.872 -1.5501  1.8209  2.0662
 5172SOL     OW26977   3.040   2.245   4.216  0.2419 -0.1342 -0.3253
 5172SOL    HW126978   3.006   2.207   4.135 -1.3668 -0.9611  0.7476
 5172SOL    HW226979   3.107   2.303   4.178 -0.5777  1.1241  0.1534
 5173SOL     OW26980   2.497   4.040   3.927  0.1415  0.4454 -0.0279
 5173SOL    HW126981   2.476   4.003   4.012  1.6290 -2.2367 -0.8444
 5173SOL    HW226982   2.542   3.959   3.903  0.6305  0.4906  0.7406
 5174SOL     OW26983   0.820   3.543   2.056 -0.2410  0.0130  0.4242
 5174SOL    HW126984   0.880   3.590   2.113  1.6835 -1.2623 -0.5736
 5174SOL    HW226985   0.862   3.538   1.970  0.3091  4.1374  0.4764
 5175SOL     OW26986   1.371   2.030   8.306 -0.1303 -0.1702 -0.3446
 5175SOL    HW126987   1.456   2.011   8.347 -1.3113 -2.0025  1.2667
 5175SOL    HW226988   1.343   2.108   8.355 -3.3871 -0.5822 -1.5494
 5176SOL     OW26989   1.463   3.787   9.622 -0.0489  1.0602 -0.1510
 5176SOL    HW126990   1.388   3.801   9.680  1.6926  2.5959  1.7425
 5176SOL    HW226991   1.470   3.876   9.587 -1.2673  0.5825 -1.5751
 5177SOL     OW26992   0.516   2.824   7.054  0.2617 -0.0680 -0.2563
 5177SOL    HW126993   0.432   2.868   7.042 -0.1439  0.2215  3.3954
 5177SOL    HW226994   0.566   2.904   7.073 -1.0541  0.9822 -1.2657
 5178SOL     OW26995   3.204   3.186   0.684  0.1436 -0.0708 -0.2362
 5178SOL    HW126996   3.295   3.175   0.711 -0.5737 -3.6687  0.6986
 5178SOL    HW226997   3.213   3.276   0.651  0.3702  0.9378  2.6100
 5179SOL     OW26998   4.066   1.327  10.564 -0.1080 -0.1005  0.8070
 5179SOL    HW126999   4.123   1.398  10.593 -1.4552  1.8240 -1.2797
 5179SOL    HW227000   3.993   1.370  10.520  0.1854 -2.1702 -1.7107
 5180SOL     OW27001   2.206   3.526   7.042  0.3183 -0.3152  0.2308
 5180SOL    HW127002   2.136   3.479   7.087 -0.2268 -0.2101 -0.5067
 5180SOL    HW227003   2.190   3.618   7.065 -0.6557 -0.0620 -1.4460
 5181SOL     OW27004   0.748   2.568   8.518  0.0263 -0.3050  0.1085
 5181SOL    HW127005   0.731   2.616   8.436 -2.6144 -2.8644 -0.8459
 5181SOL    HW227006   0.832   2.607   8.544 -0.4797  0.6577  0.2960
 5182SOL     OW27007   3.658   0.242   1.519  0.1604  0.2904  0.2697
 5182SOL    HW127008   3.687   0.284   1.600  0.9677 -1.1067  0.6843
 5182SOL    HW227009   3.565   0.223   1.534 -0.7380  2.8634 -1.9373
 5183SOL     OW27010   2.580   0.147   8.107 -0.3353 -0.0823  0.3075
 5183SOL    HW127011   2.583   0.216   8.173 -0.7706 -0.8559  1.1309
 5183SOL    HW227012   2.556   0.188   8.023 -0.1732 -2.0444 -0.6849
 5184SOL     OW27013   2.939   0.385   0.664  0.0473  0.2397  0.1409
 5184SOL    HW127014   2.896   0.435   0.594 -1.7598  1.7140  2.2871
 5184SOL    HW227015   3.017   0.437   0.685  0.5320  0.0161 -1.0508
 5185SOL     OW27016   4.166   3.758   5.203  0.0316  0.1235  0.0668
 5185SOL    HW127017   4.141   3.844   5.238  1.9426  0.2562  1.1007
 5185SOL    HW227018   4.260   3.768   5.187  0.4469  0.1423  2.4946
 5186SOL     OW27019   0.216   0.840   5.963 -0.6294  0.0380 -0.3648
 5186SOL    HW127020   0.129   0.807   5.985  0.2933 -1.1768  1.4056
 5186SOL    HW227021   0.207   0.932   5.989 -2.1074 -0.4900  0.9951
 5187SOL     OW27022   0.249   3.042   5.414 -0.0204 -0.8956  0.4916
 5187SOL    HW127023   0.285   3.119   5.459  0.3296 -0.8756  0.1798
 5187SOL    HW227024   0.223   2.986   5.487  0.6247 -1.6737  0.1282
 5188SOL     OW27025   2.563   3.056   1.352  0.2535  0.1041 -0.2265
 5188SOL    HW127026   2.573   2.995   1.426 -0.6178 -0.5200 -0.6123
 5188SOL    HW227027   2.623   3.125   1.379  0.1640 -0.2694  0.9383
 5189SOL     OW27028   1.183   1.852  13.718 -0.0444 -0.2780  0.1881
 5189SOL    HW127029   1.147   1.764  13.713 -2.2797  0.6042  0.4657
 5189SOL    HW227030   1.276   1.829  13.715 -0.7970 -2.8145 -2.9010
 5190SOL     OW27031   1.721   3.793   9.636  0.2630 -0.1105  0.3254
 5190SOL    HW127032   1.722   3.810   9.542  0.1001 -3.0645 -0.2162
 5190SOL    HW227033   1.626   3.779   9.644  0.2434 -0.1758 -0.0402
 5191SOL     OW27034   3.228   2.308   4.637  0.2317  0.3780  0.3614
 5191SOL    HW127035   3.185   2.368   4.576  0.7647  1.1175  0.7111
 5191SOL    HW227036   3.267   2.375   4.693 -0.7469  1.8738 -0.7429
 5192SOL     OW27037   3.212   2.398   5.409 -0.1795 -0.2810  0.1887
 5192SOL    HW127038   3.264   2.349   5.473 -0.2609 -0.1100  0.3851
 5192SOL    HW227039   3.163   2.455   5.468 -0.2410  0.0629 -0.1938
 5193SOL     OW27040   1.875   2.380  11.106  0.0614  0.1958  0.7317
 5193SOL    HW127041   1.888   2.287  11.088  1.0342  0.7719 -1.5171
 5193SOL    HW227042   1.875   2.415  11.017 -2.4013 -0.7722  0.3339
 5194SOL     OW27043   0.812   3.736   4.402  0.0917 -0.4433 -0.2370
 5194SOL    HW127044   0.802   3.818   4.451  0.2617 -1.7621  2.0012
 5194SOL    HW227045   0.858   3.770   4.326  0.4410 -5.3054 -2.2096
 5195SOL     OW27046   1.561   0.543   6.671 -0.3216 -0.1379  0.2922
 5195SOL    HW127047   1.556   0.572   6.579 -2.2136  0.3484  0.5425
 5195SOL    HW227048   1.650   0.507   6.671 -1.2354 -2.3849  0.8635
 5196SOL     OW27049   3.464   1.627   4.796 -0.4417 -0.0128  0.1361
 5196SOL    HW127050   3.479   1.535   4.774  1.0298  0.2418  0.0440
 5196SOL    HW227051   3.466   1.666   4.708 -2.8839 -1.1861 -0.4556
 5197SOL     OW27052   1.772   0.059   2.664  0.0603 -0.0376  0.0505
 5197SOL    HW127053   1.788   4.707   2.608 -1.7081 -0.3194 -0.0695
 5197SOL    HW227054   1.811   0.025   2.745 -0.9028  2.5331  1.6005
 5198SOL     OW27055   4.531   3.510  11.358  0.6621  0.6230  0.8347
 5198SOL    HW127056   4.514   3.419  11.384 -1.5024  0.9170  0.4852
 5198SOL    HW227057   4.626   3.515  11.362  0.7860 -0.6585 -0.5201
 5199SOL     OW27058   2.868   1.392   7.829  0.5718  0.0489  0.5781
 5199SOL    HW127059   2.933   1.459   7.850  0.5262 -0.2270  1.5924
 5199SOL    HW227060   2.788   1.444   7.830  1.0768  0.8288  0.2475
 5200SOL     OW27061   4.160   0.869   5.671  0.5517 -0.5667 -0.0519
 5200SOL    HW127062   4.225   0.925   5.713  0.5827  0.7517 -1.8653
 5200SOL    HW227063   4.220   0.794   5.670  0.5480 -0.5977  1.2842
 5201SOL     OW27064   2.595   2.944   1.600 -0.3559  0.1994  0.1409
 5201SOL    HW127065   2.556   2.857   1.610  0.6785 -0.1263  1.2459
 5201SOL    HW227066   2.682   2.920   1.569 -1.1092 -1.8758 -0.3827
 5202SOL     OW27067   2.376   3.367   7.603 -0.0576  0.2533  0.2946
 5202SOL    HW127068   2.370   3.403   7.691  2.6555 -0.6430  0.8264
 5202SOL    HW227069   2.293   3.321   7.588  0.6906 -0.8672 -0.3442
 5203SOL     OW27070   2.861   0.449   8.803 -0.1878  0.5850  0.6461
 5203SOL    HW127071   2.938   0.468   8.857  0.0564  2.5103 -0.3603
 5203SOL    HW227072   2.828   0.377   8.857 -1.2400  0.5733 -0.0137
 5204SOL     OW27073   2.401   4.045  13.082  0.2317 -0.0974 -0.5612
 5204SOL    HW127074   2.462   3.971  13.088 -0.2201 -0.4773 -0.6413
 5204SOL    HW227075   2.318   3.999  13.071 -0.7923  2.0186 -1.5640
 5205SOL     OW27076   2.610   1.898   7.873 -0.0799  0.0551 -0.0320
 5205SOL    HW127077   2.683   1.907   7.812  2.5175  0.9028  3.1880
 5205SOL    HW227078   2.648   1.855   7.949 -0.1090  0.1143  0.0160
 5206SOL     OW27079   1.716   0.043   3.078  0.4155  0.0584  0.1188
 5206SOL    HW127080   1.700   4.677   3.104 -1.3919  0.2802 -0.2510
 5206SOL    HW227081   1.740   0.087   3.160  1.2831  1.9468 -1.1405
 5207SOL     OW27082   1.019   4.582   1.067 -0.0386  0.2731 -0.2089
 5207SOL    HW127083   1.052   4.546   1.149  0.7723  2.1815  0.2844
 5207SOL    HW227084   0.937   4.622   1.096  0.3909  0.7866  0.2777
 5208SOL     OW27085   2.092   2.124   4.883 -0.1660  0.6041 -0.0173
 5208SOL    HW127086   2.149   2.198   4.858 -0.9629  0.9509 -0.8152
 5208SOL    HW227087   2.013   2.161   4.843 -0.4614 -1.7447 -1.6056
 5209SOL     OW27088   0.227   0.898   8.739 -0.1047  0.0750  0.4737
 5209SOL    HW127089   0.229   0.919   8.833  0.2221  3.1689 -0.2325
 5209SOL    HW227090   0.136   0.922   8.723  0.5841  1.6888 -0.9338
 5210SOL     OW27091   3.407   4.264   6.433  0.7073 -0.6528 -0.4279
 5210SOL    HW127092   3.337   4.322   6.405  0.2996 -0.3805  1.1697
 5210SOL    HW227093   3.430   4.237   6.344  3.5255  0.5887 -0.0849
 5211SOL     OW27094   4.583   2.337   0.845  0.5203 -0.0800  0.1674
 5211SOL    HW127095   4.571   2.326   0.939 -0.3788  2.5551  0.3703
 5211SOL    HW227096   4.602   2.430   0.834  2.0452 -0.6222 -1.7847
 5212SOL     OW27097   4.530   0.463   6.025 -0.0800  0.0303 -0.3632
 5212SOL    HW127098   4.516   0.558   6.027  1.1263  0.1764  0.8688
 5212SOL    HW227099   4.577   0.474   5.942  2.4253 -0.7957  0.9553
 5213SOL     OW27100   4.368   1.907   7.794  0.5068 -0.1116 -0.2810
 5213SOL    HW127101   4.384   1.954   7.713 -1.6245  0.9850 -0.0828
 5213SOL    HW227102   4.277   1.880   7.779  0.7100 -2.1483  2.0601
 5214SOL     OW27103   4.180   0.730   7.191 -0.1463 -0.2327  0.2772
 5214SOL    HW127104   4.234   0.797   7.149  0.8200 -2.4950 -2.0848
 5214SOL    HW227105   4.105   0.717   7.134 -0.1338 -2.2074  0.7098
 5215SOL     OW27106   3.541   4.500   6.465 -0.1417 -0.1746  0.1795
 5215SOL    HW127107   3.522   4.507   6.559  0.5823  2.7132  0.0945
 5215SOL    HW227108   3.515   4.409   6.448 -0.5642 -0.0252  0.0325
 5216SOL     OW27109   3.118   0.354   9.153 -0.6925 -0.1495  0.3552
 5216SOL    HW127110   3.133   0.375   9.061 -1.0467  0.6101  0.4801
 5216SOL    HW227111   3.115   0.437   9.201 -1.0453  0.5328 -0.8578
 5217SOL     OW27112   0.022   3.653   3.884  0.6360  0.0926  0.2867
 5217SOL    HW127113   0.105   3.655   3.930  1.1149  1.4619 -0.6145
 5217SOL    HW227114   0.013   3.563   3.854 -0.4798  0.7245 -1.2886
 5218SOL     OW27115   2.610   1.201   6.646 -0.0701 -0.2838 -0.2688
 5218SOL    HW127116   2.637   1.113   6.618  0.4588  0.6704 -2.7937
 5218SOL    HW227117   2.683   1.251   6.608  1.5626 -1.7819  0.8463
 5219SOL     OW27118   2.970   0.255   4.447  0.3727 -0.0882  0.0852
 5219SOL    HW127119   3.025   0.288   4.376 -1.3973  0.6560 -0.9320
 5219SOL    HW227120   2.997   0.299   4.528  0.2184 -1.9471  1.1543
 5220SOL     OW27121   4.051   1.588   5.646  0.4636  0.4739  0.2619
 5220SOL    HW127122   4.039   1.570   5.739  0.7086  1.6758  0.5233
 5220SOL    HW227123   4.140   1.622   5.641  0.7564 -0.1130  1.4418
 5221SOL     OW27124   0.532   1.122   3.055 -1.0036  0.3710 -0.5605
 5221SOL    HW127125   0.617   1.154   3.025 -1.4882  3.7460  1.6063
 5221SOL    HW227126   0.492   1.206   3.079  2.4707  1.5877  0.9574
 5222SOL     OW27127   1.896   3.401  11.362 -0.2001  0.1986  0.6656
 5222SOL    HW127128   1.821   3.447  11.324  1.7133  2.8779  0.1857
 5222SOL    HW227129   1.924   3.359  11.281 -0.1132  1.8085 -0.1429
 5223SOL     OW27130   2.850   0.896   2.192 -0.3899  0.4625 -0.3644
 5223SOL    HW127131   2.803   0.857   2.118 -0.1544 -1.7255  0.6303
 5223SOL    HW227132   2.826   0.988   2.185 -1.7708 -0.0307 -2.2152
 5224SOL     OW27133   2.666   2.672   7.386 -0.2451 -0.3628  0.3221
 5224SOL    HW127134   2.751   2.711   7.366  1.0404 -2.7167  1.2274
 5224SOL    HW227135   2.625   2.727   7.453 -0.0524  0.1540  0.0197
 5225SOL     OW27136   1.617   2.927  12.285  0.1677 -0.1572  0.0270
 5225SOL    HW127137   1.560   3.001  12.265  0.9890 -0.1256 -2.1685
 5225SOL    HW227138   1.557   2.859  12.314  0.9534 -1.4386 -1.3259
 5226SOL     OW27139   0.011   1.911  15.777  0.1838 -0.5602  0.3631
 5226SOL    HW127140   0.022   1.840  15.713 -2.1416 -1.2602  0.7404
 5226SOL    HW227141   0.067   1.876  15.848  0.7113  1.5491  0.9744
 5227SOL     OW27142   1.547   1.771  10.302 -0.4063 -0.4225 -0.1255
 5227SOL    HW127143   1.562   1.727  10.386  1.9073  0.1039 -0.2546
 5227SOL    HW227144   1.474   1.832  10.317 -1.5213 -1.8386  0.1861
 5228SOL     OW27145   2.510   1.205   5.038 -0.3073  0.4167 -0.0007
 5228SOL    HW127146   2.580   1.239   4.982 -1.6591  0.1598 -1.8367
 5228SOL    HW227147   2.557   1.149   5.100 -0.4158 -1.4554 -1.5977
 5229SOL     OW27148   1.655   2.762   2.417 -0.2913 -0.3362 -0.4741
 5229SOL    HW127149   1.598   2.804   2.353 -1.3515 -3.1095 -1.3253
 5229SOL    HW227150   1.687   2.692   2.361  2.0941 -0.6690  1.2695
 5230SOL     OW27151   2.524   1.048   5.468  0.0153  0.0596 -0.6905
 5230SOL    HW127152   2.580   1.007   5.534 -0.1618  0.7278 -0.1147
 5230SOL    HW227153   2.542   1.141   5.487 -0.4126  0.1941 -0.9584
 5231SOL     OW27154   4.118   0.376   4.130 -0.0861  0.1213 -0.1312
 5231SOL    HW127155   4.049   0.424   4.083  0.8914 -0.2459 -1.9537
 5231SOL    HW227156   4.086   0.286   4.130  0.7007 -0.1586  2.3945
 5232SOL     OW27157   2.222   3.458   9.174  0.0239  0.3338  0.1232
 5232SOL    HW127158   2.185   3.402   9.105  1.2367  1.4377 -1.4309
 5232SOL    HW227159   2.152   3.522   9.173 -0.9794 -0.7480  1.2771
 5233SOL     OW27160   4.621   2.897   2.726  0.3773  0.4261 -0.2152
 5233SOL    HW127161   4.645   2.810   2.693  1.6321  1.6085 -2.4507
 5233SOL    HW227162   4.547   2.929   2.674  0.6927  2.7053  0.7198
 5234SOL     OW27163   2.474   2.004   8.355 -0.1675  0.2189  0.1122
 5234SOL    HW127164   2.398   1.960   8.317 -1.1879  2.8134 -0.8521
 5234SOL    HW227165   2.469   2.090   8.312 -0.1654  0.0671 -0.1874
 5235SOL     OW27166   3.159   4.556   1.809  0.1492  0.6603  0.0218
 5235SOL    HW127167   3.079   4.587   1.766 -0.1674  1.5713  1.2607
 5235SOL    HW227168   3.211   4.585   1.734 -0.3051 -1.5747 -1.1433
 5236SOL     OW27169   1.522   3.986   0.887  0.5030 -0.4095  0.0230
 5236SOL    HW127170   1.547   3.902   0.848  0.1240  1.3591 -4.0278
 5236SOL    HW227171   1.584   3.985   0.960 -0.6905 -1.2864  1.0191
 5237SOL     OW27172   4.615   0.247  16.604 -0.7436 -0.2700  0.5488
 5237SOL    HW127173   4.685   0.297  16.647  0.5132 -1.7732  0.2187
 5237SOL    HW227174   4.646   0.201  16.526  1.8286 -0.5675  1.7403
 5238SOL     OW27175   2.587   0.641   4.611  0.3709  0.3959 -0.0959
 5238SOL    HW127176   2.502   0.682   4.626  0.1428 -0.2057  0.2676
 5238SOL    HW227177   2.579   0.611   4.521 -2.7604 -2.3702  1.0757
 5239SOL     OW27178   3.267   0.886  14.285  0.6680 -0.1988  0.4049
 5239SOL    HW127179   3.318   0.966  14.287 -1.7873  1.3846  0.0466
 5239SOL    HW227180   3.342   0.828  14.299  0.3487 -0.3440  1.5676
 5240SOL     OW27181   4.672   2.289  13.075  0.3922  0.3857  0.6471
 5240SOL    HW127182   4.679   2.330  12.988  0.9334 -0.4271  0.3039
 5240SOL    HW227183   4.639   2.205  13.044  0.3123  0.5276  0.3408
 5241SOL     OW27184   2.056   1.729   5.534  0.3024 -0.3042  0.3560
 5241SOL    HW127185   2.005   1.698   5.459  0.5013  0.0122  0.0918
 5241SOL    HW227186   1.999   1.734   5.611 -0.0347  1.7822 -0.0299
 5242SOL     OW27187   2.895   2.409   2.833  0.0713 -0.0291 -0.9273
 5242SOL    HW127188   2.926   2.461   2.908 -1.4767 -0.7940  0.2417
 5242SOL    HW227189   2.932   2.322   2.848  1.2992  1.0603  2.3661
 5243SOL     OW27190   0.535   2.966   1.503  0.0440 -0.3690  0.3469
 5243SOL    HW127191   0.475   2.896   1.477 -0.7592  1.3973 -2.5823
 5243SOL    HW227192   0.589   2.919   1.567  1.7961 -0.4615 -1.1985
 5244SOL     OW27193   1.603   4.653  15.229 -1.0287  0.0996 -0.3036
 5244SOL    HW127194   1.693   4.677  15.254 -1.5957  1.4326  0.4086
 5244SOL    HW227195   1.556   4.710  15.289 -0.4492 -0.5683  0.7858
 5245SOL     OW27196   3.971   3.295  17.374  0.1032 -0.0930  0.0547
 5245SOL    HW127197   3.906   3.248  17.427 -2.1764  1.5982 -1.2504
 5245SOL    HW227198   3.959   3.385  17.405  0.5179 -0.3759  1.0681
 5246SOL     OW27199   0.034   2.599   3.660 -0.3411 -0.0492  0.2529
 5246SOL    HW127200   0.051   2.509   3.632 -0.6299 -0.7069  2.1646
 5246SOL    HW227201   4.712   2.633   3.583  0.0047 -1.3957 -0.5393
 5247SOL     OW27202   4.137   2.752   8.077 -0.1653 -0.0293  0.1556
 5247SOL    HW127203   4.071   2.739   8.145  1.8534  0.3194  2.1874
 5247SOL    HW227204   4.115   2.697   8.001  0.3675 -0.1954  0.1143
 5248SOL     OW27205   4.217   4.386   5.508 -0.1552 -0.2380  0.1317
 5248SOL    HW127206   4.268   4.464   5.485 -0.3551 -0.6381 -1.6716
 5248SOL    HW227207   4.290   4.342   5.551  0.8808 -0.6076 -2.0214
 5249SOL     OW27208   0.208   2.162   6.334 -0.3077 -0.0001 -0.4633
 5249SOL    HW127209   0.251   2.079   6.316  0.6689 -0.1206  2.4019
 5249SOL    HW227210   0.283   2.218   6.315  0.1426 -0.2301  0.6494
 5250SOL     OW27211   1.146   2.416   8.618  0.4456  0.1836 -0.5050
 5250SOL    HW127212   1.059   2.384   8.642  1.4296 -1.6287  0.6316
 5250SOL    HW227213   1.203   2.346   8.651 -0.1178  0.5386  1.1892
 5251SOL     OW27214   0.348   3.805   7.542 -0.2734  0.0553  0.0350
 5251SOL    HW127215   0.280   3.797   7.609  0.4995 -1.5493  0.6329
 5251SOL    HW227216   0.421   3.782   7.599  1.7010  1.6194 -1.9073
 5252SOL     OW27217   0.723   1.017   3.304 -0.0161  0.1193  0.2534
 5252SOL    HW127218   0.683   0.988   3.385  0.6348 -2.0482 -0.2125
 5252SOL    HW227219   0.656   0.980   3.247 -0.0862 -1.0130  1.0759
 5253SOL     OW27220   4.215   3.078  10.901 -0.2540 -0.1951  0.1540
 5253SOL    HW127221   4.264   3.099  10.980  0.9911  0.0502 -0.7002
 5253SOL    HW227222   4.264   3.134  10.841 -0.7272  1.4177  1.2797
 5254SOL     OW27223   1.460   3.510  13.616 -0.9945  0.0526 -0.4680
 5254SOL    HW127224   1.530   3.551  13.565  0.1557  1.8281  2.5152
 5254SOL    HW227225   1.421   3.589  13.655 -3.0424 -1.1643 -0.0847
 5255SOL     OW27226   0.879   1.754   4.666 -0.1118  0.0808  0.6136
 5255SOL    HW127227   0.803   1.790   4.621  0.2410 -0.0340 -0.0676
 5255SOL    HW227228   0.958   1.789   4.626  0.6056 -0.9629  1.1341
 5256SOL     OW27229   0.974   2.722  16.184  0.2205 -0.1341  0.1164
 5256SOL    HW127230   0.958   2.798  16.127 -1.8299 -0.1908  0.6196
 5256SOL    HW227231   0.908   2.727  16.254  0.5116  0.0808  0.3734
 5257SOL     OW27232   0.106   1.267   1.273  0.4686 -0.1731  0.1253
 5257SOL    HW127233   0.066   1.277   1.359 -2.9603  1.3833 -1.6431
 5257SOL    HW227234   0.181   1.324   1.286  0.0769 -0.8713  5.1253
 5258SOL     OW27235   1.745   0.313   3.946  0.3961 -0.2143 -0.0064
 5258SOL    HW127236   1.697   0.318   3.863  1.9623  0.2226 -0.8858
 5258SOL    HW227237   1.676   0.273   4.000  0.5213 -2.2742 -1.3663
 5259SOL     OW27238   2.667   1.368   1.945 -0.2173 -0.0472  0.1916
 5259SOL    HW127239   2.617   1.405   1.873 -1.2351 -2.7780 -0.5212
 5259SOL    HW227240   2.627   1.281   1.949 -0.3362 -0.0799 -1.6285
 5260SOL     OW27241   4.529   2.988  14.144  0.2856  0.2499 -0.7689
 5260SOL    HW127242   4.570   3.028  14.067  0.3646 -0.1459 -0.9281
 5260SOL    HW227243   4.445   2.964  14.106  0.0089 -0.6222  0.4134
 5261SOL     OW27244   4.031   1.633  11.503 -0.6644 -0.3863  0.1915
 5261SOL    HW127245   4.054   1.592  11.420 -2.8321 -1.0438 -0.0855
 5261SOL    HW227246   4.066   1.720  11.482  1.2458 -0.6790  2.0716
 5262SOL     OW27247   0.559   2.741   3.419  0.1392  0.5887  0.0768
 5262SOL    HW127248   0.526   2.652   3.432 -0.4416  0.6659 -0.8556
 5262SOL    HW227249   0.521   2.775   3.500 -1.9740  1.3821 -1.2363
 5263SOL     OW27250   2.588   2.127  12.602  0.0783  0.7645 -0.3484
 5263SOL    HW127251   2.499   2.123  12.637 -0.0076 -1.3213 -0.7967
 5263SOL    HW227252   2.628   2.063  12.660  0.0619  1.1797  0.1170
 5264SOL     OW27253   1.838   2.229  13.318 -0.2701  0.2284  0.1668
 5264SOL    HW127254   1.909   2.243  13.381 -1.2153  1.4121  0.9571
 5264SOL    HW227255   1.813   2.318  13.294 -2.4793  0.5170  3.4481
 5265SOL     OW27256   2.522   4.132   4.568  0.5009 -0.4984  0.5339
 5265SOL    HW127257   2.603   4.132   4.620  1.1200 -0.0448 -0.4387
 5265SOL    HW227258   2.539   4.052   4.518  0.8251 -0.0916 -0.0020
 5266SOL     OW27259   2.268   1.408   9.729 -0.6022  0.1400  0.4718
 5266SOL    HW127260   2.221   1.368   9.802 -1.9611 -0.3409 -0.6734
 5266SOL    HW227261   2.205   1.437   9.664  0.8852  0.7027 -0.7068
 5267SOL     OW27262   1.250   0.498   6.360  0.1817  0.2545 -0.3098
 5267SOL    HW127263   1.264   0.505   6.265  1.1916  1.3472 -0.0731
 5267SOL    HW227264   1.160   0.466   6.370  1.7623 -4.0878 -0.2487
 5268SOL     OW27265   2.470   1.448   8.584  0.4023  0.6459  0.3177
 5268SOL    HW127266   2.480   1.360   8.620 -4.3735 -0.6807 -1.5567
 5268SOL    HW227267   2.556   1.481   8.559  0.5226  0.2531  0.2067
 5269SOL     OW27268   4.484   3.324   5.368  0.0047  0.4542 -0.1731
 5269SOL    HW127269   4.441   3.239   5.381  0.6903  0.0777 -0.3816
 5269SOL    HW227270   4.557   3.309   5.427 -0.8833  0.7518  0.9942
 5270SOL     OW27271   1.566   4.559   5.655 -0.0301 -0.2501  0.5789
 5270SOL    HW127272   1.538   4.650   5.667  2.1657  0.6310 -0.8839
 5270SOL    HW227273   1.591   4.566   5.562 -1.2860 -1.4227  0.1583
 5271SOL     OW27274   2.513   0.169  14.034  0.0232 -0.5435 -0.3892
 5271SOL    HW127275   2.423   0.154  14.060  0.3551 -2.9111 -0.5955
 5271SOL    HW227276   2.506   0.263  14.020  0.2830 -0.5773 -0.7410
 5272SOL     OW27277   0.360   4.057   9.585  0.0289 -0.6506  0.2545
 5272SOL    HW127278   0.269   4.041   9.610 -0.8330  0.8968 -1.8655
 5272SOL    HW227279   0.345   4.111   9.507 -0.7685  1.7744  2.0737
 5273SOL     OW27280   0.293   4.474   4.363 -0.3414  0.0644  0.4138
 5273SOL    HW127281   0.278   4.441   4.274  0.2018  0.7422  0.0769
 5273SOL    HW227282   0.251   4.403   4.411  0.7808 -0.1573  1.0640
 5274SOL     OW27283   3.664   4.352  14.856 -0.2131  0.1797 -0.1640
 5274SOL    HW127284   3.714   4.318  14.782  0.5299  1.3096 -0.1886
 5274SOL    HW227285   3.651   4.440  14.821 -1.1115  0.7887  1.6827
 5275SOL     OW27286   2.468   2.234   7.829 -0.5995 -0.0798 -0.0670
 5275SOL    HW127287   2.454   2.178   7.905 -0.4459 -0.9560 -0.6806
 5275SOL    HW227288   2.560   2.253   7.847 -1.0002  2.6147 -0.8883
 5276SOL     OW27289   4.336   1.311  12.662 -0.3349  0.4407  0.2409
 5276SOL    HW127290   4.258   1.297  12.717  0.4083  1.0455  1.4577
 5276SOL    HW227291   4.391   1.243  12.701  0.8225  0.7727 -0.8235
 5277SOL     OW27292   2.555   3.615   6.364  0.2750 -0.3422  0.2575
 5277SOL    HW127293   2.476   3.590   6.411  0.9043 -3.7895 -0.5607
 5277SOL    HW227294   2.519   3.626   6.276  1.2822  0.5513 -0.0395
 5278SOL     OW27295   4.452   4.398   3.525 -0.0077  0.7108  0.2770
 5278SOL    HW127296   4.456   4.419   3.618  2.9144  1.0815  0.0901
 5278SOL    HW227297   4.368   4.353   3.517 -0.2756  1.2663 -0.0366
 5279SOL     OW27298   0.171   4.373   3.348  0.1286 -0.0748  0.4552
 5279SOL    HW127299   0.184   4.468   3.347 -1.8176  0.2135  1.9084
 5279SOL    HW227300   0.076   4.364   3.353  0.1031  0.5493  1.0929
 5280SOL     OW27301   4.425   0.849   1.599  0.1353  0.4515 -0.2244
 5280SOL    HW127302   4.466   0.766   1.576 -0.9411  0.0555 -0.6728
 5280SOL    HW227303   4.443   0.856   1.693  1.3944  0.2124 -0.4450
 5281SOL     OW27304   4.127   1.588   7.064 -0.2858  0.6000  0.3508
 5281SOL    HW127305   4.210   1.556   7.030  0.3693  2.0913  0.5590
 5281SOL    HW227306   4.128   1.681   7.085 -1.5435  0.3545  1.5076
 5282SOL     OW27307   4.609   1.307  11.454 -0.3157 -0.2641 -0.5453
 5282SOL    HW127308   4.555   1.230  11.439  1.1708 -1.1200 -1.5167
 5282SOL    HW227309   4.605   1.325  11.548  0.6351  1.3962 -0.8182
 5283SOL     OW27310   2.853   0.716   7.973 -0.0249  0.0612  0.3059
 5283SOL    HW127311   2.759   0.712   7.987 -0.1325 -1.3490 -0.8658
 5283SOL    HW227312   2.863   0.682   7.884 -1.6685 -1.7273  0.8254
 5284SOL     OW27313   3.666   4.533   9.094 -0.2502 -0.0079  0.2708
 5284SOL    HW127314   3.716   4.580   9.161  1.6783  0.6024 -1.5848
 5284SOL    HW227315   3.586   4.507   9.141  0.2640 -2.8904 -0.4389
 5285SOL     OW27316   4.414   1.953   8.061  0.0859  0.0164  0.0878
 5285SOL    HW127317   4.385   1.937   7.972  0.9033 -1.8821  0.1667
 5285SOL    HW227318   4.367   1.892   8.118 -0.3763  1.0797  0.8607
 5286SOL     OW27319   3.808   0.472   5.470  0.1493 -0.2061  0.4077
 5286SOL    HW127320   3.743   0.514   5.413 -0.8543 -1.3367  0.7165
 5286SOL    HW227321   3.842   0.548   5.516  1.9302 -0.4416 -0.5131
 5287SOL     OW27322   0.003   3.799   7.192 -0.0965  0.5700  0.2061
 5287SOL    HW127323   4.697   3.820   7.104 -0.6029  1.8521  0.6812
 5287SOL    HW227324   0.091   3.837   7.190  0.7497 -1.2714  3.0536
 5288SOL     OW27325   0.051   1.370  12.707 -0.0973 -0.8922 -0.6109
 5288SOL    HW127326   0.119   1.431  12.736  1.1392 -2.2078 -0.7738
 5288SOL    HW227327   0.085   1.350  12.620 -0.7809  0.0883 -1.0997
 5289SOL     OW27328   3.983   4.409   4.217  0.0052 -0.0400  0.0096
 5289SOL    HW127329   3.916   4.405   4.286  1.9991 -2.6233  1.8046
 5289SOL    HW227330   3.947   4.344   4.157 -0.5318  2.8278 -2.8213
 5290SOL     OW27331   4.289   2.371   8.664 -0.2606  0.0160  0.0065
 5290SOL    HW127332   4.384   2.359   8.675 -0.6146 -0.3872  2.5371
 5290SOL    HW227333   4.260   2.316   8.737  0.5297 -0.4971 -0.0580
 5291SOL     OW27334   1.411   0.930  14.504  0.0054  0.6476  0.3516
 5291SOL    HW127335   1.338   0.868  14.496 -0.6696  1.5641 -0.4906
 5291SOL    HW227336   1.493   0.881  14.497 -0.4411 -0.0022 -0.3456
 5292SOL     OW27337   2.790   4.638   5.057 -0.1831 -0.0785  0.5211
 5292SOL    HW127338   2.774   4.684   5.140  0.4434  1.8929 -0.4500
 5292SOL    HW227339   2.879   4.663   5.031  0.4066 -2.1102  0.5897
 5293SOL     OW27340   3.400   0.991   8.626  0.1800 -0.2366 -0.2465
 5293SOL    HW127341   3.412   0.910   8.675 -0.6763  0.5575  1.2463
 5293SOL    HW227342   3.311   1.024   8.631  0.0603 -0.2686 -1.9616
 5294SOL     OW27343   3.892   0.258  14.321 -0.0720  0.5386 -0.2722
 5294SOL    HW127344   3.968   0.202  14.307  0.3267  1.0937 -0.3268
 5294SOL    HW227345   3.825   0.226  14.260 -0.2526  0.6716 -0.1460
 5295SOL     OW27346   2.698   4.557   1.253 -0.1616  0.0066 -0.1038
 5295SOL    HW127347   2.671   4.473   1.290  0.7436 -0.0403  0.4495
 5295SOL    HW227348   2.794   4.553   1.260 -0.0309  1.9709 -0.7389
 5296SOL     OW27349   1.330   4.415  13.177 -0.0610  0.2280  0.3011
 5296SOL    HW127350   1.298   4.387  13.263  0.8548 -0.4965  0.4086
 5296SOL    HW227351   1.352   4.503  13.209 -3.3558  1.0103  0.4267
 5297SOL     OW27352   3.633   1.177  14.519 -0.0235 -0.4731  0.1555
 5297SOL    HW127353   3.605   1.263  14.551  0.3648  0.3194 -1.6479
 5297SOL    HW227354   3.728   1.185  14.503 -0.0153 -0.4609  0.2114
 5298SOL     OW27355   0.921   4.009   2.015  0.2399  0.6033  0.2337
 5298SOL    HW127356   0.944   3.921   1.988 -0.6978 -0.8752  4.2765
 5298SOL    HW227357   1.007   4.045   2.037  0.9983 -2.2189  1.7708
 5299SOL     OW27358   0.619   0.268  16.367  0.2474 -0.7718 -0.1956
 5299SOL    HW127359   0.696   0.303  16.322 -0.6487 -2.1829 -2.8540
 5299SOL    HW227360   0.621   0.322  16.446 -2.0848 -1.3332  0.2455
 5300SOL     OW27361   2.813   3.567  12.730 -0.5817 -0.5148  0.1841
 5300SOL    HW127362   2.894   3.615  12.709 -2.3964  2.1023 -0.8253
 5300SOL    HW227363   2.748   3.627  12.693 -0.4080  0.5352  1.5497
 5301SOL     OW27364   0.272   4.137   4.117 -0.0801 -0.6075 -0.1741
 5301SOL    HW127365   0.246   4.229   4.109 -0.9057 -0.7531  0.9219
 5301SOL    HW227366   0.204   4.077   4.087 -3.2580  1.9325  1.8902
 5302SOL     OW27367   2.283   4.163   3.330  0.4059  0.1195  0.3660
 5302SOL    HW127368   2.332   4.211   3.397 -2.5642 -1.5993  3.8281
 5302SOL    HW227369   2.350   4.103   3.298 -0.1437 -0.5048  0.3818
 5303SOL     OW27370   2.587   1.129  10.730  0.2939 -0.3791 -0.0127
 5303SOL    HW127371   2.494   1.136  10.750  0.6274  2.3883  0.5432
 5303SOL    HW227372   2.582   1.146  10.636  0.7115 -2.2693 -0.3739
 5304SOL     OW27373   0.642   4.531   6.971 -0.0319 -0.3461 -0.1830
 5304SOL    HW127374   0.593   4.510   6.892  0.4188 -1.4445 -0.1744
 5304SOL    HW227375   0.732   4.512   6.942 -0.7162 -0.6711 -2.0763
 5305SOL     OW27376   3.773   3.706   8.014  0.4150 -0.4315  0.5481
 5305SOL    HW127377   3.754   3.728   8.106  0.1529  0.1038  0.3634
 5305SOL    HW227378   3.762   3.611   8.021  0.6883 -0.6114 -1.4530
 5306SOL     OW27379   1.645   0.875  12.331 -0.3456 -0.0923  0.3224
 5306SOL    HW127380   1.702   0.935  12.283 -0.3995  0.5470  1.0567
 5306SOL    HW227381   1.701   0.841  12.400  1.4359 -0.1974 -1.1726
 5307SOL     OW27382   0.407   0.578   1.802  0.6478  0.4890 -0.1939
 5307SOL    HW127383   0.404   0.552   1.894 -1.6251  0.0299 -0.3902
 5307SOL    HW227384   0.323   0.540   1.776  0.7914  0.2042 -0.2450
 5308SOL     OW27385   4.172   2.031  11.770 -0.3749  0.0127 -0.1650
 5308SOL    HW127386   4.246   2.078  11.732  1.0703  0.6336  3.3750
 5308SOL    HW227387   4.207   1.944  11.752  0.8154  0.5108 -0.2482
 5309SOL     OW27388   3.554   1.072   8.387  0.0057 -0.3003 -0.5451
 5309SOL    HW127389   3.532   1.015   8.314 -0.6591 -3.0722  1.8253
 5309SOL    HW227390   3.498   1.060   8.464  0.4139  4.0478  0.4599
 5310SOL     OW27391   3.300   0.802   1.866 -0.4085  0.0561  0.2177
 5310SOL    HW127392   3.369   0.832   1.925 -0.4457  0.4518  0.0574
 5310SOL    HW227393   3.270   0.883   1.826  1.0926  0.0967 -0.8175
 5311SOL     OW27394   0.569   3.958   4.077  0.4222  0.3633 -0.1285
 5311SOL    HW127395   0.517   3.967   4.157  2.6319 -2.2547  1.5876
 5311SOL    HW227396   0.507   3.955   4.004  0.9359  0.8619 -0.5868
 5312SOL     OW27397   2.654   3.666   8.518 -0.7017 -0.2948 -0.3463
 5312SOL    HW127398   2.602   3.745   8.531 -1.4439 -0.9513  0.7108
 5312SOL    HW227399   2.723   3.700   8.461 -0.9347 -0.2066 -0.5723
 5313SOL     OW27400   3.497   3.472   6.448 -0.0014  0.2411 -0.0236
 5313SOL    HW127401   3.404   3.482   6.428 -0.1773 -2.0917 -0.3479
 5313SOL    HW227402   3.528   3.562   6.457  1.2853 -0.0888 -0.9719
 5314SOL     OW27403   0.629   3.262  13.540 -0.0464  0.3323  0.4890
 5314SOL    HW127404   0.616   3.177  13.498 -2.0005  0.0741  1.6247
 5314SOL    HW227405   0.611   3.258  13.634  2.4720 -0.0805  0.9583
 5315SOL     OW27406   0.268   2.434   2.771  0.5526 -0.2690 -0.6380
 5315SOL    HW127407   0.350   2.385   2.769  0.2900 -0.6642 -1.9727
 5315SOL    HW227408   0.305   2.511   2.814 -1.3034  0.8704 -1.0894
 5316SOL     OW27409   3.648   2.084   4.369 -0.7555 -0.1272 -0.5823
 5316SOL    HW127410   3.608   2.162   4.406 -2.0948 -2.5450  3.0378
 5316SOL    HW227411   3.713   2.063   4.436 -1.7981  1.6621  0.9872
 5317SOL     OW27412   4.610   3.595   2.509 -0.1350 -0.1976  0.1838
 5317SOL    HW127413   4.610   3.580   2.604  1.4691  0.1949  0.2430
 5317SOL    HW227414   4.597   3.506   2.476  1.7358  0.0696 -1.2447
 5318SOL     OW27415   3.052   0.006   7.832 -0.1430 -0.0831 -0.1701
 5318SOL    HW127416   3.140   4.691   7.834 -0.7718 -1.4246  1.2912
 5318SOL    HW227417   2.990   4.657   7.823 -0.0921 -0.3706  1.7788
 5319SOL     OW27418   0.709   1.564   2.094  0.0674 -0.5565  0.2986
 5319SOL    HW127419   0.642   1.530   2.154  1.4182 -1.3979  1.3227
 5319SOL    HW227420   0.789   1.544   2.142  0.5894  0.1051 -0.3060
 5320SOL     OW27421   1.897   4.364   8.486  0.1085 -0.2292  0.2307
 5320SOL    HW127422   1.923   4.347   8.576  0.3136 -0.6086  0.1016
 5320SOL    HW227423   1.966   4.419   8.448 -0.4986 -0.0008 -0.5352
 5321SOL     OW27424   2.319   4.367   8.769 -0.2466  0.0088  0.5262
 5321SOL    HW127425   2.232   4.346   8.803 -0.6790 -0.5708 -0.9362
 5321SOL    HW227426   2.296   4.358   8.676 -0.6622 -0.4692  0.6723
 5322SOL     OW27427   1.541   2.574  14.053 -0.4538  0.2028 -0.3096
 5322SOL    HW127428   1.516   2.662  14.025  0.7955  1.2199  1.7869
 5322SOL    HW227429   1.472   2.564  14.119  1.7290  1.5165  2.1983
 5323SOL     OW27430   2.990   3.476   4.305 -0.2001 -0.3031  0.5922
 5323SOL    HW127431   2.997   3.553   4.360 -2.1799 -0.5949  1.2468
 5323SOL    HW227432   2.899   3.491   4.279  0.4845 -2.2653 -2.9122
 5324SOL     OW27433   2.240   1.239   2.669  0.0487 -0.0492 -0.1942
 5324SOL    HW127434   2.272   1.322   2.706  1.4654 -0.5331 -0.3458
 5324SOL    HW227435   2.181   1.281   2.607 -1.4879  1.8484  2.5500
 5325SOL     OW27436   2.713   4.131   8.976 -0.2917 -0.1291  0.3651
 5325SOL    HW127437   2.695   4.069   8.906 -0.3867  1.0395 -0.6516
 5325SOL    HW227438   2.789   4.163   8.926  0.7944 -0.3697  1.8552
 5326SOL     OW27439   3.546   1.066  14.050  0.0345  0.5514 -0.1141
 5326SOL    HW127440   3.533   1.050  14.144  3.9486 -0.2785  0.3059
 5326SOL    HW227441   3.627   1.018  14.034  0.8484  1.2522  1.9317
 5327SOL     OW27442   3.609   2.962   2.906  0.3065  0.3323  0.3044
 5327SOL    HW127443   3.638   2.910   2.831  0.6442  0.5696  0.2708
 5327SOL    HW227444   3.523   2.923   2.918  0.7184 -1.3263 -2.1159
 5328SOL     OW27445   1.156   1.512  11.047 -0.3547  0.0612 -0.5143
 5328SOL    HW127446   1.149   1.546  11.137  1.8122 -1.6800  0.3028
 5328SOL    HW227447   1.107   1.430  11.046 -0.8575  0.3567 -0.3361
 5329SOL     OW27448   2.791   0.154   1.714  0.0876 -0.2721 -0.1611
 5329SOL    HW127449   2.703   0.119   1.728  0.2489 -0.6730 -0.1528
 5329SOL    HW227450   2.816   0.188   1.800 -0.3895  0.3246 -0.2609
 5330SOL     OW27451   1.024   0.885  10.695  0.1252 -0.0363 -0.3092
 5330SOL    HW127452   0.941   0.929  10.713 -0.4234 -1.8200  1.6368
 5330SOL    HW227453   1.025   0.877  10.600  0.1366 -0.8411 -0.2429
 5331SOL     OW27454   0.410   0.808   7.572  0.5200 -0.1367 -0.7345
 5331SOL    HW127455   0.416   0.728   7.519 -0.1342 -1.5206  1.2730
 5331SOL    HW227456   0.435   0.777   7.659  0.7225  0.0344 -0.7300
 5332SOL     OW27457   4.473   2.446   2.350 -0.4109  0.2032 -0.3274
 5332SOL    HW127458   4.534   2.447   2.424 -0.2097  0.2913 -0.4965
 5332SOL    HW227459   4.523   2.390   2.291  0.7322  1.5504 -0.6299
 5333SOL     OW27460   2.135   1.398   7.738 -0.3765  0.3212 -0.8357
 5333SOL    HW127461   2.228   1.375   7.747 -1.2401 -1.7042  2.7658
 5333SOL    HW227462   2.090   1.317   7.760 -1.6361  1.8107  2.0335
 5334SOL     OW27463   1.430   2.549   3.371  0.2369 -0.2351 -0.0215
 5334SOL    HW127464   1.478   2.471   3.343  1.8074  0.7684 -0.1529
 5334SOL    HW227465   1.386   2.513   3.448  0.8148 -2.0077 -0.5315
 5335SOL     OW27466   3.889   0.028   5.225  0.2398  0.2320  0.0108
 5335SOL    HW127467   3.848   0.093   5.282 -0.5639 -0.3146  0.0579
 5335SOL    HW227468   3.846   0.041   5.141  0.0203  0.9926  0.2432
 5336SOL     OW27469   3.970   1.952   2.894 -0.3232  0.4366 -0.6892
 5336SOL    HW127470   3.876   1.942   2.878 -0.5419 -2.1268  1.9856
 5336SOL    HW227471   4.019   1.880   2.854 -0.9153  0.8286 -2.0870
 5337SOL     OW27472   1.322   3.327   9.596  0.2228  0.6562  0.5365
 5337SOL    HW127473   1.326   3.369   9.510  0.1427  2.2985  1.3295
 5337SOL    HW227474   1.381   3.252   9.587 -0.0316  0.5409 -0.2437
 5338SOL     OW27475   3.001   0.624  10.344  0.9548  0.1814 -0.3886
 5338SOL    HW127476   2.982   0.538  10.382 -2.7804  0.6773 -1.1505
 5338SOL    HW227477   2.932   0.680  10.380 -1.3698 -2.3630 -0.8303
 5339SOL     OW27478   1.095   1.879   4.573 -0.1043  0.0067  0.2777
 5339SOL    HW127479   1.089   1.962   4.527 -0.0911 -0.8036 -1.1654
 5339SOL    HW227480   1.143   1.917   4.647 -0.8933  2.3958 -0.4520
 5340SOL     OW27481   1.893   2.658   6.933 -0.5175 -0.3697 -0.1852
 5340SOL    HW127482   1.897   2.576   6.983  1.9469  0.3323  0.7696
 5340SOL    HW227483   1.804   2.686   6.954  0.1548  1.1610  0.6010
 5341SOL     OW27484   3.286   3.230   9.374  0.1878  0.4741  0.3517
 5341SOL    HW127485   3.269   3.235   9.469  1.9339  1.1364  0.6205
 5341SOL    HW227486   3.380   3.214   9.368  0.2147  0.6477  0.2979
 5342SOL     OW27487   1.416   0.644  13.481  0.7374 -0.6373 -0.0598
 5342SOL    HW127488   1.417   0.548  13.483 -1.1950 -0.6063  1.8050
 5342SOL    HW227489   1.387   0.659  13.391 -1.6801 -1.4743  0.5767
 5343SOL     OW27490   3.187   2.682   1.204 -0.1384  0.8739 -0.1058
 5343SOL    HW127491   3.109   2.721   1.244 -0.3462 -0.6267  0.9430
 5343SOL    HW227492   3.194   2.746   1.133  2.0532  2.7262  1.7671
 5344SOL     OW27493   2.247   3.125   2.172 -0.2232  0.1262 -1.0550
 5344SOL    HW127494   2.296   3.197   2.133 -0.3347  1.5858  1.4594
 5344SOL    HW227495   2.239   3.057   2.106  1.5106  0.4869 -1.6218
 5345SOL     OW27496   3.650   2.628   8.347  0.0087 -0.0007 -0.3703
 5345SOL    HW127497   3.655   2.665   8.258 -2.0074  2.3081  0.4832
 5345SOL    HW227498   3.572   2.574   8.335 -0.1523 -0.0077  0.7593
 5346SOL     OW27499   2.379   3.907   0.379 -0.3316  0.5740 -0.4374
 5346SOL    HW127500   2.293   3.941   0.353 -0.1704  1.2264 -0.1117
 5346SOL    HW227501   2.376   3.819   0.340  0.4246  0.5045 -0.3401
 5347SOL     OW27502   3.366   1.952  13.915 -0.8715 -0.0376 -0.0696
 5347SOL    HW127503   3.423   1.877  13.897 -1.4525 -0.6511  0.6402
 5347SOL    HW227504   3.309   1.920  13.986  1.0623 -2.7278  0.3044
 5348SOL     OW27505   0.702   4.635   5.929  0.0068  0.0192  0.1103
 5348SOL    HW127506   0.725   4.563   5.988  3.8627  0.6442 -0.6499
 5348SOL    HW227507   0.711   4.702   5.997  0.5530 -0.2796  0.3358
 5349SOL     OW27508   1.207   0.801  14.392 -0.5035 -0.1932 -0.0307
 5349SOL    HW127509   1.118   0.766  14.383 -0.1034 -0.8618 -1.2945
 5349SOL    HW227510   1.237   0.793  14.302  0.3961 -0.5239  0.3069
 5350SOL     OW27511   0.778   3.859   8.127 -0.1423 -0.5108  0.1535
 5350SOL    HW127512   0.731   3.786   8.086 -0.9011 -0.2745  0.6034
 5350SOL    HW227513   0.754   3.838   8.217  2.6634 -0.8370  0.8386
 5351SOL     OW27514   4.022   2.704   6.955  0.0761 -0.3824 -0.2621
 5351SOL    HW127515   4.099   2.660   6.918 -0.2739 -3.4013  2.6380
 5351SOL    HW227516   4.055   2.722   7.043 -0.0691  0.4244 -0.3749
 5352SOL     OW27517   2.164   1.007   6.938 -0.5116 -0.3506  0.5772
 5352SOL    HW127518   2.246   0.959   6.952 -0.2492 -0.2581 -0.6619
 5352SOL    HW227519   2.174   1.033   6.847 -2.0587  2.2561  1.1607
 5353SOL     OW27520   2.089   3.322   8.360 -0.2554 -0.2752  0.2211
 5353SOL    HW127521   2.088   3.415   8.336  1.5446 -0.8570 -2.0442
 5353SOL    HW227522   2.159   3.296   8.300  2.3980  0.0819  3.1749
 5354SOL     OW27523   3.667   2.238  15.993 -0.1310  0.2236  0.2975
 5354SOL    HW127524   3.699   2.223  15.904 -1.9212 -1.6840 -0.0365
 5354SOL    HW227525   3.629   2.326  15.986 -1.2273 -0.4370 -2.1754
 5355SOL     OW27526   3.636   4.403   3.881 -0.4071  0.5849 -0.2989
 5355SOL    HW127527   3.547   4.401   3.845  0.2351  2.7534 -2.0355
 5355SOL    HW227528   3.684   4.440   3.806 -1.0867  1.0210 -0.5210
 5356SOL     OW27529   0.195   0.075   4.272 -0.1281 -0.0300 -0.3514
 5356SOL    HW127530   0.245   0.065   4.353  0.4705  1.4387 -0.5503
 5356SOL    HW227531   0.234   4.723   4.228  1.9090  0.9752 -0.2775
 5357SOL     OW27532   3.460   2.090   8.990  1.0673  0.0521  0.1292
 5357SOL    HW127533   3.481   2.042   8.910 -2.2474 -0.1587 -0.6451
 5357SOL    HW227534   3.365   2.078   8.999  0.7548  2.2401 -0.4079
 5358SOL     OW27535   3.948   0.452   4.889  0.3469 -0.2680 -0.2237
 5358SOL    HW127536   3.943   0.370   4.938  1.0850 -0.9330 -1.2706
 5358SOL    HW227537   3.952   0.506   4.969 -0.7230  2.7772 -2.2429
 5359SOL     OW27538   0.550   0.904   4.589  0.0946  0.0228 -0.3730
 5359SOL    HW127539   0.619   0.838   4.582 -0.4700 -0.7658  1.3145
 5359SOL    HW227540   0.466   0.858   4.586 -0.0901  0.2686  1.1183
 5360SOL     OW27541   1.101   2.694   3.297  0.5931 -0.0978 -0.0146
 5360SOL    HW127542   1.148   2.637   3.236 -0.7663 -2.9382  1.6174
 5360SOL    HW227543   1.014   2.657   3.283  0.7283  0.0874 -1.3459
 5361SOL     OW27544   0.608   0.923  13.662  0.2879  0.6345 -0.4552
 5361SOL    HW127545   0.537   0.933  13.724  0.3688 -0.9964 -0.0884
 5361SOL    HW227546   0.652   1.007  13.673  1.5684 -0.3254  1.7261
 5362SOL     OW27547   0.029   2.272  11.242  0.3923 -0.2810 -0.0857
 5362SOL    HW127548   0.109   2.239  11.201  1.3691  0.5764  1.1391
 5362SOL    HW227549   0.052   2.363  11.257  0.0238 -0.3384  0.8024
 5363SOL     OW27550   3.682   1.523   9.940 -0.4886  0.2198  0.2040
 5363SOL    HW127551   3.764   1.476   9.950 -0.2714  0.0036 -2.7000
 5363SOL    HW227552   3.693   1.585   9.868 -1.3950 -1.3498 -1.2787
 5364SOL     OW27553   4.001   2.802  11.303 -0.3225  0.1278  0.6181
 5364SOL    HW127554   4.044   2.838  11.225 -0.2649 -1.7635 -0.2098
 5364SOL    HW227555   3.909   2.800  11.278  0.0178  0.8050 -0.7021
 5365SOL     OW27556   1.229   4.071  16.790 -0.6805 -0.3301  0.3350
 5365SOL    HW127557   1.153   4.020  16.820 -0.1553 -1.7146 -0.6679
 5365SOL    HW227558   1.291   4.017  16.741 -0.5537  0.6190 -0.5483
 5366SOL     OW27559   3.971   3.721   6.166 -0.2204 -0.3772  0.0614
 5366SOL    HW127560   4.015   3.762   6.241 -0.3637  0.2570 -0.2019
 5366SOL    HW227561   4.028   3.647   6.146  0.6304  0.2948  0.0239
 5367SOL     OW27562   0.103   2.933   7.782 -0.3824  0.1233  0.0429
 5367SOL    HW127563   0.143   3.019   7.777 -0.7210  0.3012  0.3263
 5367SOL    HW227564   0.145   2.886   7.854  1.0582  0.1270 -0.8009
 5368SOL     OW27565   1.609   0.378  11.645 -0.2460  0.0048 -0.2465
 5368SOL    HW127566   1.603   0.443  11.715  2.7680 -0.7799  0.7536
 5368SOL    HW227567   1.698   0.343  11.654  0.0576  1.2788  1.6256
 5369SOL     OW27568   3.598   4.308  16.124  0.2310  0.2670 -0.1843
 5369SOL    HW127569   3.515   4.310  16.076  0.1165  1.0760  0.0567
 5369SOL    HW227570   3.632   4.396  16.112  1.4253 -0.0747  0.6300
 5370SOL     OW27571   1.977   0.482  14.070  0.5726 -0.5324  0.3275
 5370SOL    HW127572   1.917   0.413  14.100 -2.3648  1.3280 -1.1838
 5370SOL    HW227573   1.930   0.513  13.992  0.5704  0.0630  0.5606
 5371SOL     OW27574   0.504   4.160  17.219  0.0058  0.2561  0.0473
 5371SOL    HW127575   0.473   4.069  17.218 -0.0367  0.2835 -1.0794
 5371SOL    HW227576   0.597   4.149  17.201  0.3446  2.4318  0.5780
 5372SOL     OW27577   3.156   0.543   2.644 -0.8909  0.0724 -0.5000
 5372SOL    HW127578   3.175   0.629   2.606 -1.6734 -0.1404 -1.3865
 5372SOL    HW227579   3.165   0.492   2.563  0.5661  1.0109 -0.9234
 5373SOL     OW27580   1.754   2.713  15.949  0.0614  0.2200  0.4036
 5373SOL    HW127581   1.682   2.751  15.999  1.1539 -0.1795  2.2599
 5373SOL    HW227582   1.713   2.687  15.866  1.9423  2.9007 -1.3687
 5374SOL     OW27583   3.052   1.432   0.895  0.2445 -0.6385 -0.3225
 5374SOL    HW127584   3.005   1.386   0.825  0.1402 -0.8346 -0.1227
 5374SOL    HW227585   2.978   1.485   0.925  0.8916  0.5858 -0.9421
 5375SOL     OW27586   4.710   4.314   6.156  0.0736  0.5093  0.0617
 5375SOL    HW127587   4.707   4.240   6.217 -1.0632 -1.1968 -2.0735
 5375SOL    HW227588   0.077   4.343   6.152  0.6225 -1.1237  0.7359
 5376SOL     OW27589   1.773   1.229   6.907 -0.5855  0.4643  0.3149
 5376SOL    HW127590   1.807   1.181   6.831 -1.6219  0.8260 -0.3823
 5376SOL    HW227591   1.805   1.167   6.972  1.5973 -1.1279 -2.2565
 5377SOL     OW27592   3.752   3.295  10.702  0.4730  0.0704  0.3316
 5377SOL    HW127593   3.725   3.208  10.732 -0.0146 -0.3818 -1.4449
 5377SOL    HW227594   3.844   3.292  10.726  0.2118  1.5361  1.5407
 5378SOL     OW27595   1.967   4.713   0.740 -0.3174 -0.4094  0.1031
 5378SOL    HW127596   2.027   4.656   0.691 -0.5920 -2.4454  2.1871
 5378SOL    HW227597   1.927   4.667   0.813 -1.5637 -2.3360 -1.7985
 5379SOL     OW27598   0.407   0.492  12.145 -0.5869 -0.0881  0.3105
 5379SOL    HW127599   0.448   0.505  12.231  0.9690  0.8197 -0.5524
 5379SOL    HW227600   0.488   0.462  12.104 -1.1486 -1.2141  0.0415
 5380SOL     OW27601   0.304   2.422   7.001  0.4978 -0.2720 -0.6530
 5380SOL    HW127602   0.353   2.494   6.962  1.0959 -1.1579 -1.5312
 5380SOL    HW227603   0.309   2.362   6.927  1.5614  0.0781 -0.8595
 5381SOL     OW27604   0.760   3.143  13.788  0.9875  0.4436 -0.2697
 5381SOL    HW127605   0.814   3.146  13.866  1.3792  0.0656 -0.5252
 5381SOL    HW227606   0.752   3.237  13.774  2.2048  0.6456  0.4481
 5382SOL     OW27607   4.272   2.351   6.733  0.3370 -0.6478 -0.2340
 5382SOL    HW127608   4.301   2.442   6.717 -0.4322 -0.7152 -2.0949
 5382SOL    HW227609   4.309   2.332   6.819 -2.3481  2.0427  1.5099
 5383SOL     OW27610   2.514   3.102  13.219  0.3618 -0.1997  0.3506
 5383SOL    HW127611   2.503   3.123  13.126 -1.4645 -0.7726  0.4371
 5383SOL    HW227612   2.607   3.085  13.202  0.1268 -0.5189 -0.6311
 5384SOL     OW27613   1.467   2.959   7.938  0.2576 -0.4294 -0.2454
 5384SOL    HW127614   1.405   2.902   7.891 -1.6605  0.4923  1.1987
 5384SOL    HW227615   1.482   2.916   8.022  0.6325  0.7811  0.2908
 5385SOL     OW27616   3.633   1.226   6.035 -0.3919 -0.7154  0.0308
 5385SOL    HW127617   3.578   1.304   6.027  0.1085 -0.4320 -0.6413
 5385SOL    HW227618   3.637   1.201   5.942 -0.0141  0.1317 -0.1793
 5386SOL     OW27619   3.991   2.398   5.814  0.8679  0.3019  0.8169
 5386SOL    HW127620   3.905   2.424   5.848  0.1244 -0.9842 -0.1239
 5386SOL    HW227621   4.022   2.343   5.886  0.7236 -0.3500  0.3775
 5387SOL     OW27622   3.633   1.514  11.573 -0.1866  0.5819  0.9353
 5387SOL    HW127623   3.676   1.449  11.516  0.4015 -0.8516  2.9886
 5387SOL    HW227624   3.708   1.561  11.611  1.1500 -1.1342  0.4690
 5388SOL     OW27625   2.882   3.668  11.529  0.0973  0.4319  0.0847
 5388SOL    HW127626   2.963   3.618  11.520 -0.1218 -0.0383  0.7896
 5388SOL    HW227627   2.915   3.731  11.593 -0.7575  0.0114  0.9352
 5389SOL     OW27628   4.672   4.176  12.890  0.5513 -0.0206  0.6100
 5389SOL    HW127629   4.620   4.195  12.968 -1.5388 -0.6960 -0.6223
 5389SOL    HW227630   4.675   4.263  12.850 -0.4878 -1.0794 -1.7828
 5390SOL     OW27631   0.189   3.799   0.193 -0.6159  0.0409 -0.0742
 5390SOL    HW127632   0.266   3.755   0.157  0.1254  1.3122 -0.0319
 5390SOL    HW227633   0.198   3.808   0.287 -1.1337  2.4488 -0.2373
 5391SOL     OW27634   2.614   2.497   4.935  0.1216 -0.0544 -0.1319
 5391SOL    HW127635   2.593   2.583   4.971  2.7976  0.8529 -0.7122
 5391SOL    HW227636   2.705   2.494   4.965 -0.5183  1.5005  1.9418
 5392SOL     OW27637   1.598   2.420  17.498 -0.0654 -0.0243 -0.3698
 5392SOL    HW127638   1.623   2.360  17.568  0.0038  0.2601 -0.1546
 5392SOL    HW227639   1.560   2.355  17.438 -0.9360 -0.4554  0.6368
 5393SOL     OW27640   2.553   3.142   0.028 -0.3253 -0.1338 -0.3380
 5393SOL    HW127641   2.568   3.236   0.040  1.4565 -0.4439 -0.0293
 5393SOL    HW227642   2.643   3.112   0.012 -0.0823 -0.7290  2.0561
 5394SOL     OW27643   3.733   1.856   3.133  0.2272 -0.2497  0.0736
 5394SOL    HW127644   3.712   1.946   3.157  0.1497 -0.3100  0.2292
 5394SOL    HW227645   3.718   1.855   3.038 -0.9728  0.2581  0.2641
 5395SOL     OW27646   1.592   1.879  15.440 -0.2223 -0.0116  0.3336
 5395SOL    HW127647   1.623   1.789  15.447 -1.9057 -0.6107  0.1601
 5395SOL    HW227648   1.594   1.898  15.346 -1.3524  0.8120  0.4706
 5396SOL     OW27649   0.588   4.388  10.243 -0.5118 -1.0139  0.3402
 5396SOL    HW127650   0.499   4.395  10.208 -0.3364  0.9620  0.3004
 5396SOL    HW227651   0.572   4.375  10.337 -1.1560  2.3826  0.6751
 5397SOL     OW27652   0.786   0.328   5.056  0.6328  0.4596 -0.3325
 5397SOL    HW127653   0.696   0.334   5.025  1.1845  1.9772 -1.6689
 5397SOL    HW227654   0.774   0.375   5.139  0.7477 -2.3138  1.2522
 5398SOL     OW27655   2.827   0.814   8.977  0.0333 -0.4851 -0.0886
 5398SOL    HW127656   2.868   0.732   8.950 -0.8192 -0.4231 -1.5566
 5398SOL    HW227657   2.898   0.833   9.039  0.4069  0.0629 -0.6817
 5399SOL     OW27658   1.577   3.793  16.451  0.2130  0.1793 -0.2101
 5399SOL    HW127659   1.604   3.705  16.479 -2.1917 -0.4071  0.2125
 5399SOL    HW227660   1.641   3.812  16.382  1.6170 -0.2339  0.9691
 5400SOL     OW27661   1.159   1.770   5.896 -0.7416  0.1319 -0.4885
 5400SOL    HW127662   1.115   1.760   5.812  0.8562  0.5578 -1.3589
 5400SOL    HW227663   1.205   1.854   5.889 -2.4964  1.0428 -1.0394
 5401SOL     OW27664   0.156   0.434   2.374 -0.0420 -0.0662 -0.1416
 5401SOL    HW127665   0.213   0.403   2.304 -0.4562 -0.7511 -0.1741
 5401SOL    HW227666   0.136   0.516   2.330  0.0503 -0.1984 -0.4259
 5402SOL     OW27667   1.821   1.476   4.381 -0.1076  0.6031  0.4213
 5402SOL    HW127668   1.873   1.451   4.305 -0.3804  1.6621 -0.1179
 5402SOL    HW227669   1.843   1.569   4.374  0.3855  0.2636 -2.3908
 5403SOL     OW27670   1.621   0.200   3.424  0.1794 -0.0478  0.1410
 5403SOL    HW127671   1.694   0.220   3.365  1.2206  0.7798  1.7040
 5403SOL    HW227672   1.546   0.222   3.369  0.3678  0.5497  0.1227
 5404SOL     OW27673   2.815   0.191   6.719 -0.1651 -1.1292  0.5290
 5404SOL    HW127674   2.747   0.245   6.679 -0.5442 -1.6249  0.5048
 5404SOL    HW227675   2.849   0.139   6.646  0.3102  0.4887 -0.3914
 5405SOL     OW27676   3.433   1.685   4.491  0.2502 -0.6979 -0.0905
 5405SOL    HW127677   3.339   1.695   4.504  1.0252  0.7696  4.0933
 5405SOL    HW227678   3.464   1.771   4.520 -0.0137 -1.0335  1.1731
 5406SOL     OW27679   3.142   0.518  14.725  0.2200  0.0576 -0.2893
 5406SOL    HW127680   3.053   0.539  14.696  0.0883  1.2831  0.9844
 5406SOL    HW227681   3.181   0.507  14.638  1.7012  0.8082  0.2778
 5407SOL     OW27682   2.156   1.838   0.993 -0.3832  0.1091  0.6082
 5407SOL    HW127683   2.201   1.838   0.909 -0.2495 -1.8270  0.6799
 5407SOL    HW227684   2.075   1.795   0.966  1.3801 -3.2728  0.7733
 5408SOL     OW27685   1.748   1.928  10.127 -0.0044 -0.0939 -0.2819
 5408SOL    HW127686   1.720   1.985  10.200  1.8931  1.7578 -0.9962
 5408SOL    HW227687   1.691   1.852  10.141 -0.3053  0.1640 -0.1088
 5409SOL     OW27688   1.801   2.157   5.465 -0.0731  0.0461 -0.4993
 5409SOL    HW127689   1.826   2.119   5.381 -2.2725  2.3193 -2.1861
 5409SOL    HW227690   1.788   2.252   5.463  1.4577  0.2852  1.2412
 5410SOL     OW27691   3.555   4.579  11.094  0.0966 -0.4163 -0.4435
 5410SOL    HW127692   3.577   4.638  11.166  1.0459  0.6650 -1.6124
 5410SOL    HW227693   3.465   4.555  11.115 -0.2736  1.4951  0.0871
 5411SOL     OW27694   2.142   2.890   2.659  0.4908  0.1353  0.0530
 5411SOL    HW127695   2.139   2.801   2.695 -0.4300 -0.2801 -1.0433
 5411SOL    HW227696   2.199   2.874   2.583 -0.1906 -2.9319  0.1929
 5412SOL     OW27697   2.151   1.213   6.411  0.4101  0.0440  0.0540
 5412SOL    HW127698   2.237   1.193   6.374  0.1674 -0.6192 -0.1517
 5412SOL    HW227699   2.109   1.224   6.326 -1.1475  0.0078  0.8344
 5413SOL     OW27700   0.620   1.986   2.090 -0.4439  0.1534 -0.5818
 5413SOL    HW127701   0.626   2.025   2.177  1.8777  1.1493 -1.1847
 5413SOL    HW227702   0.648   2.066   2.046 -1.5571 -0.1653 -1.8621
 5414SOL     OW27703   3.275   1.719   2.536 -0.1272 -0.1161 -0.7065
 5414SOL    HW127704   3.310   1.678   2.456 -1.3157 -0.7504 -0.8987
 5414SOL    HW227705   3.228   1.648   2.579  1.4579  0.2512  1.6130
 5415SOL     OW27706   2.756   3.968  10.821  0.1001 -0.1090 -0.1583
 5415SOL    HW127707   2.756   4.036  10.754 -2.6794 -1.1764 -1.2719
 5415SOL    HW227708   2.841   3.931  10.800  1.1259  1.3787  1.4268
 5416SOL     OW27709   0.289   4.499   4.652 -0.1455 -0.2712 -0.0905
 5416SOL    HW127710   0.327   4.412   4.638  1.7471  1.0797 -3.1800
 5416SOL    HW227711   0.367   4.543   4.685 -0.5412 -1.0568  1.9360
 5417SOL     OW27712   0.906   1.304   7.447 -0.1597  0.2168  0.3334
 5417SOL    HW127713   0.868   1.300   7.535  2.6523 -0.2295  1.4998
 5417SOL    HW227714   0.928   1.397   7.446  0.8832 -0.0395  0.2046
 5418SOL     OW27715   2.140   3.045   6.032  0.3950 -0.3269  0.1295
 5418SOL    HW127716   2.151   3.140   6.033  0.3610 -0.3464  2.5074
 5418SOL    HW227717   2.050   3.041   6.063 -0.0413  1.4635 -0.9291
 5419SOL     OW27718   4.623   1.280   5.622  0.0543 -0.5521  0.2551
 5419SOL    HW127719   4.657   1.199   5.660 -0.1310  1.1051  3.9517
 5419SOL    HW227720   4.550   1.302   5.680 -0.9212 -1.7221 -0.5435
 5420SOL     OW27721   2.074   3.766  11.482 -0.5464  0.0403  0.1874
 5420SOL    HW127722   2.152   3.776  11.536  0.9742  3.4475 -2.5881
 5420SOL    HW227723   2.091   3.676  11.456 -2.2270 -0.7743  1.9498
 5421SOL     OW27724   4.367   2.810  10.078 -0.5986  0.3099 -0.3958
 5421SOL    HW127725   4.398   2.720  10.067 -1.6081  0.0892 -1.4779
 5421SOL    HW227726   4.432   2.842  10.141 -3.2815  1.8458  1.5501
 5422SOL     OW27727   4.493   4.174  17.343 -0.8552  0.2918  0.0146
 5422SOL    HW127728   4.412   4.223  17.358 -0.9483  0.8543 -2.3394
 5422SOL    HW227729   4.472   4.121  17.266 -0.4471  0.6330 -0.3311
 5423SOL     OW27730   0.778   4.182  10.205 -0.1884  0.5979 -0.0187
 5423SOL    HW127731   0.700   4.237  10.196 -1.7071 -1.1404  2.5069
 5423SOL    HW227732   0.744   4.125  10.274  0.0364 -0.2460 -0.6074
 5424SOL     OW27733   1.754   0.575   3.712  0.7542  0.6628  0.7388
 5424SOL    HW127734   1.786   0.662   3.688  2.4130 -0.4581 -1.0635
 5424SOL    HW227735   1.715   0.544   3.631  2.4653  2.1941 -0.6633
 5425SOL     OW27736   0.393   0.272  10.052 -0.3952  0.7673  0.1506
 5425SOL    HW127737   0.426   0.307  10.134  0.4391  0.7870 -0.1949
 5425SOL    HW227738   0.383   0.353  10.003  0.4919  0.2254 -0.9277
 5426SOL     OW27739   2.165   4.546   8.418  0.1327  0.0040  0.3855
 5426SOL    HW127740   2.180   4.554   8.512  0.3177  0.3956  0.3244
 5426SOL    HW227741   2.245   4.592   8.392 -0.2471  0.9948  0.9570
 5427SOL     OW27742   2.635   1.766   2.112 -0.3891 -0.7387  0.2667
 5427SOL    HW127743   2.658   1.677   2.141 -0.3455 -0.6696  0.4469
 5427SOL    HW227744   2.675   1.769   2.025 -0.0011 -0.5288  0.4506
 5428SOL     OW27745   2.391   2.559  15.422  0.2163  0.1695 -0.1667
 5428SOL    HW127746   2.412   2.596  15.508 -1.2873 -2.3233  1.2615
 5428SOL    HW227747   2.431   2.472  15.424  0.9958  0.5011 -1.0883
 5429SOL     OW27748   3.520   4.209  15.384 -0.0676 -0.1323  0.2116
 5429SOL    HW127749   3.532   4.127  15.336  0.8867  1.0628 -1.5897
 5429SOL    HW227750   3.518   4.172  15.473 -0.5289  0.3805  0.4100
 5430SOL     OW27751   0.308   4.625   0.507 -0.0553 -0.4110  0.1028
 5430SOL    HW127752   0.238   4.600   0.567  1.6216  0.1524  2.3128
 5430SOL    HW227753   0.266   4.591   0.428 -1.1386 -0.5501  0.7417
 5431SOL     OW27754   2.638   3.156   4.554  0.6004  0.1740 -0.8721
 5431SOL    HW127755   2.645   3.070   4.514  2.0723 -0.2941  0.3907
 5431SOL    HW227756   2.729   3.186   4.557  0.5021  0.2189  2.1129
 5432SOL     OW27757   3.102   2.693  13.744  0.1512  0.1695 -0.1960
 5432SOL    HW127758   3.110   2.620  13.806 -0.0239 -0.8190 -1.3426
 5432SOL    HW227759   3.040   2.660  13.679 -2.5904  1.2845  1.8867
 5433SOL     OW27760   2.487   3.259   8.739  0.2669  0.7315 -0.2017
 5433SOL    HW127761   2.491   3.332   8.678 -0.2354 -0.7514 -2.0164
 5433SOL    HW227762   2.396   3.267   8.768  0.1251 -2.6904  0.3474
 5434SOL     OW27763   3.429   1.673   5.207  0.1193  0.3521  0.1252
 5434SOL    HW127764   3.446   1.712   5.121  0.2491  0.3825  0.1651
 5434SOL    HW227765   3.504   1.619   5.231  2.0850  2.0425 -2.1875
 5435SOL     OW27766   4.542   3.938  17.206 -0.4966  0.3945 -0.7672
 5435SOL    HW127767   4.587   3.863  17.245  0.7892  1.2903 -0.5244
 5435SOL    HW227768   4.472   3.895  17.158 -1.0307 -0.4842  0.8153
 5436SOL     OW27769   1.000   0.422   2.654  0.4156  0.5047 -0.0999
 5436SOL    HW127770   1.054   0.436   2.576 -0.1784 -0.5735 -0.7066
 5436SOL    HW227771   0.990   0.327   2.654  0.1681  0.5319  1.5455
 5437SOL     OW27772   1.829   2.441  16.015  0.2688 -0.0902  0.4212
 5437SOL    HW127773   1.914   2.456  16.057 -0.3690  0.7350  1.4104
 5437SOL    HW227774   1.809   2.526  15.977  0.2259 -0.8990 -1.4016
 5438SOL     OW27775   2.997   1.966   5.464  0.3477 -0.0266 -0.6346
 5438SOL    HW127776   2.927   1.996   5.522  0.9335 -2.7078  1.4697
 5438SOL    HW227777   2.954   1.902   5.407  0.7017  0.6767 -1.6891
 5439SOL     OW27778   3.215   4.418   3.068  0.4830  0.5379  0.0510
 5439SOL    HW127779   3.206   4.324   3.055  0.5792  0.7064 -1.1874
 5439SOL    HW227780   3.154   4.432   3.140 -1.1973 -1.2416 -1.0220
 5440SOL     OW27781   0.995   4.379   9.939 -0.0201  0.5408  0.5886
 5440SOL    HW127782   1.038   4.446   9.885  2.0326 -2.6729 -1.7173
 5440SOL    HW227783   0.904   4.410   9.939  0.9863  3.5601 -3.1884
 5441SOL     OW27784   1.252   1.692   4.216 -0.8448 -0.7990 -0.6803
 5441SOL    HW127785   1.268   1.785   4.196  0.0023 -1.3293 -2.5336
 5441SOL    HW227786   1.342   1.663   4.202 -0.4698 -0.4742  1.0938
 5442SOL     OW27787   0.441   2.070  12.689 -0.3790 -0.0334 -0.2066
 5442SOL    HW127788   0.437   2.148  12.744  0.9388  0.7902 -1.2806
 5442SOL    HW227789   0.443   2.004  12.758 -3.3419  1.8444  1.6851
 5443SOL     OW27790   4.460   4.552  10.274 -0.6243 -0.2359 -0.5346
 5443SOL    HW127791   4.522   4.552  10.201  0.1480 -1.7388  0.1155
 5443SOL    HW227792   4.491   4.617  10.338  0.0639  0.8623 -1.9827
 5444SOL     OW27793   2.530   1.844   7.107  0.8791  0.3071  0.2634
 5444SOL    HW127794   2.502   1.889   7.186 -1.5739  2.0083 -1.5780
 5444SOL    HW227795   2.465   1.774   7.099 -0.4331  1.2865  2.4105
 5445SOL     OW27796   4.691   1.305   0.359 -0.2347  0.2740 -0.4680
 5445SOL    HW127797   4.603   1.276   0.382 -0.6262  2.5057  0.8720
 5445SOL    HW227798   4.702   1.331   0.268  1.4048  0.8130 -0.1105
 5446SOL     OW27799   2.739   4.288   2.365  0.5593 -0.1697  0.4074
 5446SOL    HW127800   2.765   4.293   2.273  0.8234  0.4434  0.5161
 5446SOL    HW227801   2.678   4.362   2.370  2.5722  1.5100  0.1429
 5447SOL     OW27802   1.871   3.683   3.837  0.2906  0.1671 -0.0108
 5447SOL    HW127803   1.823   3.738   3.775 -0.6375  2.0606  2.3684
 5447SOL    HW227804   1.899   3.611   3.781 -0.2779 -0.1798  0.1452
 5448SOL     OW27805   2.768   3.627   9.487  0.2536 -0.3818  0.1901
 5448SOL    HW127806   2.693   3.577   9.457 -0.5065  0.1101  1.2527
 5448SOL    HW227807   2.837   3.561   9.499  1.4939  0.9009  0.1563
 5449SOL     OW27808   4.566   4.143  16.869  0.0071  0.4635  0.1137
 5449SOL    HW127809   4.643   4.134  16.925 -0.0668  2.4643  0.5225
 5449SOL    HW227810   4.596   4.223  16.826 -3.1353  1.6456  0.1219
 5450SOL     OW27811   3.742   1.589   4.053 -0.3729  0.5478 -0.2686
 5450SOL    HW127812   3.707   1.597   4.142 -0.1354  0.2337 -0.1474
 5450SOL    HW227813   3.661   1.612   4.007 -0.9220  0.5628  0.7047
 5451SOL     OW27814   3.863   1.663   6.459  0.0633  0.5684  0.1025
 5451SOL    HW127815   3.898   1.664   6.548 -0.3372 -0.6313  0.2794
 5451SOL    HW227816   3.815   1.745   6.451  0.0026  0.4246 -1.0060
 5452SOL     OW27817   3.219   1.975  10.773 -0.4564 -0.2130  0.1372
 5452SOL    HW127818   3.123   1.973  10.772 -0.4948  1.9711 -2.4039
 5452SOL    HW227819   3.233   1.883  10.754 -0.0721 -0.3152  0.9501
 5453SOL     OW27820   4.649   4.291   3.093 -0.1441 -0.1105  0.0823
 5453SOL    HW127821   4.651   4.320   3.184 -0.6349 -0.7020  0.2768
 5453SOL    HW227822   4.652   4.197   3.107  0.1763  0.1960  2.0633
 5454SOL     OW27823   3.316   2.694   5.305  0.2341 -0.5330 -0.0177
 5454SOL    HW127824   3.314   2.754   5.379 -0.8673 -0.2757 -0.2518
 5454SOL    HW227825   3.264   2.744   5.242  1.8461  0.7837 -0.3092
 5455SOL     OW27826   4.541   1.872   3.244 -0.2127  0.2525 -0.6164
 5455SOL    HW127827   4.548   1.785   3.206 -0.5056  0.1315 -0.3966
 5455SOL    HW227828   4.539   1.929   3.168 -1.5252  1.7733  0.5635
 5456SOL     OW27829   1.084   0.413   6.787  0.3986 -0.1535 -0.0501
 5456SOL    HW127830   1.047   0.440   6.703 -2.6404  2.7740  2.2004
 5456SOL    HW227831   1.016   0.376   6.843  1.1689  0.3575  1.2261
 5457SOL     OW27832   1.194   1.226   7.044  0.0485 -0.0465  0.0892
 5457SOL    HW127833   1.131   1.293   7.019 -0.5395 -0.5616  0.1959
 5457SOL    HW227834   1.233   1.212   6.958 -0.5900 -0.6611 -0.1016
 5458SOL     OW27835   0.335   3.963  10.195  0.3689  0.5786 -0.6498
 5458SOL    HW127836   0.367   3.963  10.105  2.0156  1.4864 -0.0820
 5458SOL    HW227837   0.321   4.056  10.215 -0.2796  0.1410  0.9566
 5459SOL     OW27838   1.184   4.568   0.565 -0.2980 -0.1703 -0.4130
 5459SOL    HW127839   1.270   4.591   0.599 -0.7714 -2.2341  2.1379
 5459SOL    HW227840   1.205   4.586   0.473 -0.3093  1.6452 -0.0484
 5460SOL     OW27841   3.539   2.521   5.989 -0.7533  0.2827 -0.3745
 5460SOL    HW127842   3.572   2.558   5.908 -0.7809 -1.3856 -1.1432
 5460SOL    HW227843   3.610   2.490   6.045  1.2506  2.5860 -1.6459
 5461SOL     OW27844   0.132   2.157   6.591  0.6167  0.4824 -0.7468
 5461SOL    HW127845   0.153   2.177   6.500  0.7878  1.4919 -0.4791
 5461SOL    HW227846   0.181   2.075   6.602  0.4813  0.8358  2.6593
 5462SOL     OW27847   0.910   4.399   2.261  0.0588 -0.5694 -0.4035
 5462SOL    HW127848   0.974   4.421   2.193 -0.0822 -2.7759 -1.2734
 5462SOL    HW227849   0.960   4.442   2.330 -0.4990 -0.8947  0.2034
 5463SOL     OW27850   3.399   4.272   2.603 -0.3475 -0.2634  0.3455
 5463SOL    HW127851   3.336   4.328   2.648  1.3511  1.0905  1.0676
 5463SOL    HW227852   3.363   4.187   2.627  2.4629 -1.0480  1.6949
 5464SOL     OW27853   3.987   0.903   3.381 -0.0542 -0.3805  0.0078
 5464SOL    HW127854   4.044   0.830   3.404  0.8546  0.3961  0.2671
 5464SOL    HW227855   3.901   0.863   3.377  0.9852 -2.4813 -1.0659
 5465SOL     OW27856   2.899   4.717   4.417 -0.1153  0.3516 -0.2393
 5465SOL    HW127857   2.804   4.719   4.407 -0.1971 -1.3407  0.2506
 5465SOL    HW227858   2.919   0.086   4.403  0.1429  0.2385 -0.6424
 5466SOL     OW27859   4.108   2.333   5.284 -0.2249  0.3185  0.3456
 5466SOL    HW127860   4.042   2.361   5.348 -1.0541  0.7447 -0.7069
 5466SOL    HW227861   4.191   2.353   5.328 -0.7899  0.2459  1.4470
 5467SOL     OW27862   2.789   1.681   7.303 -0.7181 -0.5632 -0.4806
 5467SOL    HW127863   2.883   1.659   7.303 -0.6453 -0.2574  1.8131
 5467SOL    HW227864   2.784   1.702   7.396  2.3429  1.2715 -0.7317
 5468SOL     OW27865   0.427   0.087  16.267  0.0454  0.1044  0.3805
 5468SOL    HW127866   0.494   0.153  16.286 -0.0032  0.1906  0.2526
 5468SOL    HW227867   0.347   0.135  16.247  0.4775  0.5455 -0.2807
 5469SOL     OW27868   1.110   3.381   4.634  0.3463  0.0076  0.1379
 5469SOL    HW127869   1.063   3.298   4.636  1.7023 -0.7271  1.0129
 5469SOL    HW227870   1.040   3.443   4.655 -0.0052  0.4213 -2.2140
 5470SOL     OW27871   2.460   3.250  16.319 -0.0226  0.2619  0.1055
 5470SOL    HW127872   2.400   3.318  16.286 -1.7023 -1.0925  0.3955
 5470SOL    HW227873   2.401   3.192  16.366  0.6848  0.5599  1.3648
 5471SOL     OW27874   0.695   3.573   7.191  0.4250  0.1466 -0.7175
 5471SOL    HW127875   0.757   3.567   7.264 -1.7688  0.5134  1.1753
 5471SOL    HW227876   0.701   3.664   7.163 -0.2447  0.5288  0.3587
 5472SOL     OW27877   4.229   2.929  10.596  0.4514  0.3855 -0.1152
 5472SOL    HW127878   4.284   2.922  10.518  0.1150  2.0878 -0.4965
 5472SOL    HW227879   4.245   2.848  10.645 -0.2126 -0.2844 -0.9926
 5473SOL     OW27880   1.889   1.962   7.064  0.2823  0.4529  0.6367
 5473SOL    HW127881   1.885   1.921   6.978 -2.8047  0.2007  0.8947
 5473SOL    HW227882   1.979   1.941   7.088  0.4796  1.3611  0.6970
 5474SOL     OW27883   2.918   0.118   2.701 -0.2219  0.0787 -0.5093
 5474SOL    HW127884   2.890   0.121   2.793  2.7292  1.9517  0.3341
 5474SOL    HW227885   2.841   0.167   2.673 -0.0109  0.0326 -1.1609
 5475SOL     OW27886   3.972   3.479  12.352 -0.1950 -0.1518 -0.5789
 5475SOL    HW127887   4.003   3.569  12.362 -0.7712 -0.0054 -0.1309
 5475SOL    HW227888   3.934   3.463  12.438  2.3854 -4.4493 -0.2006
 5476SOL     OW27889   1.829   2.546  10.821 -0.4375 -0.4574 -0.6016
 5476SOL    HW127890   1.861   2.623  10.772  0.3594  0.2369  0.9826
 5476SOL    HW227891   1.787   2.502  10.747  2.1561 -0.4583 -2.0810
 5477SOL     OW27892   2.157   1.862   4.879 -0.0693 -0.2786  0.0355
 5477SOL    HW127893   2.070   1.831   4.906  0.2261 -0.9605  0.1995
 5477SOL    HW227894   2.148   1.954   4.903  1.4703  0.1280 -0.9601
 5478SOL     OW27895   4.006   2.005   7.163  0.1442 -0.3040  0.0827
 5478SOL    HW127896   3.911   2.010   7.177 -0.5076 -1.8592 -3.7435
 5478SOL    HW227897   4.031   1.953   7.239  0.6086 -0.1054  0.0698
 5479SOL     OW27898   1.550   1.453  15.230 -0.5277 -0.6799 -0.5786
 5479SOL    HW127899   1.464   1.465  15.271  0.1591  1.1481  0.3122
 5479SOL    HW227900   1.608   1.502  15.288 -1.2263  0.0218 -0.4644
 5480SOL     OW27901   0.913   0.850   7.340  0.5371 -0.0892 -0.3283
 5480SOL    HW127902   0.914   0.765   7.295  0.1354  0.6306 -1.7150
 5480SOL    HW227903   0.978   0.899   7.290  0.8383  0.0732  0.2270
 5481SOL     OW27904   1.471   1.179   3.381  0.2885  0.1590  0.0104
 5481SOL    HW127905   1.425   1.116   3.325 -0.7638 -0.2447  1.3368
 5481SOL    HW227906   1.394   1.220   3.420  0.3564 -0.6575  0.9963
 5482SOL     OW27907   3.010   2.235   6.164  0.0117 -0.1629  0.6294
 5482SOL    HW127908   2.965   2.240   6.080  0.2684 -0.0162  0.5018
 5482SOL    HW227909   2.953   2.181   6.219  1.0167 -0.1326  1.7141
 5483SOL     OW27910   3.714   4.560   8.458  0.0781  0.1880  0.3589
 5483SOL    HW127911   3.755   4.488   8.505  0.7973  0.5373  0.2590
 5483SOL    HW227912   3.759   4.541   8.376 -2.0556 -0.6651 -0.6257
 5484SOL     OW27913   3.265   4.576   7.921  0.1042 -0.0775  0.1989
 5484SOL    HW127914   3.352   4.595   7.885 -0.7270  1.9281 -0.7569
 5484SOL    HW227915   3.281   4.575   8.015  0.6839  0.0542  0.1033
 5485SOL     OW27916   0.736   1.608   7.877  0.0942 -0.2648 -0.4064
 5485SOL    HW127917   0.745   1.549   7.952  1.0321  0.5435  0.1199
 5485SOL    HW227918   0.823   1.597   7.838  0.6929  0.2380  0.7831
 5486SOL     OW27919   3.024   3.220   9.259  0.0626  0.3614  0.6780
 5486SOL    HW127920   2.987   3.309   9.251  0.1978  0.4117  0.6190
 5486SOL    HW227921   3.110   3.242   9.296  0.8610  1.1183 -1.6689
 5487SOL     OW27922   2.932   2.706  10.349 -0.0362  0.3689 -0.7023
 5487SOL    HW127923   2.842   2.726  10.375  0.5266 -0.0043  1.5131
 5487SOL    HW227924   2.934   2.621  10.305 -1.6537 -0.3949  0.7302
 5488SOL     OW27925   4.680   2.385   0.187 -0.5265 -0.3557 -0.9194
 5488SOL    HW127926   4.600   2.337   0.208  0.8194 -1.9180  0.5865
 5488SOL    HW227927   0.016   2.317   0.157  0.2466  0.5026 -1.3243
 5489SOL     OW27928   3.018   2.146   4.703 -0.3532  0.3206 -0.1233
 5489SOL    HW127929   3.099   2.185   4.670  0.4335 -2.6108 -1.6562
 5489SOL    HW227930   3.024   2.133   4.798  3.3022 -1.1368 -0.5338
 5490SOL     OW27931   3.698   2.925  13.676  0.0476  0.1445 -0.6268
 5490SOL    HW127932   3.746   3.006  13.663 -1.6566  1.1480 -0.6934
 5490SOL    HW227933   3.627   2.938  13.614  0.8926 -1.0933 -1.8556
 5491SOL     OW27934   3.960   3.758   2.640  0.0901 -0.3239  0.4561
 5491SOL    HW127935   3.921   3.804   2.565 -1.7819 -0.9717  1.0348
 5491SOL    HW227936   3.905   3.799   2.706 -1.0975  0.8688 -1.2560
 5492SOL     OW27937   0.779   0.514   2.073 -0.1000  0.3885 -0.3302
 5492SOL    HW127938   0.810   0.477   2.155  0.4905 -0.1876 -0.8099
 5492SOL    HW227939   0.745   0.435   2.031 -0.7761 -0.9530  2.7315
 5493SOL     OW27940   4.337   1.894   3.011  0.1347  0.2652  0.6060
 5493SOL    HW127941   4.268   1.842   3.052 -3.2002  2.5902 -2.0690
 5493SOL    HW227942   4.320   1.869   2.920 -2.5088  4.6216 -0.0885
 5494SOL     OW27943   2.279   3.033   5.738  0.5305  0.2631  0.7670
 5494SOL    HW127944   2.233   3.047   5.820  0.8496 -0.5160  1.0732
 5494SOL    HW227945   2.346   3.102   5.733  1.2061 -0.2786  2.5364
 5495SOL     OW27946   0.224   4.170  12.884 -0.0740 -0.3044  0.0033
 5495SOL    HW127947   0.264   4.156  12.970  4.1993  1.0124 -1.7693
 5495SOL    HW227948   0.132   4.174  12.908 -0.2473 -0.0500 -0.7126
 5496SOL     OW27949   2.350   0.903   4.493 -0.4101  0.2934 -0.0183
 5496SOL    HW127950   2.295   0.960   4.546 -0.1908 -1.2220  1.8672
 5496SOL    HW227951   2.350   0.828   4.553 -0.1346 -0.3287 -0.7933
 5497SOL     OW27952   1.723   2.326   8.380  0.3219 -0.0231  0.4277
 5497SOL    HW127953   1.777   2.398   8.409  0.9845  0.2137 -1.3937
 5497SOL    HW227954   1.674   2.378   8.316 -1.0426 -1.3392  0.3858
 5498SOL     OW27955   1.706   3.502  11.156 -0.0399  0.4210  0.4124
 5498SOL    HW127956   1.708   3.576  11.096 -2.2661 -0.3175 -0.5731
 5498SOL    HW227957   1.679   3.431  11.098 -1.3914  1.5045 -0.2817
 5499SOL     OW27958   3.422   2.049   9.546  0.3026 -0.2858  0.1240
 5499SOL    HW127959   3.410   2.071   9.454  0.7693 -0.6427 -0.0226
 5499SOL    HW227960   3.509   2.088   9.553 -0.4509  1.5767 -0.9751
 5500SOL     OW27961   1.964   2.971   5.227 -0.6884 -0.2487 -0.3071
 5500SOL    HW127962   2.055   2.943   5.230 -1.0914 -1.7157 -1.5057
 5500SOL    HW227963   1.956   2.965   5.132  2.2004  2.3915 -0.6866
 5501SOL     OW27964   4.432   2.215   1.703 -0.3652  0.6486  0.3156
 5501SOL    HW127965   4.445   2.284   1.768  1.8238  1.4150 -0.9445
 5501SOL    HW227966   4.369   2.154   1.743  0.6843 -1.0075 -0.5337
 5502SOL     OW27967   4.374   1.002  13.933  0.5665  0.2809  0.1697
 5502SOL    HW127968   4.316   0.960  13.996  0.5171 -2.1253 -1.4769
 5502SOL    HW227969   4.324   1.002  13.851  0.1033 -2.4357  0.4474
 5503SOL     OW27970   4.205   2.334   4.948  0.0398  0.1238 -0.2283
 5503SOL    HW127971   4.201   2.289   4.864  1.0905  0.2290 -0.3341
 5503SOL    HW227972   4.164   2.273   5.009  1.1805 -0.1539  0.2705
 5504SOL     OW27973   2.567   0.826   3.938 -0.1289 -0.0967 -0.1601
 5504SOL    HW127974   2.526   0.907   3.907  0.6175 -0.3787 -1.8453
 5504SOL    HW227975   2.528   0.760   3.881 -1.2745 -0.5075  1.0962
 5505SOL     OW27976   2.034   0.296   6.330  0.1744  0.4780  0.4184
 5505SOL    HW127977   1.982   0.374   6.310 -0.9140 -0.4746 -0.4780
 5505SOL    HW227978   2.073   0.331   6.410  0.8727 -1.8517  1.0915
 5506SOL     OW27979   1.683   1.352   6.327  0.1191 -0.6116 -0.3529
 5506SOL    HW127980   1.641   1.311   6.252  1.7246  0.6642 -1.9510
 5506SOL    HW227981   1.629   1.327   6.402 -0.1910  1.3017  0.0616
 5507SOL     OW27982   1.417   0.046  12.735  0.0831  0.3279  0.2078
 5507SOL    HW127983   1.513   0.049  12.729  0.0910  0.2854  0.3087
 5507SOL    HW227984   1.399   4.695  12.792 -0.8306  0.8376  0.5818
 5508SOL     OW27985   3.821   4.370  11.137 -0.2405  0.0958 -0.0208
 5508SOL    HW127986   3.895   4.340  11.085 -0.1892 -1.6464  1.0554
 5508SOL    HW227987   3.867   4.431  11.194  0.5342  0.2906 -0.8556
 5509SOL     OW27988   3.480   0.979   6.138 -0.2440  0.0852  0.8373
 5509SOL    HW127989   3.517   1.001   6.223 -0.1405  0.2157  0.7587
 5509SOL    HW227990   3.444   1.062   6.106 -0.8447 -1.5533 -2.7685
 5510SOL     OW27991   1.415   0.256   4.562 -0.3116 -0.5386 -0.1125
 5510SOL    HW127992   1.360   0.285   4.489 -0.9913 -2.7788 -0.4876
 5510SOL    HW227993   1.497   0.296   4.534 -0.4087 -0.3601 -0.1466
 5511SOL     OW27994   0.532   4.076   0.119  0.2983  0.0145  0.4091
 5511SOL    HW127995   0.595   4.005   0.108  0.7443  0.7348 -1.7092
 5511SOL    HW227996   0.483   4.082   0.037  0.9895  0.1272  0.0014
 5512SOL     OW27997   0.955   3.216   2.034 -0.1930  0.7785  0.0307
 5512SOL    HW127998   0.978   3.235   1.943  0.5043 -2.0312 -0.3965
 5512SOL    HW227999   0.862   3.237   2.032 -0.8931 -2.3223 -1.2829
 5513SOL     OW28000   4.337   1.429   3.766  0.3612 -0.8192 -0.2293
 5513SOL    HW128001   4.407   1.448   3.704 -0.4490  0.4481 -0.7658
 5513SOL    HW228002   4.273   1.390   3.706  1.8239 -1.9685 -1.0512
 5514SOL     OW28003   0.564   2.649   9.910 -0.4414 -0.0783 -0.9424
 5514SOL    HW128004   0.619   2.582   9.869  3.2629  2.5056 -0.1524
 5514SOL    HW228005   0.481   2.602   9.897 -0.0384 -1.4194  1.2645
 5515SOL     OW28006   4.277   3.062  16.428  0.0155 -0.3115  0.1168
 5515SOL    HW128007   4.288   3.084  16.335  1.2856 -0.6636  0.1871
 5515SOL    HW228008   4.348   3.116  16.464  1.3745 -1.6087 -0.6375
 5516SOL     OW28009   4.479   0.331  10.020  0.6032  0.7158  0.2581
 5516SOL    HW128010   4.522   0.258   9.975  0.2539  0.8359 -0.2834
 5516SOL    HW228011   4.390   0.295  10.030  0.3135  0.6662 -2.2470
 5517SOL     OW28012   3.886   1.083   2.382 -0.0483 -0.2333  0.1625
 5517SOL    HW128013   3.817   1.020   2.406  2.5781 -2.8843  0.7462
 5517SOL    HW228014   3.924   1.042   2.304 -0.4554  0.9236 -0.6446
 5518SOL     OW28015   1.115   3.127  12.916 -0.2773 -0.4166  0.6032
 5518SOL    HW128016   1.083   3.151  12.829 -0.8186 -2.5640  0.2134
 5518SOL    HW228017   1.182   3.194  12.928  0.0752 -0.6035 -0.2923
 5519SOL     OW28018   4.689   4.064   6.300  0.3620 -0.0563 -0.4465
 5519SOL    HW128019   4.636   3.987   6.319  0.8061  0.6065  3.5070
 5519SOL    HW228020   0.049   4.033   6.334  1.0437  1.7534 -0.4777
 5520SOL     OW28021   0.873   4.102   7.133  0.1071  0.7601  0.6351
 5520SOL    HW128022   0.909   4.083   7.219  2.1492 -1.2621 -0.6730
 5520SOL    HW228023   0.836   4.190   7.143  2.5553  2.0022 -1.0836
 5521SOL     OW28024   0.542   1.912   5.168 -0.1071 -0.1160 -0.2351
 5521SOL    HW128025   0.578   1.967   5.098 -0.4015  1.7091  1.0428
 5521SOL    HW228026   0.502   1.975   5.228  0.6944 -0.0081  0.1931
 5522SOL     OW28027   0.889   0.330   6.948  0.0052  0.3395  0.2311
 5522SOL    HW128028   0.814   0.274   6.930  1.1597 -0.9578 -0.5011
 5522SOL    HW228029   0.858   0.419   6.928  0.1580 -0.2129 -2.4313
 5523SOL     OW28030   0.701   4.174   5.481 -0.2790 -0.3432  0.0041
 5523SOL    HW128031   0.796   4.175   5.492 -0.0714  1.6167 -2.0040
 5523SOL    HW228032   0.682   4.211   5.395  0.8226 -0.8841 -0.4732
 5524SOL     OW28033   2.690   0.884   5.626 -0.3952 -0.4295  0.7266
 5524SOL    HW128034   2.687   0.797   5.665  2.0034 -1.4121 -1.2867
 5524SOL    HW228035   2.747   0.932   5.686 -0.2802 -0.8280  0.9353
 5525SOL     OW28036   1.581   1.036   6.424  0.0656 -0.0837  0.0052
 5525SOL    HW128037   1.551   1.112   6.473  0.7080 -0.8489  1.5799
 5525SOL    HW228038   1.550   0.967   6.484 -2.2964  2.1557  1.3579
 5526SOL     OW28039   2.589   3.071   2.889 -0.1122  0.4235 -0.1823
 5526SOL    HW128040   2.514   3.023   2.855  1.3475 -1.0719 -1.3379
 5526SOL    HW228041   2.645   2.994   2.906 -2.8649 -1.0653  2.0615
 5527SOL     OW28042   2.969   4.269   6.562  0.1873 -0.3583 -0.1021
 5527SOL    HW128043   2.988   4.191   6.509  0.2270 -0.2005 -0.3191
 5527SOL    HW228044   2.913   4.239   6.634 -2.1917  3.1557 -0.4963
 5528SOL     OW28045   0.965   3.732   4.977  0.4322 -0.2637 -0.3626
 5528SOL    HW128046   1.022   3.676   4.925 -0.7988 -1.2145 -0.6845
 5528SOL    HW228047   0.953   3.674   5.052 -1.0075 -0.2596 -0.5806
 5529SOL     OW28048   3.338   0.630   4.432 -0.0795  0.1816 -0.5137
 5529SOL    HW128049   3.335   0.605   4.524 -2.3615  3.5805  0.3639
 5529SOL    HW228050   3.432   0.634   4.419  0.0747 -2.3087 -0.1613
 5530SOL     OW28051   0.282   4.572  14.251 -0.0019 -0.2291  0.2433
 5530SOL    HW128052   0.273   4.592  14.158  2.3106 -2.8892 -0.5671
 5530SOL    HW228053   0.269   4.658  14.291  0.0608 -0.0830 -0.0490
 5531SOL     OW28054   2.171   0.709  17.579  0.2488  0.4217  0.1325
 5531SOL    HW128055   2.089   0.660  17.580 -0.6446  1.9426  0.8266
 5531SOL    HW228056   2.145   0.782  17.523 -2.8684 -2.3548 -2.0281
 5532SOL     OW28057   0.775   1.712   2.484 -0.0874  0.3681  0.0301
 5532SOL    HW128058   0.810   1.687   2.570 -0.5907  0.3910  0.2387
 5532SOL    HW228059   0.851   1.697   2.428  0.4401 -1.3253  1.1890
 5533SOL     OW28060   2.293   2.614  11.305 -0.0617  0.4540 -0.4107
 5533SOL    HW128061   2.274   2.680  11.371 -0.9265 -1.2660  1.0421
 5533SOL    HW228062   2.252   2.534  11.338 -0.3647  0.0765 -1.6882
 5534SOL     OW28063   2.218   2.767   3.126 -0.5589  0.3343  0.2330
 5534SOL    HW128064   2.157   2.748   3.055  1.5043 -1.5039 -1.0329
 5534SOL    HW228065   2.249   2.677   3.138 -0.2182  0.3650 -0.4230
 5535SOL     OW28066   3.646   4.167  15.112 -0.4522 -0.4812  0.2256
 5535SOL    HW128067   3.638   4.086  15.061 -0.8900  0.1826 -0.7786
 5535SOL    HW228068   3.735   4.166  15.146  0.0195 -2.0411 -1.0176
 5536SOL     OW28069   0.976   2.432   2.563  0.1092 -0.7469  0.0992
 5536SOL    HW128070   1.037   2.501   2.588  0.8198 -0.9340 -1.1714
 5536SOL    HW228071   1.024   2.350   2.564  1.3215 -0.0565 -3.9607
 5537SOL     OW28072   4.606   4.330   9.870 -0.0840 -0.2796 -0.1732
 5537SOL    HW128073   4.542   4.285   9.926 -0.7152  1.3907  0.4394
 5537SOL    HW228074   4.664   4.262   9.837 -0.6598 -0.4808 -0.7665
 5538SOL     OW28075   3.839   1.258   3.261  1.0115  0.3043 -0.0905
 5538SOL    HW128076   3.758   1.254   3.312 -0.2574 -0.1976 -2.1885
 5538SOL    HW228077   3.811   1.211   3.183 -1.6433 -2.2819  2.4291
 5539SOL     OW28078   3.042   1.947  13.066 -0.1182 -0.1405  0.3576
 5539SOL    HW128079   3.123   1.983  13.029 -0.1732 -1.6445 -1.2379
 5539SOL    HW228080   3.028   2.009  13.138  1.4284 -0.2236  0.7368
 5540SOL     OW28081   3.519   3.264   4.255 -0.0376  0.1243  0.4053
 5540SOL    HW128082   3.481   3.176   4.250  0.3573  0.0445 -1.2614
 5540SOL    HW228083   3.608   3.241   4.229  0.5035  1.3062  1.2757
 5541SOL     OW28084   2.027   4.476  14.123 -0.4626  0.6105 -0.1257
 5541SOL    HW128085   1.948   4.423  14.131 -1.5593  2.6428  2.4364
 5541SOL    HW228086   2.075   4.415  14.179 -0.1091  0.7371 -0.2896
 5542SOL     OW28087   3.428   0.853  16.905  0.3591  0.1134  0.8564
 5542SOL    HW128088   3.403   0.786  16.842  0.4680  2.1634 -1.3683
 5542SOL    HW228089   3.357   0.917  16.913  0.5030  0.5565 -1.2709
 5543SOL     OW28090   3.365   0.015   3.175 -0.7155  0.7085  0.0753
 5543SOL    HW128091   3.282   4.707   3.138 -0.7683  0.5181  0.3579
 5543SOL    HW228092   3.428   4.680   3.133  0.6250  1.3664  1.1952
 5544SOL     OW28093   4.074   0.561   5.260  0.0975  0.2909 -0.1765
 5544SOL    HW128094   4.041   0.557   5.350 -1.7710 -1.1490 -0.9193
 5544SOL    HW228095   4.096   0.469   5.267  0.0670  0.3007  0.0504
 5545SOL     OW28096   3.641   0.593   3.734  0.0237  0.0598  0.7173
 5545SOL    HW128097   3.695   0.550   3.669  0.5846  0.3694  0.9819
 5545SOL    HW228098   3.697   0.624   3.806  2.0645  2.7132 -2.0257
 5546SOL     OW28099   2.084   0.799  12.983  0.0012  0.0356 -0.3836
 5546SOL    HW128100   2.035   0.873  13.019  1.6147  0.6992  0.4646
 5546SOL    HW228101   2.134   0.775  13.061 -0.8676 -0.1558  0.1092
 5547SOL     OW28102   2.119   2.250   7.076  0.5477  0.0946  0.3783
 5547SOL    HW128103   2.119   2.171   7.130  1.1984 -0.9041 -1.0656
 5547SOL    HW228104   2.110   2.211   6.989  2.3498 -1.0816  0.7206
 5548SOL     OW28105   1.336   3.721   2.539 -0.5140  0.1800 -0.1380
 5548SOL    HW128106   1.323   3.634   2.501  0.2911  0.6561 -1.5157
 5548SOL    HW228107   1.380   3.695   2.620 -0.3836 -0.3444 -0.3771
 5549SOL     OW28108   0.461   0.565   7.465 -0.2301 -0.6137  0.2219
 5549SOL    HW128109   0.528   0.496   7.463 -0.8248 -0.9944 -4.7510
 5549SOL    HW228110   0.379   0.519   7.445  0.5507 -2.6930  1.7008
 5550SOL     OW28111   2.132   3.271   4.952  0.1852 -0.6315 -0.0587
 5550SOL    HW128112   2.055   3.302   4.904  0.9693  0.7619 -0.4253
 5550SOL    HW228113   2.099   3.195   4.999  2.0125 -0.7095  1.1100
 5551SOL     OW28114   0.508   3.367   1.872  0.6446  0.0033 -0.6773
 5551SOL    HW128115   0.416   3.385   1.853  0.7637 -2.0409 -3.1071
 5551SOL    HW228116   0.561   3.424   1.817 -0.4797  0.8229 -0.9258
 5552SOL     OW28117   4.393   1.519   1.159  0.0867  0.4489  0.1140
 5552SOL    HW128118   4.479   1.518   1.116  0.1992 -0.7535  0.3661
 5552SOL    HW228119   4.353   1.437   1.130  0.8909 -1.0662  3.2074
 5553SOL     OW28120   1.036   2.680   6.560  0.2358 -0.2093  0.4805
 5553SOL    HW128121   0.986   2.735   6.621 -3.0615 -0.6441 -1.8548
 5553SOL    HW228122   1.127   2.710   6.558 -0.0989  0.7125 -1.4610
 5554SOL     OW28123   0.604   0.132   4.781 -0.0811 -0.0419 -0.1934
 5554SOL    HW128124   0.584   0.223   4.805 -1.2799 -0.0181 -1.2656
 5554SOL    HW228125   0.522   0.115   4.734 -0.2405 -0.1066  0.1035
 5555SOL     OW28126   3.242   2.432  16.420  0.3764 -0.1700  0.7317
 5555SOL    HW128127   3.178   2.361  16.417  0.0637  0.2234 -1.4946
 5555SOL    HW228128   3.235   2.449  16.514  0.2785 -2.3853  1.1292
 5556SOL     OW28129   4.198   2.491  16.716  0.0393  0.5315  0.0431
 5556SOL    HW128130   4.237   2.567  16.673 -1.6945  0.6207 -1.3824
 5556SOL    HW228131   4.104   2.510  16.717  0.0179  0.7700 -4.9786
 5557SOL     OW28132   1.835   0.712   9.766 -0.0178 -0.4453  0.2984
 5557SOL    HW128133   1.831   0.749   9.677 -0.1025  0.2740  0.5975
 5557SOL    HW228134   1.833   0.621   9.738  0.4857 -0.8495  1.6103
 5558SOL     OW28135   2.357   4.093   2.396 -0.2031  1.0629 -0.0574
 5558SOL    HW128136   2.327   4.075   2.307 -0.8846 -0.4109  0.4518
 5558SOL    HW228137   2.332   4.185   2.397  1.4390  1.5059  0.1783
 5559SOL     OW28138   3.805   4.395   4.872  0.0971  0.8420 -0.0306
 5559SOL    HW128139   3.824   4.346   4.792  1.4074 -0.9579  1.3892
 5559SOL    HW228140   3.854   4.346   4.937  2.1171  1.9061 -0.7369
 5560SOL     OW28141   2.335   0.241   3.600 -0.1805  0.1912  0.4408
 5560SOL    HW128142   2.377   0.282   3.524  0.2652 -0.4025  0.3676
 5560SOL    HW228143   2.415   0.199   3.633  0.0822  0.9080  0.7218
 5561SOL     OW28144   4.607   3.270   7.284  0.7132  0.1811 -0.4850
 5561SOL    HW128145   4.619   3.200   7.349  2.4841  0.0870 -0.9166
 5561SOL    HW228146   4.627   3.345   7.341  0.1380  0.5428 -0.7549
 5562SOL     OW28147   2.871   3.711   6.052  0.0183 -0.1822 -0.3638
 5562SOL    HW128148   2.950   3.670   6.018 -0.5163 -0.2154 -1.5651
 5562SOL    HW228149   2.843   3.759   5.974 -1.9921 -1.3160 -0.3243
 5563SOL     OW28150   0.141   2.360   4.306  0.1057  0.0365 -0.1037
 5563SOL    HW128151   0.077   2.363   4.377  1.1318 -0.9790  0.8611
 5563SOL    HW228152   0.123   2.270   4.279 -0.5915  0.1943 -0.1722
 5564SOL     OW28153   0.648   1.707  15.311  0.8022 -0.5963  0.6161
 5564SOL    HW128154   0.638   1.789  15.262  2.8487 -0.1408  0.9613
 5564SOL    HW228155   0.559   1.692  15.341  0.5842 -1.2553 -0.3355
 5565SOL     OW28156   0.156   2.580  17.175 -0.4406  0.3491 -0.5918
 5565SOL    HW128157   0.114   2.632  17.243 -0.0516  0.0872 -0.1498
 5565SOL    HW228158   0.081   2.534  17.138  0.9560 -1.3429 -1.3330
 5566SOL     OW28159   2.509   0.857  11.913  0.1487  0.3389  0.0040
 5566SOL    HW128160   2.541   0.947  11.919 -3.0287  1.4670  0.1432
 5566SOL    HW228161   2.484   0.859  11.820  0.8705 -0.4869 -0.2153
 5567SOL     OW28162   4.243   4.305   2.431  0.1957  0.1233  0.8507
 5567SOL    HW128163   4.162   4.350   2.406  1.0349 -0.0731 -2.3088
 5567SOL    HW228164   4.275   4.364   2.499 -1.2407  0.5890  1.1181
 5568SOL     OW28165   1.076   1.662   4.016  0.2584  0.2442 -0.7253
 5568SOL    HW128166   1.141   1.662   4.087  0.9086  3.8514 -1.3405
 5568SOL    HW228167   1.011   1.596   4.038 -0.1516  1.0973  0.6628
 5569SOL     OW28168   1.317   2.846   5.194 -0.3775  0.0428 -0.3769
 5569SOL    HW128169   1.370   2.878   5.121  1.0741  1.9972  1.5515
 5569SOL    HW228170   1.237   2.817   5.149 -0.0347  1.4782 -1.9411
 5570SOL     OW28171   3.593   0.984  13.320  0.6104 -0.0043  0.3097
 5570SOL    HW128172   3.639   0.915  13.367  1.8952  0.4525 -0.2511
 5570SOL    HW228173   3.674   1.016  13.278  0.2198 -0.8688 -1.0854
 5571SOL     OW28174   3.560   3.239   3.497 -0.6876 -0.2219 -0.9257
 5571SOL    HW128175   3.545   3.332   3.482  0.3628 -0.0876 -1.1301
 5571SOL    HW228176   3.538   3.230   3.590 -0.7034  1.5891 -0.7561
 5572SOL     OW28177   0.922   1.162   1.935 -0.5544  0.4003 -0.1517
 5572SOL    HW128178   0.915   1.159   2.030 -0.4784  0.1032 -0.1571
 5572SOL    HW228179   0.924   1.069   1.913  2.4552  1.0677 -2.6628
 5573SOL     OW28180   3.085   1.516   7.914  0.2836  0.3196 -0.3151
 5573SOL    HW128181   3.176   1.487   7.917  0.8776  2.2778  0.9018
 5573SOL    HW228182   3.081   1.575   7.989  0.8943  1.3045 -1.0556
 5574SOL     OW28183   3.326   2.824   8.969  0.2063 -0.1032  0.2624
 5574SOL    HW128184   3.364   2.872   9.043  1.9473  0.0713 -0.7479
 5574SOL    HW228185   3.398   2.774   8.932 -0.7776 -1.3500  0.0325
 5575SOL     OW28186   3.082   3.548   2.257 -0.5336 -0.3420  0.7518
 5575SOL    HW128187   2.990   3.527   2.239 -0.0530  0.1067 -2.2967
 5575SOL    HW228188   3.109   3.456   2.253  0.0352 -0.1429 -0.0820
 5576SOL     OW28189   0.049   4.082   7.817 -0.2509  0.0041  0.3372
 5576SOL    HW128190   0.037   4.144   7.889  0.8586  0.7537 -0.1276
 5576SOL    HW228191   4.679   4.080   7.798 -0.1847  0.6478 -0.0763
 5577SOL     OW28192   4.279   1.963   2.607 -0.2939 -0.3203  0.3813
 5577SOL    HW128193   4.218   1.971   2.534  0.6403  0.0779 -0.3661
 5577SOL    HW228194   4.226   1.953   2.686 -1.7110 -1.2454 -0.6987
 5578SOL     OW28195   4.203   4.152   8.027 -0.3473 -0.2421 -0.2507
 5578SOL    HW128196   4.136   4.143   7.959 -1.4064  0.2067  0.7334
 5578SOL    HW228197   4.202   4.248   8.035 -0.2275 -0.3436  0.9554
 5579SOL     OW28198   3.549   1.853   0.243 -0.0582 -0.0612  0.5092
 5579SOL    HW128199   3.542   1.795   0.167 -1.2855  1.3578 -0.4479
 5579SOL    HW228200   3.501   1.926   0.204 -0.8961 -0.3492  1.0055
 5580SOL     OW28201   0.441   0.655  11.382 -0.0216  0.0020  0.1264
 5580SOL    HW128202   0.436   0.747  11.355 -0.9700  0.9540  3.5843
 5580SOL    HW228203   0.468   0.657  11.473  1.1507 -1.9125 -0.1910
 5581SOL     OW28204   1.430   3.552   7.537 -0.7155 -0.0746  0.3418
 5581SOL    HW128205   1.415   3.520   7.449  0.0578 -1.5837  0.7545
 5581SOL    HW228206   1.368   3.500   7.588 -1.6382  1.6944  1.0088
 5582SOL     OW28207   2.142   1.533   5.039 -0.3159 -0.3432 -0.3404
 5582SOL    HW128208   2.147   1.605   5.102 -0.4807 -1.4157  0.9119
 5582SOL    HW228209   2.229   1.496   5.026 -0.3418 -0.6520  0.3769
 5583SOL     OW28210   3.921   3.194  14.992  0.6100  0.3004  0.2546
 5583SOL    HW128211   3.993   3.238  14.945 -1.2901  1.2391 -1.7832
 5583SOL    HW228212   3.944   3.215  15.082 -2.0878  1.3523  0.6920
 5584SOL     OW28213   0.791   2.258  12.923 -0.9141 -0.2253 -0.2044
 5584SOL    HW128214   0.784   2.245  12.828 -3.0063 -1.9291  0.1726
 5584SOL    HW228215   0.866   2.317  12.925  0.1725 -1.5998 -0.3083
 5585SOL     OW28216   2.352   0.726   4.690  0.4869  0.1399 -0.2126
 5585SOL    HW128217   2.350   0.755   4.781  1.8750  1.7562 -0.7014
 5585SOL    HW228218   2.327   0.633   4.696 -1.2158  0.5219 -1.1549
 5586SOL     OW28219   3.576   4.114   1.039  0.2217 -0.1014  0.4995
 5586SOL    HW128220   3.510   4.054   1.005  0.7605  0.2382 -1.1902
 5586SOL    HW228221   3.651   4.066   1.074 -0.0937 -0.2169  1.0084
 5587SOL     OW28222   4.067   1.454   8.484 -0.7065  0.2970  0.1260
 5587SOL    HW128223   4.033   1.538   8.456  0.4844  1.3894  1.9014
 5587SOL    HW228224   4.161   1.469   8.470 -0.5842 -0.5353  0.0229
 5588SOL     OW28225   1.189   1.236   4.082  0.0871  0.1323  0.0247
 5588SOL    HW128226   1.162   1.316   4.127  0.6351  0.0031  0.5854
 5588SOL    HW228227   1.106   1.211   4.042 -0.6157 -2.7861  3.3184
 5589SOL     OW28228   1.503   0.822   6.598  0.3063  0.2557 -0.4042
 5589SOL    HW128229   1.470   0.764   6.529 -1.7159  2.0172 -0.9399
 5589SOL    HW228230   1.441   0.818   6.671  0.7375  0.7095 -0.0192
 5590SOL     OW28231   0.504   1.835   8.956 -0.2440 -0.3442 -0.3156
 5590SOL    HW128232   0.409   1.837   8.943  0.0025  0.9900 -1.9908
 5590SOL    HW228233   0.514   1.788   9.039  0.3895 -0.0482 -0.2238
 5591SOL     OW28234   4.517   2.900  16.530 -0.1660  0.3116  0.4025
 5591SOL    HW128235   4.531   2.974  16.470  0.8166 -1.3529 -1.4182
 5591SOL    HW228236   4.452   2.929  16.593 -1.5820  0.0596 -0.9532
 5592SOL     OW28237   0.400   3.749   5.720  0.0865  0.1705 -0.5523
 5592SOL    HW128238   0.398   3.788   5.808  0.6000  2.2514 -1.4532
 5592SOL    HW228239   0.464   3.809   5.683  1.7194  0.5541  2.8392
 5593SOL     OW28240   2.037   3.933   6.242 -0.0418  0.4343 -0.5804
 5593SOL    HW128241   2.101   3.959   6.177  0.5419 -2.4779 -1.1356
 5593SOL    HW228242   2.086   3.864   6.287  0.1670  1.6607  1.0959
 5594SOL     OW28243   2.758   0.351   0.869  0.0675  0.3659 -0.0264
 5594SOL    HW128244   2.829   0.366   0.806  0.2278 -3.6493 -0.8099
 5594SOL    HW228245   2.765   0.258   0.891 -1.8205  0.1851 -0.1768
 5595SOL     OW28246   3.676   0.915   2.527 -0.1951  0.1396  0.8173
 5595SOL    HW128247   3.687   0.832   2.480 -1.7022  1.1076 -1.2906
 5595SOL    HW228248   3.583   0.933   2.514 -0.2239 -0.7763 -0.1780
 5596SOL     OW28249   1.959   3.918   9.252  0.4416 -0.3035  0.5732
 5596SOL    HW128250   1.980   3.963   9.333 -0.4756  1.6261 -0.2483
 5596SOL    HW228251   1.881   3.966   9.224  1.2531  0.6669 -0.0173
 5597SOL     OW28252   4.195   3.779   0.399 -0.9816 -0.2985 -0.1209
 5597SOL    HW128253   4.112   3.826   0.395  0.1894  1.6271 -2.1033
 5597SOL    HW228254   4.234   3.791   0.313  0.5331 -2.3311  0.2870
 5598SOL     OW28255   1.376   3.255   0.518 -0.7443 -0.0015  0.3614
 5598SOL    HW128256   1.382   3.161   0.506  3.3876  0.2309  0.6155
 5598SOL    HW228257   1.335   3.280   0.436 -1.9472 -2.6974  0.1403
 5599SOL     OW28258   3.168   1.072   3.658 -0.2281 -0.0503  0.4810
 5599SOL    HW128259   3.116   1.152   3.653  1.1288  0.8441  0.8762
 5599SOL    HW228260   3.233   1.099   3.722  2.1608  0.2624 -2.0805
 5600SOL     OW28261   3.302   0.458   3.226 -0.1441  0.4915 -0.3624
 5600SOL    HW128262   3.348   0.541   3.215 -1.0993  1.0609 -0.0204
 5600SOL    HW228263   3.246   0.476   3.301 -0.8807 -0.1067 -0.7718
 5601SOL     OW28264   2.641   3.188   9.137 -0.0044 -0.0846  0.3198
 5601SOL    HW128265   2.567   3.245   9.116  0.2765 -1.1423 -3.4974
 5601SOL    HW228266   2.647   3.187   9.233  0.9032 -3.2173  0.2319
 5602SOL     OW28267   4.496   3.592   8.099 -0.0201 -0.1858 -0.4305
 5602SOL    HW128268   4.520   3.653   8.168 -0.7513  0.2683 -0.5892
 5602SOL    HW228269   4.419   3.629   8.057 -0.7600  1.1910  2.1725
 5603SOL     OW28270   3.103   1.212   5.298  0.3502 -0.0142  0.0268
 5603SOL    HW128271   3.159   1.192   5.374  0.4481 -1.1048 -0.3377
 5603SOL    HW228272   3.150   1.289   5.265 -0.5277  1.7810  2.9174
 5604SOL     OW28273   3.494   1.046  14.745 -0.6849 -0.1872 -0.7045
 5604SOL    HW128274   3.536   1.113  14.691 -0.0423 -2.0870 -2.5205
 5604SOL    HW228275   3.441   0.995  14.684 -1.8112 -1.9886  1.7583
 5605SOL     OW28276   3.660   4.144   2.659 -0.4334  0.2436 -0.4339
 5605SOL    HW128277   3.635   4.208   2.726 -1.4664 -1.0834  0.4626
 5605SOL    HW228278   3.639   4.063   2.706  2.6040 -1.3802 -1.9005
 5606SOL     OW28279   2.214   0.160  16.431  0.0694  0.0436 -0.1444
 5606SOL    HW128280   2.174   0.182  16.347 -1.5714 -0.7779  0.4221
 5606SOL    HW228281   2.178   0.229  16.488 -0.2138 -0.0683 -0.1860
 5607SOL     OW28282   3.989   1.831   3.200  0.2629 -0.2832  0.3222
 5607SOL    HW128283   3.901   1.816   3.165  0.3754  2.3916 -1.0420
 5607SOL    HW228284   3.968   1.870   3.284  2.2970 -1.8079  1.5424
 5608SOL     OW28285   1.066   3.474  15.202  0.1708  0.3711  0.3022
 5608SOL    HW128286   1.047   3.504  15.291 -0.1815 -0.8817  0.6512
 5608SOL    HW228287   1.149   3.521  15.199 -1.1489  2.6581 -0.3922
 5609SOL     OW28288   1.920   1.197   4.950  0.0830 -0.4688 -0.5806
 5609SOL    HW128289   1.953   1.279   4.914 -0.5201  1.3958  3.1653
 5609SOL    HW228290   1.967   1.137   4.892 -0.5411  0.7498 -2.3284
 5610SOL     OW28291   4.608   2.796   6.615  0.6256 -0.0097  0.2466
 5610SOL    HW128292   4.562   2.712   6.623 -0.3566  0.6424  1.5480
 5610SOL    HW228293   4.619   2.809   6.521  1.0314  3.9820  0.8453
 5611SOL     OW28294   0.625   4.046  10.370 -0.5172  0.4362  0.5656
 5611SOL    HW128295   0.603   4.120  10.426  3.3022  3.2726 -1.7422
 5611SOL    HW228296   0.570   3.979  10.410  0.3953 -1.0494 -0.6347
 5612SOL     OW28297   3.312   1.515  13.860 -0.4013  0.4590 -0.6369
 5612SOL    HW128298   3.304   1.604  13.892 -1.2071  1.2788 -3.1043
 5612SOL    HW228299   3.392   1.513  13.807 -0.5781  0.0619 -0.8913
 5613SOL     OW28300   3.636   4.042   6.233 -0.1205 -0.8306  0.8099
 5613SOL    HW128301   3.664   4.102   6.301  0.4743 -0.6172  0.3751
 5613SOL    HW228302   3.712   3.984   6.228  1.3959  1.1245  1.1291
 5614SOL     OW28303   4.108   3.143  11.250  0.2978  0.1570 -0.6176
 5614SOL    HW128304   4.117   3.051  11.225  0.9705 -0.4621  1.9795
 5614SOL    HW228305   4.063   3.178  11.173 -0.0733  0.5147 -0.2294
 5615SOL     OW28306   4.601   3.190   1.629 -1.0894  0.0309 -0.5091
 5615SOL    HW128307   4.682   3.173   1.678 -1.0333  0.0080 -0.6093
 5615SOL    HW228308   4.620   3.153   1.542 -2.5053 -0.2094 -0.7119
 5616SOL     OW28309   3.120   4.159   6.926 -0.2214 -0.4195 -0.5992
 5616SOL    HW128310   3.135   4.219   6.853 -2.3673  1.3387  0.3770
 5616SOL    HW228311   3.138   4.070   6.895 -3.0353 -1.8025  1.7733
 5617SOL     OW28312   0.943   1.106   8.576 -0.1935  0.0656 -0.1947
 5617SOL    HW128313   0.928   1.012   8.584 -0.5573  0.2396  1.1510
 5617SOL    HW228314   1.032   1.107   8.541  0.0942 -3.3921  0.4108
 5618SOL     OW28315   2.636   1.175   3.952  0.3434  0.8970 -0.0524
 5618SOL    HW128316   2.681   1.146   4.031 -0.4302  1.2281  0.5166
 5618SOL    HW228317   2.638   1.270   3.956  1.7627  0.8035  1.3799
 5619SOL     OW28318   1.757   4.090  14.555 -0.0551 -0.6618 -0.5880
 5619SOL    HW128319   1.755   3.996  14.538 -0.2128 -0.9740  1.1261
 5619SOL    HW228320   1.711   4.096  14.639 -1.3758  1.7167 -1.4972
 5620SOL     OW28321   2.020   1.344   4.660 -0.4536 -0.4959 -0.2335
 5620SOL    HW128322   2.009   1.250   4.647  0.9346 -0.7502  0.4507
 5620SOL    HW228323   1.991   1.377   4.575  1.0691 -1.8666 -1.2836
 5621SOL     OW28324   2.961   2.454   5.834 -0.4715 -0.1282  0.2999
 5621SOL    HW128325   2.950   2.359   5.833  1.4195 -0.3193 -1.6719
 5621SOL    HW228326   2.908   2.469   5.912 -2.6524  2.3133 -1.6286
 5622SOL     OW28327   3.282   1.814   1.380  0.7243 -0.6374  0.3559
 5622SOL    HW128328   3.282   1.910   1.377 -0.6368 -0.6078  1.3641
 5622SOL    HW228329   3.244   1.797   1.294  0.1101  1.4965  0.1870
 5623SOL     OW28330   3.455   0.496   9.431  0.2764 -0.0631  0.2755
 5623SOL    HW128331   3.526   0.551   9.397 -0.5478  0.6310 -0.3052
 5623SOL    HW228332   3.465   0.495   9.527 -0.1225  0.2742  0.3228
 5624SOL     OW28333   0.281   2.889   8.473  0.9717 -0.3044  0.1367
 5624SOL    HW128334   0.334   2.809   8.468  1.5645 -0.0637  2.5397
 5624SOL    HW228335   0.334   2.931   8.540  1.3308 -1.2341  0.4440
 5625SOL     OW28336   2.118   4.572  14.386 -0.0170 -0.2586 -0.3010
 5625SOL    HW128337   2.164   4.652  14.362 -0.5768  0.4065  0.8388
 5625SOL    HW228338   2.032   4.577  14.345  0.1856  0.3213 -0.6521
 5626SOL     OW28339   0.096   1.289   5.453 -0.4211  0.2296 -0.2999
 5626SOL    HW128340   0.067   1.371   5.413  1.6953  0.9289 -0.4031
 5626SOL    HW228341   0.032   1.279   5.524  1.2221  1.6915  1.4109
 5627SOL     OW28342   1.294   0.661  15.349 -0.3384 -0.3873  0.2116
 5627SOL    HW128343   1.376   0.709  15.340  0.0405 -0.9476  0.6915
 5627SOL    HW228344   1.266   0.711  15.426  0.6114 -0.1392  0.3910
 5628SOL     OW28345   4.365   0.868   8.309 -0.3939 -0.0437  0.2590
 5628SOL    HW128346   4.283   0.916   8.301 -1.4340 -2.0173 -1.0505
 5628SOL    HW228347   4.332   0.784   8.341  1.4150 -1.4083 -1.4314
 5629SOL     OW28348   0.069   3.980   2.414  0.1323 -0.0509 -0.6369
 5629SOL    HW128349   0.143   3.967   2.473 -1.1740  0.9227  1.1930
 5629SOL    HW228350   0.044   4.071   2.432  2.0160  1.1066 -3.6938
 5630SOL     OW28351   3.962   3.147   2.198  0.3205 -0.8587  0.0122
 5630SOL    HW128352   3.878   3.113   2.229 -0.0679  1.5456  1.5613
 5630SOL    HW228353   3.993   3.208   2.265 -0.8279  0.3143 -0.5232
 5631SOL     OW28354   1.357   4.256  16.992  0.2842 -0.3185  0.3409
 5631SOL    HW128355   1.363   4.193  17.064  2.4015  0.0175  0.4607
 5631SOL    HW228356   1.289   4.212  16.940 -1.1779  1.3774  0.7953
 5632SOL     OW28357   0.146   2.351   8.170 -0.2215 -0.9059 -0.3533
 5632SOL    HW128358   0.107   2.268   8.198  0.2833 -0.6025  1.2857
 5632SOL    HW228359   0.234   2.350   8.207  1.3904  0.1004 -4.2881
 5633SOL     OW28360   4.380   3.578   0.938 -0.2309 -0.1281  0.4420
 5633SOL    HW128361   4.401   3.658   0.987  1.2316 -1.3871  1.8824
 5633SOL    HW228362   4.360   3.526   1.015  0.8461  0.3992  1.0813
 5634SOL     OW28363   1.273   3.635  15.264 -0.0807 -0.3737 -0.3851
 5634SOL    HW128364   1.244   3.718  15.225  0.9509 -0.8128 -2.0443
 5634SOL    HW228365   1.353   3.621  15.214 -0.1623  2.1777 -1.2196
 5635SOL     OW28366   2.646   0.666   7.246  0.1881 -0.1321 -0.8841
 5635SOL    HW128367   2.684   0.746   7.209  1.2121 -0.5135 -0.6449
 5635SOL    HW228368   2.555   0.695   7.234  0.9895  1.8983 -2.0745
 5636SOL     OW28369   1.343   1.609  15.605 -0.5240  0.2415 -0.3860
 5636SOL    HW128370   1.276   1.665  15.646 -1.4903 -1.1108 -0.1169
 5636SOL    HW228371   1.298   1.589  15.523  1.1359 -1.1045 -0.9618
 5637SOL     OW28372   3.730   2.347  16.272 -0.5363 -0.3869 -0.1960
 5637SOL    HW128373   3.708   2.308  16.187 -1.2763 -0.1787 -0.1030
 5637SOL    HW228374   3.644   2.390  16.282  1.4694  3.8488 -0.9994
 5638SOL     OW28375   4.310   0.190   2.409  0.0041 -0.3759  0.1823
 5638SOL    HW128376   4.290   0.106   2.366  0.2129  0.0508 -0.7348
 5638SOL    HW228377   4.282   0.251   2.342 -0.6803  0.2780  1.0567
 5639SOL     OW28378   3.014   0.875  16.648 -0.4772  0.1516  0.1205
 5639SOL    HW128379   2.997   0.866  16.555 -1.4202  1.6908  0.1579
 5639SOL    HW228380   2.986   0.788  16.677  1.8104 -0.1457  1.4495
 5640SOL     OW28381   1.136   4.460   1.292  0.0901  0.4762 -0.0481
 5640SOL    HW128382   1.191   4.394   1.334  1.5047  1.4903 -0.3022
 5640SOL    HW228383   1.097   4.500   1.370  2.2520 -0.1577  1.3456
 5641SOL     OW28384   3.099   3.535   5.943 -0.0730  0.1097 -0.0709
 5641SOL    HW128385   3.137   3.575   5.865  1.1044  2.6491  1.8262
 5641SOL    HW228386   3.171   3.543   6.004  0.3495 -0.0564 -0.5482
 5642SOL     OW28387   1.663   4.249   4.686  0.3050  0.4793 -0.0755
 5642SOL    HW128388   1.620   4.332   4.704  2.4550  1.1321  2.0322
 5642SOL    HW228389   1.591   4.206   4.639  0.2463  1.1648 -0.6092
 5643SOL     OW28390   4.297   2.240   7.818  0.4309  0.7696 -0.2400
 5643SOL    HW128391   4.357   2.248   7.893  1.0238  1.0563 -0.7454
 5643SOL    HW228392   4.231   2.181   7.855  0.5099  2.0593  1.9707
 5644SOL     OW28393   2.498   2.684  17.109  0.1043  0.0933  0.4486
 5644SOL    HW128394   2.542   2.747  17.050  3.6123 -2.5906  0.2194
 5644SOL    HW228395   2.567   2.620  17.123 -0.5856 -0.3243  1.8890
 5645SOL     OW28396   0.587   4.451   7.554 -0.0673 -0.0323 -0.1357
 5645SOL    HW128397   0.550   4.481   7.637  1.1818 -0.8972  0.7319
 5645SOL    HW228398   0.512   4.438   7.496 -1.0550 -1.4768  1.4660
 5646SOL     OW28399   3.749   3.222  13.144  0.0259  0.0754  0.3889
 5646SOL    HW128400   3.773   3.289  13.079  0.1660 -2.0797 -1.7803
 5646SOL    HW228401   3.752   3.270  13.226  1.2753 -0.6133  0.7452
 5647SOL     OW28402   4.337   3.469   5.152 -0.0124 -0.3913  0.3852
 5647SOL    HW128403   4.335   3.401   5.219 -1.3108  0.8309  1.5889
 5647SOL    HW228404   4.268   3.529   5.180  0.0917  0.3007 -0.8784
 5648SOL     OW28405   3.852   0.616   0.424  0.6400 -0.3136 -0.3360
 5648SOL    HW128406   3.940   0.637   0.453  0.5410  0.0698 -0.3145
 5648SOL    HW228407   3.819   0.533   0.458  0.8760 -0.2976 -0.0724
 5649SOL     OW28408   4.596   3.192   5.096  0.0216  0.0065 -0.0388
 5649SOL    HW128409   4.506   3.194   5.130  0.1365 -2.0353  0.3913
 5649SOL    HW228410   4.596   3.282   5.065  0.4155  0.0052 -0.0414
 5650SOL     OW28411   0.840   0.393   2.354  0.2750  0.8269  0.4403
 5650SOL    HW128412   0.803   0.454   2.417 -0.4246 -1.7877  2.5733
 5650SOL    HW228413   0.925   0.368   2.391  0.6576  2.6712  0.7692
 5651SOL     OW28414   0.382   4.633  10.422  0.1024  0.4234 -0.4050
 5651SOL    HW128415   0.443   4.705  10.440 -1.2285  1.3085  0.5523
 5651SOL    HW228416   0.392   4.622  10.327 -1.5196 -1.1860 -0.3953
 5652SOL     OW28417   0.599   1.579  16.239  0.1472  0.4321 -0.5511
 5652SOL    HW128418   0.666   1.611  16.179 -0.6421  2.7470 -0.2012
 5652SOL    HW228419   0.661   1.532  16.294 -1.0756 -0.1498  0.3410
 5653SOL     OW28420   1.281   0.591  16.388 -0.1637  0.1095  0.4726
 5653SOL    HW128421   1.342   0.527  16.425 -1.7070 -0.4034  2.1652
 5653SOL    HW228422   1.341   0.643  16.335 -0.3442 -0.6675 -0.4736
 5654SOL     OW28423   2.983   1.047   1.193 -0.7598  0.1582 -0.1701
 5654SOL    HW128424   3.037   1.082   1.122  1.1079 -1.5198  0.4075
 5654SOL    HW228425   2.964   1.131   1.234  0.1416 -0.4252  1.4423
 5655SOL     OW28426   2.707   0.035   5.316  0.7710  0.1506 -0.0152
 5655SOL    HW128427   2.655   4.697   5.367 -0.6849  0.7329 -0.8047
 5655SOL    HW228428   2.793   0.005   5.346  1.4865  2.0108 -0.2106
 5656SOL     OW28429   3.283   0.528  16.213  0.1243  0.0801  0.0389
 5656SOL    HW128430   3.287   0.609  16.163 -0.2147 -0.5139 -0.9439
 5656SOL    HW228431   3.223   0.474  16.162  1.5501 -0.4323 -1.0887
 5657SOL     OW28432   3.376   1.516   7.874 -0.4604  0.3640  0.1714
 5657SOL    HW128433   3.363   1.601   7.833  2.3984  0.4797 -0.4444
 5657SOL    HW228434   3.446   1.538   7.935  1.3112  0.6029 -1.9745
 5658SOL     OW28435   0.356   2.335   5.812 -0.6228 -0.3677 -0.6372
 5658SOL    HW128436   0.373   2.370   5.725  2.4025 -0.0259  0.1111
 5658SOL    HW228437   0.261   2.327   5.805 -0.6508 -0.0507 -0.6264
 5659SOL     OW28438   4.025   1.116  13.359  0.4841 -0.0649 -0.0450
 5659SOL    HW128439   4.048   1.024  13.350  0.3282 -0.1810  0.7314
 5659SOL    HW228440   3.939   1.103  13.319  1.6504 -2.5703 -1.7149
 5660SOL     OW28441   3.069   3.360   0.065  0.2391 -0.7115 -0.7705
 5660SOL    HW128442   3.033   3.382   0.151  0.2284 -0.8782 -0.7319
 5660SOL    HW228443   3.156   3.321   0.069 -0.0107 -0.9403  2.2576
 5661SOL     OW28444   4.387   1.027   5.773 -0.3378 -0.1618 -0.0622
 5661SOL    HW128445   4.363   1.117   5.795 -3.7078 -1.0901 -0.0625
 5661SOL    HW228446   4.482   1.033   5.760 -0.1443 -2.7348  0.2861
 5662SOL     OW28447   3.748   3.495   7.751 -0.6879  0.5065 -0.2942
 5662SOL    HW128448   3.736   3.457   7.838 -2.1030  1.4592 -0.0615
 5662SOL    HW228449   3.670   3.550   7.760 -1.5186 -0.7178  0.0425
 5663SOL     OW28450   3.351   2.453   0.859 -0.4304 -0.4807  0.3783
 5663SOL    HW128451   3.381   2.539   0.887  0.7586 -0.6519 -0.3619
 5663SOL    HW228452   3.428   2.409   0.822  0.2203  2.3271 -1.5201
 5664SOL     OW28453   3.223   3.859   7.270  0.4084 -0.0899 -0.1196
 5664SOL    HW128454   3.254   3.949   7.264  0.2200  0.0512  1.0628
 5664SOL    HW228455   3.157   3.880   7.336 -0.0810  0.8655 -0.9240
 5665SOL     OW28456   1.977   3.857   7.070  0.2351 -0.0521  0.3895
 5665SOL    HW128457   2.040   3.901   7.013 -0.4479  1.4763  0.8184
 5665SOL    HW228458   2.032   3.816   7.136  1.1940 -1.1779 -1.1220
 5666SOL     OW28459   2.732   3.113   1.006 -0.3226 -0.4920  0.0181
 5666SOL    HW128460   2.781   3.075   1.079 -1.7476  1.1744  1.8897
 5666SOL    HW228461   2.642   3.103   1.038 -0.0125  1.2520  1.4814
 5667SOL     OW28462   1.079   3.613   4.102  0.1160 -0.2527 -0.2783
 5667SOL    HW128463   1.046   3.690   4.148  0.1054 -0.3809 -0.0715
 5667SOL    HW228464   1.121   3.663   4.033  0.1973  1.6796  1.1532
 5668SOL     OW28465   3.797   3.069   0.522 -0.1648  0.3169 -0.1750
 5668SOL    HW128466   3.827   3.002   0.582 -0.0828 -1.6972 -2.4816
 5668SOL    HW228467   3.877   3.115   0.496 -0.1099 -0.2653 -1.0055
 5669SOL     OW28468   1.096   3.429  16.213 -0.5385  0.3504 -0.0371
 5669SOL    HW128469   1.161   3.495  16.238  1.4941 -2.0382  0.8722
 5669SOL    HW228470   1.155   3.361  16.183 -1.9164 -1.1781  0.7372
 5670SOL     OW28471   2.537   1.619   3.338 -0.1805  0.2740  0.2558
 5670SOL    HW128472   2.545   1.638   3.244 -0.4241  2.3037  0.6639
 5670SOL    HW228473   2.504   1.699   3.378  0.7942  0.9826 -0.3723
 5671SOL     OW28474   2.197   3.433  13.732  0.2117 -0.0528 -0.3490
 5671SOL    HW128475   2.246   3.500  13.780 -0.4172  0.1410  0.0192
 5671SOL    HW228476   2.126   3.421  13.795  0.4542  0.8552  0.0964
 5672SOL     OW28477   1.544   4.653  14.973  0.1577 -0.5638 -0.2070
 5672SOL    HW128478   1.630   4.686  14.945  0.3132  0.7664  1.8393
 5672SOL    HW228479   1.549   4.676  15.065  1.0761  0.8295 -0.6037
 5673SOL     OW28480   2.638   4.297  13.430 -0.1825  0.5710  0.2959
 5673SOL    HW128481   2.560   4.301  13.374  0.6281  1.1363 -0.8161
 5673SOL    HW228482   2.606   4.303  13.520  2.1049  1.8397  1.0302
 5674SOL     OW28483   3.564   2.691   1.895  0.2976  0.0389 -0.0976
 5674SOL    HW128484   3.612   2.768   1.864 -0.4309  0.3740 -0.4048
 5674SOL    HW228485   3.554   2.718   1.986  0.0436 -2.4111  0.5919
 5675SOL     OW28486   3.170   2.428   2.269  0.1349  0.2972 -0.1499
 5675SOL    HW128487   3.200   2.437   2.179 -0.8694  1.4106 -0.3850
 5675SOL    HW228488   3.167   2.333   2.279 -2.7897  0.2128 -1.6067
 5676SOL     OW28489   1.486   1.601   0.648  0.3813  0.1766  0.3698
 5676SOL    HW128490   1.572   1.579   0.683  0.1158  0.4791  1.2226
 5676SOL    HW228491   1.436   1.613   0.730  0.5462  0.4148  0.4378
 5677SOL     OW28492   0.438   1.803   2.191  0.3440 -0.1236  0.0043
 5677SOL    HW128493   0.471   1.813   2.280  0.1961  0.5463 -0.0131
 5677SOL    HW228494   0.490   1.875   2.157  0.0857 -0.4397 -1.0562
 5678SOL     OW28495   2.304   4.084   8.726 -0.0651  0.1278 -0.4373
 5678SOL    HW128496   2.333   4.160   8.776 -1.5074 -2.0304  3.7513
 5678SOL    HW228497   2.255   4.135   8.662  1.7291 -0.2863 -2.1194
 5679SOL     OW28498   4.254   3.192   0.651  0.2236 -0.5060 -0.0777
 5679SOL    HW128499   4.274   3.285   0.667  0.9407 -0.3303 -2.0065
 5679SOL    HW228500   4.289   3.150   0.730 -0.6412 -2.5300 -0.7721
 5680SOL     OW28501   0.592   1.673   4.936 -0.1512 -0.1331 -0.1024
 5680SOL    HW128502   0.676   1.719   4.931  0.2942 -0.7351  1.7227
 5680SOL    HW228503   0.536   1.721   4.875  0.0636  1.0253  0.5973
 5681SOL     OW28504   1.375   0.976   7.335  0.2036  0.4641 -0.2055
 5681SOL    HW128505   1.426   0.897   7.316 -1.0909 -0.4181  0.0124
 5681SOL    HW228506   1.443   1.042   7.320 -0.4158  1.0353 -0.5027
 5682SOL     OW28507   1.148   2.986   4.432  0.3169  0.1796 -0.1963
 5682SOL    HW128508   1.166   2.923   4.502  0.1965  2.3402  1.7996
 5682SOL    HW228509   1.071   3.031   4.468  0.8873  1.4435 -0.5514
 5683SOL     OW28510   2.542   2.283  11.905  0.0401 -0.1491  0.2477
 5683SOL    HW128511   2.533   2.374  11.933  1.0311 -0.2832  0.9842
 5683SOL    HW228512   2.518   2.231  11.981 -3.0390 -0.4512 -0.9174
 5684SOL     OW28513   4.578   4.130   4.383  0.8141 -0.6448 -0.7631
 5684SOL    HW128514   4.499   4.102   4.336 -0.1904 -3.0506  2.3889
 5684SOL    HW228515   4.639   4.096   4.317  1.9221  0.5037 -0.3214
 5685SOL     OW28516   3.854   0.699   8.533  0.1978 -0.1857  0.2780
 5685SOL    HW128517   3.806   0.637   8.588  0.0804  0.4384  0.8792
 5685SOL    HW228518   3.786   0.765   8.528 -0.3832 -0.7099  1.3395
 5686SOL     OW28519   2.793   0.869   6.954  0.2097 -0.0350 -0.1908
 5686SOL    HW128520   2.869   0.887   6.898  0.5941  0.3503  0.4557
 5686SOL    HW228521   2.820   0.870   7.046  0.1761 -1.0979 -0.1799
 5687SOL     OW28522   2.980   1.295   2.076  0.9875  0.1597 -0.2207
 5687SOL    HW128523   2.890   1.264   2.088  1.1809 -0.2288  0.2317
 5687SOL    HW228524   3.022   1.237   2.140 -0.5366  0.6269  1.1951
 5688SOL     OW28525   3.087   0.346  11.884 -0.1728 -0.1263 -0.1295
 5688SOL    HW128526   3.178   0.331  11.858  0.0301 -1.6592  1.4579
 5688SOL    HW228527   3.065   0.423  11.832 -0.2514  1.1025  1.6957
 5689SOL     OW28528   0.168   4.107   5.670 -0.1158 -0.0087  0.3537
 5689SOL    HW128529   0.172   4.163   5.592 -2.4765 -0.1720  0.1204
 5689SOL    HW228530   0.231   4.144   5.731  0.4532  1.5135 -1.1279
 5690SOL     OW28531   4.393   0.715   2.627  0.5813  0.1743 -0.0476
 5690SOL    HW128532   4.403   0.786   2.564  2.2859  0.2067  0.2586
 5690SOL    HW228533   4.474   0.720   2.678  0.0852  0.3266  0.7231
 5691SOL     OW28534   2.602   0.217   5.789 -0.2987 -0.0301  0.4116
 5691SOL    HW128535   2.541   0.277   5.747  0.3622  1.3287  1.3888
 5691SOL    HW228536   2.625   0.272   5.864 -1.0921 -2.7660  2.6836
 5692SOL     OW28537   3.063   2.159   2.606  0.5259 -0.0677  0.6940
 5692SOL    HW128538   2.978   2.196   2.582  0.6911  0.3255  0.7129
 5692SOL    HW228539   3.038   2.071   2.579 -2.4664  1.3389 -1.1311
 5693SOL     OW28540   0.255   3.607   6.777  0.2570 -0.5055 -0.4895
 5693SOL    HW128541   0.250   3.678   6.714 -2.6747  0.8198  1.2544
 5693SOL    HW228542   0.247   3.533   6.717  0.1479 -0.8314 -0.0800
 5694SOL     OW28543   2.185   1.072  15.403 -0.2887  0.0996  0.7293
 5694SOL    HW128544   2.203   1.154  15.357 -0.5834 -0.3126 -0.1204
 5694SOL    HW228545   2.131   1.093  15.479 -2.3576 -0.7462 -0.4981
 5695SOL     OW28546   1.941   3.312   3.279  0.2988  0.4067  0.0740
 5695SOL    HW128547   1.879   3.271   3.219  0.8148  0.7546 -0.7121
 5695SOL    HW228548   1.947   3.404   3.253  0.7464  0.2781 -0.2927
 5696SOL     OW28549   1.434   4.616   2.121  0.2503  0.3807  0.2765
 5696SOL    HW128550   1.501   4.553   2.147 -0.6315 -1.0412 -0.8522
 5696SOL    HW228551   1.428   4.667   2.201 -1.6722 -1.2662  1.1842
 5697SOL     OW28552   3.896   2.935  12.359 -0.2206 -0.1400  0.3156
 5697SOL    HW128553   3.926   2.938  12.269 -0.2273 -0.9542  0.2831
 5697SOL    HW228554   3.948   3.006  12.396  1.4796 -0.7148 -0.9844
 5698SOL     OW28555   1.585   1.366   4.332 -0.1365  0.3164 -0.4361
 5698SOL    HW128556   1.620   1.287   4.289 -1.3318 -2.1569  3.1795
 5698SOL    HW228557   1.666   1.398   4.372 -0.7936  0.0537  1.0966
 5699SOL     OW28558   2.134   3.024  16.254  0.6576 -0.2447  0.3757
 5699SOL    HW128559   2.085   3.073  16.189  1.9822 -0.7326 -0.9779
 5699SOL    HW228560   2.156   3.092  16.319  1.6864  2.5713 -2.9437
 5700SOL     OW28561   4.089   0.138   4.685 -0.3787  0.1483 -0.0417
 5700SOL    HW128562   4.017   0.123   4.747 -0.4018  1.1197  0.1707
 5700SOL    HW228563   4.092   0.232   4.703 -1.1234  0.5123 -1.8109
 5701SOL     OW28564   3.034   0.915   6.846 -0.3673  0.2432 -0.0803
 5701SOL    HW128565   3.041   0.998   6.893 -1.5256  0.2613  0.0590
 5701SOL    HW228566   3.058   0.939   6.757 -1.7120 -2.1391 -1.0723
 5702SOL     OW28567   3.199   1.272   1.775  0.0623  0.3397 -0.2492
 5702SOL    HW128568   3.133   1.204   1.785 -1.9567  2.3978  0.6634
 5702SOL    HW228569   3.182   1.317   1.858 -1.8604 -1.3169  0.2464
 5703SOL     OW28570   0.650   1.926  12.515 -0.0276 -0.1296  0.6347
 5703SOL    HW128571   0.565   1.956  12.545 -0.4436 -0.2888 -0.3724
 5703SOL    HW228572   0.709   1.952  12.586 -0.5418  0.6786  0.7689
 5704SOL     OW28573   3.098   1.258   2.337 -0.8466  0.3126 -0.0930
 5704SOL    HW128574   3.078   1.178   2.386 -2.0238  1.2185  0.9164
 5704SOL    HW228575   3.037   1.316   2.382 -0.0406 -0.4560  2.0210
 5705SOL     OW28576   0.198   1.386  12.403 -0.5330 -0.5488  0.4152
 5705SOL    HW128577   0.253   1.367  12.327 -0.4604  1.1157  0.0477
 5705SOL    HW228578   0.113   1.344  12.392 -0.8687  0.2278 -0.0041
 5706SOL     OW28579   4.321   2.138   4.340 -0.1567 -0.0475 -0.1857
 5706SOL    HW128580   4.375   2.096   4.272  0.4940 -0.4148  0.5519
 5706SOL    HW228581   4.288   2.203   4.278 -1.6782  0.5526  1.2843
 5707SOL     OW28582   2.252   2.985   7.247  0.5342  0.4721 -0.4683
 5707SOL    HW128583   2.235   3.074   7.277 -0.1233  0.1533  0.1114
 5707SOL    HW228584   2.235   2.925   7.320 -0.0780 -1.3264 -2.0898
 5708SOL     OW28585   1.332   1.828  10.464  0.2419 -0.1547 -0.2798
 5708SOL    HW128586   1.264   1.764  10.486 -0.9881  1.7808  1.5883
 5708SOL    HW228587   1.286   1.909  10.489  0.9338  0.3303 -0.5796
 5709SOL     OW28588   0.859   2.814   9.874 -0.2462  0.2725  0.0479
 5709SOL    HW128589   0.896   2.729   9.898 -0.4298  0.3316  0.5475
 5709SOL    HW228590   0.919   2.886   9.894 -1.0845  0.8296  0.5477
 5710SOL     OW28591   1.686   3.918   3.987 -0.3917  0.1809 -0.3433
 5710SOL    HW128592   1.719   3.829   4.000  1.2741  0.8193 -0.2368
 5710SOL    HW228593   1.756   3.960   4.038 -0.4727  0.1919 -0.2414
 5711SOL     OW28594   3.819   2.051   6.404  0.4501 -0.6051 -0.2285
 5711SOL    HW128595   3.791   1.975   6.456  1.3037 -1.0839 -0.4613
 5711SOL    HW228596   3.873   2.100   6.466  2.5857  0.2551 -2.7565
 5712SOL     OW28597   1.928   3.981   1.417 -0.8521 -0.7631 -0.0605
 5712SOL    HW128598   1.953   4.043   1.347  3.9966 -0.9031  1.5229
 5712SOL    HW228599   1.970   4.020   1.494 -0.6892  2.4451 -1.7575
 5713SOL     OW28600   4.045   4.037   4.430  0.7528 -0.4616  0.0390
 5713SOL    HW128601   3.991   3.967   4.467  1.5252 -1.3627 -0.5626
 5713SOL    HW228602   3.972   4.075   4.381  1.0090  1.1839  0.9002
 5714SOL     OW28603   4.572   0.638   2.399  0.0053 -0.4011 -0.1191
 5714SOL    HW128604   4.664   0.662   2.408 -0.2959  0.8505 -0.4068
 5714SOL    HW228605   4.544   0.694   2.327  0.3709  0.6408  0.5546
 5715SOL     OW28606   2.058   4.078  15.083  0.0577 -0.3775 -0.1534
 5715SOL    HW128607   2.141   4.065  15.129  0.0913 -1.2697 -0.4628
 5715SOL    HW228608   2.078   4.060  14.991  1.2090  1.2396 -0.2229
 5716SOL     OW28609   3.390   3.997  16.031 -0.0473 -0.2671  0.1302
 5716SOL    HW128610   3.437   3.938  16.089 -0.8443  1.4430  2.5306
 5716SOL    HW228611   3.297   3.980  16.044 -0.2753  0.7925 -0.0988
 5717SOL     OW28612   2.095   0.812   0.311  0.0018 -0.1399  0.2002
 5717SOL    HW128613   2.109   0.897   0.352  0.7105 -0.4140  0.5227
 5717SOL    HW228614   2.165   0.760   0.350  0.7879  2.2991  2.0010
 5718SOL     OW28615   1.694   0.097   5.300 -0.2658 -0.0671  0.1492
 5718SOL    HW128616   1.725   0.178   5.258 -0.0523  0.4963  1.3993
 5718SOL    HW228617   1.640   0.132   5.371 -2.1364  0.5757 -1.5846
 5719SOL     OW28618   3.744   4.467  10.141 -0.0725 -0.1277 -0.0004
 5719SOL    HW128619   3.774   4.381  10.170 -0.1765 -1.0728 -2.6215
 5719SOL    HW228620   3.772   4.524  10.212  1.1005 -1.7626  0.8227
 5720SOL     OW28621   3.623   4.212   2.279  0.0137  0.0482 -0.6435
 5720SOL    HW128622   3.670   4.288   2.246 -1.8573  1.3555 -0.3112
 5720SOL    HW228623   3.580   4.255   2.352  1.1952 -0.6153  0.4348
 5721SOL     OW28624   1.012   3.653   0.119 -0.3117 -0.7540  0.0943
 5721SOL    HW128625   0.979   3.676   0.206 -0.2249  2.0007 -0.6021
 5721SOL    HW228626   1.017   3.739   0.078  0.6135 -1.2931 -0.9313
 5722SOL     OW28627   2.311   0.662   7.423  1.2552 -0.1244 -0.2244
 5722SOL    HW128628   2.246   0.607   7.378 -0.0870 -0.6084  2.2872
 5722SOL    HW228629   2.255   0.726   7.466  0.9859 -0.2898 -0.3274
 5723SOL     OW28630   1.189   4.248   3.990 -0.4578 -0.2007 -0.0310
 5723SOL    HW128631   1.248   4.302   4.043  1.2409  1.6450 -3.8268
 5723SOL    HW228632   1.231   4.162   3.982 -1.8677 -1.1012  2.2066
 5724SOL     OW28633   1.861   2.633   4.898 -0.1976 -0.1035  0.4730
 5724SOL    HW128634   1.888   2.656   4.809 -0.2631  3.4352  1.3874
 5724SOL    HW228635   1.946   2.602   4.929  0.2557  1.6876  1.0294
 5725SOL     OW28636   3.031   0.398   3.845  0.2964  0.0833  0.2362
 5725SOL    HW128637   3.076   0.325   3.888  1.0177 -0.5553 -1.6249
 5725SOL    HW228638   3.098   0.409   3.777 -1.9387 -0.9776 -2.1350
 5726SOL     OW28639   2.305   1.587   8.032  0.4606 -0.4662 -0.6038
 5726SOL    HW128640   2.349   1.512   7.992  0.9713 -1.0768  1.1315
 5726SOL    HW228641   2.252   1.545   8.100 -0.2965  0.6550 -0.4838
 5727SOL     OW28642   1.540   2.792   1.810 -0.0657  0.0850  0.3938
 5727SOL    HW128643   1.617   2.815   1.758  1.6541 -0.2681  2.7631
 5727SOL    HW228644   1.566   2.818   1.899  0.0483 -1.4833  0.8142
 5728SOL     OW28645   2.279   4.618   8.655 -0.1127  0.1081  0.1126
 5728SOL    HW128646   2.314   4.559   8.723  2.0602  1.1348 -0.1109
 5728SOL    HW228647   2.263   4.696   8.707 -1.4244  0.1395 -0.3530
 5729SOL     OW28648   4.429   4.107   6.144 -0.0496  0.1119  1.0978
 5729SOL    HW128649   4.484   4.096   6.066  2.8320  1.7726  2.9034
 5729SOL    HW228650   4.497   4.121   6.210  0.7047 -1.1900  0.5995
 5730SOL     OW28651   4.190   4.147   6.575 -0.7873  0.1488  0.2166
 5730SOL    HW128652   4.276   4.106   6.565 -0.4905  0.6793  0.5367
 5730SOL    HW228653   4.137   4.081   6.619  0.3228 -0.2519  0.9558
 5731SOL     OW28654   1.838   1.016   3.854  0.3333  0.1588 -0.1677
 5731SOL    HW128655   1.795   1.093   3.817  3.5102  2.7684  1.6572
 5731SOL    HW228656   1.767   0.972   3.900 -0.0466  0.1608 -0.7501
 5732SOL     OW28657   2.575   1.333   7.262  0.0689 -0.0800  0.2619
 5732SOL    HW128658   2.575   1.286   7.346 -0.4670  0.7868  0.7469
 5732SOL    HW228659   2.543   1.417   7.297 -0.9654  0.4323 -1.9240
 5733SOL     OW28660   1.246   3.231  10.220 -0.2122 -0.1805  0.4603
 5733SOL    HW128661   1.258   3.212  10.313  4.3273 -1.8034 -0.4550
 5733SOL    HW228662   1.293   3.314  10.208  1.9530 -1.3821  0.6840
 5734SOL     OW28663   1.999   1.578  12.944  0.4694 -0.4364  0.6053
 5734SOL    HW128664   1.999   1.493  12.900 -4.0191  0.4095 -1.0623
 5734SOL    HW228665   1.975   1.556  13.034  1.2065  0.6122  1.0604
 5735SOL     OW28666   2.908   3.962   2.665 -0.0937  0.2712  0.7397
 5735SOL    HW128667   2.819   3.953   2.630 -0.6972 -0.2751  2.4139
 5735SOL    HW228668   2.939   4.022   2.597  0.1807 -0.0742  0.5656
 5736SOL     OW28669   3.413   1.490   0.387  0.2573  0.0684 -0.6837
 5736SOL    HW128670   3.342   1.441   0.427  1.7618  0.2276  2.1544
 5736SOL    HW228671   3.455   1.423   0.333  3.9372  1.2505  0.6965
 5737SOL     OW28672   3.084   4.168   6.237  0.1274  0.2158 -0.1877
 5737SOL    HW128673   3.092   4.118   6.156  3.8317 -0.8092  0.8131
 5737SOL    HW228674   3.013   4.117   6.276 -0.1070  0.8476  0.2056
 5738SOL     OW28675   2.959   1.454   4.528  0.0810  0.0695  0.2071
 5738SOL    HW128676   2.979   1.519   4.460 -0.5832  0.2883  0.2159
 5738SOL    HW228677   3.038   1.401   4.522  2.1257  3.0820  0.9877
 5739SOL     OW28678   1.431   4.651   2.607 -0.0881 -0.2277  0.3252
 5739SOL    HW128679   1.482   4.571   2.592  0.9900  0.7010 -0.9191
 5739SOL    HW228680   1.417   4.685   2.519  1.4688  0.9897  0.5486
 5740SOL     OW28681   4.210   1.282   3.140 -0.0952 -0.0825 -0.2723
 5740SOL    HW128682   4.187   1.229   3.063  0.6683 -0.3135 -0.3404
 5740SOL    HW228683   4.179   1.226   3.211 -0.7050  0.5386 -0.0494
 5741SOL     OW28684   0.065   0.776  11.813  0.1154 -0.0870 -0.3704
 5741SOL    HW128685   0.062   0.825  11.731 -0.6215  1.7026  0.7224
 5741SOL    HW228686   0.118   0.702  11.783 -1.0040 -1.5558  1.2625
 5742SOL     OW28687   3.042   3.451   5.162  0.1291  0.1362 -0.0133
 5742SOL    HW128688   3.056   3.371   5.212 -0.7697 -1.5117 -2.3792
 5742SOL    HW228689   3.065   3.519   5.226 -1.6176 -0.2218  0.9831
 5743SOL     OW28690   4.449   1.650   6.226 -0.5050 -0.6256  0.0791
 5743SOL    HW128691   4.477   1.717   6.165  1.0259 -1.7689 -0.4772
 5743SOL    HW228692   4.364   1.679   6.260 -1.2347 -1.1583 -1.2634
 5744SOL     OW28693   2.853   3.050   6.685  0.2153  0.0393 -0.1926
 5744SOL    HW128694   2.769   3.011   6.708  1.0204  0.6650  3.9240
 5744SOL    HW228695   2.825   3.141   6.677 -0.5091  0.1195  3.0485
 5745SOL     OW28696   0.756   3.754   8.370 -0.2004  0.1004  0.0760
 5745SOL    HW128697   0.780   3.815   8.441 -0.4923  1.5449 -1.0645
 5745SOL    HW228698   0.770   3.669   8.411  0.1892  1.3507  2.5755
 5746SOL     OW28699   2.633   4.597   7.764  0.2432  0.0050  0.4005
 5746SOL    HW128700   2.543   4.567   7.770 -0.0104 -0.3074 -5.2783
 5746SOL    HW228701   2.630   4.671   7.704 -0.9806  1.0812  1.8121
 5747SOL     OW28702   1.085   4.507   3.450 -0.4847  0.4338  0.1515
 5747SOL    HW128703   1.052   4.427   3.409 -0.0414  0.9501 -1.1934
 5747SOL    HW228704   1.163   4.504   3.395 -2.2828  0.2655 -2.3811
 5748SOL     OW28705   0.795   2.287   5.208  0.5279  0.0315 -0.0537
 5748SOL    HW128706   0.712   2.326   5.235  0.3461 -0.7308  0.4830
 5748SOL    HW228707   0.833   2.274   5.295  1.5345 -1.9858 -0.7947
 5749SOL     OW28708   3.358   0.050  15.756 -0.4876  0.1129 -0.4288
 5749SOL    HW128709   3.427   0.100  15.711  2.0194 -2.0549  1.0099
 5749SOL    HW228710   3.371   0.074  15.848 -0.1507 -2.6475  0.2471
 5750SOL     OW28711   0.931   3.203  17.232  0.2941 -0.3035 -0.2167
 5750SOL    HW128712   0.914   3.283  17.282 -1.7038 -2.4750  2.6095
 5750SOL    HW228713   0.919   3.137  17.301  0.1215 -0.6319 -0.5611
 5751SOL     OW28714   3.644   3.333   7.558 -0.4838  0.7111 -0.1476
 5751SOL    HW128715   3.698   3.356   7.634 -0.6463  1.8804 -0.3881
 5751SOL    HW228716   3.676   3.405   7.503  1.1365 -0.4888 -0.7621
 5752SOL     OW28717   4.503   3.571  16.913  0.1847  0.4771 -0.1165
 5752SOL    HW128718   4.559   3.528  16.848  2.6946  1.2815  1.4873
 5752SOL    HW228719   4.423   3.519  16.905  0.2360  0.6592 -1.7547
 5753SOL     OW28720   4.483   2.741   6.873 -0.5063 -0.0378  0.3075
 5753SOL    HW128721   4.544   2.708   6.807 -1.4774 -2.2198  0.5113
 5753SOL    HW228722   4.534   2.786   6.940  0.3124 -0.1748 -0.2274
 5754SOL     OW28723   4.572   1.627  14.726  0.3483  0.0504 -0.0245
 5754SOL    HW128724   4.555   1.576  14.647 -1.0856  2.0026 -0.9673
 5754SOL    HW228725   4.487   1.618  14.769  0.4142  0.4935  0.1976
 5755SOL     OW28726   2.270   0.654   5.774 -0.4305 -0.3405  0.5483
 5755SOL    HW128727   2.300   0.721   5.713 -1.6372  0.5542  0.9398
 5755SOL    HW228728   2.201   0.606   5.729  0.2524  0.5016 -1.3597
 5756SOL     OW28729   2.807   0.914   9.397 -0.0710 -0.0927  0.0054
 5756SOL    HW128730   2.792   0.949   9.485  1.1585  0.9564 -0.2183
 5756SOL    HW228731   2.838   0.991   9.351 -2.4789  0.7397 -0.2517
 5757SOL     OW28732   2.384   1.324  16.709  0.4091 -0.1189 -0.1442
 5757SOL    HW128733   2.462   1.337  16.655 -1.4027 -1.7262 -3.1475
 5757SOL    HW228734   2.385   1.406  16.758 -0.3192 -0.0899 -0.1807
 5758SOL     OW28735   1.082   3.759   3.638  0.2688 -0.3597 -0.8143
 5758SOL    HW128736   1.010   3.802   3.592  1.0771  0.8157 -0.9625
 5758SOL    HW228737   1.157   3.816   3.625 -1.2083  1.5973 -0.6416
 5759SOL     OW28738   2.145   2.318   5.460 -0.3669 -0.0690 -0.0398
 5759SOL    HW128739   2.139   2.299   5.366  0.5503  2.3235 -0.6049
 5759SOL    HW228740   2.229   2.365   5.463  0.5113 -1.7617  1.7652
 5760SOL     OW28741   4.536   3.371  13.394 -0.1634 -0.3610 -0.0941
 5760SOL    HW128742   4.578   3.443  13.441 -0.1319  0.3553 -1.2275
 5760SOL    HW228743   4.564   3.403  13.309 -0.9840  1.2197  0.2374
 5761SOL     OW28744   1.506   1.302   7.531  0.2304 -0.2768  0.3395
 5761SOL    HW128745   1.558   1.263   7.460  0.4935  0.4088  0.1523
 5761SOL    HW228746   1.570   1.365   7.563 -0.2424  0.2768  0.2016
 5762SOL     OW28747   0.286   3.737   4.055  0.0384 -0.3882  0.1283
 5762SOL    HW128748   0.334   3.772   4.130  1.5550 -1.8982 -0.1355
 5762SOL    HW228749   0.323   3.649   4.041  1.5854  0.1341  0.9111
 5763SOL     OW28750   3.064   2.509   0.957  0.2127  0.2704  0.2163
 5763SOL    HW128751   2.974   2.505   0.923  0.6391 -0.1908 -0.8492
 5763SOL    HW228752   3.057   2.581   1.020 -0.1156 -0.3095  0.8364
 5764SOL     OW28753   4.344   0.675   5.712 -0.0537  0.3031  0.2936
 5764SOL    HW128754   4.272   0.614   5.725 -0.7284  1.0954  0.2573
 5764SOL    HW228755   4.408   0.631   5.655 -0.4395 -0.3776  0.3823
 5765SOL     OW28756   3.226   2.995   6.411  0.1630 -0.5124  0.0663
 5765SOL    HW128757   3.287   3.045   6.465 -0.8957  2.2297 -1.2757
 5765SOL    HW228758   3.150   3.051   6.397  0.8091 -0.0752 -1.7103
 5766SOL     OW28759   1.306   3.397   7.068  0.3014 -0.5572 -0.6993
 5766SOL    HW128760   1.321   3.492   7.066 -2.3170 -0.1223  0.2333
 5766SOL    HW228761   1.240   3.394   7.137  0.6848 -1.3908 -0.3748
 5767SOL     OW28762   3.898   2.978   2.607 -0.2003 -0.2982  0.1910
 5767SOL    HW128763   3.805   2.995   2.626 -0.0835 -0.1621  0.6420
 5767SOL    HW228764   3.891   2.899   2.553 -1.9400  0.4255 -0.6271
 5768SOL     OW28765   2.334   4.453  13.127  0.0841  0.4172 -0.3052
 5768SOL    HW128766   2.348   4.374  13.180 -0.2572  0.5254 -0.0549
 5768SOL    HW228767   2.357   4.517  13.194 -0.2923 -0.5742  0.7791
 5769SOL     OW28768   0.597   4.274   5.710 -0.6036 -0.0166 -0.0789
 5769SOL    HW128769   0.688   4.304   5.717 -0.3837 -0.5583 -0.6663
 5769SOL    HW228770   0.607   4.213   5.638 -0.2870 -0.0963  0.0311
 5770SOL     OW28771   1.986   0.560  15.329  0.0745 -0.1364 -0.3120
 5770SOL    HW128772   1.955   0.645  15.361  0.9115 -0.3218  0.9738
 5770SOL    HW228773   1.900   0.521  15.311  0.8920 -1.7390 -0.7469
 5771SOL     OW28774   2.465   3.772   9.313 -0.2607 -0.0213 -0.1247
 5771SOL    HW128775   2.376   3.796   9.338  0.3661  1.2304  0.8898
 5771SOL    HW228776   2.515   3.846   9.348  0.1096  0.6525 -2.0998
 5772SOL     OW28777   2.752   3.221   5.754 -0.1814 -0.0436 -0.2946
 5772SOL    HW128778   2.760   3.315   5.769  0.4536 -0.2953  0.9311
 5772SOL    HW228779   2.842   3.205   5.726  0.7703  0.0773  2.6628
 5773SOL     OW28780   3.923   3.024  10.542  0.0948  0.4276  0.0501
 5773SOL    HW128781   3.958   3.012  10.454  0.0645  1.7355 -0.1453
 5773SOL    HW228782   3.832   2.997  10.529 -1.0322  3.9078  0.6168
 5774SOL     OW28783   0.549   2.139   6.120 -0.8283  0.6002  0.6186
 5774SOL    HW128784   0.472   2.195   6.127 -0.8240  0.7076 -0.1394
 5774SOL    HW228785   0.566   2.147   6.026 -0.6849  1.6576  0.7316
 5775SOL     OW28786   0.222   2.592   7.188  0.1513 -0.5358 -0.2219
 5775SOL    HW128787   0.249   2.528   7.122  2.2251  1.7171 -1.5607
 5775SOL    HW228788   0.285   2.571   7.257  3.1207  1.0631 -2.3747
 5776SOL     OW28789   3.779   2.530  10.220  0.1423 -0.3132  0.4192
 5776SOL    HW128790   3.732   2.584  10.284 -3.2708 -0.8034 -1.6773
 5776SOL    HW228791   3.755   2.447  10.261  0.0973 -0.2351  0.5504
 5777SOL     OW28792   1.647   4.021   9.931 -0.0629  0.3496 -0.2161
 5777SOL    HW128793   1.734   4.014   9.892 -0.1745  0.7908 -0.5342
 5777SOL    HW228794   1.587   4.052   9.863 -0.0483  0.4775 -0.1707
 5778SOL     OW28795   1.095   2.661   4.853  0.0168 -0.1366 -1.1204
 5778SOL    HW128796   1.023   2.601   4.833  1.0002 -2.0135  0.9387
 5778SOL    HW228797   1.105   2.653   4.948 -1.6804  0.3736 -0.9148
 5779SOL     OW28798   1.278   2.139   7.214 -0.8076 -0.0535  0.3927
 5779SOL    HW128799   1.327   2.182   7.284 -0.1130 -1.3351  0.6799
 5779SOL    HW228800   1.341   2.072   7.188 -0.9800  0.0049 -0.1817
 5780SOL     OW28801   2.755   4.126  10.353  0.5930 -0.7286  0.0151
 5780SOL    HW128802   2.695   4.054  10.332 -0.0888 -0.2982  0.4419
 5780SOL    HW228803   2.842   4.089  10.340  1.2596  0.2420  1.5977
 5781SOL     OW28804   3.708   3.109   9.847 -0.7293  0.0477 -0.1195
 5781SOL    HW128805   3.676   3.020   9.832 -2.0295  0.3924  0.6428
 5781SOL    HW228806   3.727   3.150   9.763  1.3211  0.1820  0.3875
 5782SOL     OW28807   2.985   4.331   8.192  0.3130 -0.1298  0.0379
 5782SOL    HW128808   3.015   4.307   8.105  2.2995 -0.2090  0.7608
 5782SOL    HW228809   3.059   4.321   8.251 -1.5549  0.2547  2.4449
 5783SOL     OW28810   3.364   0.132   5.495  0.0575  0.8484 -0.4356
 5783SOL    HW128811   3.336   0.137   5.403  0.7808 -0.6013 -0.7289
 5783SOL    HW228812   3.342   0.044   5.525 -0.2191  0.3026 -2.1842
 5784SOL     OW28813   1.354   0.905  15.068 -0.1186 -0.6959 -0.0795
 5784SOL    HW128814   1.275   0.925  15.019  1.3261  0.7750 -1.7719
 5784SOL    HW228815   1.327   0.913  15.160 -1.4323 -1.1109 -0.4419
 5785SOL     OW28816   2.928   2.140  11.865  0.0412  0.0329  0.6721
 5785SOL    HW128817   3.005   2.161  11.919 -0.7747  1.6672  1.2046
 5785SOL    HW228818   2.890   2.064  11.908  1.8146 -0.4810  1.3672
 5786SOL     OW28819   2.501   4.620  11.761  0.2903 -0.0150 -0.3018
 5786SOL    HW128820   2.516   4.612  11.855  1.1340  2.6030 -0.1893
 5786SOL    HW228821   2.515   4.533  11.725  0.5578  0.2520 -0.8429
 5787SOL     OW28822   4.350   2.575   5.971 -0.1899  0.2582 -0.3307
 5787SOL    HW128823   4.305   2.515   6.030 -1.1045  1.7251  0.4622
 5787SOL    HW228824   4.436   2.534   5.968  1.0687  3.0075 -2.2670
 5788SOL     OW28825   3.612   4.023   4.608  0.0140 -0.2945 -0.3758
 5788SOL    HW128826   3.640   3.943   4.651 -0.3312 -0.2979 -0.1653
 5788SOL    HW228827   3.526   3.996   4.575 -1.8247  2.9873  1.8156
 5789SOL     OW28828   2.920   0.265   1.491 -0.2826  0.1583 -0.3442
 5789SOL    HW128829   2.842   0.237   1.540  0.8857 -1.0742  0.8215
 5789SOL    HW228830   2.948   0.183   1.448  0.6813  0.3315 -0.0419
 5790SOL     OW28831   4.578   3.336   9.755  0.2691  0.6286 -0.0576
 5790SOL    HW128832   4.658   3.301   9.795 -0.3342  0.4980  1.0059
 5790SOL    HW228833   4.533   3.378   9.827 -1.4645 -1.3064 -0.0021
 5791SOL     OW28834   3.057   4.512  14.848 -0.4139 -0.1111  0.2067
 5791SOL    HW128835   2.998   4.469  14.785 -1.0398  1.9078 -0.5927
 5791SOL    HW228836   3.083   4.589  14.797  1.6654 -2.5810 -2.4965
 5792SOL     OW28837   0.414   3.639   8.835  0.0321  0.1525  0.0287
 5792SOL    HW128838   0.389   3.574   8.769 -0.4062  0.4600 -0.1076
 5792SOL    HW228839   0.326   3.651   8.872  0.6575  0.4463  1.3814
 5793SOL     OW28840   1.504   4.240   8.554 -0.6208  0.5570 -0.1393
 5793SOL    HW128841   1.436   4.175   8.573 -0.6396  0.2597 -1.2377
 5793SOL    HW228842   1.564   4.240   8.629 -0.1996  0.4828 -0.4792
 5794SOL     OW28843   3.115   2.493   6.213  0.6870 -0.1144 -0.2008
 5794SOL    HW128844   3.109   2.451   6.299  1.8063  0.5579  0.1947
 5794SOL    HW228845   3.109   2.413   6.159 -0.0649  1.1881 -2.0615
 5795SOL     OW28846   2.756   3.245   7.605 -0.1926  0.1918 -0.1811
 5795SOL    HW128847   2.852   3.239   7.601 -0.3469 -0.6726 -2.7613
 5795SOL    HW228848   2.737   3.188   7.680  0.5338  0.4124  0.1788
 5796SOL     OW28849   2.190   3.862   4.138  0.0656 -0.3416 -0.1354
 5796SOL    HW128850   2.224   3.842   4.051 -0.5045  0.2231 -0.4904
 5796SOL    HW228851   2.268   3.881   4.189  0.1875 -0.0107 -0.4480
 5797SOL     OW28852   0.040   1.872  14.026  0.7518 -0.1527  0.5971
 5797SOL    HW128853   0.009   1.943  14.083  0.8599  0.2526  0.1527
 5797SOL    HW228854   0.121   1.852  14.074  1.3114 -0.8464 -0.6285
 5798SOL     OW28855   1.636   2.454   8.133 -0.3455 -0.2025 -0.5000
 5798SOL    HW128856   1.566   2.490   8.078  0.8529  2.6655 -0.1072
 5798SOL    HW228857   1.715   2.469   8.082 -0.5108  0.0750 -0.6735
 5799SOL     OW28858   0.297   3.711   6.028  0.6060  0.6530 -0.0475
 5799SOL    HW128859   0.210   3.677   6.007  0.2166  0.8116  1.3115
 5799SOL    HW228860   0.342   3.628   6.046 -0.2809 -0.0018 -0.8521
 5800SOL     OW28861   0.033   4.550   1.905  0.5467  0.3866  0.1541
 5800SOL    HW128862   4.697   4.567   1.832  0.2099  3.0711  1.0244
 5800SOL    HW228863   4.697   4.516   1.971  0.4092 -0.3593 -0.3587
 5801SOL     OW28864   2.873   4.102   5.134 -0.3177 -0.1245 -0.2790
 5801SOL    HW128865   2.837   4.180   5.092 -0.3634  0.7717  1.4238
 5801SOL    HW228866   2.963   4.111   5.102 -0.6219  0.2049 -1.0325
 5802SOL     OW28867   4.457   0.195   3.055 -0.2129  0.0317  0.1348
 5802SOL    HW128868   4.373   0.148   3.057  0.0934 -0.5366 -0.5456
 5802SOL    HW228869   4.456   0.233   2.967 -0.6395 -0.2546  0.0137
 5803SOL     OW28870   3.160   0.239   6.810 -0.1377  0.0841  0.0811
 5803SOL    HW128871   3.107   0.311   6.775 -1.2767 -0.6271  0.3521
 5803SOL    HW228872   3.174   0.265   6.901 -0.4567 -1.9673  0.6985
 5804SOL     OW28873   0.267   0.929   5.604 -0.1533 -0.5394 -0.5450
 5804SOL    HW128874   0.242   0.844   5.641  0.0754 -0.2936  0.1563
 5804SOL    HW228875   0.255   0.992   5.674 -1.4450  0.7009 -1.8689
 5805SOL     OW28876   1.937   0.487  13.602 -0.1932  0.4644  0.0927
 5805SOL    HW128877   1.981   0.529  13.528 -0.0188  1.5227  0.7902
 5805SOL    HW228878   2.016   0.461  13.648  0.7604  1.3647 -1.0344
 5806SOL     OW28879   2.839   4.131   3.181  0.0571  0.6563  0.4127
 5806SOL    HW128880   2.769   4.174   3.230 -3.0009 -2.4881 -1.1821
 5806SOL    HW228881   2.787   4.074   3.125 -1.0241  2.0870 -0.0647
 5807SOL     OW28882   2.218   0.535   3.334  0.0082 -0.1835  0.5682
 5807SOL    HW128883   2.165   0.562   3.409  2.7761  1.5800  1.9349
 5807SOL    HW228884   2.296   0.503   3.379  1.3003  1.9825 -0.1100
 5808SOL     OW28885   2.403   0.871   3.590 -0.0364 -0.1728 -0.1399
 5808SOL    HW128886   2.338   0.816   3.633  1.9833 -2.1232  0.3943
 5808SOL    HW228887   2.378   0.957   3.624  0.6880  0.2228 -0.6124
 5809SOL     OW28888   0.915   3.558   5.180 -0.0744  0.4536  0.7815
 5809SOL    HW128889   0.877   3.616   5.246  1.0171  0.8114  1.0973
 5809SOL    HW228890   0.956   3.492   5.236  0.0891  1.7954  2.2347
 5810SOL     OW28891   1.484   0.947   8.470  0.1378  0.2689  0.3848
 5810SOL    HW128892   1.558   0.994   8.431 -0.5851  1.2467  0.2067
 5810SOL    HW228893   1.489   0.867   8.418  0.2493  0.7612 -0.3598
 5811SOL     OW28894   2.747   0.935   7.293  0.0023  0.4839 -0.1304
 5811SOL    HW128895   2.818   0.995   7.270  0.1724  0.2114 -0.3167
 5811SOL    HW228896   2.688   1.005   7.322  0.3023  0.8375 -0.3767
 5812SOL     OW28897   4.675   1.162   7.509 -0.5405  0.6873 -0.2315
 5812SOL    HW128898   4.695   1.114   7.590 -0.3067 -0.1752 -0.7958
 5812SOL    HW228899   0.021   1.129   7.453  0.4744  3.5416 -0.6562
 5813SOL     OW28900   3.840   3.091   8.772  0.1765  0.5590  0.1800
 5813SOL    HW128901   3.795   3.147   8.835 -1.3602  0.9063 -1.2086
 5813SOL    HW228902   3.862   3.158   8.707  1.1359 -0.2666 -0.3385
 5814SOL     OW28903   4.071   0.035  17.106 -0.2755  0.6264  0.0068
 5814SOL    HW128904   4.104   4.678  17.066 -2.3367  0.2188 -0.8603
 5814SOL    HW228905   4.014   4.705  17.161 -2.4837  1.3988 -1.5340
 5815SOL     OW28906   3.599   2.100   1.497  0.3595  0.2247 -0.3186
 5815SOL    HW128907   3.613   2.187   1.535  1.3502  0.6471 -1.6270
 5815SOL    HW228908   3.690   2.073   1.489 -0.4077 -1.5764 -3.1340
 5816SOL     OW28909   0.154   3.045   7.505  0.2557 -0.8298 -0.3909
 5816SOL    HW128910   0.061   3.046   7.529  0.4764 -2.7904  0.5773
 5816SOL    HW228911   0.162   3.140   7.493 -0.1997 -0.8197 -0.5961
 5817SOL     OW28912   1.869   4.468   7.433  0.7189  0.6115 -0.3840
 5817SOL    HW128913   1.905   4.516   7.358 -1.5655 -0.0006 -1.8383
 5817SOL    HW228914   1.816   4.536   7.474  0.4927  0.2722 -0.1162
 5818SOL     OW28915   0.624   4.272   3.178 -0.4144 -0.5066  0.4356
 5818SOL    HW128916   0.691   4.263   3.246 -0.6538  2.5952  1.1128
 5818SOL    HW228917   0.571   4.345   3.211 -1.4584 -0.3067 -1.6771
 5819SOL     OW28918   1.299   2.299   2.388  0.0131  0.4283  0.1244
 5819SOL    HW128919   1.293   2.392   2.364 -0.5560 -0.1355 -1.8514
 5819SOL    HW228920   1.260   2.255   2.313 -0.8175  3.6448 -1.3147
 5820SOL     OW28921   3.558   4.448   5.806  0.3167  0.1095 -0.2916
 5820SOL    HW128922   3.617   4.400   5.864  0.7565  0.5680 -0.3697
 5820SOL    HW228923   3.612   4.526   5.794  0.4683  0.2252  1.2161
 5821SOL     OW28924   3.182   2.612   6.851 -0.3650 -0.1570  0.5128
 5821SOL    HW128925   3.123   2.665   6.904 -2.6505  1.6959 -3.8343
 5821SOL    HW228926   3.214   2.686   6.798  0.4963 -0.4701  0.6015
 5822SOL     OW28927   0.069   2.930   8.321 -0.0635 -0.3230  0.4469
 5822SOL    HW128928   4.706   2.918   8.360  0.0800 -0.0374  0.8502
 5822SOL    HW228929   0.132   2.919   8.392  2.2461  0.5894 -1.4792
 5823SOL     OW28930   3.196   0.183   3.888 -0.0368 -0.1528  0.0946
 5823SOL    HW128931   3.180   0.106   3.834 -2.5674 -1.6617  2.9427
 5823SOL    HW228932   3.265   0.228   3.840  0.2277 -2.9053 -2.0958
 5824SOL     OW28933   4.126   3.605   9.375  0.0584  0.2556 -0.2233
 5824SOL    HW128934   4.095   3.692   9.401 -0.6625 -0.2274  0.5210
 5824SOL    HW228935   4.145   3.557   9.455  2.4759 -0.2098 -1.0951
 5825SOL     OW28936   0.342   1.647  16.124  0.0713 -0.3227 -0.1699
 5825SOL    HW128937   0.363   1.707  16.052  1.7979  0.4877  1.0249
 5825SOL    HW228938   0.425   1.648  16.171  0.5547 -4.0326 -0.9442
 5826SOL     OW28939   0.975   2.959  15.213  0.3891  0.2520 -0.2722
 5826SOL    HW128940   0.981   2.872  15.252  0.3367  1.0809  1.5744
 5826SOL    HW228941   1.060   3.000  15.231 -0.1069  0.8435  0.7291
 5827SOL     OW28942   4.133   2.854   4.564  0.8901 -0.3528  0.0174
 5827SOL    HW128943   4.170   2.785   4.509  1.7189  0.2994 -0.2423
 5827SOL    HW228944   4.190   2.850   4.641  0.1475  1.9826  0.6785
 5828SOL     OW28945   3.521   2.465  15.975 -0.2332 -0.0386  0.3948
 5828SOL    HW128946   3.493   2.461  15.884  2.8586 -0.2336 -0.5557
 5828SOL    HW228947   3.501   2.553  16.008  0.9227  0.6026 -0.6270
 5829SOL     OW28948   1.837   3.469   3.654  0.7986 -0.7313  0.3435
 5829SOL    HW128949   1.892   3.506   3.585  0.1639  1.2445  0.8918
 5829SOL    HW228950   1.792   3.403   3.602  0.5632 -0.9413  0.8164
 5830SOL     OW28951   2.808   4.310   4.368  0.1212  0.2400  0.0258
 5830SOL    HW128952   2.732   4.367   4.381 -0.0214  0.1753 -0.5374
 5830SOL    HW228953   2.881   4.367   4.388  0.4455 -0.6071  1.3230
 5831SOL     OW28954   2.231   2.160   8.777  0.6045 -0.2074 -0.5325
 5831SOL    HW128955   2.229   2.091   8.710 -0.9487 -1.4627  0.8205
 5831SOL    HW228956   2.308   2.149   8.833  0.4202 -1.8443 -0.6054
 5832SOL     OW28957   4.360   0.842   5.344 -0.3685  0.2795 -0.4641
 5832SOL    HW128958   4.430   0.816   5.403  1.1435  1.3643 -1.7865
 5832SOL    HW228959   4.394   0.924   5.309 -0.5258 -0.3348 -2.0683
 5833SOL     OW28960   0.476   2.368   2.513 -0.4031  0.6280 -0.4144
 5833SOL    HW128961   0.395   2.336   2.552 -0.9167  1.8239 -0.5071
 5833SOL    HW228962   0.495   2.287   2.466  1.0102 -1.1797  3.2410
 5834SOL     OW28963   4.308   2.761   8.301 -0.4268  0.6733  0.1003
 5834SOL    HW128964   4.250   2.810   8.359 -0.3778 -1.5004  2.0038
 5834SOL    HW228965   4.274   2.775   8.212 -0.1459 -1.7496 -0.4010
 5835SOL     OW28966   4.368   2.085  15.416 -0.2112  0.4579 -0.0791
 5835SOL    HW128967   4.429   2.039  15.474  0.0140 -0.0018 -0.6813
 5835SOL    HW228968   4.392   2.171  15.451  1.6072  0.5184 -1.4849
 5836SOL     OW28969   3.224   1.714  10.741  0.5385 -0.1688  0.1052
 5836SOL    HW128970   3.261   1.626  10.743  1.3652  0.1764  0.0952
 5836SOL    HW228971   3.154   1.696  10.803  1.6526  0.4900  1.5481
 5837SOL     OW28972   0.116   0.602   6.090 -0.2514 -0.1141 -0.1485
 5837SOL    HW128973   0.079   0.568   6.008 -0.2823 -0.6011  0.0703
 5837SOL    HW228974   0.208   0.594   6.067 -0.8037 -2.4018 -1.5241
 5838SOL     OW28975   4.545   2.244  11.442 -0.0477 -0.4373 -0.2813
 5838SOL    HW128976   4.625   2.252  11.390 -1.8849  0.0549 -3.0438
 5838SOL    HW228977   4.531   2.333  11.475  2.3225 -0.2389  0.1588
 5839SOL     OW28978   0.598   2.759   5.982  0.2133  0.4039  0.2799
 5839SOL    HW128979   0.557   2.749   5.896  0.1295 -0.6931  0.4435
 5839SOL    HW228980   0.597   2.670   6.017 -1.7519  0.7538  1.0859
 5840SOL     OW28981   1.840   4.186   0.360  0.0046  0.0289 -0.7444
 5840SOL    HW128982   1.871   4.273   0.383  1.4205 -0.4058 -1.0055
 5840SOL    HW228983   1.904   4.126   0.400 -0.8293 -0.2031  0.2558
 5841SOL     OW28984   4.347   4.134   8.911  0.5440 -0.0160  0.3958
 5841SOL    HW128985   4.365   4.174   8.996 -1.2488  1.0852  0.2505
 5841SOL    HW228986   4.349   4.042   8.937 -0.6667  0.1048  0.9233
 5842SOL     OW28987   0.964   1.444   6.893 -0.1256  0.1907 -0.1249
 5842SOL    HW128988   0.910   1.418   6.818  3.0547 -3.3001 -1.2329
 5842SOL    HW228989   0.895   1.463   6.956  0.0237 -1.4677  0.5363
 5843SOL     OW28990   2.624   1.171  11.592  0.1055 -0.1996  0.4262
 5843SOL    HW128991   2.707   1.215  11.608 -1.5902  2.6496  1.4294
 5843SOL    HW228992   2.594   1.149  11.681 -1.5800  1.5719  0.3078
 5844SOL     OW28993   3.550   0.001  13.695  0.6839 -0.5703  0.1190
 5844SOL    HW128994   3.594   0.084  13.679 -0.2521 -0.1735 -0.4260
 5844SOL    HW228995   3.626   4.680  13.733  0.1407 -0.1418  1.7344
 5845SOL     OW28996   1.060   4.543   5.280 -0.7393  0.2318  0.2762
 5845SOL    HW128997   1.076   4.623   5.230 -2.5776  0.4723  0.0596
 5845SOL    HW228998   1.151   4.538   5.311 -0.6033  2.2895  0.2266
 5846SOL     OW28999   1.273   2.185   4.326 -0.0513 -0.6245  0.0920
 5846SOL    HW129000   1.260   2.142   4.242  1.0563  1.8949 -1.3467
 5846SOL    HW229001   1.202   2.154   4.382 -0.5838  0.1583 -0.1591
 5847SOL     OW29002   4.112   4.561   4.985  0.2409  0.1622  0.2188
 5847SOL    HW129003   4.081   4.475   5.013  0.7915 -0.5314 -1.3172
 5847SOL    HW229004   4.175   4.586   5.052 -0.0996  2.0568 -0.1618
 5848SOL     OW29005   1.819   1.114   4.335  0.2425  0.3200  0.7639
 5848SOL    HW129006   1.844   1.202   4.307  1.1464  0.1410  0.9854
 5848SOL    HW229007   1.878   1.057   4.286  1.3163  0.4858  1.8628
 5849SOL     OW29008   2.373   0.006   1.719 -0.1386  0.0602 -0.2016
 5849SOL    HW129009   2.379   4.655   1.658  0.6640  0.1383 -0.2222
 5849SOL    HW229010   2.427   0.072   1.676  1.2862 -1.1557 -0.2844
 5850SOL     OW29011   3.114   0.031   9.037  0.4652  0.7092 -0.4475
 5850SOL    HW129012   3.069   0.115   9.035  0.5619  0.7064 -2.5100
 5850SOL    HW229013   3.134   0.021   9.130 -0.3704 -0.4321 -0.3859
 5851SOL     OW29014   2.680   4.381  14.792 -0.3012  0.1555 -0.3516
 5851SOL    HW129015   2.764   4.405  14.753  0.3341 -1.9403 -0.3014
 5851SOL    HW229016   2.677   4.449  14.859 -1.8144 -1.1598  0.8993
 5852SOL     OW29017   2.017   1.759   3.792  0.0400 -0.1571 -0.2604
 5852SOL    HW129018   1.949   1.710   3.837  0.3133 -0.4546 -0.1706
 5852SOL    HW229019   1.981   1.845   3.815  1.1501  0.5092 -1.0273
 5853SOL     OW29020   4.151   1.351   6.266  0.1934  0.0053 -0.0810
 5853SOL    HW129021   4.173   1.424   6.324  3.5147  0.8580 -2.3885
 5853SOL    HW229022   4.060   1.331   6.288 -0.0126  1.3357  0.3026
 5854SOL     OW29023   0.880   4.356   7.267 -0.0861  0.0752  0.3210
 5854SOL    HW129024   0.787   4.379   7.257  0.2370  1.6984  0.9826
 5854SOL    HW229025   0.893   4.339   7.360  0.7179  1.2050  0.4138
 5855SOL     OW29026   3.411   0.272   4.784  0.7124 -0.2805 -0.3600
 5855SOL    HW129027   3.434   0.278   4.877 -0.8105  0.2957 -0.0333
 5855SOL    HW229028   3.318   0.255   4.794  0.4218  0.8285 -1.2645
 5856SOL     OW29029   2.172   3.436   5.182 -0.6340  0.7330  0.3069
 5856SOL    HW129030   2.132   3.422   5.096  0.6042 -3.3321  0.4304
 5856SOL    HW229031   2.188   3.353   5.225 -1.0540  0.0874 -0.7935
 5857SOL     OW29032   2.393   3.522   6.824 -0.4491 -0.0782 -0.1294
 5857SOL    HW129033   2.329   3.509   6.894  1.2266  0.1738  1.4211
 5857SOL    HW229034   2.470   3.507   6.878 -0.7518  0.4598  0.4510
 5858SOL     OW29035   1.494   0.310   7.745  0.3126 -0.6737 -0.0697
 5858SOL    HW129036   1.530   0.395   7.769  0.8765 -0.3218 -2.1476
 5858SOL    HW229037   1.403   0.338   7.754 -0.0269 -1.5402 -0.8176
 5859SOL     OW29038   0.853   1.195   3.473  0.1471 -0.0307 -0.5202
 5859SOL    HW129039   0.847   1.283   3.435 -1.9986 -0.1680 -0.4924
 5859SOL    HW229040   0.830   1.139   3.399  0.0662 -0.8012  0.0903
 5860SOL     OW29041   0.738   3.060   5.213 -0.1548  0.2492 -0.0224
 5860SOL    HW129042   0.689   3.136   5.179  1.2076  0.6096 -1.1966
 5860SOL    HW229043   0.683   3.027   5.284  0.1191  3.8541  1.8309
 5861SOL     OW29044   2.651   0.014   4.752 -0.1855  0.5820 -0.2801
 5861SOL    HW129045   2.697   4.676   4.695 -0.0548  1.8854 -1.6031
 5861SOL    HW229046   2.613   4.679   4.817 -0.6811  2.4109  1.0955
 5862SOL     OW29047   0.983   0.916  15.363 -0.5081  0.0877  0.4496
 5862SOL    HW129048   0.959   0.969  15.287  1.6464  0.7255  0.1973
 5862SOL    HW229049   0.992   0.833  15.316 -0.3985 -0.0590  0.7258
 5863SOL     OW29050   3.151   4.047  14.149 -0.1130 -0.1862 -0.0043
 5863SOL    HW129051   3.097   3.983  14.194 -0.5378  1.4956  1.8611
 5863SOL    HW229052   3.122   4.021  14.061  1.5399 -1.2818 -0.2350
 5864SOL     OW29053   1.015   2.707  16.574 -0.1935 -0.3750  0.2198
 5864SOL    HW129054   0.953   2.670  16.636 -3.8508  2.2767 -1.8402
 5864SOL    HW229055   1.060   2.626  16.551  2.4776  1.1038  0.2665
 5865SOL     OW29056   1.396   3.893  16.615  0.1819  0.5197 -0.3871
 5865SOL    HW129057   1.345   3.812  16.624  0.3176  0.3185 -1.4280
 5865SOL    HW229058   1.478   3.868  16.574  1.6499  1.1646  2.1886
 5866SOL     OW29059   2.906   3.466  11.790  0.1652 -0.4678 -0.4885
 5866SOL    HW129060   2.888   3.374  11.811  1.1536 -0.0787  2.0305
 5866SOL    HW229061   2.828   3.515  11.815  1.0090 -0.2912  1.7920
 5867SOL     OW29062   4.448   1.555   8.879  0.2954 -0.2183  0.1000
 5867SOL    HW129063   4.460   1.525   8.970 -2.1044  0.0812  0.5191
 5867SOL    HW229064   4.369   1.509   8.850  1.1265 -0.8990 -1.0567
 5868SOL     OW29065   0.896   0.784  13.714 -0.0245 -0.6626 -0.0881
 5868SOL    HW129066   0.917   0.826  13.797 -0.5780 -0.6154  0.0294
 5868SOL    HW229067   0.811   0.822  13.691 -0.4621 -0.4170  1.8851
 5869SOL     OW29068   1.461   0.255  16.183 -0.4028  0.5306  0.5944
 5869SOL    HW129069   1.456   0.183  16.120 -3.2580  0.1340  1.2658
 5869SOL    HW229070   1.402   0.319  16.144 -1.0633 -1.1580 -1.1958
 5870SOL     OW29071   1.743   3.695   8.283 -0.4104  0.2590  0.1184
 5870SOL    HW129072   1.776   3.784   8.298  0.8430 -0.1293 -0.3250
 5870SOL    HW229073   1.822   3.641   8.277 -1.7402 -1.5818 -0.8669
 5871SOL     OW29074   2.822   4.125   7.546  0.3628  0.1769  0.9267
 5871SOL    HW129075   2.798   4.183   7.474 -1.8645  0.9211  2.2687
 5871SOL    HW229076   2.803   4.182   7.621  0.9675 -1.0121  1.9664
 5872SOL     OW29077   1.590   0.180   7.251  0.1835  0.3051 -0.1727
 5872SOL    HW129078   1.654   0.121   7.210 -1.9798 -0.7081 -2.0891
 5872SOL    HW229079   1.519   0.170   7.188 -2.0263  0.3278  2.2748
 5873SOL     OW29080   0.321   3.815   2.692 -0.1652 -0.1161  0.3061
 5873SOL    HW129081   0.344   3.723   2.690  1.8315  0.4200 -0.9161
 5873SOL    HW229082   0.226   3.814   2.707 -0.4948  0.7969 -1.6896
 5874SOL     OW29083   3.004   2.404   6.448 -0.9482 -0.3701 -0.3197
 5874SOL    HW129084   2.913   2.375   6.441 -0.0123 -3.2758 -0.6806
 5874SOL    HW229085   2.998   2.424   6.541 -3.1494  2.4171 -1.0610
 5875SOL     OW29086   0.384   1.264  12.190 -0.4263 -0.0749 -0.5889
 5875SOL    HW129087   0.355   1.182  12.149  2.2713 -1.4881  0.3652
 5875SOL    HW229088   0.474   1.264  12.159 -0.5783  1.5795 -1.0429
 5876SOL     OW29089   4.340   3.849   9.000  0.2285  0.1851  0.7293
 5876SOL    HW129090   4.309   3.816   8.916  1.0203  0.4787  0.3312
 5876SOL    HW229091   4.335   3.761   9.038 -1.7840  0.6704  1.6182
 5877SOL     OW29092   2.156   2.218   1.903  0.1970  0.4496  0.6421
 5877SOL    HW129093   2.070   2.182   1.883  1.0281 -0.7921 -0.6211
 5877SOL    HW229094   2.187   2.245   1.817  1.2157 -0.4033  0.7427
 5878SOL     OW29095   4.047   1.670   3.634  0.5569  0.1085 -0.3030
 5878SOL    HW129096   3.997   1.640   3.558 -0.0289 -0.9060  0.4695
 5878SOL    HW229097   4.045   1.581   3.669  1.1303 -0.2651 -1.2252
 5879SOL     OW29098   0.883   2.354   4.054  0.0317 -0.1119 -0.3945
 5879SOL    HW129099   0.821   2.282   4.052 -0.7242  0.5242 -0.0983
 5879SOL    HW229100   0.905   2.353   4.147 -2.4475  2.0545  0.2284
 5880SOL     OW29101   4.715   0.038   5.296  0.0000  0.1162 -0.1710
 5880SOL    HW129102   4.711   4.717   5.380  0.2214  2.0080  0.8494
 5880SOL    HW229103   4.651   4.709   5.247  1.0971 -2.0364  0.7131
 5881SOL     OW29104   0.407   1.133   0.486 -0.1355  0.1574  0.3474
 5881SOL    HW129105   0.442   1.047   0.464  0.0896 -0.3114  2.5478
 5881SOL    HW229106   0.419   1.188   0.408  1.1159 -3.3929 -1.9603
 5882SOL     OW29107   4.366   2.893   4.686 -0.3732 -0.1552 -0.1620
 5882SOL    HW129108   4.355   2.880   4.592 -2.1250  0.2045 -0.0040
 5882SOL    HW229109   4.413   2.814   4.713 -0.4702 -0.6861 -1.5638
 5883SOL     OW29110   0.377   3.212  15.877  0.2485  0.0446  0.0727
 5883SOL    HW129111   0.353   3.237  15.787  0.2191 -2.1656 -0.5335
 5883SOL    HW229112   0.352   3.119  15.872 -0.0965  0.2031 -1.2112
 5884SOL     OW29113   4.111   0.963   8.200 -0.1449  0.0195 -0.4309
 5884SOL    HW129114   4.117   0.911   8.120 -1.4489 -1.1335  0.2122
 5884SOL    HW229115   4.024   1.000   8.184 -0.8447 -0.8556  1.2681
 5885SOL     OW29116   4.425   2.301   2.822  0.4795  0.0279  0.5632
 5885SOL    HW129117   4.457   2.220   2.783 -0.7386  0.7576 -1.9255
 5885SOL    HW229118   4.341   2.310   2.777  1.1406 -0.7531 -0.8230
 5886SOL     OW29119   4.535   0.470   0.524  0.2563 -0.1826  0.5684
 5886SOL    HW129120   4.551   0.465   0.618  0.0680 -0.2897  0.5924
 5886SOL    HW229121   4.548   0.381   0.493  0.8238  0.6191 -1.5334
 5887SOL     OW29122   3.799   2.614   0.828  0.1993 -0.4881  0.5235
 5887SOL    HW129123   3.720   2.564   0.810  1.3956 -1.6224 -1.6303
 5887SOL    HW229124   3.768   2.672   0.898  0.8598  2.1898 -1.3955
 5888SOL     OW29125   1.994   3.370  16.611  0.3343  0.2928 -0.3014
 5888SOL    HW129126   2.040   3.322  16.679  0.9397  0.8007 -0.3589
 5888SOL    HW229127   1.969   3.449  16.659 -0.3104  0.3264 -0.6820
 5889SOL     OW29128   2.842   3.109   0.133  0.1086  0.0976 -0.0743
 5889SOL    HW129129   2.860   3.194   0.173  3.7110 -0.7071  0.0680
 5889SOL    HW229130   2.931   3.073   0.138  0.5427  0.9102 -2.1938
 5890SOL     OW29131   2.360   3.670  13.745 -0.0208  0.4429  0.2886
 5890SOL    HW129132   2.379   3.705  13.832  2.5368 -0.4369  0.0958
 5890SOL    HW229133   2.439   3.700  13.700  0.8283 -0.4933  1.1826
 5891SOL     OW29134   3.014   2.877  11.498  0.5776 -0.6758  0.2351
 5891SOL    HW129135   3.067   2.863  11.419 -0.8008 -0.1283 -0.7989
 5891SOL    HW229136   3.016   2.970  11.518 -0.7200 -1.0812  2.2297
 5892SOL     OW29137   4.095   0.829   5.254 -0.1388  0.2320 -0.7806
 5892SOL    HW129138   4.189   0.841   5.271 -0.0805  0.3952 -1.2391
 5892SOL    HW229139   4.097   0.734   5.242  1.4715  0.2664 -0.8620
 5893SOL     OW29140   2.165   4.467   1.175 -0.1449  0.2951 -0.6003
 5893SOL    HW129141   2.236   4.432   1.230  0.2045  0.7882 -0.7433
 5893SOL    HW229142   2.106   4.391   1.177 -3.0093  2.5420 -0.3170
 5894SOL     OW29143   0.738   0.575   1.334  0.2898  0.1186 -0.5972
 5894SOL    HW129144   0.676   0.547   1.266 -0.5983 -0.3052  0.3847
 5894SOL    HW229145   0.716   0.511   1.402 -2.5460  2.1029  0.3612
 5895SOL     OW29146   3.648   2.640  11.946  0.3126 -0.1700 -0.1544
 5895SOL    HW129147   3.703   2.630  11.869 -0.3909  1.4694 -0.8774
 5895SOL    HW229148   3.661   2.735  11.947  1.5234 -0.3565  3.5230
 5896SOL     OW29149   1.477   0.358   6.879 -0.4280 -0.0106 -0.1627
 5896SOL    HW129150   1.554   0.301   6.887  0.8122  1.9861  2.2284
 5896SOL    HW229151   1.527   0.434   6.849 -0.9534  0.3301 -0.1668
 5897SOL     OW29152   3.159   0.596   5.628  0.3952 -0.0533  0.0132
 5897SOL    HW129153   3.193   0.674   5.584  2.0181 -1.3537 -1.0246
 5897SOL    HW229154   3.215   0.531   5.587  0.4078 -0.0228 -0.0186
 5898SOL     OW29155   1.783   2.678   4.214 -0.0686 -0.8754  0.0127
 5898SOL    HW129156   1.838   2.692   4.291  0.3024  0.8369 -0.5526
 5898SOL    HW229157   1.838   2.616   4.166  1.1790  0.0931  0.1948
 5899SOL     OW29158   2.142   4.082  13.145 -0.0349 -0.4979 -0.2140
 5899SOL    HW129159   2.145   4.104  13.238 -0.3268 -0.6616 -0.1642
 5899SOL    HW229160   2.084   4.005  13.142 -1.8903  0.9481 -1.8710
 5900SOL     OW29161   0.315   2.939   6.256  0.1220 -0.2509  0.3474
 5900SOL    HW129162   0.327   2.846   6.277 -0.6143 -0.8042 -1.6649
 5900SOL    HW229163   0.391   2.961   6.201 -0.4941  1.1434  0.0398
 5901SOL     OW29164   3.221   0.786   2.887  0.2688  0.1448  0.1299
 5901SOL    HW129165   3.293   0.847   2.876  0.7996 -0.6325 -0.7028
 5901SOL    HW229166   3.198   0.780   2.794 -0.0992  0.6756  0.1827
 5902SOL     OW29167   1.239   2.309   2.802 -0.4270  0.1136  0.7700
 5902SOL    HW129168   1.271   2.391   2.764 -0.8575  0.2935  0.7966
 5902SOL    HW229169   1.198   2.269   2.725  1.7046 -0.1221 -0.2314
 5903SOL     OW29170   3.611   1.989   8.767  0.1065 -0.2565  0.4355
 5903SOL    HW129171   3.617   1.896   8.748 -1.4799 -0.1225 -0.7348
 5903SOL    HW229172   3.567   2.019   8.687 -2.3964  0.7578  2.1640
 5904SOL     OW29173   2.657   2.481   9.089  0.4161 -0.0757 -0.9573
 5904SOL    HW129174   2.604   2.543   9.039 -2.4359  0.3381  2.6200
 5904SOL    HW229175   2.742   2.526   9.084  0.0324  0.5920 -1.3903
 5905SOL     OW29176   1.997   1.982   2.611 -0.1584 -0.2112  0.4812
 5905SOL    HW129177   2.042   2.023   2.686 -0.0091 -1.3372  1.0175
 5905SOL    HW229178   1.940   2.054   2.585  2.1944  1.2632 -0.6285
 5906SOL     OW29179   4.594   1.329   4.587 -0.1011  0.2593  0.2224
 5906SOL    HW129180   4.649   1.315   4.664 -0.0410  2.0948  0.5094
 5906SOL    HW229181   4.621   1.259   4.529 -1.3185 -1.6297  1.9248
 5907SOL     OW29182   2.612   0.687   9.271 -0.2807  0.2352 -0.9165
 5907SOL    HW129183   2.663   0.760   9.306  3.5675 -1.2614 -3.4135
 5907SOL    HW229184   2.670   0.614   9.291 -2.8679 -0.8671  2.5713
 5908SOL     OW29185   4.085   2.609   3.776 -0.3625  0.5453 -0.5292
 5908SOL    HW129186   3.998   2.641   3.802 -1.1061 -0.5514 -1.6576
 5908SOL    HW229187   4.068   2.533   3.719  2.5073  0.8593 -1.7653
 5909SOL     OW29188   2.492   3.379   4.674  0.0885 -0.4520 -0.2298
 5909SOL    HW129189   2.514   3.362   4.766 -0.1465 -0.1671 -0.1195
 5909SOL    HW229190   2.538   3.307   4.631 -1.9542  0.3469 -3.6968
 5910SOL     OW29191   1.010   2.171   7.240  0.0413 -0.1534  0.0808
 5910SOL    HW129192   1.100   2.166   7.208  0.9066 -1.0376  2.5972
 5910SOL    HW229193   1.022   2.232   7.313 -2.0596  2.4336 -1.7389
 5911SOL     OW29194   0.313   3.630   5.483  0.0768 -0.1463  0.0888
 5911SOL    HW129195   0.342   3.667   5.566  0.0453 -0.9472  0.4620
 5911SOL    HW229196   0.364   3.682   5.421  0.1715 -0.6546 -0.2654
 5912SOL     OW29197   2.723   1.592  16.728  0.5871 -0.0417 -0.1255
 5912SOL    HW129198   2.810   1.611  16.763  1.2956  0.0705 -1.9319
 5912SOL    HW229199   2.714   1.501  16.757  0.9945  0.5495  1.8223
 5913SOL     OW29200   4.478   2.869  13.618 -0.4403  1.1634  0.2300
 5913SOL    HW129201   4.543   2.914  13.672  0.9982 -0.7754  0.1262
 5913SOL    HW229202   4.471   2.920  13.537  2.2693  1.3932  0.1449
 5914SOL     OW29203   3.806   0.147   7.457 -0.0055  0.0021 -0.6006
 5914SOL    HW129204   3.786   0.054   7.443 -1.7586  0.6265 -2.1314
 5914SOL    HW229205   3.726   0.193   7.433 -0.9926 -0.5771  1.5862
 5915SOL     OW29206   3.190   0.728   7.781 -0.2066  0.6994  0.7751
 5915SOL    HW129207   3.280   0.739   7.752 -0.9098 -1.0618 -2.1246
 5915SOL    HW229208   3.176   0.637   7.757  1.1437  0.5914  0.4140
 5916SOL     OW29209   0.218   3.757  15.100 -0.2850 -0.8158  0.3197
 5916SOL    HW129210   0.138   3.704  15.097 -0.3706 -0.7209  1.0886
 5916SOL    HW229211   0.199   3.831  15.042  0.7714 -0.6202  0.2058
 5917SOL     OW29212   1.745   2.926   6.817 -0.5326 -0.6883 -0.4174
 5917SOL    HW129213   1.705   2.850   6.775  2.0155 -1.4359 -1.4708
 5917SOL    HW229214   1.672   2.988   6.817  0.2353  0.2119  1.8799
 5918SOL     OW29215   3.497   0.284   3.887  0.5514  0.6160 -0.1064
 5918SOL    HW129216   3.508   0.352   3.820 -1.4322  0.1807 -0.8750
 5918SOL    HW229217   3.575   0.230   3.879  0.3211  0.4240 -1.0845
 5919SOL     OW29218   4.645   1.681   8.715 -0.3197 -0.7957 -0.3056
 5919SOL    HW129219   4.640   1.767   8.757 -0.0377  0.0127 -1.9366
 5919SOL    HW229220   4.579   1.637   8.769 -0.8321 -1.4748 -1.4939
 5920SOL     OW29221   3.457   0.795   9.632 -0.1331 -0.4028 -0.6453
 5920SOL    HW129222   3.366   0.770   9.613 -0.5384 -1.4097  2.4735
 5920SOL    HW229223   3.486   0.718   9.680 -0.5941  0.1546  0.5401
 5921SOL     OW29224   1.665   0.560   5.917 -0.1623  0.2871  0.6455
 5921SOL    HW129225   1.638   0.470   5.933  2.7421 -0.2055  2.8723
 5921SOL    HW229226   1.717   0.554   5.837 -0.1610 -0.5883  0.7077
 5922SOL     OW29227   1.997   0.718   4.106  0.2244 -0.2905  0.3147
 5922SOL    HW129228   2.071   0.695   4.050  0.4659  0.9646  0.1089
 5922SOL    HW229229   1.923   0.673   4.066  0.0824  0.9061 -0.7629
 5923SOL     OW29230   1.572   0.332  10.475  0.0864  0.1148 -0.7468
 5923SOL    HW129231   1.554   0.241  10.450 -1.2261  0.0294  0.5623
 5923SOL    HW229232   1.491   0.355  10.520  1.1640 -0.1837  1.3528
 5924SOL     OW29233   0.577   3.987   9.365 -0.3410  0.8450  0.0330
 5924SOL    HW129234   0.583   4.076   9.330 -1.4483  0.7903 -0.3049
 5924SOL    HW229235   0.666   3.953   9.359 -0.7375 -0.2962  0.6027
 5925SOL     OW29236   3.332   0.728   1.142  0.6428  0.4451 -0.0812
 5925SOL    HW129237   3.323   0.663   1.072  0.7220 -0.9251  1.1792
 5925SOL    HW229238   3.248   0.710   1.183  0.6106  0.1172 -0.2875
 5926SOL     OW29239   3.723   2.418   0.081  0.1558  0.4084  0.1328
 5926SOL    HW129240   3.685   2.504   0.063 -2.0818 -0.6659 -0.2124
 5926SOL    HW229241   3.647   2.361   0.091 -0.4875  1.2191 -0.1426
 5927SOL     OW29242   2.261   1.217   5.363 -0.1244 -0.4083  0.3381
 5927SOL    HW129243   2.325   1.179   5.424  0.8430 -1.0321 -1.0469
 5927SOL    HW229244   2.239   1.141   5.310 -2.0194  0.7356 -0.4702
 5928SOL     OW29245   3.704   3.670  14.975  0.4484 -0.2726 -0.0490
 5928SOL    HW129246   3.745   3.697  14.893 -1.6258 -0.0236 -0.9931
 5928SOL    HW229247   3.695   3.574  14.979  1.0888 -0.3642 -0.7645
 5929SOL     OW29248   2.383   2.306   6.518 -0.6058  0.5732  0.0915
 5929SOL    HW129249   2.318   2.287   6.585 -0.4319 -2.5644 -0.6048
 5929SOL    HW229250   2.342   2.379   6.472  0.5403 -0.2446 -2.2508
 5930SOL     OW29251   1.634   3.144   7.275 -0.2935 -0.0412  0.2756
 5930SOL    HW129252   1.561   3.083   7.266  0.7843 -1.4916  1.4271
 5930SOL    HW229253   1.680   3.124   7.356  0.3616 -2.1854 -0.6217
 5931SOL     OW29254   1.319   0.785   0.615  0.2106  0.1823  0.4012
 5931SOL    HW129255   1.393   0.804   0.673  0.0938 -2.4302  1.3942
 5931SOL    HW229256   1.266   0.729   0.671  1.4011  0.1006  1.4302
 5932SOL     OW29257   0.885   3.203   4.364 -0.3020 -0.6891 -0.1200
 5932SOL    HW129258   0.810   3.208   4.306 -1.8453 -1.1349  1.8471
 5932SOL    HW229259   0.910   3.295   4.370 -1.4520 -0.2457 -2.6133
 5933SOL     OW29260   3.718   2.677  13.350 -0.1317 -0.6904  0.8278
 5933SOL    HW129261   3.760   2.626  13.420 -1.5110 -2.9692 -0.0078
 5933SOL    HW229262   3.649   2.615  13.325  1.1099 -1.4809 -0.6267
 5934SOL     OW29263   1.264   3.556  11.234  0.2318  0.0459 -0.4311
 5934SOL    HW129264   1.281   3.633  11.179 -1.0675  1.5541  1.2537
 5934SOL    HW229265   1.299   3.482  11.184 -1.9026 -0.2950 -1.3902
 5935SOL     OW29266   0.923   0.089   4.030  0.0193 -0.3297 -0.3025
 5935SOL    HW129267   0.853   0.041   3.987 -0.9452  1.3098 -0.5604
 5935SOL    HW229268   0.969   0.144   3.966 -0.3530  0.9958  0.5692
 5936SOL     OW29269   2.040   3.175   2.532 -0.4595 -0.0926  0.0752
 5936SOL    HW129270   1.951   3.142   2.537 -0.8258  1.3105  2.3527
 5936SOL    HW229271   2.085   3.101   2.573 -0.6719  1.1600  2.5540
 5937SOL     OW29272   0.764   2.717  16.371 -0.0394  0.0422  0.3298
 5937SOL    HW129273   0.703   2.690  16.440 -1.2919 -0.7232 -1.0692
 5937SOL    HW229274   0.709   2.784  16.331  0.9864  0.2234 -0.7686
 5938SOL     OW29275   0.034   0.188   2.758 -0.6772  0.7243 -0.1269
 5938SOL    HW129276   4.701   0.113   2.776 -0.2696 -0.0583 -2.1358
 5938SOL    HW229277   4.691   0.256   2.748 -2.7326 -0.9036  2.4569
 5939SOL     OW29278   3.385   1.515   6.799 -0.6166  0.0698  0.7201
 5939SOL    HW129279   3.389   1.493   6.892 -1.1372 -0.5863  0.5922
 5939SOL    HW229280   3.318   1.581   6.786 -2.6321 -2.3289 -1.1432
 5940SOL     OW29281   0.260   4.222   5.418  0.2754 -0.4342 -0.3845
 5940SOL    HW129282   0.218   4.282   5.357 -3.3357 -2.3834  0.1514
 5940SOL    HW229283   0.214   4.141   5.397 -1.3645  0.1611  0.8750
 5941SOL     OW29284   2.188   0.090   6.236 -0.5551 -0.0689  0.1348
 5941SOL    HW129285   2.129   0.017   6.257 -0.9411  0.2113  0.0391
 5941SOL    HW229286   2.135   0.156   6.281 -1.7075 -0.4998 -0.5938
 5942SOL     OW29287   3.673   4.699   2.296  0.1890  0.1641 -0.2593
 5942SOL    HW129288   3.595   4.665   2.340 -0.3508  2.3944  0.4936
 5942SOL    HW229289   3.678   0.057   2.345 -0.8383  1.1930 -1.8950
 5943SOL     OW29290   2.020   2.380   4.606  0.4533 -0.3467 -0.1509
 5943SOL    HW129291   1.978   2.461   4.634 -1.4031 -1.6942  0.9851
 5943SOL    HW229292   1.974   2.306   4.647  2.0616 -1.4483 -0.3280
 5944SOL     OW29293   3.177   2.369   9.171 -0.9349 -0.5052  0.0698
 5944SOL    HW129294   3.240   2.416   9.116 -1.6618  0.7335  0.2887
 5944SOL    HW229295   3.119   2.328   9.107 -0.8669 -0.1900 -0.2017
 5945SOL     OW29296   2.491   3.613   8.102 -0.4546 -0.4781  0.0973
 5945SOL    HW129297   2.425   3.640   8.166  0.2444 -0.9059  0.9987
 5945SOL    HW229298   2.556   3.568   8.156 -0.2541 -1.0764 -0.6497
 5946SOL     OW29299   1.874   2.590   7.703 -0.4231  0.4892  0.2049
 5946SOL    HW129300   1.780   2.603   7.711 -0.1977  1.3849  1.3511
 5946SOL    HW229301   1.902   2.584   7.611  0.7333 -0.6161  0.6363
 5947SOL     OW29302   4.372   0.620   7.816  0.6677 -0.0812 -0.1574
 5947SOL    HW129303   4.394   0.571   7.737 -1.2197 -0.2258 -0.5879
 5947SOL    HW229304   4.291   0.576   7.845  0.1319  0.9151 -0.1514
 5948SOL     OW29305   3.326   4.402   8.519 -0.3015  0.0879  0.6590
 5948SOL    HW129306   3.382   4.391   8.442  0.7352  2.8560  1.0326
 5948SOL    HW229307   3.344   4.326   8.575  0.2848  0.3940  0.8920
 5949SOL     OW29308   0.260   4.304   9.905  0.0787  0.3760 -0.8026
 5949SOL    HW129309   0.186   4.258   9.866  0.4147 -1.5357  0.8071
 5949SOL    HW229310   0.236   4.291   9.996  4.5707 -2.5333  0.0066
 5950SOL     OW29311   4.365   3.386   4.298 -0.4013 -0.2044  0.3013
 5950SOL    HW129312   4.445   3.394   4.246 -2.0996 -1.0388 -2.4532
 5950SOL    HW229313   4.400   3.429   4.376 -0.2984 -0.1756  0.2393
 5951SOL     OW29314   3.766   2.316   8.656 -0.0828 -0.2946  0.2147
 5951SOL    HW129315   3.757   2.224   8.681  0.8399 -0.8933 -1.6818
 5951SOL    HW229316   3.861   2.322   8.655  0.0236 -1.3899  3.5037
 5952SOL     OW29317   0.201   3.823   8.712  0.3867  0.1594  0.3706
 5952SOL    HW129318   0.273   3.762   8.729 -1.6115 -2.6822 -1.6463
 5952SOL    HW229319   0.146   3.795   8.785  1.2119 -0.8365  0.6160
 5953SOL     OW29320   1.274   0.897   8.137  0.0076  0.4797  0.2789
 5953SOL    HW129321   1.286   0.848   8.218 -0.3531 -0.1317 -0.0415
 5953SOL    HW229322   1.332   0.850   8.078  0.1042  0.4785  0.3747
 5954SOL     OW29323   0.788   3.060   5.940  0.1438  0.1243  0.4963
 5954SOL    HW129324   0.828   2.977   5.912  1.6354  1.1688 -0.5095
 5954SOL    HW229325   0.760   3.098   5.857  1.6494 -0.2270 -0.1767
 5955SOL     OW29326   1.531   3.902   3.116  0.6395  0.9026 -0.0288
 5955SOL    HW129327   1.530   3.906   3.020  1.5321 -2.6225 -0.2001
 5955SOL    HW229328   1.524   3.808   3.129 -0.9395  0.8285 -1.5087
 5956SOL     OW29329   0.863   2.500   5.553  0.1260 -0.0025  0.6450
 5956SOL    HW129330   0.875   2.417   5.506  0.9387  0.8730 -0.7108
 5956SOL    HW229331   0.769   2.512   5.568 -0.0870 -0.9876  0.1369
 5957SOL     OW29332   1.139   3.948   7.988 -0.3442  0.2680 -0.1641
 5957SOL    HW129333   1.145   3.865   8.036 -0.7993  1.0548  1.2586
 5957SOL    HW229334   1.213   3.999   8.022 -1.2039  0.7206  1.0244
 5958SOL     OW29335   0.623   4.714   7.345 -0.1565  0.3925  0.6217
 5958SOL    HW129336   0.642   4.691   7.437  0.4001  0.8366  0.6177
 5958SOL    HW229337   0.686   0.062   7.341 -0.2037  0.4472  0.8262
 5959SOL     OW29338   1.187   2.360   3.963  0.5176  0.3877 -0.0070
 5959SOL    HW129339   1.223   2.439   3.925  1.8125 -1.6029 -2.9040
 5959SOL    HW229340   1.093   2.361   3.942  0.3834 -0.7494  0.5189
 5960SOL     OW29341   0.285   1.395  11.694 -0.1425  0.0661 -0.9078
 5960SOL    HW129342   0.225   1.393  11.619 -1.5176 -2.2160  0.2741
 5960SOL    HW229343   0.323   1.479  11.667  0.9147 -0.6069 -1.5245
 5961SOL     OW29344   4.630   4.459   0.464  0.1437 -0.3704  0.1362
 5961SOL    HW129345   4.688   4.383   0.462  0.9253  0.1692  3.3020
 5961SOL    HW229346   4.571   4.427   0.531 -2.5259  4.1504 -0.0287
 5962SOL     OW29347   4.665   2.858  14.433  0.3813 -0.4531  0.1566
 5962SOL    HW129348   4.652   2.834  14.524 -1.4995  0.4499  0.1363
 5962SOL    HW229349   4.711   2.782  14.398 -0.3014 -1.4280  1.3850
 5963SOL     OW29350   0.837   0.605  12.176  1.2415 -0.1371 -0.0345
 5963SOL    HW129351   0.854   0.669  12.107  0.3929 -1.3206 -1.3251
 5963SOL    HW229352   0.890   0.637  12.249  0.8003 -2.2662  1.2127
 5964SOL     OW29353   0.738   2.263  12.648 -0.4053  0.7753  0.0665
 5964SOL    HW129354   0.797   2.189  12.633  0.8689  1.5316  1.2967
 5964SOL    HW229355   0.730   2.292  12.557  0.5768  1.4444  0.1930
 5965SOL     OW29356   3.198   4.326   3.409  0.3740 -0.2548 -0.0542
 5965SOL    HW129357   3.164   4.254   3.356 -2.1513 -0.1297  1.3955
 5965SOL    HW229358   3.274   4.356   3.360  0.6598  0.5671  0.8800
 5966SOL     OW29359   3.202   1.828   4.592 -0.3628 -0.0869 -0.4083
 5966SOL    HW129360   3.251   1.910   4.581 -1.0040  0.2644 -0.6354
 5966SOL    HW229361   3.111   1.855   4.601 -1.0609 -2.6885  0.4042
 5967SOL     OW29362   2.887   4.021   1.245 -0.0694 -0.7191 -0.5216
 5967SOL    HW129363   2.972   4.022   1.290  0.2791 -1.7675 -1.1636
 5967SOL    HW229364   2.844   4.074   1.312  1.9154  0.5481 -0.2244
 5968SOL     OW29365   3.201   4.299   8.002  0.7894  0.4180 -0.5013
 5968SOL    HW129366   3.191   4.244   7.924 -0.7102  0.8065 -0.5828
 5968SOL    HW229367   3.250   4.373   7.968  0.1638  1.3875  0.7119
 5969SOL     OW29368   3.778   2.668   1.140 -0.0320 -0.5796 -0.0952
 5969SOL    HW129369   3.744   2.737   1.083  0.0246 -1.4108 -1.1241
 5969SOL    HW229370   3.863   2.705   1.164 -0.3280 -0.5048  0.8435
 5970SOL     OW29371   1.340   1.435   6.268 -0.6180 -0.5426  0.2000
 5970SOL    HW129372   1.417   1.391   6.234  0.6017  0.8059  1.1680
 5970SOL    HW229373   1.314   1.502   6.204  0.5149 -0.8838 -0.6019
 5971SOL     OW29374   1.380   0.915  16.288  0.6004  0.6994 -0.5285
 5971SOL    HW129375   1.414   0.832  16.252 -0.5742  0.2705 -0.6475
 5971SOL    HW229376   1.451   0.975  16.264  0.9061  0.6459  0.2543
 5972SOL     OW29377   3.475   2.400  15.719 -0.1636  0.1525 -0.5845
 5972SOL    HW129378   3.512   2.328  15.668 -0.2003 -0.5082  0.3325
 5972SOL    HW229379   3.466   2.463  15.648  2.2080  2.4352  1.1273
 5973SOL     OW29380   2.459   2.882   8.205  0.0487 -0.1066 -0.2885
 5973SOL    HW129381   2.452   2.852   8.114  1.6119  1.4748 -0.9481
 5973SOL    HW229382   2.371   2.914   8.225 -0.3440  1.1536 -3.8915
 5974SOL     OW29383   1.789   0.806  14.674  0.5739 -0.7049 -0.3562
 5974SOL    HW129384   1.718   0.773  14.619  0.4416 -1.6466  0.3891
 5974SOL    HW229385   1.828   0.869  14.613 -2.2151 -0.6746 -2.1117
 5975SOL     OW29386   2.143   2.025   4.392 -0.5869  0.2413 -0.6838
 5975SOL    HW129387   2.140   2.031   4.297  0.2673 -1.5426 -0.8048
 5975SOL    HW229388   2.158   2.117   4.415  1.3986 -0.4479  0.8159
 5976SOL     OW29389   2.373   2.581   1.932  0.4837  0.2254 -0.0856
 5976SOL    HW129390   2.282   2.566   1.956 -0.0611  0.5119 -1.9843
 5976SOL    HW229391   2.371   2.648   1.864 -0.2702 -0.8183 -1.0904
 5977SOL     OW29392   4.646   3.815   3.269 -0.0391  1.3773  0.2928
 5977SOL    HW129393   4.560   3.846   3.297  0.1545  2.0535  0.1470
 5977SOL    HW229394   4.631   3.723   3.249 -0.8232  2.0633 -2.2603
 5978SOL     OW29395   4.555   1.958  15.562 -0.2133  0.1046 -0.7402
 5978SOL    HW129396   4.611   1.882  15.546 -0.8317 -0.8575  1.6270
 5978SOL    HW229397   4.618   2.016  15.604  1.2287 -0.6569 -1.8828
 5979SOL     OW29398   3.813   4.394   4.441  0.1255 -0.1599  0.0032
 5979SOL    HW129399   3.875   4.448   4.489 -0.0297 -0.2558  0.3136
 5979SOL    HW229400   3.737   4.451   4.429  0.9146  0.9693  0.3883
 5980SOL     OW29401   0.467   1.343   4.766  0.0058 -0.1734  0.4392
 5980SOL    HW129402   0.510   1.375   4.687 -1.3566  4.1683  1.5047
 5980SOL    HW229403   0.499   1.254   4.783 -0.4160 -1.1744 -3.9055
 5981SOL     OW29404   0.499   0.994   3.989  0.1706  0.3303  0.2392
 5981SOL    HW129405   0.557   0.976   3.915 -1.6759  0.1346 -1.1622
 5981SOL    HW229406   0.464   0.906   4.003  0.3702  0.4560  1.5400
 5982SOL     OW29407   1.201   2.360   5.111 -0.2943  0.1719 -0.5473
 5982SOL    HW129408   1.166   2.402   5.190  1.9727  0.4132  0.3208
 5982SOL    HW229409   1.123   2.352   5.056  1.5296 -1.5344 -2.8923
 5983SOL     OW29410   0.522   4.141   7.193  0.3274  0.3709 -0.1763
 5983SOL    HW129411   0.574   4.221   7.201  1.7625 -0.9996  3.9794
 5983SOL    HW229412   0.474   4.146   7.275 -1.6901  0.4278 -1.3658
 5984SOL     OW29413   2.245   3.258   4.582  1.0350 -0.3896  0.0517
 5984SOL    HW129414   2.243   3.183   4.643  2.5199 -0.4133  0.0816
 5984SOL    HW229415   2.280   3.327   4.639 -0.9554  0.5470  0.1544
 5985SOL     OW29416   0.212   0.599   2.148 -0.1570  0.3305  0.5479
 5985SOL    HW129417   0.205   0.694   2.133 -0.9413  0.3481  1.0332
 5985SOL    HW229418   0.202   0.560   2.061 -1.3248  1.7445  0.0308
 5986SOL     OW29419   4.214   0.981   3.543 -0.3531  0.6580 -0.3751
 5986SOL    HW129420   4.166   0.935   3.474 -0.8445  0.6470 -0.0256
 5986SOL    HW229421   4.278   1.025   3.487  0.8783 -1.9842 -1.0255
 5987SOL     OW29422   3.791   3.948   6.839 -0.5253 -0.4857  0.2625
 5987SOL    HW129423   3.850   3.942   6.914 -1.5723 -3.8087  0.8198
 5987SOL    HW229424   3.861   3.927   6.777  0.6875  2.8402  0.5164
 5988SOL     OW29425   4.397   3.003   2.613  0.1240  0.3046  0.4517
 5988SOL    HW129426   4.449   3.083   2.627  1.1677 -0.2882  0.0232
 5988SOL    HW229427   4.311   3.042   2.599  2.0786  4.0978 -1.1161
 5989SOL     OW29428   3.843   0.965   8.142  0.7755  0.0088 -0.3116
 5989SOL    HW129429   3.807   0.924   8.064 -0.4438  0.1441  0.1871
 5989SOL    HW229430   3.796   0.923   8.214  0.6781 -0.8059 -0.8562
 5990SOL     OW29431   1.626   0.858   7.706 -0.1088  0.2012 -0.3768
 5990SOL    HW129432   1.616   0.950   7.730 -1.8107 -0.1721  0.3329
 5990SOL    HW229433   1.538   0.821   7.714  0.7579 -1.5292  1.0511
 5991SOL     OW29434   3.613   4.077   5.912  0.1804 -0.1344 -0.0561
 5991SOL    HW129435   3.672   4.015   5.954  0.3467  1.3706  1.9359
 5991SOL    HW229436   3.648   4.160   5.946 -1.2288  0.2094  0.5620
 5992SOL     OW29437   0.808   2.157   3.839 -0.3781  0.0791 -0.1117
 5992SOL    HW129438   0.774   2.071   3.863  0.3323 -0.0122  0.5453
 5992SOL    HW229439   0.899   2.129   3.836 -0.5992 -0.5493 -1.0116
 5993SOL     OW29440   3.450   0.710  10.430  0.3446 -0.2906 -0.0424
 5993SOL    HW129441   3.469   0.690  10.522  0.5159  1.5358  0.3191
 5993SOL    HW229442   3.357   0.727  10.444  0.6009  0.9467  0.2141
 5994SOL     OW29443   0.293   1.656   6.492  0.3705 -0.1441 -0.0426
 5994SOL    HW129444   0.304   1.632   6.584 -1.3694 -2.0347 -0.3326
 5994SOL    HW229445   0.385   1.670   6.470  0.5371 -0.2694  0.5818
 5995SOL     OW29446   0.943   4.311   4.873 -0.2255 -0.5560 -0.2999
 5995SOL    HW129447   0.987   4.302   4.958  1.6067  2.0989 -0.9811
 5995SOL    HW229448   0.922   4.404   4.871  2.3120  0.0074 -0.2321
 5996SOL     OW29449   0.541   4.027   8.514  0.3865  0.3220 -0.2429
 5996SOL    HW129450   0.612   4.069   8.562 -0.3716  2.6823 -1.1840
 5996SOL    HW229451   0.549   3.946   8.564 -2.7418  0.3268  0.2684
 5997SOL     OW29452   4.365   1.478   4.290 -0.2309  0.1273  0.0306
 5997SOL    HW129453   4.294   1.536   4.262  0.4609  0.9689  0.0410
 5997SOL    HW229454   4.383   1.419   4.217  0.7683  0.8833 -0.3180
 5998SOL     OW29455   0.437   4.722   6.552  0.5070 -0.8537  0.3147
 5998SOL    HW129456   0.532   4.722   6.556  0.6125  2.2229 -2.6380
 5998SOL    HW229457   0.420   4.654   6.487  0.0841  1.8644 -2.3825
 5999SOL     OW29458   2.425   0.270   6.606  0.1833 -0.8496 -0.2156
 5999SOL    HW129459   2.385   0.347   6.647 -0.2540 -2.1639  1.8592
 5999SOL    HW229460   2.516   0.300   6.602 -0.3790  0.7570 -0.6028
 6000SOL     OW29461   2.959   2.966   8.447 -0.6580  0.2474 -0.4373
 6000SOL    HW129462   2.873   2.953   8.407  0.1037  0.7417 -2.2225
 6000SOL    HW229463   2.954   3.051   8.490 -1.6581  0.0106 -0.0908
 6001SOL     OW29464   0.958   3.051   3.418  0.0236  0.1516 -0.2545
 6001SOL    HW129465   0.935   3.047   3.510 -2.5287  0.3316 -0.8828
 6001SOL    HW229466   0.902   2.984   3.378 -0.5332 -0.1399  1.0098
 6002SOL     OW29467   1.975   2.731   4.397  0.4084  0.2470 -0.1595
 6002SOL    HW129468   2.050   2.738   4.338  1.0325 -0.9552  0.5100
 6002SOL    HW229469   1.969   2.824   4.422 -1.3751  0.3398 -0.9112
 6003SOL     OW29470   4.515   4.248  10.868 -0.1895 -0.0931 -0.1447
 6003SOL    HW129471   4.463   4.308  10.815 -2.2477 -1.0736  0.8080
 6003SOL    HW229472   4.554   4.318  10.920 -1.3065  1.9035 -2.0012
 6004SOL     OW29473   4.078   2.613   7.456 -0.0458 -0.5867  0.3748
 6004SOL    HW129474   4.158   2.561   7.448 -0.2062 -0.9558  1.1956
 6004SOL    HW229475   4.117   2.690   7.497  0.2418 -0.3695 -0.3053
 6005SOL     OW29476   2.991   2.880   4.394  0.4038  0.6200  0.1733
 6005SOL    HW129477   2.961   2.847   4.310 -0.5419 -3.9861  2.3124
 6005SOL    HW229478   2.967   2.973   4.394  0.9186  0.7576  0.1810
 6006SOL     OW29479   3.889   2.404   8.978  0.2807 -0.1585  0.1859
 6006SOL    HW129480   3.937   2.385   9.059  0.5424 -0.2266  0.0133
 6006SOL    HW229481   3.841   2.321   8.976  1.8804 -1.1639  2.5855
 6007SOL     OW29482   0.104   0.434   6.321 -0.0978 -0.1327 -0.4109
 6007SOL    HW129483   0.108   0.490   6.243  3.6737 -2.2276 -1.7110
 6007SOL    HW229484   0.072   0.352   6.283  0.3273 -0.9565  1.0039
 6008SOL     OW29485   3.116   1.080  10.717  0.4091  0.1344 -0.2573
 6008SOL    HW129486   3.130   1.018  10.789  1.7420  0.6917 -0.0381
 6008SOL    HW229487   3.029   1.048  10.694 -0.3829 -0.3088  3.3050
 6009SOL     OW29488   3.260   0.642   8.613 -0.1729 -0.3006 -0.4980
 6009SOL    HW129489   3.290   0.693   8.538 -1.8524  2.3081  0.6071
 6009SOL    HW229490   3.234   0.559   8.573  0.8569 -0.6558 -0.4320
 6010SOL     OW29491   3.810   4.007   8.864  0.2105 -0.5069  0.8276
 6010SOL    HW129492   3.888   4.048   8.827 -1.3425  1.6813  0.0039
 6010SOL    HW229493   3.835   4.013   8.956  0.9318  1.8001  0.4716
 6011SOL     OW29494   1.279   4.723   1.673  0.1711 -0.7795 -0.1719
 6011SOL    HW129495   1.369   4.708   1.700  0.4164  0.8812 -0.0338
 6011SOL    HW229496   1.301   0.061   1.603  0.7531  0.0217  0.7272
 6012SOL     OW29497   3.153   1.553   4.836 -0.2955 -0.1023 -0.1583
 6012SOL    HW129498   3.208   1.486   4.876  1.4070  1.0447 -0.5938
 6012SOL    HW229499   3.213   1.613   4.793 -2.1970  0.2855 -2.2967
 6013SOL     OW29500   2.309   2.533   5.154 -0.1260  0.2589 -0.8880
 6013SOL    HW129501   2.347   2.472   5.217 -0.0487 -0.2561 -1.4380
 6013SOL    HW229502   2.386   2.569   5.109  2.3968 -2.2173  1.3984
 6014SOL     OW29503   4.041   2.239   2.504  0.3556  0.1777  0.2726
 6014SOL    HW129504   4.093   2.255   2.425  1.5621  0.5649  1.1480
 6014SOL    HW229505   4.040   2.144   2.493  1.4504  0.4150 -1.9299
 6015SOL     OW29506   3.269   3.288   3.296  0.0588 -0.3313 -0.6909
 6015SOL    HW129507   3.311   3.373   3.311  0.8831 -0.9736  0.6408
 6015SOL    HW229508   3.262   3.285   3.201 -1.8411 -1.4587 -0.4959
 6016SOL     OW29509   3.987   0.382   1.800  0.0429 -0.1242 -0.6918
 6016SOL    HW129510   3.999   0.448   1.869 -1.0322 -0.9591  0.3071
 6016SOL    HW229511   3.961   0.436   1.725 -1.0830  0.1517 -0.1033
 6017SOL     OW29512   1.545   4.658   1.756 -0.6848  0.4466 -0.1777
 6017SOL    HW129513   1.598   4.629   1.830 -0.6284 -0.6467 -0.6421
 6017SOL    HW229514   1.552   4.578   1.704  0.7627  0.5987 -0.2163
 6018SOL     OW29515   1.789   3.425   8.272 -0.3038 -0.1481 -0.0295
 6018SOL    HW129516   1.741   3.362   8.218  1.3121  0.5593 -2.2581
 6018SOL    HW229517   1.874   3.430   8.230  0.1216 -0.5721  0.7874
 6019SOL     OW29518   2.505   1.121   2.710 -0.4259  0.4316 -0.3533
 6019SOL    HW129519   2.553   1.168   2.778 -0.3230 -1.1712  0.6881
 6019SOL    HW229520   2.421   1.167   2.711 -0.9166 -0.4324 -2.0182
 6020SOL     OW29521   2.646   1.443  14.425 -0.0328  0.5629  0.3042
 6020SOL    HW129522   2.587   1.491  14.484  0.2899 -0.8459  1.7578
 6020SOL    HW229523   2.685   1.381  14.485  2.3541 -0.4228 -2.2603
 6021SOL     OW29524   2.482   4.541   0.559 -0.3506  0.4904 -0.0079
 6021SOL    HW129525   2.470   4.549   0.464  0.6630 -0.6126 -0.2284
 6021SOL    HW229526   2.511   4.450   0.566  1.0161  0.8899 -0.5417
 6022SOL     OW29527   0.260   1.163  10.146  0.2125 -0.4778  0.0185
 6022SOL    HW129528   0.204   1.102  10.097  0.1845  0.5156 -1.2007
 6022SOL    HW229529   0.341   1.144  10.100  1.3587  2.5947  0.7927
 6023SOL     OW29530   0.981   1.454  17.592  0.0716  0.7192 -0.9056
 6023SOL    HW129531   0.930   1.387  17.636  0.5948  0.2722 -0.9709
 6023SOL    HW229532   0.958   1.529  17.647  0.0354  1.0308 -1.3481
 6024SOL     OW29533   0.556   2.796   7.845  0.4731  0.0029  0.6469
 6024SOL    HW129534   0.491   2.818   7.779  2.1269 -0.8336 -1.2810
 6024SOL    HW229535   0.514   2.802   7.930 -0.0603 -0.9895  0.4471
 6025SOL     OW29536   3.637   4.451   2.168 -0.5509 -0.0596 -0.1506
 6025SOL    HW129537   3.624   4.540   2.200 -1.8197 -0.7458  1.2335
 6025SOL    HW229538   3.720   4.469   2.125 -0.2815 -0.5353  0.1657
 6026SOL     OW29539   0.192   1.788   2.326 -0.6723 -0.5320  0.1309
 6026SOL    HW129540   0.218   1.753   2.411 -0.2639  1.8630  0.9762
 6026SOL    HW229541   0.276   1.778   2.281 -0.3284 -0.8060  0.8361
 6027SOL     OW29542   3.765   1.515   8.670  0.0667 -0.1315  0.1707
 6027SOL    HW129543   3.860   1.528   8.677 -0.0729  1.3472 -0.5743
 6027SOL    HW229544   3.753   1.425   8.697  0.7309 -0.4697 -0.6402
 6028SOL     OW29545   0.083   4.109   8.167 -0.4927 -0.1256 -0.4726
 6028SOL    HW129546   0.005   4.106   8.223 -0.7148 -0.9950 -0.8359
 6028SOL    HW229547   0.083   4.196   8.126  0.2705 -0.0983 -0.4198
 6029SOL     OW29548   0.570   3.054   4.851 -0.2290  0.8176  0.1310
 6029SOL    HW129549   0.475   3.068   4.857 -0.3240  0.1410  0.1289
 6029SOL    HW229550   0.576   2.967   4.812  0.4765  1.1402 -0.4766
 6030SOL     OW29551   1.223   0.424  15.126 -0.3970 -0.7644  0.2157
 6030SOL    HW129552   1.249   0.515  15.135  0.3786 -0.6475 -3.2521
 6030SOL    HW229553   1.148   0.429  15.068  1.2856  0.1073 -1.9028
 6031SOL     OW29554   0.662   0.250   5.733  0.2614  0.6731 -0.3085
 6031SOL    HW129555   0.607   0.324   5.708  0.4715  0.8930 -0.1226
 6031SOL    HW229556   0.628   0.236   5.822 -1.8096 -0.6214 -1.2964
 6032SOL     OW29557   4.422   3.547   2.296  0.4012  0.6598 -0.8089
 6032SOL    HW129558   4.392   3.458   2.317 -0.1707  0.9034 -0.5990
 6032SOL    HW229559   4.442   3.540   2.203 -2.3479  3.2493 -1.5862
 6033SOL     OW29560   0.056   1.681   2.035 -0.0033  0.6253  0.2560
 6033SOL    HW129561   0.099   1.743   2.094 -0.5847  0.8053  0.4848
 6033SOL    HW229562   0.132   1.629   2.006 -0.9472  0.6300 -2.2674
 6034SOL     OW29563   3.296   3.202   6.612 -0.5343  0.0294  0.2035
 6034SOL    HW129564   3.374   3.223   6.664 -0.2808  0.4389 -0.3437
 6034SOL    HW229565   3.252   3.286   6.625 -2.3302 -0.9126  0.2310
 6035SOL     OW29566   2.167   1.980   6.198  0.2878 -0.3891  0.0396
 6035SOL    HW129567   2.204   2.066   6.178  1.7530 -0.9437  0.3814
 6035SOL    HW229568   2.086   1.988   6.147  0.2903  1.1834  0.2845
 6036SOL     OW29569   0.193   0.481   7.620  0.0670 -0.1668  0.3130
 6036SOL    HW129570   0.139   0.521   7.688  0.6450  2.0296 -0.5249
 6036SOL    HW229571   0.121   0.433   7.579  0.5240 -1.5010  1.0628
 6037SOL     OW29572   2.187   3.813   8.910  0.0744 -0.2960 -0.1185
 6037SOL    HW129573   2.176   3.770   8.994 -0.2211 -0.4458 -0.2336
 6037SOL    HW229574   2.266   3.865   8.926 -1.1980  0.6637  2.8834
 6038SOL     OW29575   4.025   3.448   4.858  0.0632 -0.1940 -0.3641
 6038SOL    HW129576   3.962   3.387   4.897  2.2441 -2.4392 -0.2806
 6038SOL    HW229577   4.007   3.518   4.921  0.8216 -0.3445  0.0179
 6039SOL     OW29578   1.892   3.127   8.359 -0.1989 -0.2243  0.3193
 6039SOL    HW129579   1.842   3.143   8.279  1.7749  3.5804 -0.1283
 6039SOL    HW229580   1.964   3.187   8.340 -1.4105  0.9693 -0.4979
 6040SOL     OW29581   0.978   0.004   4.788 -0.2776 -0.3191  0.5426
 6040SOL    HW129582   1.068   0.029   4.765 -0.6921  0.5545 -0.1567
 6040SOL    HW229583   0.961   0.081   4.842  2.5832  1.1907 -0.6881
 6041SOL     OW29584   2.976   3.836  11.715 -0.2508 -0.0284 -0.1195
 6041SOL    HW129585   2.915   3.877  11.777  2.9186 -0.8013  3.5611
 6041SOL    HW229586   3.038   3.909  11.705 -0.5223  0.0359 -1.3174
 6042SOL     OW29587   3.331   0.388   5.533  0.4648 -0.2599 -0.2482
 6042SOL    HW129588   3.264   0.385   5.465  1.1459  2.1988 -1.0233
 6042SOL    HW229589   3.345   0.293   5.537 -0.6210 -0.4312 -0.3314
 6043SOL     OW29590   3.273   2.417   1.190 -0.1390 -0.2950  0.1413
 6043SOL    HW129591   3.250   2.507   1.164 -0.6857 -0.4068  0.2358
 6043SOL    HW229592   3.368   2.428   1.186  0.0099 -1.7582 -0.1013
 6044SOL     OW29593   3.038   3.408   5.509  0.0521 -0.4258  0.7990
 6044SOL    HW129594   3.052   3.355   5.431  0.1063  2.2194 -0.9956
 6044SOL    HW229595   3.049   3.342   5.578 -1.6296 -1.0835  0.4260
 6045SOL     OW29596   3.278   0.653  10.039 -0.1234  0.6101  0.3612
 6045SOL    HW129597   3.292   0.560  10.058  3.4259  1.1350  0.4308
 6045SOL    HW229598   3.290   0.687  10.128 -1.1807  4.0887 -0.8308
 6046SOL     OW29599   4.264   2.898   2.336 -0.2636 -0.5229 -0.1742
 6046SOL    HW129600   4.347   2.856   2.358  0.2596  0.3305 -0.5153
 6046SOL    HW229601   4.288   2.968   2.275 -0.8997  1.8295  2.2732
 6047SOL     OW29602   2.766   3.183   3.669 -1.1226  0.5001  0.4344
 6047SOL    HW129603   2.842   3.174   3.728 -2.0824  0.1478  1.6300
 6047SOL    HW229604   2.780   3.275   3.651  2.0667  0.1770  1.2338
 6048SOL     OW29605   3.585   0.128   5.189  0.3555 -0.3403 -0.4873
 6048SOL    HW129606   3.620   0.074   5.118 -3.8249 -2.9641 -0.5880
 6048SOL    HW229607   3.534   0.059   5.233  0.7268 -1.6419 -2.0813
 6049SOL     OW29608   0.892   2.789   5.515 -1.0319 -0.1164  0.1434
 6049SOL    HW129609   0.917   2.854   5.581 -0.6634  0.3557 -0.4573
 6049SOL    HW229610   0.906   2.705   5.558 -2.1682 -0.7426 -0.6962
 6050SOL     OW29611   0.848   3.335   1.074  0.4326 -0.2628  0.2514
 6050SOL    HW129612   0.936   3.301   1.092  0.2062 -0.5187  0.8547
 6050SOL    HW229613   0.828   3.306   0.985 -1.2753 -0.5587  0.7463
 6051SOL     OW29614   0.286   0.247   6.546  0.1276 -0.3449  0.3989
 6051SOL    HW129615   0.197   0.212   6.546 -0.7263  1.8160 -1.1833
 6051SOL    HW229616   0.342   0.170   6.539  0.4831  0.2162 -3.3130
 6052SOL     OW29617   1.924   1.465   8.668 -0.0118 -0.3661  0.0829
 6052SOL    HW129618   1.892   1.467   8.758  1.0622  0.0975  0.4552
 6052SOL    HW229619   1.831   1.460   8.648 -0.2286  1.9823  0.4579
 6053SOL     OW29620   1.702   0.207   6.845  0.3571  0.1495 -0.8448
 6053SOL    HW129621   1.770   0.235   6.783  1.7533 -0.5553  0.3806
 6053SOL    HW229622   1.684   0.119   6.813  1.3659 -0.3515  0.0016
 6054SOL     OW29623   1.231   1.286   8.231 -0.3158  0.7595  0.2686
 6054SOL    HW129624   1.176   1.277   8.309  0.6444  0.5501  0.9212
 6054SOL    HW229625   1.270   1.199   8.238 -1.3714  0.1605 -1.3300
 6055SOL     OW29626   2.292   2.839   5.499 -0.2088 -0.6710  0.0597
 6055SOL    HW129627   2.301   2.902   5.570 -2.6259 -0.4628  0.1741
 6055SOL    HW229628   2.372   2.857   5.449 -0.1428  0.8609  0.7238
 6056SOL     OW29629   3.834   0.254   7.179 -0.0525 -0.2181  0.4292
 6056SOL    HW129630   3.764   0.194   7.153 -0.9735 -0.4345  3.4516
 6056SOL    HW229631   3.842   0.319   7.108  0.8961 -0.6567  0.1332
 6057SOL     OW29632   1.432   2.796   3.241  0.4030 -0.2497 -0.0888
 6057SOL    HW129633   1.451   2.742   3.317 -1.6244 -0.2209  0.4345
 6057SOL    HW229634   1.488   2.746   3.181 -0.4462  1.1043 -2.0379
 6058SOL     OW29635   2.943   0.683  12.984 -0.5651  0.8609  0.7188
 6058SOL    HW129636   2.952   0.731  13.066 -0.3111  1.8747  0.0829
 6058SOL    HW229637   2.864   0.634  13.010 -0.2493  0.6125  1.2148
 6059SOL     OW29638   3.531   3.984   7.443  0.2390 -0.0039 -0.3028
 6059SOL    HW129639   3.463   3.941   7.496  0.1593 -1.0767 -1.3071
 6059SOL    HW229640   3.475   4.044   7.394  2.0504  0.7376 -1.4655
 6060SOL     OW29641   4.723   1.329   1.923  0.9594  0.3349 -0.1276
 6060SOL    HW129642   4.659   1.306   1.855  1.6860 -0.7826 -0.4279
 6060SOL    HW229643   0.079   1.292   1.885  1.4786 -1.4953  2.8162
 6061SOL     OW29644   4.315   0.403  16.606  0.4513  0.2007 -0.1743
 6061SOL    HW129645   4.374   0.335  16.639 -0.9064 -1.6852 -1.5775
 6061SOL    HW229646   4.228   0.363  16.599  0.0479  0.9998  0.3684
 6062SOL     OW29647   1.620   0.371   6.192 -0.2995  0.1349 -0.2507
 6062SOL    HW129648   1.588   0.347   6.105 -2.6243 -2.0953  1.2634
 6062SOL    HW229649   1.664   0.451   6.162 -2.0161  0.9932 -0.4581
 6063SOL     OW29650   0.558   3.301   6.207  0.0806 -0.1144 -0.2190
 6063SOL    HW129651   0.531   3.276   6.295  2.1006  0.0745  0.4497
 6063SOL    HW229652   0.533   3.228   6.150 -1.4435 -0.9852  1.5600
 6064SOL     OW29653   2.884   4.646   5.499  0.1672 -0.1512  0.2016
 6064SOL    HW129654   2.849   4.572   5.548 -1.5044  0.3061 -0.3232
 6064SOL    HW229655   2.875   4.723   5.555  0.7515  0.4760 -0.5487
 6065SOL     OW29656   3.771   2.803   4.621  1.0898  0.1725  0.0307
 6065SOL    HW129657   3.781   2.735   4.555  1.6013 -0.3309  0.6252
 6065SOL    HW229658   3.678   2.822   4.613  0.8617 -0.9798 -0.0178
 6066SOL     OW29659   4.214   3.424   6.593 -0.7313  0.5723  0.0253
 6066SOL    HW129660   4.188   3.342   6.633 -0.2651  1.7482  2.7212
 6066SOL    HW229661   4.234   3.385   6.508 -0.3971 -0.6095  0.6522
 6067SOL     OW29662   0.078   4.288   0.232 -0.3684 -0.0234 -0.0221
 6067SOL    HW129663   0.078   4.207   0.181  0.6192 -0.6684  1.0241
 6067SOL    HW229664   0.117   4.259   0.314  0.7007 -0.9174 -0.8415
 6068SOL     OW29665   4.156   2.990   8.806  0.3172 -0.2708 -0.0836
 6068SOL    HW129666   4.101   3.068   8.810  1.0913  0.1875  1.6127
 6068SOL    HW229667   4.094   2.918   8.800 -1.4568  1.0137  2.8618
 6069SOL     OW29668   3.259   2.850  11.901  0.1743 -0.2143 -0.1095
 6069SOL    HW129669   3.292   2.761  11.886  0.0153 -0.1049 -1.1114
 6069SOL    HW229670   3.288   2.888  11.819  1.0092 -0.4080  0.0893
 6070SOL     OW29671   4.479   3.872   9.441  0.1584  0.2970  0.0015
 6070SOL    HW129672   4.481   3.783   9.404 -0.4124 -0.1588  1.0744
 6070SOL    HW229673   4.428   3.915   9.373  0.6902  0.5426 -0.2425
 6071SOL     OW29674   0.990   0.362  10.939  0.1866  0.5101  0.3125
 6071SOL    HW129675   0.990   0.457  10.941  2.8800  0.5035  0.8985
 6071SOL    HW229676   0.911   0.342  10.989  0.3722 -1.3420 -0.1342
 6072SOL     OW29677   2.259   2.676   1.241  0.7156  0.0777 -0.0973
 6072SOL    HW129678   2.207   2.696   1.163 -1.8558 -1.9985  1.1158
 6072SOL    HW229679   2.245   2.764   1.276  3.0777  0.0677  0.8611
 6073SOL     OW29680   3.643   4.436   1.297  0.2127 -0.1668 -0.1621
 6073SOL    HW129681   3.624   4.364   1.357  0.8022 -1.1657 -1.1672
 6073SOL    HW229682   3.602   4.422   1.212 -2.2348  1.9773  0.6622
 6074SOL     OW29683   0.494   2.978   8.668  0.3954 -0.0953 -0.4104
 6074SOL    HW129684   0.522   2.887   8.661 -2.9189 -1.2188  0.9268
 6074SOL    HW229685   0.522   2.987   8.759  1.0519 -1.0532 -0.5276
 6075SOL     OW29686   4.712   4.678   6.339  0.0609 -0.0266 -0.2882
 6075SOL    HW129687   4.713   4.589   6.372  0.9868 -0.0599 -0.4265
 6075SOL    HW229688   4.665   4.662   6.257 -1.0685  0.9034  0.1748
 6076SOL     OW29689   1.519   2.669   4.094 -0.2334  0.1921 -0.0298
 6076SOL    HW129690   1.448   2.676   4.157 -0.3685 -2.2633  0.0981
 6076SOL    HW229691   1.598   2.681   4.147 -0.5462  0.4437  0.3812
 6077SOL     OW29692   0.298   4.080   3.260  0.1573 -0.1943  0.5494
 6077SOL    HW129693   0.233   4.066   3.328  1.0339 -1.5485  1.1098
 6077SOL    HW229694   0.380   4.051   3.299  1.5520  3.0598  0.0572
 6078SOL     OW29695   3.736   0.489   8.673  0.1468 -0.0531 -0.2928
 6078SOL    HW129696   3.780   0.517   8.753  0.5635 -0.6376 -0.3180
 6078SOL    HW229697   3.699   0.407   8.704 -1.3520  0.5935 -0.3385
 6079SOL     OW29698   3.524   3.701   4.919 -0.2763  0.5892  0.3143
 6079SOL    HW129699   3.575   3.713   4.839 -0.8632  0.1313 -0.1336
 6079SOL    HW229700   3.561   3.614   4.930 -1.3123  0.1862  0.5863
 6080SOL     OW29701   3.202   3.874   4.411  1.0119  0.1370  0.3038
 6080SOL    HW129702   3.169   3.959   4.380  0.1674 -0.7933 -1.3684
 6080SOL    HW229703   3.254   3.850   4.334 -0.3457 -0.3648 -0.4565
 6081SOL     OW29704   3.824   3.723  14.262 -0.4567 -0.1634 -0.3501
 6081SOL    HW129705   3.739   3.682  14.243 -0.4523 -1.1324  1.6406
 6081SOL    HW229706   3.820   3.780  14.186 -1.0335 -0.8330 -0.8249
 6082SOL     OW29707   1.340   2.412   0.040  0.1799  0.4489  0.7629
 6082SOL    HW129708   1.299   2.379  17.657 -1.2707  0.1674  1.6206
 6082SOL    HW229709   1.381   2.331   0.071  0.0466  0.9164  2.1937
 6083SOL     OW29710   0.070   4.631   4.519  0.0371 -0.3597 -0.2495
 6083SOL    HW129711   0.151   4.589   4.547  1.4804  1.5557 -1.5260
 6083SOL    HW229712   0.012   4.563   4.488  0.3187 -0.9833  0.5794
 6084SOL     OW29713   2.778   0.203   8.586  0.6062  0.3930  0.2368
 6084SOL    HW129714   2.771   0.220   8.680  3.0973 -1.2739  0.6995
 6084SOL    HW229715   2.701   0.148   8.573  0.0394  1.3768 -0.5500
 6085SOL     OW29716   2.599   0.994   9.068  0.1290  0.0331  0.4984
 6085SOL    HW129717   2.636   0.908   9.089 -1.4618 -0.5420  0.9150
 6085SOL    HW229718   2.653   1.022   8.994  2.0647 -1.5789  1.2930
 6086SOL     OW29719   3.654   1.315   5.754 -0.2527 -0.0198 -0.3354
 6086SOL    HW129720   3.677   1.231   5.714  1.2569 -0.1042  0.7089
 6086SOL    HW229721   3.736   1.365   5.752  1.2148 -2.4412  0.1223
 6087SOL     OW29722   0.301   2.630  10.197  0.6757 -0.8520 -0.2745
 6087SOL    HW129723   0.360   2.631  10.273 -1.2278 -2.1607  1.2447
 6087SOL    HW229724   0.302   2.718  10.161  0.3857  0.0502  1.9426
 6088SOL     OW29725   4.488   4.718   3.570 -0.5629  0.4210  0.2187
 6088SOL    HW129726   4.558   0.061   3.571  0.4676 -0.6583  0.0436
 6088SOL    HW229727   4.523   4.662   3.501  0.2623  2.9971 -1.4671
 6089SOL     OW29728   2.526   1.481  10.325  0.3413 -0.1333 -0.7473
 6089SOL    HW129729   2.432   1.466  10.310  0.0892  0.8671 -0.2158
 6089SOL    HW229730   2.517   1.576  10.325 -0.2144 -0.1881  1.1163
 6090SOL     OW29731   0.901   0.406   4.288  0.0404 -0.7821  0.5634
 6090SOL    HW129732   0.965   0.342   4.256  0.8748 -0.3924  1.4685
 6090SOL    HW229733   0.964   0.477   4.293  0.3066 -1.0937  1.6095
 6091SOL     OW29734   2.107   1.393   3.593 -0.1421 -0.2160  0.2715
 6091SOL    HW129735   2.149   1.308   3.605 -0.6556 -0.3244  1.2456
 6091SOL    HW229736   2.182   1.446   3.564 -0.0013 -1.3327 -1.3981
 6092SOL     OW29737   0.427   0.381   6.253  0.1666  0.2304  0.1542
 6092SOL    HW129738   0.519   0.397   6.231 -0.3350 -0.2498 -2.3624
 6092SOL    HW229739   0.394   0.410   6.168 -2.6449 -1.9854  0.4811
 6093SOL     OW29740   1.541   2.872  14.981 -0.1113  0.4522  0.2535
 6093SOL    HW129741   1.554   2.777  14.977  2.0181  0.7295  0.4793
 6093SOL    HW229742   1.493   2.884  15.063 -1.6789 -0.4470 -0.5335
 6094SOL     OW29743   1.535   0.182  14.450 -0.0614  0.7863  0.5125
 6094SOL    HW129744   1.444   0.205  14.467 -0.6841 -1.8477  0.7309
 6094SOL    HW229745   1.568   0.271  14.440 -0.1305  0.9748  1.8881
 6095SOL     OW29746   1.724   3.176   7.011  0.4766 -0.3400 -0.6280
 6095SOL    HW129747   1.688   3.174   7.100 -0.7188  0.9315 -1.0934
 6095SOL    HW229748   1.645   3.190   6.959  0.5499  1.8016 -0.1579
 6096SOL     OW29749   2.504   0.502   7.534 -0.2362 -0.1385 -0.6477
 6096SOL    HW129750   2.432   0.551   7.494 -0.5734 -0.0709  0.0477
 6096SOL    HW229751   2.546   0.581   7.567  0.9282 -0.5015 -1.2822
 6097SOL     OW29752   1.441   2.966   7.207  0.0026 -0.1041  0.1429
 6097SOL    HW129753   1.412   2.948   7.117  1.6617 -0.0099 -0.4106
 6097SOL    HW229754   1.484   2.889   7.242  0.9975  0.0644 -0.7063
 6098SOL     OW29755   1.926   4.150   2.367 -0.5493  0.3086  0.0348
 6098SOL    HW129756   1.884   4.199   2.438 -0.4362  0.8857 -0.2952
 6098SOL    HW229757   1.854   4.136   2.307 -2.5185  0.5225  2.3301
 6099SOL     OW29758   3.495   3.402  10.755 -0.5706 -0.5563 -0.2276
 6099SOL    HW129759   3.527   3.492  10.761 -0.3044 -0.7957  1.8912
 6099SOL    HW229760   3.571   3.350  10.732  0.5157  0.9431 -0.0272
 6100SOL     OW29761   4.495   2.266   6.519 -0.0907  0.6224  0.3024
 6100SOL    HW129762   4.414   2.317   6.513 -0.7621 -0.5962 -0.7253
 6100SOL    HW229763   4.531   2.267   6.431 -0.8151 -1.2040 -0.0096
 6101SOL     OW29764   2.360   2.702   0.138 -0.1846  0.2203 -0.4616
 6101SOL    HW129765   2.405   2.742   0.213  3.4154 -1.3711 -1.7464
 6101SOL    HW229766   2.305   2.770   0.101 -2.5487 -0.8953  1.0103
 6102SOL     OW29767   4.605   0.109   2.096 -0.5983 -0.2256  0.3625
 6102SOL    HW129768   4.634   0.061   2.174 -0.8205 -1.4574 -0.3082
 6102SOL    HW229769   4.524   0.156   2.115 -0.4974 -0.2309  0.8178
 6103SOL     OW29770   4.510   0.132   7.461 -0.1714 -0.1628  0.0259
 6103SOL    HW129771   4.501   0.220   7.425 -2.7284 -1.8406 -3.4387
 6103SOL    HW229772   4.470   0.137   7.548  0.0619  4.3591 -0.1333
 6104SOL     OW29773   2.689   4.235   4.040 -0.0469 -0.9030 -0.1964
 6104SOL    HW129774   2.654   4.243   4.129  1.1067  1.4506  0.0484
 6104SOL    HW229775   2.655   4.153   4.005 -3.7147  0.3560  0.3697
 6105SOL     OW29776   3.454   4.672   8.421  0.6111  0.5067 -1.1041
 6105SOL    HW129777   3.533   4.619   8.417  0.2407 -0.1060 -0.3695
 6105SOL    HW229778   3.399   4.622   8.481  1.0040  2.3914  0.8360
 6106SOL     OW29779   1.086   0.948  12.534 -0.6219  0.2938  0.1315
 6106SOL    HW129780   1.028   0.942  12.610 -0.2438 -3.3036  0.1406
 6106SOL    HW229781   1.168   0.955  12.583 -0.7577  0.3477  0.3556
 6107SOL     OW29782   1.646   2.140   9.170  0.2708 -0.1878  0.1612
 6107SOL    HW129783   1.654   2.052   9.206  1.8363 -0.0103  0.2608
 6107SOL    HW229784   1.664   2.121   9.078 -0.0635 -1.3446  0.3447
 6108SOL     OW29785   3.728   3.127   7.356  0.0954  0.7104  0.1678
 6108SOL    HW129786   3.773   3.051   7.393 -0.4263  0.5308  0.4440
 6108SOL    HW229787   3.716   3.177   7.436 -0.1933  0.7407  0.1066
 6109SOL     OW29788   4.717   0.808  12.093 -0.2981  0.4553 -0.2704
 6109SOL    HW129789   0.081   0.791  12.127 -0.1910 -1.7849 -1.6288
 6109SOL    HW229790   0.006   0.758  12.012 -0.5659  0.7085 -0.4667
 6110SOL     OW29791   3.486   0.857  15.866 -0.1507 -0.7069  0.0778
 6110SOL    HW129792   3.524   0.887  15.948 -0.3020 -2.0795  0.6596
 6110SOL    HW229793   3.521   0.919  15.802  1.6789 -1.0131  0.7700
 6111SOL     OW29794   2.869   1.495  10.530  0.5371  0.0877  0.2173
 6111SOL    HW129795   2.798   1.438  10.502  1.7799  0.2538 -3.2543
 6111SOL    HW229796   2.932   1.430  10.563  1.6970  0.5913 -1.0155
 6112SOL     OW29797   2.114   3.736  10.504 -0.1560  0.1365  0.3139
 6112SOL    HW129798   2.155   3.762  10.586  1.0814 -1.5032  0.2136
 6112SOL    HW229799   2.140   3.644  10.502 -2.0999 -0.4515  1.6468
 6113SOL     OW29800   2.881   4.271   2.109 -0.1218 -0.3680  0.0374
 6113SOL    HW129801   2.937   4.267   2.186  1.0859  1.6304 -0.7293
 6113SOL    HW229802   2.942   4.289   2.037 -1.6708 -1.3604 -1.5485
 6114SOL     OW29803   4.226   4.417  10.239 -0.1398 -0.3086  0.1363
 6114SOL    HW129804   4.204   4.479  10.169  1.1611 -0.8547 -0.7517
 6114SOL    HW229805   4.304   4.463  10.268  0.6514 -1.7584  0.2921
 6115SOL     OW29806   2.268   1.119   3.018 -0.2536  0.4165  0.2010
 6115SOL    HW129807   2.241   1.124   3.110 -0.4961  2.7172  0.0199
 6115SOL    HW229808   2.311   1.203   3.001 -1.9401  1.6135  1.8287
 6116SOL     OW29809   4.348   2.509   7.113  0.2978  0.1785  0.0741
 6116SOL    HW129810   4.335   2.563   7.191  0.0064 -2.7746  2.0731
 6116SOL    HW229811   4.442   2.489   7.118  0.1358 -0.8702 -1.0356
 6117SOL     OW29812   0.944   2.473   0.023 -0.0037  0.1994  0.3685
 6117SOL    HW129813   0.960   2.435   0.109 -0.5491 -0.6760  0.0867
 6117SOL    HW229814   0.848   2.479   0.026 -0.0519 -0.3336  0.0380
 6118SOL     OW29815   0.430   3.934  14.184  0.1919  0.2458 -0.2581
 6118SOL    HW129816   0.424   4.029  14.195 -0.4969  0.0055  1.4034
 6118SOL    HW229817   0.371   3.920  14.110 -0.0010  2.3609 -0.5022
 6119SOL     OW29818   4.066   1.861   5.885  0.3415  0.5662 -0.6128
 6119SOL    HW129819   4.073   1.835   5.977 -0.6846  2.5354  0.0132
 6119SOL    HW229820   4.050   1.774   5.848  2.8501 -0.0812 -0.2028
 6120SOL     OW29821   2.056   1.280   3.910  0.2132 -0.0187 -0.4317
 6120SOL    HW129822   2.058   1.264   3.816 -2.4061 -0.6592 -0.3762
 6120SOL    HW229823   2.119   1.350   3.924  0.9118 -0.9325  1.0146
 6121SOL     OW29824   0.221   2.536   2.238  0.0900  0.5999  1.0805
 6121SOL    HW129825   0.307   2.521   2.276 -0.9771 -3.8791  1.8154
 6121SOL    HW229826   0.184   2.453   2.268 -1.5596  0.9570  0.0228
 6122SOL     OW29827   4.337   3.474   7.594  0.1322  0.1931  0.2021
 6122SOL    HW129828   4.274   3.546   7.604  1.8019  1.4824  1.4102
 6122SOL    HW229829   4.298   3.401   7.642  0.5300 -2.2326 -3.1709
 6123SOL     OW29830   1.242   2.461  13.697 -0.1497 -1.0687  0.1847
 6123SOL    HW129831   1.228   2.380  13.649 -1.3194 -0.2008 -0.9230
 6123SOL    HW229832   1.151   2.489  13.706  0.2391  0.4530 -0.6672
 6124SOL     OW29833   2.591   0.752  17.678 -0.4469  0.1546  0.1400
 6124SOL    HW129834   2.602   0.657  17.679  1.2485  0.3347 -0.0395
 6124SOL    HW229835   2.653   0.777   0.049  0.3304 -0.3687 -0.3684
 6125SOL     OW29836   3.874   4.591   1.201  0.3926 -0.2319 -0.0615
 6125SOL    HW129837   3.850   4.503   1.173  2.0952 -0.7249  0.0439
 6125SOL    HW229838   3.834   4.600   1.288  0.9716  0.9520  0.0922
 6126SOL     OW29839   4.626   2.141   9.297 -0.1784  0.0596 -0.1086
 6126SOL    HW129840   4.589   2.158   9.383 -2.8532  0.4786 -1.3462
 6126SOL    HW229841   4.694   2.208   9.298  0.0209 -0.1468  0.1237
 6127SOL     OW29842   1.664   0.757  15.177 -0.1871  0.3717 -0.3756
 6127SOL    HW129843   1.726   0.790  15.242  1.4142 -0.4015 -1.4994
 6127SOL    HW229844   1.581   0.776  15.221  0.4634 -0.5769  1.2583
 6128SOL     OW29845   3.220   1.722   9.540 -0.7064 -0.3441 -0.1015
 6128SOL    HW129846   3.277   1.799   9.529  0.4877 -1.4747 -1.8647
 6128SOL    HW229847   3.142   1.763   9.577  1.4876  2.3598  1.5188
 6129SOL     OW29848   3.154   4.637  16.006  0.1723 -0.3603 -0.2773
 6129SOL    HW129849   3.075   4.618  15.955  0.6161  0.4333 -1.2557
 6129SOL    HW229850   3.214   4.584  15.952  2.5326  1.4688  0.5693
 6130SOL     OW29851   3.815   4.101   0.503 -0.0520 -0.8818 -0.5450
 6130SOL    HW129852   3.813   4.119   0.597 -1.4996 -1.5624 -0.4414
 6130SOL    HW229853   3.765   4.171   0.461 -1.2567 -1.3273  0.1393
 6131SOL     OW29854   4.038   0.481   2.975 -0.5668 -0.4268 -0.5310
 6131SOL    HW129855   3.989   0.495   2.894 -0.3174  3.1815 -0.0584
 6131SOL    HW229856   3.970   0.493   3.041 -1.3460  0.5886 -1.5236
 6132SOL     OW29857   3.796   2.889   6.488 -0.1710 -0.0078 -0.4414
 6132SOL    HW129858   3.778   2.972   6.444 -0.5618  0.0342 -0.2000
 6132SOL    HW229859   3.882   2.917   6.521  0.5733  0.5131 -2.8574
 6133SOL     OW29860   4.036   1.700  14.950 -0.5727  0.0221  0.1668
 6133SOL    HW129861   3.952   1.745  14.958  0.4788  1.3599  3.4520
 6133SOL    HW229862   4.094   1.773  14.973 -0.7629 -0.6169  2.6375
 6134SOL     OW29863   4.070   3.324   9.595 -0.1503 -0.1224  0.1732
 6134SOL    HW129864   4.107   3.242   9.563 -0.3009 -0.3056  0.4668
 6134SOL    HW229865   4.152   3.348   9.640 -0.7470  1.9205  0.1733
 6135SOL     OW29866   3.651   0.268   5.776  0.5954  0.3251  0.6004
 6135SOL    HW129867   3.664   0.313   5.859 -0.0449  1.4234  0.1069
 6135SOL    HW229868   3.566   0.304   5.750  1.0160 -0.1888 -1.5255
 6136SOL     OW29869   4.401   0.766  12.157  0.4396  0.2889  0.8037
 6136SOL    HW129870   4.492   0.791  12.141  0.4810 -1.6262 -2.0335
 6136SOL    HW229871   4.373   0.778  12.066  3.6105 -1.9665 -0.4970
 6137SOL     OW29872   3.793   1.907   6.671 -0.7372  0.0508 -0.2558
 6137SOL    HW129873   3.764   1.961   6.745  0.1167  0.9474 -0.5670
 6137SOL    HW229874   3.718   1.848   6.668 -0.4326 -0.2603 -2.1967
 6138SOL     OW29875   2.215   3.029   9.016  0.1274  0.3365 -0.3294
 6138SOL    HW129876   2.255   2.998   9.097 -0.3213  0.6329  0.0083
 6138SOL    HW229877   2.299   3.044   8.973  0.1328  0.6325 -0.2193
 6139SOL     OW29878   0.335   4.015   2.287  0.0466  0.5408  0.4512
 6139SOL    HW129879   0.251   3.974   2.263  1.4824 -1.6712 -0.7423
 6139SOL    HW229880   0.312   4.108   2.291  0.0773  0.5350  0.8442
 6140SOL     OW29881   3.329   3.192   2.782  0.0796 -0.2250 -0.3762
 6140SOL    HW129882   3.289   3.154   2.703 -0.0440 -1.6385  0.3637
 6140SOL    HW229883   3.389   3.250   2.735 -1.3381  2.1856  0.8013
 6141SOL     OW29884   2.777   0.947  14.481  0.3590  0.1161 -0.1454
 6141SOL    HW129885   2.792   0.874  14.540  1.5580 -0.4707 -1.1777
 6141SOL    HW229886   2.697   0.986  14.517 -0.7244 -2.0099 -0.2605
 6142SOL     OW29887   1.886   0.814   4.639 -0.4120 -0.0168 -0.1311
 6142SOL    HW129888   1.936   0.794   4.560 -1.3456  1.6949 -1.1508
 6142SOL    HW229889   1.913   0.748   4.703 -1.1624 -0.3608 -0.1771
 6143SOL     OW29890   2.482   4.573   2.191  0.6350 -0.4292 -0.4947
 6143SOL    HW129891   2.573   4.570   2.219  0.1275 -0.0136  1.1536
 6143SOL    HW229892   2.481   4.637   2.120  0.3559  0.1879  0.0713
 6144SOL     OW29893   0.087   2.496  10.987  0.1318  0.3091 -0.1287
 6144SOL    HW129894   0.000   2.461  11.009 -0.1802  1.4907  0.5505
 6144SOL    HW229895   0.124   2.513  11.074 -0.0216  0.1516 -0.0318
 6145SOL     OW29896   3.955   2.193   6.601  0.4271  0.1651  0.0780
 6145SOL    HW129897   3.894   2.266   6.612  2.8869  1.8696  2.6403
 6145SOL    HW229898   3.998   2.173   6.684  0.0675 -1.8839 -0.2376
 6146SOL     OW29899   4.579   2.896   2.124 -0.1202  0.6250  0.1647
 6146SOL    HW129900   4.544   2.850   2.200 -0.7467  2.2702  0.8757
 6146SOL    HW229901   4.672   2.905   2.146  0.0100  1.6640 -0.7849
 6147SOL     OW29902   2.739   1.385  10.161 -0.5444  0.3743  0.1708
 6147SOL    HW129903   2.661   1.409  10.210 -1.6159  1.1978 -1.9553
 6147SOL    HW229904   2.738   1.441  10.084  1.5473  3.0663  2.0883
 6148SOL     OW29905   2.389   3.624   5.849 -0.1682  0.5019  0.5167
 6148SOL    HW129906   2.446   3.547   5.848  0.0366  0.6438  1.1376
 6148SOL    HW229907   2.427   3.680   5.781 -0.7221  1.9491  1.3984
 6149SOL     OW29908   0.702   1.092   8.325  0.2551 -0.0338  0.1231
 6149SOL    HW129909   0.758   1.088   8.248  0.2027 -1.1043  0.1411
 6149SOL    HW229910   0.740   1.025   8.381 -2.1002  1.4496  3.5101
 6150SOL     OW29911   2.040   3.791  13.156 -0.0046 -0.5365  0.3738
 6150SOL    HW129912   2.135   3.782  13.162  0.0337 -1.1017 -1.1128
 6150SOL    HW229913   1.995   3.709  13.177  1.0809 -1.8611 -2.5272
 6151SOL     OW29914   0.682   2.448   9.353 -0.0383  0.1163  0.5901
 6151SOL    HW129915   0.647   2.532   9.382  0.5946  0.9191 -0.9797
 6151SOL    HW229916   0.653   2.457   9.262 -1.5781  0.6496  1.1350
 6152SOL     OW29917   0.545   2.474   6.052 -0.2364  0.3017  0.3117
 6152SOL    HW129918   0.590   2.498   6.133 -0.9347 -1.9706  1.3745
 6152SOL    HW229919   0.471   2.417   6.074 -0.4766  0.6780  0.4888
 6153SOL     OW29920   4.452   4.601  17.160 -0.1767  0.9652 -0.3343
 6153SOL    HW129921   4.372   4.612  17.108  0.2425  1.1271 -0.9377
 6153SOL    HW229922   4.410   4.610  17.246 -0.8854  0.3182 -0.6138
 6154SOL     OW29923   1.580   0.067   7.843  0.1840 -0.0722  0.3883
 6154SOL    HW129924   1.530   0.072   7.924 -2.3566 -1.9259 -1.0646
 6154SOL    HW229925   1.560   0.153   7.805 -0.5729  0.2870  1.6126
 6155SOL     OW29926   3.741   0.820   1.632  0.0635  0.3829  0.1552
 6155SOL    HW129927   3.693   0.902   1.626 -0.9901 -0.4409 -2.4906
 6155SOL    HW229928   3.659   0.771   1.636  0.7851 -0.8676 -0.5070
 6156SOL     OW29929   3.965   0.928   1.532 -0.5168  0.7538  0.2832
 6156SOL    HW129930   3.951   0.968   1.446  1.5370  0.9339  0.0309
 6156SOL    HW229931   3.877   0.891   1.541 -0.1586 -0.2687 -0.3577
 6157SOL     OW29932   3.781   3.185  13.608  0.0688  0.0166  0.1465
 6157SOL    HW129933   3.862   3.185  13.556 -1.0251 -1.9070 -1.5447
 6157SOL    HW229934   3.737   3.252  13.556 -0.1389  1.3873  2.0670
 6158SOL     OW29935   3.210   3.123  12.755  0.0508  0.3763  0.7400
 6158SOL    HW129936   3.222   3.073  12.836 -0.2569  0.8880  1.1054
 6158SOL    HW229937   3.211   3.213  12.788 -0.1495  0.6747 -0.0742
 6159SOL     OW29938   2.244   0.067  13.990  0.4449  0.8533  0.3780
 6159SOL    HW129939   2.260   0.010  13.916  0.5050  1.9403 -0.4529
 6159SOL    HW229940   2.210   0.148  13.951  0.6427  0.3900 -0.7509
 6160SOL     OW29941   2.959   3.637  16.881  0.2280  0.3563  0.4798
 6160SOL    HW129942   2.870   3.663  16.902 -0.2858 -0.5745 -0.5724
 6160SOL    HW229943   2.946   3.580  16.806 -1.6862  0.9975  0.3302
 6161SOL     OW29944   2.714   2.929   5.134 -0.0253  0.0330  0.0327
 6161SOL    HW129945   2.809   2.941   5.145  0.1027  0.0925 -1.1508
 6161SOL    HW229946   2.705   2.966   5.047  1.1373 -0.8588 -0.4591
 6162SOL     OW29947   3.325   0.730   8.353 -0.0274 -0.2041 -0.3724
 6162SOL    HW129948   3.253   0.793   8.360 -0.5200 -1.1166  2.4633
 6162SOL    HW229949   3.301   0.681   8.274  0.5718 -0.1397 -0.5999
 6163SOL     OW29950   0.254   1.226  15.477  0.4288 -0.2305  0.5466
 6163SOL    HW129951   0.198   1.223  15.400  2.6778 -0.7209 -1.1009
 6163SOL    HW229952   0.322   1.282  15.441  0.4086 -0.7121 -0.2403
 6164SOL     OW29953   2.885   2.837   2.153  0.8118  0.3838 -0.1448
 6164SOL    HW129954   2.794   2.819   2.129  1.6999 -2.3637 -1.4410
 6164SOL    HW229955   2.905   2.745   2.170 -0.9017 -0.2874 -1.7492
 6165SOL     OW29956   4.440   1.138   6.599 -0.1157 -0.4473 -0.6267
 6165SOL    HW129957   4.459   1.045   6.582 -1.9913 -1.4761  2.9645
 6165SOL    HW229958   4.361   1.146   6.546 -0.9633 -0.2459  0.6759
 6166SOL     OW29959   2.139   1.567   4.187 -0.7081 -0.1684 -0.2895
 6166SOL    HW129960   2.128   1.662   4.194 -2.2160 -0.1062 -3.4170
 6166SOL    HW229961   2.169   1.552   4.276 -0.6678  0.5514 -0.1815
 6167SOL     OW29962   1.514   2.800   5.888  0.1371  0.0072 -0.3061
 6167SOL    HW129963   1.584   2.814   5.825  0.7622 -0.3822  0.3018
 6167SOL    HW229964   1.560   2.746   5.953  2.1226  1.2619 -0.6736
 6168SOL     OW29965   2.943   3.940   8.549  0.1042 -0.0237  0.5909
 6168SOL    HW129966   3.012   3.990   8.504 -0.1244  1.3041  1.7046
 6168SOL    HW229967   2.890   3.910   8.476 -0.0296  0.1926  0.5975
 6169SOL     OW29968   3.938   1.431   4.547 -0.0905  0.4561  0.6497
 6169SOL    HW129969   3.911   1.475   4.466 -2.0547 -0.9105  0.5627
 6169SOL    HW229970   4.033   1.422   4.539 -0.1403  0.7463 -0.2775
 6170SOL     OW29971   1.127   0.012  16.809  0.2443  0.3239 -0.1552
 6170SOL    HW129972   1.121   4.653  16.858  0.9889  1.2170  1.4470
 6170SOL    HW229973   1.121   0.079  16.877 -0.9791 -1.3944  1.4698
 6171SOL     OW29974   4.269   3.386   7.219 -0.0745  0.3776 -0.3044
 6171SOL    HW129975   4.361   3.366   7.240 -0.6066 -1.6187  0.1090
 6171SOL    HW229976   4.234   3.391   7.307  0.3696 -1.2284 -0.0371
 6172SOL     OW29977   4.454   1.938   5.755  0.3448 -0.2265  0.3402
 6172SOL    HW129978   4.373   1.944   5.704  1.3464  0.3606 -1.1874
 6172SOL    HW229979   4.449   2.018   5.807 -1.6892 -2.0276  2.9397
 6173SOL     OW29980   0.382   3.137   5.918  0.1880 -0.5048  0.2469
 6173SOL    HW129981   0.471   3.101   5.918 -0.2969 -1.7189  0.6012
 6173SOL    HW229982   0.357   3.146   6.009  1.1412  0.7370  0.3755
 6174SOL     OW29983   0.779   0.302  15.037  0.0961  0.4135 -0.5194
 6174SOL    HW129984   0.727   0.240  14.986 -1.1559 -1.3058  2.8558
 6174SOL    HW229985   0.715   0.370  15.060  0.1634  0.7641 -1.3776
 6175SOL     OW29986   1.263   2.464   3.675 -0.3485  0.1681  0.1679
 6175SOL    HW129987   1.320   2.509   3.737 -0.5873  0.3120  0.2850
 6175SOL    HW229988   1.232   2.538   3.624 -1.1870 -0.3965 -0.1391
 6176SOL     OW29989   0.945   0.112   6.239 -0.4881 -0.6684  0.4306
 6176SOL    HW129990   0.868   0.058   6.221  0.3446 -1.5127 -0.6049
 6176SOL    HW229991   0.996   0.048   6.288 -2.4558 -1.4643  1.4576
 6177SOL     OW29992   0.824   2.836   6.762  0.0826 -0.6299  0.2865
 6177SOL    HW129993   0.843   2.895   6.835  0.6579 -1.9831  1.2416
 6177SOL    HW229994   0.810   2.747   6.796  2.8863 -0.8147  0.9343
 6178SOL     OW29995   3.429   3.002  13.512  0.0243 -0.0040  0.0036
 6178SOL    HW129996   3.383   2.949  13.576  1.2422 -0.0650  0.8395
 6178SOL    HW229997   3.402   3.089  13.542 -2.4877  0.3328 -3.2580
 6179SOL     OW29998   3.705   0.379  14.813  0.8676  0.0460  0.0781
 6179SOL    HW129999   3.765   0.373  14.739  0.6727 -1.7291  0.0698
 6179SOL    HW230000   3.724   0.468  14.844  0.4593  0.0833  0.2189
 6180SOL     OW30001   0.237   0.503   3.584 -0.4562 -0.0123  0.9138
 6180SOL    HW130002   0.168   0.543   3.531  0.2654 -0.5075 -0.4054
 6180SOL    HW230003   0.184   0.468   3.655 -1.8924 -2.1562 -1.2243
 6181SOL     OW30004   4.554   2.358  11.041 -0.2584 -0.0836 -0.2595
 6181SOL    HW130005   4.522   2.440  11.078 -0.2011  0.2498 -0.9414
 6181SOL    HW230006   4.608   2.330  11.115 -0.7320  0.5147  0.3114
 6182SOL     OW30007   3.294   0.757  16.015  0.9983 -0.2184  0.1477
 6182SOL    HW130008   3.208   0.755  15.973  0.9831 -0.4836  0.1923
 6182SOL    HW230009   3.352   0.772  15.940 -0.5015  1.0860 -0.7613
 6183SOL     OW30010   4.518   3.632   5.466  0.2331  0.8617 -0.5776
 6183SOL    HW130011   4.611   3.618   5.447  0.3217 -1.1131  1.2445
 6183SOL    HW230012   4.485   3.542   5.464  0.4655  0.7565  0.3528
 6184SOL     OW30013   4.220   2.988   1.257  0.0579 -0.5900 -0.0429
 6184SOL    HW130014   4.181   3.012   1.342  0.0180 -1.0402  0.0627
 6184SOL    HW230015   4.219   2.893   1.266 -1.6090 -0.4857  1.0186
 6185SOL     OW30016   3.153   0.478   8.405 -0.3698 -0.1805 -0.1279
 6185SOL    HW130017   3.194   0.393   8.390 -0.2134 -0.0989 -0.1619
 6185SOL    HW230018   3.169   0.527   8.324 -2.5931 -0.6642 -0.8417
 6186SOL     OW30019   3.628   4.632  13.445 -0.2662 -0.1681 -0.8514
 6186SOL    HW130020   3.660   4.722  13.432  0.2177 -0.1326  0.6150
 6186SOL    HW230021   3.560   4.642  13.511 -1.0425 -1.4292 -1.4669
 6187SOL     OW30022   4.190   2.210   8.860 -0.1688  0.0875  0.1204
 6187SOL    HW130023   4.201   2.238   8.951 -1.1205 -1.8384  0.8202
 6187SOL    HW230024   4.227   2.122   8.867 -0.7169 -0.3239 -2.4351
 6188SOL     OW30025   0.268   0.601  11.870  0.4123 -0.4611 -0.3361
 6188SOL    HW130026   0.220   0.653  11.934  1.3583  0.1137 -0.0849
 6188SOL    HW230027   0.361   0.613  11.892 -0.5082  1.3097  2.5047
 6189SOL     OW30028   1.472   2.084   3.663 -0.0504 -0.1567  0.1515
 6189SOL    HW130029   1.421   2.048   3.590 -2.1802 -0.9997  2.0494
 6189SOL    HW230030   1.520   2.152   3.617 -1.2451 -1.4690 -3.0759
 6190SOL     OW30031   0.544   3.314   4.997 -0.4934 -0.2366 -0.6423
 6190SOL    HW130032   0.517   3.278   5.081  2.8995  0.2702  0.6978
 6190SOL    HW230033   0.540   3.243   4.933  0.1745 -1.8737  1.1210
 6191SOL     OW30034   2.921   3.753  11.245 -0.0808 -0.6175 -0.5101
 6191SOL    HW130035   2.845   3.811  11.245  0.9156  0.6974 -1.5617
 6191SOL    HW230036   2.918   3.721  11.335 -1.6615  1.0820  0.0147
 6192SOL     OW30037   3.899   1.795   9.218 -0.0044  0.0598 -0.2198
 6192SOL    HW130038   3.813   1.754   9.212 -0.3173  0.5490  1.0185
 6192SOL    HW230039   3.875   1.885   9.238 -1.9229 -0.4987 -0.0471
 6193SOL     OW30040   1.248   3.534   5.163 -0.2398  0.1417 -0.6071
 6193SOL    HW130041   1.231   3.470   5.232  1.7400 -0.7633 -0.9513
 6193SOL    HW230042   1.237   3.481   5.084  0.1567  0.4904 -0.8921
 6194SOL     OW30043   0.702   2.942   8.258 -0.1736  0.5811 -0.0467
 6194SOL    HW130044   0.791   2.913   8.238  0.1459  2.2017 -0.9648
 6194SOL    HW230045   0.663   2.863   8.296  1.3512  0.8993  2.1307
 6195SOL     OW30046   4.098   3.747   1.126 -0.1564  0.1391  0.7159
 6195SOL    HW130047   4.096   3.656   1.157 -1.0035  0.2109  0.8575
 6195SOL    HW230048   4.182   3.777   1.162  0.8738  0.2726 -1.8026
 6196SOL     OW30049   2.869   4.360   4.974  0.2109  0.0844 -0.1129
 6196SOL    HW130050   2.928   4.383   4.902 -2.0528  2.7465 -1.1299
 6196SOL    HW230051   2.845   4.444   5.014 -3.0710 -1.0924  0.3564
 6197SOL     OW30052   4.669   2.653   2.524  0.0962  0.2537  0.0025
 6197SOL    HW130053   4.651   2.566   2.560  1.7541  0.5772  1.6031
 6197SOL    HW230054   0.039   2.662   2.506  0.0893 -0.3094 -0.3271
 6198SOL     OW30055   3.507   2.560   0.536 -0.0561 -0.2983  0.7407
 6198SOL    HW130056   3.476   2.649   0.549  1.9436  0.5204 -0.0999
 6198SOL    HW230057   3.484   2.558   0.444 -2.5489 -2.0617  1.4035
 6199SOL     OW30058   1.741   0.550  10.904  0.0725 -0.6272 -0.4348
 6199SOL    HW130059   1.712   0.567  10.815 -3.0037 -1.4579  0.4156
 6199SOL    HW230060   1.658   0.554  10.952  0.2046  2.0514 -0.4351
 6200SOL     OW30061   1.654   0.703   1.033  0.8668 -0.4784  0.6804
 6200SOL    HW130062   1.728   0.690   0.974  1.5836 -0.6947  1.6268
 6200SOL    HW230063   1.704   0.718   1.113  0.0798  1.9290  0.6958
 6201SOL     OW30064   2.181   0.913   7.494 -0.0436 -0.3522  0.0273
 6201SOL    HW130065   2.211   1.003   7.508  0.2558 -0.5307  0.5400
 6201SOL    HW230066   2.175   0.907   7.399 -0.9517 -0.5801  0.0989
 6202SOL     OW30067   0.475   0.365   2.441 -0.1482  0.1525  0.3410
 6202SOL    HW130068   0.386   0.394   2.457  0.1591  1.1686  0.1580
 6202SOL    HW230069   0.517   0.396   2.522  0.8747  0.1021 -0.1648
 6203SOL     OW30070   1.251   0.675  16.059 -0.3090 -0.1777 -0.2584
 6203SOL    HW130071   1.322   0.697  16.120 -1.4355  1.8339  0.3337
 6203SOL    HW230072   1.272   0.582  16.057 -0.0707 -0.1398  0.5585
 6204SOL     OW30073   2.275   4.307   8.515  0.6140 -0.2111  0.3497
 6204SOL    HW130074   2.315   4.234   8.468  0.9074  1.1516 -1.4870
 6204SOL    HW230075   2.230   4.363   8.452  1.4415  0.0585 -0.0050
 6205SOL     OW30076   2.594   2.366   7.056 -0.3886  0.1061  0.0986
 6205SOL    HW130077   2.663   2.430   7.036  0.1093 -0.5389 -0.2206
 6205SOL    HW230078   2.569   2.394   7.144 -0.0391 -3.1276  1.2105
 6206SOL     OW30079   0.444   2.552   4.548 -0.2955 -0.0579 -0.5120
 6206SOL    HW130080   0.462   2.644   4.563  2.1968 -0.5488 -0.5778
 6206SOL    HW230081   0.431   2.553   4.453  0.0785 -0.5459 -0.5666
 6207SOL     OW30082   1.007   3.944  16.884  0.2348  0.3277  0.8312
 6207SOL    HW130083   0.920   3.940  16.844 -0.2709 -1.2780  2.1107
 6207SOL    HW230084   0.986   3.970  16.974 -0.3159  2.3452  0.1372
 6208SOL     OW30085   3.092   1.778   2.018  0.3254 -0.7182  0.2986
 6208SOL    HW130086   3.170   1.828   1.992 -1.3678  1.0788 -1.2939
 6208SOL    HW230087   3.032   1.852   2.013  1.2021 -0.1943 -2.2542
 6209SOL     OW30088   2.487   3.646   5.559  0.0073  0.1605 -0.1128
 6209SOL    HW130089   2.537   3.597   5.493 -1.2855 -0.9345 -0.2848
 6209SOL    HW230090   2.528   3.732   5.553  2.4557 -0.9698  0.5371
 6210SOL     OW30091   3.961   2.415  16.360 -0.1249 -0.1966 -0.5047
 6210SOL    HW130092   3.929   2.501  16.389  0.4145  0.2771 -1.2803
 6210SOL    HW230093   3.874   2.385  16.335 -0.2880  0.1661 -0.3827
 6211SOL     OW30094   2.787   3.263   3.157  0.3113 -0.2794  0.1618
 6211SOL    HW130095   2.841   3.278   3.234  0.3696  0.7599 -0.0811
 6211SOL    HW230096   2.723   3.199   3.189 -1.7746  2.3183  1.2097
 6212SOL     OW30097   0.194   1.820   9.048 -0.4749 -0.2069  0.3074
 6212SOL    HW130098   0.195   1.728   9.021 -1.4864 -0.9104  2.6017
 6212SOL    HW230099   0.118   1.818   9.108 -1.0473 -0.5367 -0.4262
 6213SOL     OW30100   1.721   0.115   0.391 -0.5423 -0.0499  0.2768
 6213SOL    HW130101   1.815   0.106   0.373 -0.3589 -1.4993  1.8742
 6213SOL    HW230102   1.681   0.155   0.315  1.1696 -0.5279 -0.8755
 6214SOL     OW30103   3.404   4.107   3.365 -0.3701  0.2722  0.3295
 6214SOL    HW130104   3.476   4.152   3.409  0.4188 -0.3382 -0.3471
 6214SOL    HW230105   3.360   4.071   3.443 -1.4585  1.4672  0.2743
 6215SOL     OW30106   0.983   1.270  12.152 -0.3203 -0.2932 -0.1877
 6215SOL    HW130107   1.001   1.176  12.156 -0.4560 -0.3331 -0.5988
 6215SOL    HW230108   1.014   1.294  12.239 -0.0799  0.4296 -0.4785
 6216SOL     OW30109   0.992   2.695  15.288  0.0745  0.4697  0.2918
 6216SOL    HW130110   0.952   2.634  15.350  1.6767 -0.8879 -0.0304
 6216SOL    HW230111   0.972   2.655  15.204 -2.1634 -2.5612  2.2818
 6217SOL     OW30112   3.364   2.010   6.679 -0.2318 -1.0398 -0.1908
 6217SOL    HW130113   3.330   2.055   6.601  1.0737 -2.5080 -1.5901
 6217SOL    HW230114   3.421   2.080   6.711  0.6944 -1.8494 -0.0695
 6218SOL     OW30115   3.306   2.494  14.259  0.6823  0.4876  0.6044
 6218SOL    HW130116   3.267   2.541  14.333  1.2843  2.9547 -0.6455
 6218SOL    HW230117   3.400   2.503  14.275  0.8198 -0.3081  0.2069
 6219SOL     OW30118   1.787   2.709   2.988  0.6323  0.0186 -0.2992
 6219SOL    HW130119   1.866   2.698   3.042 -0.2600 -0.1295  0.9844
 6219SOL    HW230120   1.812   2.783   2.933  1.4978  0.5944  0.8583
 6220SOL     OW30121   3.052   4.489   9.940  0.0464 -0.2648  0.5603
 6220SOL    HW130122   2.966   4.492   9.983 -0.6931 -0.7708 -0.9087
 6220SOL    HW230123   3.054   4.573   9.895 -1.3560  0.7917  2.4487
 6221SOL     OW30124   2.478   2.066   5.994 -0.0011 -0.0387  0.3017
 6221SOL    HW130125   2.413   2.131   6.021  1.5055  1.4732  0.2885
 6221SOL    HW230126   2.435   1.996   5.946 -2.3654  0.2201  2.0340
 6222SOL     OW30127   4.252   0.943  11.080  0.2292 -0.0608  0.1146
 6222SOL    HW130128   4.230   0.865  11.130  1.1445 -0.7666 -0.5864
 6222SOL    HW230129   4.287   0.991  11.154  1.4120 -0.2718 -0.3083
 6223SOL     OW30130   4.179   2.284   6.478 -0.4830 -0.2106  0.9619
 6223SOL    HW130131   4.092   2.255   6.506 -0.6210 -0.4295  0.2945
 6223SOL    HW230132   4.202   2.306   6.568 -2.4009 -1.9170  1.8774
 6224SOL     OW30133   3.288   0.370   5.940  0.5186  0.0630  0.7733
 6224SOL    HW130134   3.245   0.434   5.884  0.4895  0.0028  0.7261
 6224SOL    HW230135   3.363   0.422   5.968  0.9191 -0.4027  0.5779
 6225SOL     OW30136   2.960   4.387  16.467 -0.3539 -0.0116  0.0504
 6225SOL    HW130137   2.880   4.438  16.478 -0.9538 -1.1650  1.0490
 6225SOL    HW230138   3.022   4.438  16.519 -0.0981 -1.1267  0.8414
 6226SOL     OW30139   4.680   1.026   5.727  0.6601  0.6093 -0.2121
 6226SOL    HW130140   4.675   0.953   5.666  1.7722 -0.4385  0.9509
 6226SOL    HW230141   0.000   0.986   5.802  0.3145 -1.1946 -0.9880
 6227SOL     OW30142   2.679   1.442   2.732 -0.3006  0.1226  0.7237
 6227SOL    HW130143   2.688   1.355   2.771 -1.2059 -1.7458 -3.1237
 6227SOL    HW230144   2.657   1.423   2.640  3.1359 -0.6146  0.0496
 6228SOL     OW30145   0.434   1.513   5.688  0.2859 -0.2497 -0.4981
 6228SOL    HW130146   0.453   1.419   5.694  3.1385  0.3183 -0.4274
 6228SOL    HW230147   0.437   1.541   5.779 -0.0739 -0.9576 -0.2719
 6229SOL     OW30148   4.122   4.035  10.960 -0.4719 -0.2951  0.7642
 6229SOL    HW130149   4.059   3.992  10.903 -1.8558 -0.5828  2.4886
 6229SOL    HW230150   4.092   4.125  10.946  2.6245  0.5871 -0.2759
 6230SOL     OW30151   4.451   0.124  14.034 -0.0076  0.1534  0.0874
 6230SOL    HW130152   4.515   0.144  13.966 -0.4843  0.2240 -0.3404
 6230SOL    HW230153   4.388   0.195  14.024 -1.3745 -0.9708  0.7582
 6231SOL     OW30154   4.624   0.863   7.692  0.3807  0.0288  0.2036
 6231SOL    HW130155   4.613   0.787   7.749  1.6666 -0.0596  0.3231
 6231SOL    HW230156   4.588   0.815   7.617 -0.0905  0.6942 -0.0014
 6232SOL     OW30157   3.461   0.277  16.282  0.2887  0.5933 -0.7618
 6232SOL    HW130158   3.375   0.235  16.284  0.5758 -0.0244 -1.4273
 6232SOL    HW230159   3.429   0.367  16.273 -0.0602  0.5980  0.4904
 6233SOL     OW30160   1.342   3.132   4.859  0.2716  0.3395  0.1021
 6233SOL    HW130161   1.279   3.061   4.875  1.4039  0.1756  3.8906
 6233SOL    HW230162   1.404   3.133   4.932  2.1921 -0.5799 -1.5267
 6234SOL     OW30163   1.666   0.835   3.952 -0.0674 -0.3898 -0.3181
 6234SOL    HW130164   1.631   0.844   4.040  2.6104 -0.8433  0.8109
 6234SOL    HW230165   1.712   0.751   3.964 -1.6363 -1.3824 -1.2764
 6235SOL     OW30166   3.425   3.270   6.839 -0.3610  0.0559  0.5834
 6235SOL    HW130167   3.476   3.290   6.918  0.5740  2.0826 -0.5315
 6235SOL    HW230168   3.348   3.233   6.882 -1.7613  0.6101 -1.4824
 6236SOL     OW30169   1.853   1.130   6.669 -0.1991 -0.0137  0.8482
 6236SOL    HW130170   1.898   1.212   6.650  0.8284 -0.4379  1.4645
 6236SOL    HW230171   1.806   1.114   6.587  0.1465 -2.4082  1.1297
 6237SOL     OW30172   0.557   0.584   5.857  0.1318  0.2288  0.3036
 6237SOL    HW130173   0.637   0.547   5.821  0.3836  2.3936 -1.3316
 6237SOL    HW230174   0.515   0.605   5.774  1.6104  1.1696 -0.2084
 6238SOL     OW30175   2.915   1.820   9.554 -0.3841  0.3508 -0.7565
 6238SOL    HW130176   2.885   1.840   9.465 -1.9645  0.1776 -0.2468
 6238SOL    HW230177   2.899   1.726   9.557 -2.1198  0.6521 -0.9185
 6239SOL     OW30178   1.189   1.867   2.039  0.5116 -0.3865  0.2570
 6239SOL    HW130179   1.242   1.939   2.004  0.1817 -1.5609 -2.6423
 6239SOL    HW230180   1.257   1.800   2.038  0.8635 -0.0165 -0.3350
 6240SOL     OW30181   4.215   0.353  14.404  0.1974 -0.6130  0.5596
 6240SOL    HW130182   4.174   0.269  14.384 -1.4474 -0.3898  3.0580
 6240SOL    HW230183   4.251   0.333  14.490  1.2289  0.9951  0.4941
 6241SOL     OW30184   0.425   2.649   8.531 -0.7272  0.6854 -0.2195
 6241SOL    HW130185   0.499   2.614   8.481  0.7171  2.7141  0.5182
 6241SOL    HW230186   0.465   2.646   8.617 -1.2823 -1.0349 -0.0165
 6242SOL     OW30187   3.724   2.666   7.657  0.2938  0.3080  0.3694
 6242SOL    HW130188   3.751   2.713   7.736  0.2942 -0.1895  0.6651
 6242SOL    HW230189   3.768   2.582   7.668  0.3048  0.1185 -1.1605
 6243SOL     OW30190   4.185   0.054  12.442  0.0287  0.7289  0.1435
 6243SOL    HW130191   4.121   4.709  12.429  1.1234 -0.0964 -0.9516
 6243SOL    HW230192   4.138   0.127  12.401 -1.1703 -0.6681 -0.9496
 6244SOL     OW30193   3.002   2.056   9.662 -0.0906  0.3630  0.4047
 6244SOL    HW130194   3.022   1.990   9.596 -0.8819  0.3389  0.1950
 6244SOL    HW230195   3.019   2.002   9.740 -0.0754  0.7807  0.6909
 6245SOL     OW30196   4.048   2.139   0.070 -0.5900  0.0236  0.3556
 6245SOL    HW130197   3.978   2.159   0.007  1.6048  1.7793 -1.5155
 6245SOL    HW230198   3.994   2.083   0.126 -0.7297 -1.6167 -1.4599
 6246SOL     OW30199   4.652   3.998  17.481 -0.0259 -0.0115 -0.4972
 6246SOL    HW130200   4.585   4.029  17.421 -0.3991  0.6703  0.2580
 6246SOL    HW230201   0.003   4.051  17.454  0.1953  1.5846  3.2425
 6247SOL     OW30202   3.757   3.447   2.961 -0.5843 -0.0599  0.0681
 6247SOL    HW130203   3.708   3.510   2.908  1.3054  2.1018  0.9437
 6247SOL    HW230204   3.701   3.370   2.973 -0.7795  0.0213 -0.2833
 6248SOL     OW30205   0.120   0.147   4.695  0.5123 -0.5312  0.0560
 6248SOL    HW130206   0.077   0.137   4.610  2.7668  1.9649 -1.3610
 6248SOL    HW230207   0.113   0.056   4.724 -2.4546 -0.6749 -1.0572
 6249SOL     OW30208   2.690   0.638  13.975 -0.4113  0.8247 -0.1468
 6249SOL    HW130209   2.744   0.717  13.978  2.7324 -1.3083 -1.2593
 6249SOL    HW230210   2.643   0.655  14.057 -1.0410  0.4681 -0.4355
 6250SOL     OW30211   0.678   0.229   6.820 -0.0145 -0.6051 -0.4918
 6250SOL    HW130212   0.679   0.258   6.729  0.6132 -0.3858 -0.4108
 6250SOL    HW230213   0.585   0.224   6.842  0.1689 -0.5777  0.2874
 6251SOL     OW30214   3.725   2.900   1.821  0.4179  0.7316 -0.1045
 6251SOL    HW130215   3.720   2.994   1.839  0.1648  1.0458 -1.7864
 6251SOL    HW230216   3.771   2.918   1.738  0.6447  2.6928  0.4381
 6252SOL     OW30217   1.616   4.429   2.249  0.2094  0.0475  0.2414
 6252SOL    HW130218   1.651   4.361   2.307  1.0697  1.1842  1.0499
 6252SOL    HW230219   1.570   4.367   2.193 -2.1477  1.9434  0.0809
 6253SOL     OW30220   3.301   1.837   6.894  0.1524 -0.0326  0.2704
 6253SOL    HW130221   3.333   1.900   6.829 -0.2512 -1.0166 -0.8745
 6253SOL    HW230222   3.261   1.774   6.835  0.0206  0.4081 -0.1122
 6254SOL     OW30223   1.511   3.741   6.001  0.4200  0.2434  0.5411
 6254SOL    HW130224   1.536   3.774   5.914  0.1683 -0.5057  0.1835
 6254SOL    HW230225   1.417   3.752   5.987  0.5089  0.0994 -0.2092
 6255SOL     OW30226   0.829   4.553   4.959 -1.1575  0.5655 -0.1437
 6255SOL    HW130227   0.836   4.627   5.020  0.8840 -0.1081  0.4307
 6255SOL    HW230228   0.882   4.596   4.892  0.1036 -0.7795  0.0107
 6256SOL     OW30229   0.259   3.678   7.043  0.0241  0.4561  0.3948
 6256SOL    HW130230   0.321   3.742   7.009  1.6953 -1.3842 -0.0077
 6256SOL    HW230231   0.240   3.615   6.974 -1.2202  0.0281  1.1109
 6257SOL     OW30232   0.188   3.899  17.011  0.0206 -0.2223  0.3103
 6257SOL    HW130233   0.243   3.852  17.073  0.9064 -1.1724 -1.1935
 6257SOL    HW230234   0.152   3.974  17.059  1.5493  1.0209 -0.4633
 6258SOL     OW30235   0.691   2.391   7.569 -0.0516 -0.0201 -0.2490
 6258SOL    HW130236   0.623   2.331   7.600  0.3622 -1.2275 -1.6652
 6258SOL    HW230237   0.761   2.345   7.523 -0.5376 -0.7265 -0.2757
 6259SOL     OW30238   1.977   4.365   2.150  0.1260 -0.1798 -0.4717
 6259SOL    HW130239   2.014   4.338   2.234  1.6288 -1.3313 -1.5095
 6259SOL    HW230240   1.890   4.325   2.155 -0.6260  1.7708  2.1315
 6260SOL     OW30241   1.702   3.471  10.017 -0.3451 -0.7823 -0.0400
 6260SOL    HW130242   1.676   3.562  10.032  1.1461 -0.1043 -1.5669
 6260SOL    HW230243   1.696   3.455  10.111  0.3021  3.0479  0.6474
 6261SOL     OW30244   2.217   3.848   8.635  0.6815  0.6285 -0.0444
 6261SOL    HW130245   2.197   3.805   8.718 -1.0449 -0.4129 -0.9976
 6261SOL    HW230246   2.273   3.920   8.664 -0.1479  1.0885  0.3849
 6262SOL     OW30247   4.572   4.620   3.264  0.3108 -0.0347  0.1577
 6262SOL    HW130248   4.492   4.672   3.266 -0.5131 -1.2837 -0.4190
 6262SOL    HW230249   4.532   4.540   3.229  0.8661 -0.9275  1.5427
 6263SOL     OW30250   4.334   3.946   7.211  0.6430 -0.7719  0.2117
 6263SOL    HW130251   4.401   4.014   7.213  1.4313 -1.5295 -0.2555
 6263SOL    HW230252   4.284   3.968   7.133 -0.2434 -0.1612  0.9666
 6264SOL     OW30253   3.690   0.663   4.057  0.1802 -0.1878  0.8524
 6264SOL    HW130254   3.771   0.702   4.090  0.1152  0.1000  0.6686
 6264SOL    HW230255   3.645   0.746   4.066  1.0135  0.0432  2.7441
 6265SOL     OW30256   3.127   3.950  16.147 -0.1059  0.4608 -0.0486
 6265SOL    HW130257   3.120   3.946  16.242  0.1408 -1.8922 -0.1289
 6265SOL    HW230258   3.145   3.857  16.136 -0.5349  0.2283  1.2478
 6266SOL     OW30259   1.282   1.056   3.653  0.2761 -0.1352 -0.0554
 6266SOL    HW130260   1.362   1.016   3.687  0.8270  1.8721  1.0833
 6266SOL    HW230261   1.296   1.140   3.698  3.5129  0.6275 -2.4812
 6267SOL     OW30262   0.669   4.207   4.375  0.1634 -0.2817  0.2621
 6267SOL    HW130263   0.662   4.302   4.384 -0.3268 -0.0774 -2.3058
 6267SOL    HW230264   0.582   4.168   4.370  0.6032 -1.1920 -0.3146
 6268SOL     OW30265   1.631   1.725   5.443  0.3789  0.0489 -0.6401
 6268SOL    HW130266   1.719   1.692   5.423  0.8877  2.3165 -2.1533
 6268SOL    HW230267   1.658   1.798   5.499 -2.1090  1.4039 -1.1908
 6269SOL     OW30268   4.411   2.518   3.462  0.2391  0.3733  0.0108
 6269SOL    HW130269   4.414   2.446   3.399  0.1719  2.2194 -2.1133
 6269SOL    HW230270   4.439   2.464   3.535  0.3055 -1.8552 -1.6654
 6270SOL     OW30271   2.732   0.480  16.797  0.1675  0.2794  0.3067
 6270SOL    HW130272   2.769   0.424  16.729 -1.9976 -3.1686  2.0049
 6270SOL    HW230273   2.647   0.442  16.816 -0.0358  0.4190 -0.3321
 6271SOL     OW30274   0.976   3.692   6.120  0.1986  0.0315  0.3539
 6271SOL    HW130275   0.999   3.610   6.165  0.5164 -0.7045 -1.1589
 6271SOL    HW230276   0.881   3.688   6.127  0.3213 -2.6390  0.8291
 6272SOL     OW30277   3.591   4.097   5.217 -0.3566 -0.4646 -0.2346
 6272SOL    HW130278   3.603   4.183   5.178 -2.7760 -0.3205 -0.6884
 6272SOL    HW230279   3.596   4.041   5.139  0.0400 -0.5207 -0.1686
 6273SOL     OW30280   2.778   1.257   5.707 -0.0336 -0.1329  0.3286
 6273SOL    HW130281   2.742   1.302   5.783 -1.0762 -0.3929 -0.0036
 6273SOL    HW230282   2.789   1.327   5.642 -1.8310 -0.6818 -0.5787
 6274SOL     OW30283   0.074   1.344  10.299 -0.8199 -0.4976  0.0248
 6274SOL    HW130284   0.139   1.288  10.256  1.0353  1.3974  0.3648
 6274SOL    HW230285   4.721   1.287  10.296 -0.4601 -1.0026  0.3475
 6275SOL     OW30286   0.215   3.644   4.424  0.4359 -0.1839  0.4481
 6275SOL    HW130287   0.207   3.625   4.518  0.8431  0.8953  0.7043
 6275SOL    HW230288   0.136   3.690   4.395  0.2286 -0.1343  1.0791
 6276SOL     OW30289   1.024   1.919   7.375  0.0414 -0.7575  0.0868
 6276SOL    HW130290   0.994   1.863   7.303 -0.7283 -1.4813  0.9777
 6276SOL    HW230291   1.041   2.000   7.326 -2.0689 -1.1931 -1.3394
 6277SOL     OW30292   1.291   1.333   3.506 -0.1274 -0.5066 -0.1435
 6277SOL    HW130293   1.297   1.315   3.599 -0.9529 -0.5524 -0.0995
 6277SOL    HW230294   1.214   1.389   3.513 -0.8426 -1.4778 -0.1894
 6278SOL     OW30295   4.282   1.801  11.701 -0.3097  0.2068 -1.0427
 6278SOL    HW130296   4.264   1.776  11.611  1.9190 -2.0577 -0.8501
 6278SOL    HW230297   4.376   1.821  11.702 -0.3019  0.1119  2.2662
 6279SOL     OW30298   3.493   2.516  13.030 -0.2186 -0.8579  0.1309
 6279SOL    HW130299   3.579   2.478  13.043 -0.3418 -0.7092  1.3544
 6279SOL    HW230300   3.477   2.563  13.112 -0.1803  1.1975 -1.0366
 6280SOL     OW30301   3.430   2.723   0.941  0.0435  0.0518 -0.4750
 6280SOL    HW130302   3.418   2.746   0.849 -0.6263  1.2944 -0.0689
 6280SOL    HW230303   3.376   2.790   0.983  1.9719  0.8592  0.6799
 6281SOL     OW30304   0.615   1.116   7.842  0.6609  0.1781 -0.2131
 6281SOL    HW130305   0.542   1.177   7.831 -0.3606 -0.8836  0.7470
 6281SOL    HW230306   0.579   1.045   7.789  1.5223 -1.0488  0.8487
 6282SOL     OW30307   2.019   2.408   3.911 -0.3169 -0.0414  0.1868
 6282SOL    HW130308   1.991   2.326   3.869 -1.2040 -0.7290  2.1611
 6282SOL    HW230309   2.068   2.447   3.838  1.8905 -3.0717  0.0285
 6283SOL     OW30310   1.689   3.433   3.907 -0.3964 -0.2447 -0.4795
 6283SOL    HW130311   1.687   3.461   3.815 -0.3500 -2.6806 -1.2454
 6283SOL    HW230312   1.767   3.475   3.942 -0.1742 -0.8507 -0.2380
 6284SOL     OW30313   2.205   2.363   8.558  0.7665  0.1200  0.2692
 6284SOL    HW130314   2.190   2.322   8.643 -0.0295 -0.1073  0.0177
 6284SOL    HW230315   2.286   2.317   8.537 -2.1989 -4.8890 -0.1844
 6285SOL     OW30316   3.454   3.811   9.027  0.1977 -0.1856 -0.0490
 6285SOL    HW130317   3.388   3.875   9.051 -0.6071  0.0526 -2.8585
 6285SOL    HW230318   3.410   3.782   8.947  1.0653 -1.6162 -0.0142
 6286SOL     OW30319   2.569   3.219   6.587 -0.0229  0.0562 -0.6131
 6286SOL    HW130320   2.582   3.313   6.577 -1.1299  0.2738 -0.0382
 6286SOL    HW230321   2.583   3.190   6.497  0.3017  0.2404 -0.6225
 6287SOL     OW30322   3.838   4.342   8.599 -0.8441 -0.2501 -0.1099
 6287SOL    HW130323   3.844   4.247   8.614 -0.8361 -0.5346 -1.8970
 6287SOL    HW230324   3.757   4.358   8.648  0.5096  4.3455  0.6012
 6288SOL     OW30325   1.798   3.312   1.746 -0.0418  0.2532 -0.5435
 6288SOL    HW130326   1.732   3.370   1.708 -0.5881 -0.1360 -0.1997
 6288SOL    HW230327   1.859   3.367   1.795  1.7108 -1.5151 -0.7290
 6289SOL     OW30328   0.277   4.583   1.794  0.3199  0.0761  0.4610
 6289SOL    HW130329   0.191   4.569   1.834  1.4167  0.4863  2.9332
 6289SOL    HW230330   0.305   4.492   1.786 -0.7773  0.0154 -2.7397
 6290SOL     OW30331   3.986   0.073   4.935 -0.5871  0.4402  1.0379
 6290SOL    HW130332   3.999   0.136   5.006 -1.9346  0.5041  1.2124
 6290SOL    HW230333   4.039   4.722   4.963 -1.3652 -0.7562 -0.6882
 6291SOL     OW30334   3.846   4.146   1.221 -0.2263  0.4780  0.5202
 6291SOL    HW130335   3.855   4.228   1.172  2.1813  0.1174  0.3634
 6291SOL    HW230336   3.760   4.156   1.261 -0.8041 -1.5074 -0.2217
 6292SOL     OW30337   3.760   2.705   5.195  0.4004  0.2534 -0.1589
 6292SOL    HW130338   3.715   2.621   5.205  6.1135 -2.5438  1.8893
 6292SOL    HW230339   3.833   2.690   5.255 -1.0771 -1.1730  1.2937
 6293SOL     OW30340   1.709   1.417   5.601  0.7269 -0.0231  0.8798
 6293SOL    HW130341   1.728   1.396   5.510 -2.2419  1.3370 -0.0664
 6293SOL    HW230342   1.794   1.448   5.632  0.4924 -0.3169  1.8244
 6294SOL     OW30343   4.655   4.255   0.743 -0.2108 -0.0422 -0.6092
 6294SOL    HW130344   4.611   4.214   0.816 -1.8578  2.6847 -0.0553
 6294SOL    HW230345   4.687   4.337   0.781  2.4258  0.2283 -3.3818
 6295SOL     OW30346   1.933   2.600   2.536 -0.0036  0.6005 -0.0043
 6295SOL    HW130347   1.945   2.558   2.621 -2.5472  0.3104  0.2260
 6295SOL    HW230348   1.843   2.630   2.547 -0.0947  0.6458 -0.8800
 6296SOL     OW30349   4.668   3.302   5.544 -0.2226  0.0423  0.1181
 6296SOL    HW130350   4.706   3.220   5.574  1.9491  1.8441  2.3019
 6296SOL    HW230351   4.684   3.352   5.624 -1.0983  2.8047 -1.4101
 6297SOL     OW30352   0.179   4.363  14.388  0.3283 -0.3015 -0.7543
 6297SOL    HW130353   0.178   4.415  14.308 -1.2620  0.8885  0.0334
 6297SOL    HW230354   0.237   4.423  14.435  0.3726  0.3786 -1.6917
 6298SOL     OW30355   3.891   4.460   5.224  0.7739 -0.0839 -0.0731
 6298SOL    HW130356   3.877   4.432   5.315 -3.0238 -1.1616 -1.0192
 6298SOL    HW230357   3.886   4.554   5.239  0.5100  0.2291 -2.2246
 6299SOL     OW30358   0.593   0.224   5.987  0.1932 -0.6975  0.0357
 6299SOL    HW130359   0.606   0.250   6.078  0.3797 -0.4410 -0.0645
 6299SOL    HW230360   0.502   0.194   5.987  0.0087 -0.1521 -0.6202
 6300SOL     OW30361   2.142   3.300  13.504  0.3246  0.4215  0.4864
 6300SOL    HW130362   2.171   3.357  13.575 -1.9152  0.2676  1.5383
 6300SOL    HW230363   2.222   3.248  13.499 -0.6711 -1.0888  0.4920
 6301SOL     OW30364   3.777   3.472   2.110  0.2785  0.4956  0.2090
 6301SOL    HW130365   3.774   3.540   2.177 -0.4063  0.6421  0.0291
 6301SOL    HW230366   3.695   3.423   2.117  0.8010 -0.7961 -2.9840
 6302SOL     OW30367   3.168   3.545   6.401  0.3050  0.0877 -1.0634
 6302SOL    HW130368   3.123   3.492   6.335 -1.4228  1.3660 -0.9315
 6302SOL    HW230369   3.139   3.632   6.373 -0.8084  0.6352  1.7524
 6303SOL     OW30370   4.626   3.136   1.917  0.5612  0.4137 -0.9173
 6303SOL    HW130371   4.636   3.230   1.932 -0.4810  0.0374  2.1441
 6303SOL    HW230372   4.534   3.130   1.891 -0.0729  0.7620  1.2390
 6304SOL     OW30373   4.261   2.221   4.655  0.5455 -0.0608 -0.6881
 6304SOL    HW130374   4.265   2.163   4.579  2.4882 -2.2899  1.1192
 6304SOL    HW230375   4.240   2.297   4.601 -2.4533 -0.1771  0.3073
 6305SOL     OW30376   0.383   3.782   1.487  0.1471  0.5147 -0.0550
 6305SOL    HW130377   0.375   3.687   1.484 -0.8727  0.6935 -3.2025
 6305SOL    HW230378   0.443   3.794   1.413  1.7896  1.5643  1.4488
 6306SOL     OW30379   0.266   3.818   2.037 -1.2921 -0.0310  0.0427
 6306SOL    HW130380   0.298   3.797   1.950 -0.8410  1.1907 -0.0943
 6306SOL    HW230381   0.348   3.788   2.076  0.0458  2.5640 -0.7420
 6307SOL     OW30382   0.697   3.623   1.262 -0.0760 -0.2154 -0.3583
 6307SOL    HW130383   0.757   3.681   1.309 -1.1084  2.0426 -1.8587
 6307SOL    HW230384   0.752   3.597   1.189  0.4887  2.9676 -1.0662
 6308SOL     OW30385   3.787   4.351   7.645 -0.3364  0.0482 -0.0228
 6308SOL    HW130386   3.694   4.334   7.654 -0.0149 -0.8238  1.5978
 6308SOL    HW230387   3.808   4.289   7.575  0.9172  1.6736 -1.0970
 6309SOL     OW30388   1.021   2.955   5.745 -0.4402 -0.3239  0.2050
 6309SOL    HW130389   0.973   2.904   5.811 -0.0666 -0.9046  0.0300
 6309SOL    HW230390   1.107   2.955   5.786 -0.9814  0.8072  1.3583
 6310SOL     OW30391   1.878   0.583  12.892  0.1481  0.5776 -0.4741
 6310SOL    HW130392   1.814   0.642  12.852 -0.4330  0.7209  0.6560
 6310SOL    HW230393   1.930   0.642  12.946  0.8924 -0.4984 -0.0180
 6311SOL     OW30394   2.488   4.509   7.336 -0.1269  0.4963 -0.0071
 6311SOL    HW130395   2.396   4.506   7.308 -0.1120 -0.7849  0.0881
 6311SOL    HW230396   2.479   4.478   7.426  3.6237  2.2400  0.9394
 6312SOL     OW30397   4.036   0.950  16.012  0.3029  0.0681 -0.3815
 6312SOL    HW130398   4.031   0.959  16.108 -0.0895 -0.9758 -0.3093
 6312SOL    HW230399   4.129   0.952  15.991  0.6613 -0.7679  1.0609
 6313SOL     OW30400   2.682   1.889   4.922  0.4534  0.0419 -0.1783
 6313SOL    HW130401   2.589   1.870   4.928  0.8876 -2.3576 -1.1159
 6313SOL    HW230402   2.692   1.855   4.833 -0.8809  2.8307 -1.3964
 6314SOL     OW30403   4.519   4.307   4.766 -0.0398 -0.0349  0.2987
 6314SOL    HW130404   4.463   4.315   4.843 -0.6444  0.6836 -0.2046
 6314SOL    HW230405   4.458   4.282   4.697 -3.1274  1.0841  2.6507
 6315SOL     OW30406   3.796   0.736   3.342 -0.1508 -0.2072  0.4762
 6315SOL    HW130407   3.722   0.713   3.285 -1.3375 -0.9859  2.3265
 6315SOL    HW230408   3.842   0.654   3.327 -0.7903 -0.1305 -1.9297
 6316SOL     OW30409   3.871   4.355   0.341 -0.3020  0.5331 -0.1247
 6316SOL    HW130410   3.786   4.384   0.375  1.6087  0.9778  4.3068
 6316SOL    HW230411   3.929   4.389   0.409 -0.2400 -2.0813  1.1471
 6317SOL     OW30412   1.318   0.313  14.591 -0.2897 -0.7060 -0.1340
 6317SOL    HW130413   1.310   0.407  14.576 -2.1367 -0.6889  0.9694
 6317SOL    HW230414   1.231   0.286  14.620 -0.6398 -0.3181 -0.8194
 6318SOL     OW30415   1.580   0.221   5.519 -0.0747  0.3783 -0.3050
 6318SOL    HW130416   1.506   0.162   5.531  0.1040  0.5270  1.4785
 6318SOL    HW230417   1.551   0.287   5.582 -0.1054 -0.0940  0.1661
 6319SOL     OW30418   0.944   4.170   6.035  0.6973  0.2611 -0.0806
 6319SOL    HW130419   1.021   4.163   6.091 -0.3153 -1.4475  1.0708
 6319SOL    HW230420   0.941   4.089   5.984  1.4895  0.8330 -1.0564
 6320SOL     OW30421   1.302   2.014   3.444  0.7341 -0.0855  0.0071
 6320SOL    HW130422   1.226   1.955   3.442 -0.6879  1.7733 -0.6102
 6320SOL    HW230423   1.257   2.081   3.496 -0.8027 -0.5170 -0.7473
 6321SOL     OW30424   2.009   3.406   7.180 -0.0542 -0.1988  0.2327
 6321SOL    HW130425   2.009   3.350   7.258  0.9522 -1.0569 -0.3814
 6321SOL    HW230426   1.915   3.424   7.176  0.1406  0.9078  0.7906
 6322SOL     OW30427   4.378   3.328   6.958 -0.0961 -0.9943  0.6999
 6322SOL    HW130428   4.394   3.241   6.922 -0.2379 -0.6572 -0.1905
 6322SOL    HW230429   4.297   3.318   7.009 -1.5178  2.7064 -0.8627
 6323SOL     OW30430   3.881   2.854   1.421  0.1737 -0.1148 -0.0080
 6323SOL    HW130431   3.844   2.910   1.352 -0.9467  0.0366  0.7099
 6323SOL    HW230432   3.924   2.785   1.371 -0.4688 -0.1933 -0.4384
 6324SOL     OW30433   4.128   1.853   3.840  0.0727  0.3372  0.0039
 6324SOL    HW130434   4.077   1.809   3.908  1.8901  0.5148  1.5197
 6324SOL    HW230435   4.109   1.803   3.761 -2.6877 -2.0597  2.2021
 6325SOL     OW30436   4.399   2.273  16.262  0.0926  0.0638 -0.1507
 6325SOL    HW130437   4.479   2.317  16.292  0.8280 -0.0382 -1.9365
 6325SOL    HW230438   4.358   2.339  16.205  1.7295  0.3311 -1.0225
 6326SOL     OW30439   1.419   4.152   5.843  0.1634  0.2116  0.0330
 6326SOL    HW130440   1.473   4.224   5.813 -0.8406  0.3743 -1.4019
 6326SOL    HW230441   1.372   4.199   5.913  0.0418  1.2809 -0.7649
 6327SOL     OW30442   3.194   0.334   7.066  1.0177 -0.1074  0.1606
 6327SOL    HW130443   3.272   0.359   7.115  1.7164 -0.9701 -0.5074
 6327SOL    HW230444   3.141   0.283   7.128  1.7290 -0.2886  0.6150
 6328SOL     OW30445   0.560   2.180   5.489 -0.6288  0.5243  0.0210
 6328SOL    HW130446   0.557   2.272   5.464  0.7259  1.3403  2.8695
 6328SOL    HW230447   0.496   2.145   5.427  0.6610 -1.0832 -0.4264
 6329SOL     OW30448   0.749   0.907   6.622  0.1431  0.5783 -0.0969
 6329SOL    HW130449   0.760   0.994   6.585  0.7275  0.9526  0.9641
 6329SOL    HW230450   0.656   0.898   6.602  0.0610  1.0833  0.0572
 6330SOL     OW30451   2.805   4.123   6.049  0.2587 -0.3851  0.2222
 6330SOL    HW130452   2.896   4.097   6.033  0.8590 -0.5379  3.8124
 6330SOL    HW230453   2.818   4.170   6.131  2.3322  0.8207 -0.7982
 6331SOL     OW30454   4.482   0.850   8.006 -0.3381 -0.1179  0.7883
 6331SOL    HW130455   4.395   0.827   8.039 -0.0647 -1.8123  0.3568
 6331SOL    HW230456   4.493   0.761   7.971  0.3204  0.4568 -0.4385
 6332SOL     OW30457   2.615   0.988  12.298  0.0185 -0.1839  0.2626
 6332SOL    HW130458   2.695   1.039  12.311 -0.0750  0.4806 -1.6509
 6332SOL    HW230459   2.646   0.931  12.227 -1.3444 -0.5808 -0.0085
 6333SOL     OW30460   3.771   1.787   5.215 -0.5136  0.2371  0.4861
 6333SOL    HW130461   3.801   1.790   5.306  1.9467  0.0374 -0.3232
 6333SOL    HW230462   3.854   1.811   5.173 -0.0124 -0.3839  1.1092
 6334SOL     OW30463   3.862   1.554   6.216 -0.3271 -0.6473 -0.8053
 6334SOL    HW130464   3.819   1.626   6.171 -1.6154 -2.0559 -1.8144
 6334SOL    HW230465   3.884   1.590   6.302  0.1112 -0.9373 -0.7968
 6335SOL     OW30466   0.243   1.081  11.589 -0.3220  0.6427  0.2833
 6335SOL    HW130467   0.176   1.146  11.612 -1.3525 -0.2053 -0.3134
 6335SOL    HW230468   0.322   1.106  11.637 -0.6511 -1.0054  1.6594
 6336SOL     OW30469   4.034   3.405   8.019  0.1882 -0.3349  0.6726
 6336SOL    HW130470   3.943   3.430   8.005  0.7975  1.2480 -0.3962
 6336SOL    HW230471   4.073   3.492   8.008 -0.2027 -0.3264 -0.6133
 6337SOL     OW30472   0.199   3.233   1.219 -0.0807 -0.0474  0.3033
 6337SOL    HW130473   0.268   3.191   1.169  0.4295  1.0492  0.0826
 6337SOL    HW230474   0.251   3.253   1.297  0.7925 -2.4465  0.3241
 6338SOL     OW30475   3.029   0.353   6.105 -0.1707  0.2835  0.5008
 6338SOL    HW130476   3.104   0.342   6.047  0.1181  0.3749  0.8598
 6338SOL    HW230477   3.063   0.304   6.180  1.2370  1.3035  0.5185
 6339SOL     OW30478   3.123   1.379  11.005  0.5528  0.2628 -0.1070
 6339SOL    HW130479   3.075   1.429  11.071  3.4995 -2.8954  4.4635
 6339SOL    HW230480   3.179   1.336  11.070  0.5839 -0.9750 -0.9684
 6340SOL     OW30481   2.181   3.168   3.238  0.1279 -0.2223 -0.1939
 6340SOL    HW130482   2.127   3.242   3.264 -0.2157 -1.0188  1.3854
 6340SOL    HW230483   2.202   3.140   3.328 -0.3847  0.4462  0.1326
 6341SOL     OW30484   2.854   4.612  10.758 -0.2571  0.1779 -0.0964
 6341SOL    HW130485   2.947   4.592  10.770 -0.6350 -0.3788  2.0059
 6341SOL    HW230486   2.848   4.692  10.810 -2.6157 -1.6809  2.5154
 6342SOL     OW30487   0.645   2.359   8.680 -0.2070  0.1110 -0.1130
 6342SOL    HW130488   0.668   2.441   8.635 -1.3296  0.2382 -0.4392
 6342SOL    HW230489   0.590   2.396   8.748 -0.0241  0.6437 -0.2497
 6343SOL     OW30490   2.488   2.707   3.485 -0.4799 -0.5319 -0.3211
 6343SOL    HW130491   2.581   2.721   3.470 -0.5596  1.6454  1.1771
 6343SOL    HW230492   2.448   2.749   3.409 -0.6163  3.7644  2.0834
 6344SOL     OW30493   0.151   4.392   6.767  0.3210  0.1726 -0.4703
 6344SOL    HW130494   0.223   4.454   6.755  0.8848 -0.7190 -1.7365
 6344SOL    HW230495   0.182   4.340   6.841  0.8396 -0.6795 -1.2860
 6345SOL     OW30496   0.920   0.515   5.518  0.1992 -0.5558  0.1722
 6345SOL    HW130497   0.872   0.436   5.492  0.4427 -0.5894 -0.1720
 6345SOL    HW230498   0.893   0.583   5.456  1.1399 -0.3030  0.0373
 6346SOL     OW30499   2.513   3.875   8.591 -0.2135  0.0720  0.5190
 6346SOL    HW130500   2.579   3.924   8.641  1.2199  0.0694 -1.3490
 6346SOL    HW230501   2.470   3.839   8.668  1.4866 -1.4648  0.7387
 6347SOL     OW30502   1.714   1.587   5.099 -0.4470  0.6273  0.5398
 6347SOL    HW130503   1.620   1.583   5.116 -0.4280 -0.1395  0.4418
 6347SOL    HW230504   1.711   1.527   5.024  2.5039 -0.4500  1.2720
 6348SOL     OW30505   4.621   3.194   8.710 -0.8849  0.0636 -0.4998
 6348SOL    HW130506   4.625   3.152   8.796  1.7172  0.7735 -0.2817
 6348SOL    HW230507   4.566   3.128   8.668  0.5537 -1.4717  0.0641
 6349SOL     OW30508   2.198   2.921   1.357  0.3631  0.0508  0.1281
 6349SOL    HW130509   2.137   2.902   1.428  0.4417 -2.3825 -0.4483
 6349SOL    HW230510   2.241   3.000   1.388 -1.0469  1.1622 -0.7914
 6350SOL     OW30511   0.629   3.711   6.175  0.5952  0.2176 -0.6495
 6350SOL    HW130512   0.688   3.638   6.192 -0.7064 -0.7838 -0.4440
 6350SOL    HW230513   0.552   3.663   6.147 -0.4076  3.1160 -2.8572
 6351SOL     OW30514   2.988   3.947   7.431 -0.4457 -0.7190 -0.2423
 6351SOL    HW130515   2.934   4.016   7.469 -0.4468 -1.1857  0.5996
 6351SOL    HW230516   2.928   3.926   7.360  0.7466  0.1067 -1.5067
 6352SOL     OW30517   4.074   3.964   5.345  0.6056 -0.1997  0.0341
 6352SOL    HW130518   3.987   4.004   5.336  0.8914 -0.0524 -2.0177
 6352SOL    HW230519   4.075   3.962   5.441  1.3237  0.6241  0.0400
 6353SOL     OW30520   4.252   3.437  10.298 -0.3109 -0.0975 -0.0844
 6353SOL    HW130521   4.200   3.517  10.289  0.7760  0.5586 -0.5594
 6353SOL    HW230522   4.191   3.397  10.360 -0.0910 -3.0446 -1.7576
 6354SOL     OW30523   1.530   3.237   1.431 -0.0166 -0.1799 -0.8515
 6354SOL    HW130524   1.480   3.293   1.371 -2.1080 -0.2508  0.8756
 6354SOL    HW230525   1.460   3.176   1.449  0.4492 -0.5899 -0.4338
 6355SOL     OW30526   3.376   1.068   1.700  0.3814 -0.1040 -0.1427
 6355SOL    HW130527   3.328   1.028   1.628  1.0889  2.1085 -1.8566
 6355SOL    HW230528   3.319   1.137   1.733  0.2599 -0.8021  1.0884
 6356SOL     OW30529   0.773   4.627   8.428  0.1146 -0.0950 -0.4512
 6356SOL    HW130530   0.850   4.634   8.485 -2.0204 -1.7366  2.5734
 6356SOL    HW230531   0.797   4.568   8.357 -1.1811 -0.6560 -0.4194
 6357SOL     OW30532   3.982   0.049   6.838  0.2996  0.0205 -0.2031
 6357SOL    HW130533   4.073   0.021   6.849  0.2414 -0.3046 -0.5346
 6357SOL    HW230534   3.995   0.142   6.822  2.2702 -0.1583  0.3909
 6358SOL     OW30535   3.869   3.421  12.616  0.0196 -0.2370 -0.1382
 6358SOL    HW130536   3.894   3.360  12.686  1.9024  0.4641 -0.1835
 6358SOL    HW230537   3.794   3.472  12.646  0.4824  1.8289 -2.5094
 6359SOL     OW30538   3.824   0.030   4.245 -0.4020  0.2136  0.2393
 6359SOL    HW130539   3.811   4.711   4.161  1.9224 -1.1252  0.5539
 6359SOL    HW230540   3.914   0.059   4.230 -0.5481 -0.0262 -1.0801
 6360SOL     OW30541   1.460   2.092   7.499  0.2604 -0.0303  0.2633
 6360SOL    HW130542   1.494   2.017   7.547  2.5490  0.2819 -0.8668
 6360SOL    HW230543   1.502   2.091   7.412 -0.4662 -0.9462 -0.0817
 6361SOL     OW30544   2.822   1.625   6.119 -0.4396 -0.4559 -0.4334
 6361SOL    HW130545   2.800   1.681   6.194 -0.3002 -2.1519  0.8913
 6361SOL    HW230546   2.743   1.600   6.072 -0.5201 -1.8693  0.4434
 6362SOL     OW30547   0.917   0.600  10.579  0.3441 -0.3864  0.5442
 6362SOL    HW130548   1.007   0.604  10.546  0.7362 -1.9326  1.4101
 6362SOL    HW230549   0.915   0.689  10.614  1.4487 -0.7204  1.4455
 6363SOL     OW30550   1.142   1.799  16.818  0.0442  0.4131 -0.5349
 6363SOL    HW130551   1.237   1.803  16.806 -0.0960  1.1664 -1.3453
 6363SOL    HW230552   1.134   1.866  16.886 -1.9307 -0.5816  0.2019
 6364SOL     OW30553   0.814   0.258  12.127  0.6002 -0.8660  0.6432
 6364SOL    HW130554   0.870   0.330  12.157  1.9928 -0.4906 -2.8878
 6364SOL    HW230555   0.782   0.230  12.213  0.6428 -2.0727  0.2750
 6365SOL     OW30556   4.549   3.201   6.345  0.3695 -0.4704  0.2846
 6365SOL    HW130557   4.585   3.194   6.256  0.0150  2.1477 -0.0798
 6365SOL    HW230558   4.627   3.197   6.399  1.8723  3.3885 -1.5466
 6366SOL     OW30559   2.511   2.308  15.453  0.2395  0.0547  0.3244
 6366SOL    HW130560   2.606   2.320  15.442  0.5960 -1.2147  2.0706
 6366SOL    HW230561   2.477   2.306  15.364 -1.0061 -1.8592  0.8699
 6367SOL     OW30562   1.771   3.648   6.934 -0.2846 -0.2758  0.3692
 6367SOL    HW130563   1.814   3.598   7.004 -0.0041 -0.0067  0.3915
 6367SOL    HW230564   1.821   3.730   6.925  1.3598 -1.1134  1.7493
 6368SOL     OW30565   4.486   2.490   4.484  0.0384 -0.6552 -0.1728
 6368SOL    HW130566   4.549   2.418   4.487  1.4815  0.5528 -1.3695
 6368SOL    HW230567   4.408   2.459   4.530  0.1265 -0.3029  0.2104
 6369SOL     OW30568   1.830   1.119  11.301 -0.5929  0.7222 -0.4491
 6369SOL    HW130569   1.917   1.088  11.323 -0.7671  0.4786 -0.1032
 6369SOL    HW230570   1.797   1.034  11.274  1.2321 -0.0521 -0.2271
 6370SOL     OW30571   4.131   2.563   5.105  0.4803  0.5751  0.0117
 6370SOL    HW130572   4.123   2.541   5.012  1.0291  0.1265  0.0696
 6370SOL    HW230573   4.095   2.483   5.145 -0.6643  2.0402  1.8968
 6371SOL     OW30574   3.334   4.178   8.669 -0.1040  0.2140  0.1725
 6371SOL    HW130575   3.277   4.123   8.616 -0.1276  0.7476 -0.3470
 6371SOL    HW230576   3.416   4.128   8.668 -0.9311 -1.1112 -1.8870
 6372SOL     OW30577   0.368   4.536  16.271 -0.0331 -0.0023  0.4798
 6372SOL    HW130578   0.277   4.566  16.269 -0.3801 -1.0438  0.7777
 6372SOL    HW230579   0.403   4.624  16.258  1.3309 -0.8453 -1.4261
 6373SOL     OW30580   3.882   0.877  13.408  0.1758 -0.2799  0.0653
 6373SOL    HW130581   3.904   0.810  13.473 -0.2303  1.2519  1.7753
 6373SOL    HW230582   3.946   0.866  13.338  0.2645  1.6800 -0.1472
 6374SOL     OW30583   3.510   3.877   1.284 -0.2686  0.0110  0.4006
 6374SOL    HW130584   3.482   3.894   1.194 -0.0389  1.5969  0.6306
 6374SOL    HW230585   3.595   3.841   1.260  1.1500  2.5727  1.5445
 6375SOL     OW30586   4.573   0.715   3.240 -0.3907  0.3134 -0.9457
 6375SOL    HW130587   4.638   0.669   3.187  0.6115 -0.4286  0.8913
 6375SOL    HW230588   4.490   0.679   3.209  1.1353 -1.3925 -3.0386
 6376SOL     OW30589   1.080   0.924  12.157 -0.4363 -0.5511 -0.4674
 6376SOL    HW130590   1.167   0.886  12.143 -1.2292 -2.1233 -1.1273
 6376SOL    HW230591   1.048   0.857  12.218  2.0858 -0.7297  0.6698
 6377SOL     OW30592   2.129   3.988   3.661  0.2025  1.2108 -0.3460
 6377SOL    HW130593   2.104   4.077   3.684 -1.4532  1.1735 -1.9753
 6377SOL    HW230594   2.079   3.969   3.581  0.6462 -0.1034 -0.3081
 6378SOL     OW30595   3.902   0.312   7.802  0.2054  0.3162 -0.4936
 6378SOL    HW130596   3.984   0.271   7.831  0.6059  0.8787 -0.8466
 6378SOL    HW230597   3.859   0.352   7.878 -0.6223  0.1254 -0.8647
 6379SOL     OW30598   1.460   0.239  11.457  0.0614  0.7937 -0.8905
 6379SOL    HW130599   1.405   0.314  11.432  0.2460  2.7750  4.7299
 6379SOL    HW230600   1.496   0.271  11.540  0.6789  0.5661 -1.0797
 6380SOL     OW30601   3.785   4.021   5.384  0.1638 -0.4951 -0.4942
 6380SOL    HW130602   3.703   4.052   5.344  0.2779  0.7095  0.2018
 6380SOL    HW230603   3.772   4.055   5.473 -0.2493 -0.9022 -0.3959
 6381SOL     OW30604   2.612   0.275   7.876  0.0167 -0.5861  0.1303
 6381SOL    HW130605   2.604   0.223   7.797  0.1995  1.0424 -0.9528
 6381SOL    HW230606   2.701   0.312   7.873 -0.1013 -0.0319  2.9241
 6382SOL     OW30607   1.830   3.079   6.414  0.2962  0.1266 -0.3123
 6382SOL    HW130608   1.747   3.091   6.460 -0.7818 -2.4631 -1.5705
 6382SOL    HW230609   1.896   3.107   6.477  0.4464 -5.3518  1.8865
 6383SOL     OW30610   1.271   4.390   6.808  0.0172 -0.1033  0.7718
 6383SOL    HW130611   1.200   4.373   6.746  0.8887  0.0644 -0.2691
 6383SOL    HW230612   1.241   4.469   6.855 -1.3717 -1.7490  2.6876
 6384SOL     OW30613   0.268   3.785   9.616  0.0837 -0.0078 -0.0913
 6384SOL    HW130614   0.203   3.782   9.545 -0.9150 -1.2919  0.8689
 6384SOL    HW230615   0.233   3.859   9.665 -0.0465 -0.6582  0.7999
 6385SOL     OW30616   1.709   3.881  14.888  0.3581  0.0679 -0.1998
 6385SOL    HW130617   1.625   3.852  14.852 -0.4592  0.4150  1.4098
 6385SOL    HW230618   1.720   3.971  14.856 -0.6050  0.5921  0.9062
 6386SOL     OW30619   1.602   4.219  13.575  0.5716  0.3409 -0.2077
 6386SOL    HW130620   1.675   4.260  13.528  0.4077  0.8656 -0.0007
 6386SOL    HW230621   1.571   4.300  13.617  0.4437 -1.0981  2.4517
 6387SOL     OW30622   0.905   0.005   9.281 -0.2679  0.2272 -0.3113
 6387SOL    HW130623   0.941   0.070   9.340 -1.8590 -0.5412  1.5025
 6387SOL    HW230624   0.882   0.061   9.207  0.3016  0.0449 -0.6224
 6388SOL     OW30625   1.101   1.846   3.371 -0.7271 -0.4565  0.3399
 6388SOL    HW130626   1.092   1.836   3.276  0.6423  0.2759  0.1308
 6388SOL    HW230627   1.007   1.856   3.387 -0.9346  1.5249 -2.1431
 6389SOL     OW30628   2.405   3.635   6.127  0.1510 -0.3405 -0.2007
 6389SOL    HW130629   2.320   3.606   6.160 -0.5209  1.5019 -0.3417
 6389SOL    HW230630   2.392   3.635   6.032 -1.1988 -1.5945 -0.0176
 6390SOL     OW30631   2.279   0.124   9.094 -0.2108  0.0694  0.1919
 6390SOL    HW130632   2.260   0.117   9.000 -1.3719 -0.5376  0.4640
 6390SOL    HW230633   2.203   0.079   9.131  0.2619  0.1539  1.2677
 6391SOL     OW30634   2.641   0.942   6.037 -0.1615  0.4316  0.5268
 6391SOL    HW130635   2.583   1.014   6.063 -0.4389  0.4956 -0.2827
 6391SOL    HW230636   2.651   0.965   5.945 -1.1891  1.2112  0.6135
 6392SOL     OW30637   4.495   1.819   6.020  0.4805  0.1161  0.7497
 6392SOL    HW130638   4.465   1.843   5.933 -1.2567 -0.1589  1.2769
 6392SOL    HW230639   4.548   1.896   6.039 -0.3257  0.8026  0.1703
 6393SOL     OW30640   1.770   0.166  11.947  0.3024  0.3666 -0.6049
 6393SOL    HW130641   1.771   0.160  11.852  2.7088 -1.2094 -0.4877
 6393SOL    HW230642   1.829   0.241  11.944  1.2068 -0.3168  0.0994
 6394SOL     OW30643   0.360   0.012   7.335  0.3470  0.5440 -0.1200
 6394SOL    HW130644   0.454   0.001   7.325  0.2341 -0.3623 -0.2273
 6394SOL    HW230645   0.327   4.649   7.359 -1.8032  1.1292 -0.9273
 6395SOL     OW30646   0.962   0.541   1.164  0.0998 -0.1309 -0.0743
 6395SOL    HW130647   0.890   0.553   1.226  0.8641  1.9987  0.3926
 6395SOL    HW230648   0.947   0.600   1.090  0.2202  0.2278  0.1882
 6396SOL     OW30649   2.251   4.135   9.606 -0.2169  0.0024 -0.0227
 6396SOL    HW130650   2.235   4.201   9.672 -1.9976 -0.5001  0.0448
 6396SOL    HW230651   2.325   4.175   9.560 -1.2723  0.0013 -1.7293
 6397SOL     OW30652   1.176   4.594  16.562  0.7555  0.2952 -0.4922
 6397SOL    HW130653   1.149   4.640  16.641 -2.1344  1.4871 -2.1897
 6397SOL    HW230654   1.254   4.549  16.596  0.2740  0.2374  0.5473
 6398SOL     OW30655   3.511   2.616   1.177 -0.5520 -0.3428 -0.4147
 6398SOL    HW130656   3.606   2.620   1.164 -0.6912  2.0279 -0.7872
 6398SOL    HW230657   3.484   2.642   1.089 -1.4062 -2.4263 -0.7724
 6399SOL     OW30658   0.448   4.534  10.675  0.1233 -0.5837 -0.1833
 6399SOL    HW130659   0.415   4.538  10.586  1.9362  0.6730 -0.8133
 6399SOL    HW230660   0.530   4.583  10.668  0.4027 -0.7113  2.1897
 6400SOL     OW30661   4.604   0.595   8.352  0.3495  0.1779  0.4620
 6400SOL    HW130662   4.520   0.574   8.309  0.8230  2.0169 -1.3556
 6400SOL    HW230663   4.588   0.679   8.395 -2.1952  0.1705 -0.4619
 6401SOL     OW30664   0.367   4.633   1.445 -0.8970  0.2339  0.7397
 6401SOL    HW130665   0.422   4.710   1.428 -0.5615  0.1274  1.3413
 6401SOL    HW230666   0.278   4.666   1.447 -1.4285 -1.0280 -2.6321
 6402SOL     OW30667   3.633   3.467   4.950 -0.1180  0.0962  0.4550
 6402SOL    HW130668   3.684   3.425   4.881 -0.4053 -2.4881  1.8349
 6402SOL    HW230669   3.686   3.473   5.029 -0.2140  1.7581  0.3926
 6403SOL     OW30670   4.517   0.983   3.827  0.1903  0.1164  0.0960
 6403SOL    HW130671   4.456   1.037   3.877  0.3645  0.3235  0.0883
 6403SOL    HW230672   4.484   0.895   3.840 -0.2736 -0.0249 -1.9818
 6404SOL     OW30673   1.874   1.041  11.885 -0.4338  0.5680  0.0187
 6404SOL    HW130674   1.895   0.951  11.861  0.2659  0.8843 -0.5766
 6404SOL    HW230675   1.827   1.067  11.806 -1.3198 -0.7903  0.0973
 6405SOL     OW30676   0.851   3.381  10.272  0.4927 -0.5770 -0.2673
 6405SOL    HW130677   0.765   3.341  10.266 -0.6452  1.8237  0.0137
 6405SOL    HW230678   0.871   3.374  10.365  0.1539  2.0707  0.0089
 6406SOL     OW30679   2.080   3.777   5.287  0.0329 -0.0078 -0.1257
 6406SOL    HW130680   2.088   3.685   5.313 -1.4698  0.3430  1.5654
 6406SOL    HW230681   2.114   3.778   5.197  1.7408 -0.4575  0.5049
 6407SOL     OW30682   1.869   1.633   5.345  0.3786 -0.3401  0.2125
 6407SOL    HW130683   1.915   1.551   5.365  0.3545 -0.0927  1.3090
 6407SOL    HW230684   1.850   1.632   5.251  0.3371  0.9554  0.2099
 6408SOL     OW30685   2.504   2.928   8.635  0.3648 -0.0366  0.8007
 6408SOL    HW130686   2.593   2.935   8.669  0.6406 -1.3762  0.3316
 6408SOL    HW230687   2.472   3.018   8.635 -0.3266 -0.2799 -0.1710
 6409SOL     OW30688   2.872   0.630   7.728  0.4442  0.6410 -0.4451
 6409SOL    HW130689   2.877   0.660   7.638  1.7958  0.1771 -0.5228
 6409SOL    HW230690   2.943   0.566   7.729  0.1709  0.3455  0.8366
 6410SOL     OW30691   1.264   3.068   8.833  0.4618  0.3631 -0.3547
 6410SOL    HW130692   1.308   3.089   8.751 -0.3213 -5.1713 -2.2245
 6410SOL    HW230693   1.323   3.026   8.896  0.5358 -1.1582 -1.4383
 6411SOL     OW30694   0.358   0.021   5.479  0.1114 -0.1241 -0.5971
 6411SOL    HW130695   0.316   0.081   5.417 -1.4414 -1.0872 -0.4840
 6411SOL    HW230696   0.436   0.001   5.428  0.8514 -0.8990  0.8332
 6412SOL     OW30697   3.605   2.888   4.031  0.5855 -0.4820 -0.0577
 6412SOL    HW130698   3.649   2.957   4.080  1.3131 -0.2703 -1.0125
 6412SOL    HW230699   3.540   2.862   4.096 -0.2792  1.2104 -0.2428
 6413SOL     OW30700   4.262   3.062   6.192  0.3262  0.0020  0.4534
 6413SOL    HW130701   4.169   3.057   6.167  0.1411  0.6465  1.0137
 6413SOL    HW230702   4.278   3.150   6.225 -0.0210  0.1648  0.1918
 6414SOL     OW30703   2.670   4.354  16.810  0.3934 -0.7441 -0.0204
 6414SOL    HW130704   2.675   4.259  16.798 -0.4468 -1.0775  2.3138
 6414SOL    HW230705   2.679   4.362  16.905  0.5505  0.2945 -0.1272
 6415SOL     OW30706   0.763   3.415   1.540  0.0674 -0.8788  0.4351
 6415SOL    HW130707   0.754   3.383   1.629 -0.3098 -1.0702  0.3245
 6415SOL    HW230708   0.702   3.363   1.488  0.3844 -0.6569 -0.1618
 6416SOL     OW30709   1.548   0.386  15.036 -0.2137 -0.4730  0.1062
 6416SOL    HW130710   1.462   0.343  15.028 -0.3092 -0.1791 -0.4554
 6416SOL    HW230711   1.553   0.441  14.958 -0.2432 -1.9864 -0.9623
 6417SOL     OW30712   0.139   4.040   6.722  0.2729 -0.0393  0.3743
 6417SOL    HW130713   0.224   4.042   6.766 -0.3651  1.3558  1.5308
 6417SOL    HW230714   0.117   3.947   6.713 -0.0389  0.1567 -0.9017
 6418SOL     OW30715   0.879   3.281   2.946 -0.3642  0.2587 -0.3153
 6418SOL    HW130716   0.868   3.311   3.037 -1.3894  0.0150 -0.3520
 6418SOL    HW230717   0.917   3.197   2.970  1.0414  0.9274 -0.2069
 6419SOL     OW30718   1.650   3.290   5.269 -0.7707 -0.1797  0.3145
 6419SOL    HW130719   1.632   3.269   5.360  2.6830  0.3089  1.1114
 6419SOL    HW230720   1.613   3.378   5.275  1.7843  1.1695 -3.3995
 6420SOL     OW30721   2.672   2.687   6.429  0.0136 -0.6338  0.0914
 6420SOL    HW130722   2.747   2.737   6.464 -0.6443  1.1222 -0.9712
 6420SOL    HW230723   2.597   2.710   6.483  0.6312  1.2855  0.1631
 6421SOL     OW30724   4.361   2.049  11.557 -0.2123 -0.2481 -0.1768
 6421SOL    HW130725   4.435   2.102  11.527 -0.5138  0.6057  0.6210
 6421SOL    HW230726   4.381   1.957  11.538 -0.7785 -0.0983 -1.5246
 6422SOL     OW30727   3.572   1.085   3.698  0.3428 -0.1287  0.1517
 6422SOL    HW130728   3.527   1.002   3.680 -0.6131  0.9976 -2.6175
 6422SOL    HW230729   3.636   1.051   3.761 -0.5625 -3.9563 -0.9770
 6423SOL     OW30730   4.007   2.071   5.256 -0.2545 -0.1317  0.3888
 6423SOL    HW130731   4.048   2.157   5.248 -1.4605  0.1380 -2.8279
 6423SOL    HW230732   3.937   2.093   5.318 -0.2633  0.2211  0.2497
 6424SOL     OW30733   1.947   3.691   9.729 -0.4099 -0.1684 -0.5984
 6424SOL    HW130734   1.858   3.725   9.714 -0.3322  0.2489 -0.1098
 6424SOL    HW230735   1.918   3.603   9.753 -0.1018 -0.1438 -0.1301
 6425SOL     OW30736   1.111   0.965  16.773  0.0266 -0.1757 -0.4673
 6425SOL    HW130737   1.093   0.912  16.696 -0.9942  0.3075 -0.5557
 6425SOL    HW230738   1.067   0.912  16.840  0.9873 -1.4137 -0.8221
 6426SOL     OW30739   4.083   1.760   6.146  0.3193 -0.5571  0.3409
 6426SOL    HW130740   4.143   1.731   6.214 -0.1877 -1.7632  0.2710
 6426SOL    HW230741   4.051   1.677   6.111  1.5493 -1.4015  1.2474
 6427SOL     OW30742   0.630   2.240  10.818  0.5435  0.3715  0.4744
 6427SOL    HW130743   0.560   2.300  10.793  0.1130 -0.2169  0.2503
 6427SOL    HW230744   0.642   2.257  10.912 -1.2844  2.7899  0.2631
 6428SOL     OW30745   0.993   0.443  14.935  0.1023 -0.1107 -0.1238
 6428SOL    HW130746   0.929   0.387  14.980 -0.0626 -0.0107 -0.2315
 6428SOL    HW230747   1.005   0.392  14.855 -0.5686 -1.2493  0.5050
 6429SOL     OW30748   1.225   3.765   6.038 -0.1747 -0.3692  0.5069
 6429SOL    HW130749   1.266   3.814   6.110  0.2850 -0.6494  0.4381
 6429SOL    HW230750   1.134   3.757   6.067 -0.3204  1.0426  0.4600
 6430SOL     OW30751   2.620   0.517   2.307  0.2545 -0.1091  0.2816
 6430SOL    HW130752   2.553   0.469   2.356 -0.6121  2.1401  1.2974
 6430SOL    HW230753   2.555   0.570   2.261 -0.4462 -0.6750  0.6202
 6431SOL     OW30754   4.095   0.943  15.068  0.1098 -0.3398 -0.1651
 6431SOL    HW130755   4.003   0.919  15.065 -0.5174  2.1333 -1.0622
 6431SOL    HW230756   4.135   0.863  15.101  0.5731 -0.0253  0.0410
 6432SOL     OW30757   0.265   2.707   4.859  0.3113 -0.4172  0.3027
 6432SOL    HW130758   0.188   2.750   4.898  1.1778  1.1653  0.2698
 6432SOL    HW230759   0.278   2.639   4.925  0.7624 -0.9229 -0.3127
 6433SOL     OW30760   2.356   4.000   4.827  0.5923 -0.2769  0.1643
 6433SOL    HW130761   2.293   4.039   4.888  1.0544  1.1050 -0.2379
 6433SOL    HW230762   2.341   4.055   4.750 -1.4874  1.5188  1.8471
 6434SOL     OW30763   0.610   2.046   8.385  0.2493 -0.1438  0.2697
 6434SOL    HW130764   0.605   1.994   8.305 -1.9922  1.2521 -0.4979
 6434SOL    HW230765   0.642   2.133   8.359  1.5611 -1.4542 -2.5673
 6435SOL     OW30766   2.531   1.887   3.461 -0.7919 -0.2235  0.2080
 6435SOL    HW130767   2.446   1.926   3.481 -1.2106 -0.3717 -1.2497
 6435SOL    HW230768   2.577   1.962   3.422 -0.3938 -0.2483  0.6342
 6436SOL     OW30769   3.071   1.552   0.568 -0.2972 -0.2910  0.3754
 6436SOL    HW130770   3.125   1.485   0.610 -0.8714  0.1633  1.8124
 6436SOL    HW230771   3.019   1.494   0.513 -1.3605  0.8797  0.1342
 6437SOL     OW30772   4.393   3.706   4.772  0.3957 -0.1631  0.1139
 6437SOL    HW130773   4.481   3.742   4.764  0.0773  0.5588 -0.1874
 6437SOL    HW230774   4.416   3.627   4.820 -1.7666 -0.9733 -0.1701
 6438SOL     OW30775   1.215   0.818   4.138 -0.4919 -0.1405  0.7800
 6438SOL    HW130776   1.171   0.833   4.222  0.6141 -0.5725  1.4334
 6438SOL    HW230777   1.201   0.724   4.129  0.3418 -0.1233 -0.6314
 6439SOL     OW30778   0.733   4.282   7.881  0.1934 -0.6025  0.3197
 6439SOL    HW130779   0.700   4.194   7.894 -0.7598 -0.3860 -0.6066
 6439SOL    HW230780   0.827   4.274   7.864 -0.0177 -2.4100  0.0808
 6440SOL     OW30781   1.743   2.064  15.865 -0.1358 -0.3066 -0.2408
 6440SOL    HW130782   1.804   2.020  15.924 -0.2717 -1.8363 -1.2336
 6440SOL    HW230783   1.802   2.099  15.798 -0.6038  1.0343  0.0434
 6441SOL     OW30784   1.506   0.050   5.097 -0.2582 -0.5322 -0.2326
 6441SOL    HW130785   1.555   0.069   5.178 -0.2267  1.1198 -0.6441
 6441SOL    HW230786   1.567   0.103   5.045 -0.9657 -0.6668 -1.1836
 6442SOL     OW30787   1.526   4.094   7.708  0.7898  0.3325 -0.0567
 6442SOL    HW130788   1.472   4.021   7.738 -1.0901  1.1658 -1.3771
 6442SOL    HW230789   1.474   4.120   7.632 -2.1403 -0.3088  1.7242
 6443SOL     OW30790   3.060   0.461   4.597  0.5414  0.4594 -0.0195
 6443SOL    HW130791   3.002   0.520   4.645 -0.3780 -0.7039  0.3032
 6443SOL    HW230792   3.048   0.505   4.513  1.4966  1.8598  0.5730
 6444SOL     OW30793   1.010   1.339   5.549  0.6099  0.1121 -0.6160
 6444SOL    HW130794   1.061   1.273   5.596  1.1993  1.5678  0.7729
 6444SOL    HW230795   0.969   1.278   5.487 -2.5103  0.7371  0.8038
 6445SOL     OW30796   1.193   4.367   8.228  0.2178 -0.1183 -0.1680
 6445SOL    HW130797   1.098   4.360   8.220  0.1129  1.0966  0.0159
 6445SOL    HW230798   1.222   4.290   8.179 -0.9712 -0.2596 -0.6335
 6446SOL     OW30799   2.879   2.831   2.985 -0.7741 -0.0753 -0.2493
 6446SOL    HW130800   2.837   2.746   3.000 -0.2692 -0.5348 -1.4466
 6446SOL    HW230801   2.959   2.815   3.035 -0.9256 -0.5388 -0.1495
 6447SOL     OW30802   4.652   0.741   2.761 -0.1862  0.3697 -0.1074
 6447SOL    HW130803   4.703   0.751   2.680 -1.5971 -0.2943 -1.0739
 6447SOL    HW230804   4.717   0.699   2.817 -0.4229  2.6615  1.8766
 6448SOL     OW30805   2.896   0.291   7.159 -0.2667 -0.1577  0.2669
 6448SOL    HW130806   2.852   0.322   7.080  0.5463 -0.5364 -0.3366
 6448SOL    HW230807   2.916   0.372   7.206  1.7390 -0.9562  0.8042
 6449SOL     OW30808   4.664   0.515   9.303  0.4406 -0.1911  0.3276
 6449SOL    HW130809   4.623   0.485   9.222  0.4400 -2.6303  1.2152
 6449SOL    HW230810   4.662   0.610   9.291  3.8352 -0.1331  0.1386
 6450SOL     OW30811   3.943   1.565   4.318 -0.5952 -0.0939 -0.5284
 6450SOL    HW130812   4.018   1.599   4.269 -1.7230  1.0332 -1.4458
 6450SOL    HW230813   3.892   1.646   4.324  1.0572  0.8865  0.2121
 6451SOL     OW30814   3.995   2.052  12.112  0.1692  0.0482  0.5618
 6451SOL    HW130815   3.949   2.011  12.040  1.8267 -0.7176 -0.0488
 6451SOL    HW230816   3.932   2.122  12.128  0.3066  0.0524  1.0869
 6452SOL     OW30817   2.544   3.618  13.522 -0.5498  0.4660 -0.0306
 6452SOL    HW130818   2.624   3.614  13.575 -1.2634  0.6990  1.0664
 6452SOL    HW230819   2.513   3.540  13.569 -0.9466 -1.0348 -2.7802
 6453SOL     OW30820   2.474   2.576   1.090 -0.4885 -0.4965 -0.0263
 6453SOL    HW130821   2.428   2.540   1.014 -0.8182 -0.5103  0.1831
 6453SOL    HW230822   2.406   2.616   1.144 -1.2050  0.2978 -1.4855
 6454SOL     OW30823   2.985   2.151   2.880  0.8934 -0.3143 -0.0408
 6454SOL    HW130824   3.028   2.125   2.799 -0.4570 -1.0079 -0.5259
 6454SOL    HW230825   3.053   2.127   2.943  1.0813 -1.3477 -0.6291
 6455SOL     OW30826   4.270   1.880  14.984  0.1128 -0.1099 -0.3521
 6455SOL    HW130827   4.321   1.800  14.980 -0.3239 -0.4316  0.6275
 6455SOL    HW230828   4.330   1.934  15.035 -0.8793  1.4545 -0.8375
 6456SOL     OW30829   2.004   1.802  13.308 -0.2313  0.0856  0.4270
 6456SOL    HW130830   2.037   1.719  13.274 -0.7036 -0.3423  1.0037
 6456SOL    HW230831   1.951   1.828  13.233 -0.5724  0.0739  0.6606
 6457SOL     OW30832   1.196   2.700   3.561 -1.2322 -0.0116 -0.1484
 6457SOL    HW130833   1.220   2.792   3.568 -0.2145 -0.3210  0.3879
 6457SOL    HW230834   1.139   2.712   3.485 -1.8119 -2.4968 -0.1168
 6458SOL     OW30835   0.830   4.295  11.841 -0.3827 -0.2655 -0.7391
 6458SOL    HW130836   0.827   4.218  11.784  1.7889 -1.0240  0.1763
 6458SOL    HW230837   0.925   4.308  11.838 -0.4478 -0.1446 -2.2309
 6459SOL     OW30838   2.220   4.053   9.203  0.0433  0.0973  0.0813
 6459SOL    HW130839   2.139   4.052   9.153  0.4395  0.4919 -0.5741
 6459SOL    HW230840   2.193   4.010   9.284  1.2382  0.9626  0.9427
 6460SOL     OW30841   1.757   1.924   5.601  0.5848 -0.6112  0.3827
 6460SOL    HW130842   1.781   1.999   5.547  1.5429  0.9060  2.9761
 6460SOL    HW230843   1.823   1.938   5.669 -0.5597  0.1323  1.3218
 6461SOL     OW30844   3.348   1.295   6.047  0.2398  0.0515 -0.4720
 6461SOL    HW130845   3.270   1.249   6.078  0.2981  0.5588  0.4136
 6461SOL    HW230846   3.384   1.335   6.126 -2.1092 -0.6244  0.9597
 6462SOL     OW30847   3.594   0.489   4.981 -0.6360  0.0645 -0.2101
 6462SOL    HW130848   3.520   0.445   5.023 -0.1256 -0.0002  0.6084
 6462SOL    HW230849   3.595   0.566   5.038 -0.1121 -0.6322  0.7102
 6463SOL     OW30850   2.793   0.689   4.020  0.0828  0.4175 -0.2380
 6463SOL    HW130851   2.854   0.742   3.969 -0.0082  0.9168  0.1865
 6463SOL    HW230852   2.717   0.735   3.984 -0.3010 -0.7862 -0.9802
 6464SOL     OW30853   0.745   4.197   6.350 -0.5284 -0.4736 -0.3679
 6464SOL    HW130854   0.822   4.149   6.319  0.3279  1.4487 -1.2267
 6464SOL    HW230855   0.684   4.126   6.371  1.3777 -1.7210  0.9796
 6465SOL     OW30856   0.595   3.808  14.007  0.1918 -0.3642  0.0082
 6465SOL    HW130857   0.575   3.897  13.976  0.7700  0.2266  1.3285
 6465SOL    HW230858   0.558   3.823  14.094  0.6829 -1.4253  0.3880
 6466SOL     OW30859   4.626   4.485   1.596 -0.1731 -0.2546  0.0706
 6466SOL    HW130860   4.546   4.535   1.581  1.8183  2.4183 -1.3953
 6466SOL    HW230861   4.687   4.556   1.581  0.9009 -1.5954 -1.7811
 6467SOL     OW30862   1.069   2.420   6.695 -0.6594 -0.0728  0.7944
 6467SOL    HW130863   1.034   2.350   6.640  3.4922 -2.7819  1.5282
 6467SOL    HW230864   1.071   2.491   6.630 -1.9881 -0.4141  0.3783
 6468SOL     OW30865   1.014   1.571  17.131 -0.4556 -0.6862 -0.2029
 6468SOL    HW130866   0.927   1.537  17.149  0.0634 -0.1982  3.2137
 6468SOL    HW230867   1.029   1.623  17.210  0.7591  2.0173 -2.2090
 6469SOL     OW30868   2.297   0.987  16.105  0.1357 -0.0064 -0.8288
 6469SOL    HW130869   2.392   1.000  16.112  0.2394 -2.7274  2.3787
 6469SOL    HW230870   2.276   0.939  16.185  1.1569  0.0263 -0.5388
 6470SOL     OW30871   1.664   1.365   3.351 -0.1261 -0.4132 -0.3061
 6470SOL    HW130872   1.589   1.310   3.371  0.6663 -1.1357  0.6621
 6470SOL    HW230873   1.689   1.400   3.436 -3.2305  2.3285 -0.5184
 6471SOL     OW30874   3.019   2.281   9.379 -0.5603 -0.0080 -0.2337
 6471SOL    HW130875   3.070   2.341   9.324 -2.6170  0.0170 -2.1225
 6471SOL    HW230876   3.066   2.278   9.462 -2.5443 -0.0213  0.8856
 6472SOL     OW30877   1.033   3.134   7.954 -0.0234  0.3684 -0.0521
 6472SOL    HW130878   0.966   3.074   7.986 -0.2387 -0.1358 -1.4518
 6472SOL    HW230879   1.092   3.136   8.029  0.3079  1.2447 -0.3316
 6473SOL     OW30880   0.763   1.632   3.815 -0.1289  0.4727  0.1938
 6473SOL    HW130881   0.753   1.575   3.739 -1.4034  0.1387  0.6180
 6473SOL    HW230882   0.845   1.595   3.849 -1.2250 -0.0992  2.1856
 6474SOL     OW30883   3.959   0.633   7.045  0.0050  0.5752  0.2505
 6474SOL    HW130884   4.030   0.613   6.985 -1.4815 -0.9509 -0.9948
 6474SOL    HW230885   3.911   0.551   7.032  0.2878  0.4910 -0.2245
 6475SOL     OW30886   4.279   2.815  13.775  0.5484 -0.0766  0.3219
 6475SOL    HW130887   4.346   2.858  13.722  0.1516 -0.6560 -0.6623
 6475SOL    HW230888   4.271   2.728  13.736  1.4963 -0.2771  0.5907
 6476SOL     OW30889   2.812   3.098   2.526 -0.6441 -0.0071  0.8475
 6476SOL    HW130890   2.729   3.142   2.544 -0.7660  0.3718 -0.6245
 6476SOL    HW230891   2.832   3.047   2.605 -2.1468 -0.7639  0.7307
 6477SOL     OW30892   0.721   3.335   5.548 -0.7710 -0.0290  0.1263
 6477SOL    HW130893   0.655   3.345   5.479  1.6216  1.2010 -2.0113
 6477SOL    HW230894   0.796   3.344   5.489  0.1517 -3.1890  0.8529
 6478SOL     OW30895   4.699   3.355   7.686  0.5244  0.0785  0.4184
 6478SOL    HW130896   4.669   3.265   7.677  1.3912 -0.3253  1.5039
 6478SOL    HW230897   4.682   3.378   7.778 -1.5394 -1.0543  0.3172
 6479SOL     OW30898   3.830   2.615   3.187 -0.3953 -0.3053  0.1273
 6479SOL    HW130899   3.774   2.692   3.176  0.5465  0.0361 -2.2578
 6479SOL    HW230900   3.909   2.659   3.218 -0.7821 -0.3278  1.1191
 6480SOL     OW30901   1.529   2.097   5.274  0.6225  0.4085  0.5022
 6480SOL    HW130902   1.546   2.004   5.283  0.6234  0.2920 -0.7913
 6480SOL    HW230903   1.618   2.123   5.253  0.1087  1.1652 -0.7456
 6481SOL     OW30904   2.243   2.343  12.748 -0.2487 -0.5345  0.1628
 6481SOL    HW130905   2.305   2.380  12.685  1.8891 -1.7179  1.5773
 6481SOL    HW230906   2.284   2.261  12.773  0.0896 -1.6394 -4.0981
 6482SOL     OW30907   4.437   1.796   4.595 -0.1147  0.2733 -0.2105
 6482SOL    HW130908   4.481   1.716   4.567 -1.6965 -1.2192  1.5207
 6482SOL    HW230909   4.367   1.797   4.530 -0.7859  1.6412  0.5290
 6483SOL     OW30910   0.911   4.157  10.749 -0.0394 -0.4442 -0.2365
 6483SOL    HW130911   0.920   4.110  10.832 -0.4639 -1.5366 -0.7994
 6483SOL    HW230912   0.933   4.242  10.785  0.1240 -1.3547  1.8000
 6484SOL     OW30913   3.753   0.143   2.052 -0.3632 -0.6122  0.0066
 6484SOL    HW130914   3.741   0.112   2.142  0.2672  0.7501  0.5689
 6484SOL    HW230915   3.840   0.109   2.032 -0.3086  0.7800 -2.2101
 6485SOL     OW30916   3.880   4.077  12.337  0.4230  0.1069 -0.6808
 6485SOL    HW130917   3.936   4.041  12.268  2.6378  0.7416  0.7847
 6485SOL    HW230918   3.928   4.156  12.361 -1.7954  0.9417  1.0350
 6486SOL     OW30919   3.445   2.545   2.115  0.0623  0.3264 -0.2907
 6486SOL    HW130920   3.540   2.541   2.127 -0.3695 -0.3116  3.0235
 6486SOL    HW230921   3.425   2.457   2.085 -0.7188  0.9052 -1.4403
 6487SOL     OW30922   3.987   3.232  13.430  0.5895 -0.2871  0.5217
 6487SOL    HW130923   4.035   3.204  13.352  0.3712 -1.8056  0.9279
 6487SOL    HW230924   3.982   3.326  13.413  2.1956 -0.5089 -1.1886
 6488SOL     OW30925   4.570   1.890   4.830  0.3379 -0.6743 -0.2679
 6488SOL    HW130926   4.613   1.975   4.832 -0.7021 -0.1312 -1.2937
 6488SOL    HW230927   4.496   1.898   4.770  0.2741 -1.0154 -0.2375
 6489SOL     OW30928   3.508   0.560   8.455  0.1801 -0.0376 -0.3203
 6489SOL    HW130929   3.432   0.579   8.401  0.1811 -1.7956 -0.9346
 6489SOL    HW230930   3.565   0.633   8.432  0.7447 -0.6724 -0.9505
 6490SOL     OW30931   2.673   3.558   5.368 -0.0015  0.3949 -0.2344
 6490SOL    HW130932   2.750   3.594   5.323 -0.0842  1.8271  0.7406
 6490SOL    HW230933   2.609   3.564   5.298  0.8940 -0.3874 -1.1257
 6491SOL     OW30934   2.104   4.591  16.357 -0.5323 -0.1604  0.0445
 6491SOL    HW130935   2.119   4.496  16.361 -1.7619 -0.2364  2.4859
 6491SOL    HW230936   2.197   4.611  16.348 -0.8898  0.5885 -2.0627
 6492SOL     OW30937   4.646   3.251  11.768  0.3135 -0.1213  0.3649
 6492SOL    HW130938   4.608   3.338  11.762 -1.1244 -0.6550  1.6472
 6492SOL    HW230939   4.579   3.198  11.725  2.2831 -2.0312 -0.4013
 6493SOL     OW30940   3.523   3.261  14.812 -0.2017  0.9716  0.1076
 6493SOL    HW130941   3.443   3.230  14.853 -0.0889 -2.8572 -2.5997
 6493SOL    HW230942   3.499   3.295  14.725 -0.2388 -1.5018 -0.8503
 6494SOL     OW30943   3.584   3.559  11.128  0.0251  0.5690  0.0459
 6494SOL    HW130944   3.589   3.484  11.068 -0.4732 -0.1929  0.9612
 6494SOL    HW230945   3.639   3.537  11.203  0.1404  0.8774  0.0518
 6495SOL     OW30946   3.379   1.875  10.305  0.5800 -0.0287  0.2340
 6495SOL    HW130947   3.468   1.855  10.276  0.9836  3.9278 -1.2856
 6495SOL    HW230948   3.361   1.791  10.346 -0.9165 -1.0430 -2.4637
 6496SOL     OW30949   4.282   0.024   0.061  0.4838 -0.0016  0.3151
 6496SOL    HW130950   4.322   4.661   0.055  1.5820  0.4647  0.9799
 6496SOL    HW230951   4.223   0.010  17.684  0.1584  0.9084  0.4118
 6497SOL     OW30952   4.350   4.439   8.472  0.1807  0.1491  0.7687
 6497SOL    HW130953   4.320   4.530   8.462 -1.6426 -0.6551 -1.0225
 6497SOL    HW230954   4.445   4.442   8.473  0.1112  2.4958  0.3664
 6498SOL     OW30955   1.800   0.928   2.991 -0.3867 -0.1768  0.1067
 6498SOL    HW130956   1.836   1.016   2.988 -4.1099  1.3708  0.9404
 6498SOL    HW230957   1.834   0.888   2.911  0.7439  1.5672 -0.2902
 6499SOL     OW30958   2.334   4.716   3.088  0.1340 -0.2258 -0.2749
 6499SOL    HW130959   2.252   0.040   3.105  0.2543 -0.3033  0.5597
 6499SOL    HW230960   2.310   4.657   3.017 -0.3254 -2.2696  1.5829
 6500SOL     OW30961   1.733   0.709   8.034 -0.3392 -0.0727 -0.5397
 6500SOL    HW130962   1.780   0.756   7.965  1.1012 -2.0732 -0.9321
 6500SOL    HW230963   1.780   0.626   8.025 -0.0885  0.1098 -0.9244
 6501SOL     OW30964   4.324   1.018   8.731  0.2123 -0.0170  0.5021
 6501SOL    HW130965   4.300   1.050   8.645 -0.1614 -1.2759  0.1337
 6501SOL    HW230966   4.418   1.037   8.737  0.2057 -0.6180  2.5545
 6502SOL     OW30967   3.824   0.065   9.185 -0.1580 -0.4357  0.2121
 6502SOL    HW130968   3.841   4.696   9.201 -0.5642 -0.5017  0.2433
 6502SOL    HW230969   3.891   0.102   9.243  0.5848 -2.0473  0.3762
 6503SOL     OW30970   0.363   3.600   2.421  0.0140  0.0285  0.5335
 6503SOL    HW130971   0.280   3.647   2.412 -1.0309 -1.9659 -0.3807
 6503SOL    HW230972   0.362   3.520   2.368  1.7889  0.7273 -0.5484
 6504SOL     OW30973   0.972   0.748  12.803 -0.2792  0.0176  0.4755
 6504SOL    HW130974   0.884   0.740  12.768  0.2215  1.0357 -1.0368
 6504SOL    HW230975   1.015   0.680  12.751  0.6640  2.2941 -1.7567
 6505SOL     OW30976   2.012   2.888   6.858  0.4184 -0.6149 -0.5489
 6505SOL    HW130977   1.992   2.797   6.879  0.4261 -0.2118  1.2531
 6505SOL    HW230978   1.928   2.928   6.836  0.4951  0.4680  1.1163
 6506SOL     OW30979   2.969   0.132  13.822 -0.0596 -0.1177  0.1330
 6506SOL    HW130980   2.902   0.188  13.783  1.4775  2.2211  0.8495
 6506SOL    HW230981   2.953   0.144  13.916 -0.0538 -0.1807  0.1424
 6507SOL     OW30982   4.139   1.305  17.399  0.3952 -0.3259  0.1210
 6507SOL    HW130983   4.166   1.328  17.487  1.1986 -1.9165  0.2980
 6507SOL    HW230984   4.085   1.228  17.418 -0.3396  0.2742  0.4573
 6508SOL     OW30985   2.859   0.884   5.409 -0.3171 -0.1907 -0.6600
 6508SOL    HW130986   2.815   0.863   5.492  1.2185  0.6429  0.3546
 6508SOL    HW230987   2.834   0.975   5.394  0.6384  0.3020  0.7234
 6509SOL     OW30988   3.035   3.150   3.791 -0.3173  0.0604 -0.4011
 6509SOL    HW130989   3.114   3.200   3.773 -0.1471 -0.9415 -2.3526
 6509SOL    HW230990   3.072   3.091   3.856  0.4390 -0.7287 -1.5610
 6510SOL     OW30991   1.041   3.672  11.348  0.3518  0.2655  1.1388
 6510SOL    HW130992   0.990   3.622  11.284  0.2269 -0.1268  1.5457
 6510SOL    HW230993   1.123   3.644  11.309 -0.6904  0.1544 -1.0039
 6511SOL     OW30994   4.335   4.073  15.755  0.0992  0.3399  0.1451
 6511SOL    HW130995   4.247   4.104  15.776  0.6264  2.2667 -0.5067
 6511SOL    HW230996   4.350   4.105  15.666 -1.9805  0.1637 -0.2688
 6512SOL     OW30997   4.451   0.709   5.959  0.3705  0.3129 -0.1841
 6512SOL    HW130998   4.374   0.717   6.016 -1.3068  1.1195 -2.5295
 6512SOL    HW230999   4.416   0.710   5.870 -3.2023  0.7241  1.1845
 6513SOL     OW31000   4.206   0.773   2.840 -0.4321  0.5243 -0.2758
 6513SOL    HW131001   4.275   0.754   2.777 -0.2123 -1.1703  0.4865
 6513SOL    HW231002   4.132   0.769   2.779 -1.2932  1.2130  0.7147
 6514SOL     OW31003   0.649   4.652   3.394  0.3577 -0.4426 -0.1906
 6514SOL    HW131004   0.562   4.639   3.356 -0.1657 -0.9671  1.1706
 6514SOL    HW231005   0.677   4.564   3.420 -2.3016 -0.8364  1.3812
 6515SOL     OW31006   0.195   2.507   8.483 -0.0981 -0.1031  0.0470
 6515SOL    HW131007   0.259   2.577   8.496  0.0711 -0.5324  1.4921
 6515SOL    HW231008   0.248   2.446   8.431  0.7930  0.1939  0.6145
 6516SOL     OW31009   0.318   2.299   6.756 -0.0703 -0.2089 -0.5653
 6516SOL    HW131010   0.245   2.286   6.696  0.1503  0.4852 -0.9717
 6516SOL    HW231011   0.369   2.220   6.741  0.9164  0.2148  0.5700
 6517SOL     OW31012   1.025   4.547   2.473  0.4947  0.5329 -0.3272
 6517SOL    HW131013   0.943   4.528   2.518  0.5175  1.0770 -0.0591
 6517SOL    HW231014   1.089   4.531   2.542  0.9117  2.2756 -0.3227
 6518SOL     OW31015   2.069   2.597   6.422 -0.1998  0.1773 -0.0642
 6518SOL    HW131016   2.041   2.535   6.489 -2.4785  0.6516 -0.6064
 6518SOL    HW231017   2.075   2.676   6.476  0.2908 -0.8041  1.3421
 6519SOL     OW31018   3.475   1.394   6.549 -0.0103  0.1687  0.4479
 6519SOL    HW131019   3.525   1.346   6.615 -0.2384 -0.2667  0.3075
 6519SOL    HW231020   3.458   1.476   6.595  1.1495 -0.5060  2.0610
 6520SOL     OW31021   4.114   0.104  14.332 -0.2298 -0.0962 -0.4029
 6520SOL    HW131022   4.204   0.088  14.361 -0.4323 -3.1111 -1.4824
 6520SOL    HW231023   4.120   0.046  14.256  1.7022 -0.8434  0.3316
 6521SOL     OW31024   3.052   4.098   7.194 -0.4650  0.0398 -0.4635
 6521SOL    HW131025   3.088   4.152   7.124 -1.6851  1.9445  0.3580
 6521SOL    HW231026   3.069   4.160   7.266  0.3343 -1.1419  0.3648
 6522SOL     OW31027   0.140   3.315   7.475 -0.3299 -0.1912 -0.0027
 6522SOL    HW131028   0.199   3.389   7.461 -1.3193  0.5585 -0.2552
 6522SOL    HW231029   0.100   3.347   7.556  0.0760  3.1583 -1.0984
 6523SOL     OW31030   4.039   1.399  13.217 -1.0037 -0.1916  0.1613
 6523SOL    HW131031   4.091   1.327  13.180 -0.2415 -1.1815  3.1869
 6523SOL    HW231032   4.068   1.405  13.308 -1.3394 -1.5171  0.3547
 6524SOL     OW31033   3.111   3.623  11.813 -0.2903  0.2448  0.2493
 6524SOL    HW131034   3.042   3.557  11.803 -0.9025  0.6412  1.8044
 6524SOL    HW231035   3.069   3.702  11.780  0.3747  0.3033 -0.4524
 6525SOL     OW31036   2.285   2.275   3.400 -0.2459  0.4139  0.4874
 6525SOL    HW131037   2.232   2.313   3.329  0.2482 -0.2459 -0.2311
 6525SOL    HW231038   2.288   2.183   3.374  1.0229 -0.5817  4.1400
 6526SOL     OW31039   3.883   1.085   1.308  0.2943 -0.2694 -0.0717
 6526SOL    HW131040   3.833   1.160   1.275  0.7811 -0.4419 -1.1908
 6526SOL    HW231041   3.916   1.047   1.226  0.1205 -1.9892  0.6465
 6527SOL     OW31042   3.133   4.575   5.808 -0.4781  0.2378 -0.0355
 6527SOL    HW131043   3.137   4.664   5.843  1.6039 -0.5977  1.8580
 6527SOL    HW231044   3.109   4.527   5.888 -2.2053  0.8237 -0.2216
 6528SOL     OW31045   3.791   4.540   3.681  0.1368 -0.3990  0.7625
 6528SOL    HW131046   3.812   4.477   3.613 -1.5072 -1.4605  1.2286
 6528SOL    HW231047   3.874   4.539   3.729  0.4589  1.8533  0.2571
 6529SOL     OW31048   1.129   4.338  11.866 -0.3857 -0.3987 -0.4215
 6529SOL    HW131049   1.209   4.317  11.914 -1.8262 -4.2070  0.3243
 6529SOL    HW231050   1.121   4.250  11.829 -1.1894 -1.3350  1.9657
 6530SOL     OW31051   3.319   1.143  16.819  0.1840 -0.3728 -0.1262
 6530SOL    HW131052   3.250   1.170  16.880  1.5146  0.9796  0.7677
 6530SOL    HW231053   3.387   1.201  16.852 -0.2939  0.3913 -0.4938
 6531SOL     OW31054   3.601   3.536   1.037  0.1555  0.1958 -0.0299
 6531SOL    HW131055   3.574   3.481   1.111  2.1874 -1.8565 -0.8366
 6531SOL    HW231056   3.540   3.492   0.978  0.6815 -1.2821  0.5343
 6532SOL     OW31057   1.679   3.889   2.703 -0.4246 -0.4792  0.7079
 6532SOL    HW131058   1.629   3.807   2.704 -1.3255  0.0810  1.6325
 6532SOL    HW231059   1.698   3.896   2.797  2.3003  1.3300  0.0126
 6533SOL     OW31060   3.915   0.058   6.137  0.3404  0.5498  0.4625
 6533SOL    HW131061   3.824   0.036   6.157  0.7372 -3.0951 -1.7172
 6533SOL    HW231062   3.918   0.147   6.172 -2.5651  0.9778 -0.3893
 6534SOL     OW31063   3.496   0.804   5.272  0.0962 -0.0259 -0.2556
 6534SOL    HW131064   3.493   0.795   5.177 -0.1677  1.4356 -0.3842
 6534SOL    HW231065   3.497   0.900   5.277 -1.4432  0.0674 -1.6234
 6535SOL     OW31066   3.464   3.054  13.905  0.0391 -0.1237  0.2825
 6535SOL    HW131067   3.506   2.978  13.946  3.0129  0.5938 -1.3851
 6535SOL    HW231068   3.538   3.109  13.876  0.9186 -0.1775  2.4236
 6536SOL     OW31069   0.302   1.313   7.444  0.5999 -0.6502 -0.2999
 6536SOL    HW131070   0.318   1.407   7.430 -0.6247 -0.6614 -1.8610
 6536SOL    HW231071   0.394   1.289   7.446  0.1187 -2.5591 -1.0234
 6537SOL     OW31072   0.996   3.271  12.266 -0.0086  0.1943  0.1985
 6537SOL    HW131073   0.950   3.298  12.186 -0.0292  0.6428  0.3647
 6537SOL    HW231074   0.933   3.218  12.314 -2.8985  0.2038 -3.5177
 6538SOL     OW31075   3.641   3.849  15.808 -0.3737  0.1135 -0.1558
 6538SOL    HW131076   3.729   3.821  15.832 -0.3543  2.2645  2.3156
 6538SOL    HW231077   3.638   3.931  15.857  1.7774 -1.3969  2.4534
 6539SOL     OW31078   4.384   1.480  17.143  0.0532  0.4873  0.3874
 6539SOL    HW131079   4.410   1.549  17.204  2.2848 -0.3664  0.4073
 6539SOL    HW231080   4.344   1.539  17.080  0.9163 -0.7595 -1.3175
 6540SOL     OW31081   4.328   2.568   2.644  0.8597  0.2064  0.0527
 6540SOL    HW131082   4.269   2.495   2.663  0.5134  0.5179  0.1697
 6540SOL    HW231083   4.411   2.538   2.682  0.3808 -2.7169 -1.2104
 6541SOL     OW31084   3.646   1.735   2.635 -0.5522  0.0248  0.2558
 6541SOL    HW131085   3.706   1.702   2.569 -1.2275 -0.2021 -0.2442
 6541SOL    HW231086   3.610   1.651   2.662 -0.3377  1.1304  4.0817
 6542SOL     OW31087   3.315   3.546   6.101  0.3619  0.3303 -0.1956
 6542SOL    HW131088   3.410   3.532   6.103  0.3451  0.0449 -1.5051
 6542SOL    HW231089   3.299   3.580   6.189 -2.3666 -0.6307 -0.3029
 6543SOL     OW31090   0.097   1.418   5.891 -0.5666 -0.7825  0.0069
 6543SOL    HW131091   0.191   1.416   5.909 -0.5839 -3.0100 -0.1874
 6543SOL    HW231092   0.082   1.361   5.815 -3.3873  0.0987 -0.0984
 6544SOL     OW31093   1.576   3.129   1.926  0.0099  0.0149 -0.0733
 6544SOL    HW131094   1.552   3.109   1.835 -0.0255 -2.9048  0.5978
 6544SOL    HW231095   1.635   3.202   1.908 -1.0717  1.4290  2.1269
 6545SOL     OW31096   0.578   2.244   2.026 -0.0747  0.5160  0.0894
 6545SOL    HW131097   0.489   2.226   2.055  0.1949 -1.5929 -0.4167
 6545SOL    HW231098   0.565   2.334   1.993  1.0789  1.4158  2.0924
 6546SOL     OW31099   1.745   2.840   1.619 -0.1589  0.2225 -0.0202
 6546SOL    HW131100   1.698   2.848   1.536  0.9507  0.6588 -0.5979
 6546SOL    HW231101   1.776   2.931   1.620  0.7562 -0.0841 -0.7075
 6547SOL     OW31102   1.143   1.104   3.354  0.0893  0.2260 -0.1406
 6547SOL    HW131103   1.146   1.089   3.449 -2.9073 -0.5545 -0.1606
 6547SOL    HW231104   1.221   1.055   3.331  0.7067 -0.1381  2.7088
 6548SOL     OW31105   1.112   2.093   8.371  0.7506  0.1281  0.1321
 6548SOL    HW131106   1.112   2.057   8.459  0.7283  0.4842  0.2788
 6548SOL    HW231107   1.119   2.022   8.308  0.8521  1.9914 -1.9687
 6549SOL     OW31108   1.248   3.152   9.212  0.3351  0.0836  0.0707
 6549SOL    HW131109   1.313   3.210   9.252 -0.4431 -0.1573  1.6591
 6549SOL    HW231110   1.279   3.070   9.172  0.2715  1.0482 -1.9813
 6550SOL     OW31111   3.271   4.657   4.040 -0.1845  0.3632 -0.1749
 6550SOL    HW131112   3.208   0.004   4.052  1.2641  1.7345 -0.7251
 6550SOL    HW231113   3.309   4.679   3.955  0.3824  2.3608  0.5823
 6551SOL     OW31114   0.566   4.697   3.979 -0.1298 -0.1547 -1.0144
 6551SOL    HW131115   0.632   4.720   3.913  1.4929 -0.7556  0.4016
 6551SOL    HW231116   0.610   4.624   4.021  1.1770  1.7518  0.9559
 6552SOL     OW31117   0.259   0.733  12.174  0.0771  0.4827 -0.3218
 6552SOL    HW131118   0.290   0.642  12.168 -1.5634 -0.1291  0.7932
 6552SOL    HW231119   0.342   0.781  12.178  0.3267 -0.0665  0.8662
 6553SOL     OW31120   4.705   2.415   1.949 -0.2903 -0.1640 -0.0075
 6553SOL    HW131121   0.025   2.369   1.877  0.7165  2.0745 -0.8329
 6553SOL    HW231122   0.054   2.470   1.978  1.1049 -1.8876 -0.2606
 6554SOL     OW31123   4.320   4.477  10.807 -0.0393 -0.1410  0.2040
 6554SOL    HW131124   4.292   4.566  10.831  0.4731  0.2685 -0.6864
 6554SOL    HW231125   4.404   4.478  10.852  0.5484 -2.2822 -0.8389
 6555SOL     OW31126   1.522   3.678   4.295 -0.1817 -0.4672  0.1564
 6555SOL    HW131127   1.614   3.676   4.269  0.0353 -1.2361  0.9947
 6555SOL    HW231128   1.470   3.677   4.214 -1.1441  1.6180  0.7591
 6556SOL     OW31129   0.318   2.417   7.423 -0.4778 -0.9494 -0.2303
 6556SOL    HW131130   0.265   2.432   7.501  1.7021 -1.1716  1.2870
 6556SOL    HW231131   0.398   2.417   7.476 -2.4044  3.5437  2.6472
 6557SOL     OW31132   1.757   2.138   4.503 -0.0772  0.6038  0.3331
 6557SOL    HW131133   1.683   2.197   4.522  1.4556  2.1070  1.5793
 6557SOL    HW231134   1.786   2.180   4.422 -2.8671  1.8131 -0.0462
 6558SOL     OW31135   3.464   0.730   7.974 -0.7164  0.8529 -0.0454
 6558SOL    HW131136   3.447   0.704   7.883 -2.5535  0.3486  0.4273
 6558SOL    HW231137   3.552   0.697   7.991 -0.8813 -0.2292 -1.2882
 6559SOL     OW31138   0.811   1.304  11.193  0.8344 -0.4335  0.0969
 6559SOL    HW131139   0.821   1.377  11.255 -0.6677  0.4504 -0.7019
 6559SOL    HW231140   0.794   1.356  11.114 -2.0850 -1.7393 -0.1339
 6560SOL     OW31141   2.518   3.311  15.108  0.1689 -0.0839 -0.3033
 6560SOL    HW131142   2.487   3.401  15.103 -0.2735 -0.1343  1.3806
 6560SOL    HW231143   2.607   3.339  15.127  0.2485 -0.1478 -0.5749
 6561SOL     OW31144   3.484   2.844   4.599 -0.1394  0.4649 -0.6306
 6561SOL    HW131145   3.439   2.926   4.576 -1.6180 -0.4403 -0.9328
 6561SOL    HW231146   3.468   2.839   4.693  0.9461  1.2380 -0.4138
 6562SOL     OW31147   3.259   3.445   0.578 -0.3655  0.2421  0.3695
 6562SOL    HW131148   3.311   3.523   0.559  0.1702 -0.5628 -1.4439
 6562SOL    HW231149   3.167   3.468   0.596 -0.6744  0.4233 -1.3926
 6563SOL     OW31150   1.570   1.013  11.453  0.5597 -0.4254  0.3573
 6563SOL    HW131151   1.569   1.021  11.357 -1.3347 -2.5243  0.1998
 6563SOL    HW231152   1.495   0.953  11.453  0.7051 -0.6022  0.7590
 6564SOL     OW31153   3.680   2.182   1.916  0.3132 -0.3720  0.1181
 6564SOL    HW131154   3.697   2.248   1.849 -1.9666  0.3112  0.2102
 6564SOL    HW231155   3.753   2.192   1.977  0.5864 -0.7167 -0.1484
 6565SOL     OW31156   1.953   2.512  13.480 -0.3145 -0.2139  0.6082
 6565SOL    HW131157   1.960   2.605  13.501 -0.1799 -0.1523  0.2876
 6565SOL    HW231158   1.875   2.490  13.531  0.4428 -0.2470  1.7663
 6566SOL     OW31159   2.811   0.026   3.818 -0.4017 -0.6007  0.0043
 6566SOL    HW131160   2.821   4.682   3.885  2.4226 -1.1351 -0.9694
 6566SOL    HW231161   2.895   0.024   3.772  0.9083  1.0552  2.3340
 6567SOL     OW31162   2.131   1.659  16.513  0.5429 -0.8301 -0.0685
 6567SOL    HW131163   2.210   1.610  16.488 -1.2445 -2.5690 -2.2165
 6567SOL    HW231164   2.089   1.674  16.429  0.2353  0.4202  0.3062
 6568SOL     OW31165   3.882   3.180  12.805  0.3663  0.1307 -0.0994
 6568SOL    HW131166   3.853   3.125  12.878 -1.5438 -0.8403 -1.6059
 6568SOL    HW231167   3.937   3.119  12.755  2.7074 -0.0218  2.6148
 6569SOL     OW31168   2.386   1.481  11.375 -0.3865 -0.4114  0.6462
 6569SOL    HW131169   2.329   1.473  11.451  2.3655  0.4844  2.8050
 6569SOL    HW231170   2.322   1.475  11.303 -1.2051 -0.0678  1.3503
 6570SOL     OW31171   0.765   4.213   5.219  0.2329 -0.0546 -0.3350
 6570SOL    HW131172   0.718   4.279   5.169 -2.1709  0.1508  2.1343
 6570SOL    HW231173   0.857   4.218   5.195  0.4046 -1.3094  0.0461
 6571SOL     OW31174   2.978   1.572  12.991  0.4239 -0.1126  0.5376
 6571SOL    HW131175   3.022   1.609  13.067  2.5388  1.4939 -1.4924
 6571SOL    HW231176   3.051   1.576  12.929 -0.7141  1.0607 -0.7065
 6572SOL     OW31177   2.969   4.038  13.642 -0.2776 -0.7150  0.4693
 6572SOL    HW131178   3.045   4.044  13.584 -1.8753 -1.0732 -1.6486
 6572SOL    HW231179   2.951   4.124  13.679 -2.4490 -0.7694 -0.4559
 6573SOL     OW31180   0.131   1.908  17.120 -0.1103 -0.0687  0.2845
 6573SOL    HW131181   0.179   1.865  17.049  0.0246 -0.5808  0.6892
 6573SOL    HW231182   0.203   1.915  17.183  0.7223 -1.4170 -0.5223
 6574SOL     OW31183   3.985   3.520  15.050  0.0886  0.3052 -0.6406
 6574SOL    HW131184   3.892   3.496  15.044 -0.2666  1.6217 -0.4386
 6574SOL    HW231185   4.015   3.453  14.988  0.2070  0.1060 -0.3660
 6575SOL     OW31186   4.066   2.365  14.536  0.3630  0.6477 -0.6512
 6575SOL    HW131187   4.005   2.335  14.603  0.0429  0.1446 -1.1726
 6575SOL    HW231188   4.035   2.454  14.553  0.8276  0.3215  2.0308
 6576SOL     OW31189   3.574   2.725   8.832 -0.1979 -0.2708 -0.8036
 6576SOL    HW131190   3.598   2.790   8.766 -0.5204  0.6358 -0.0293
 6576SOL    HW231191   3.652   2.722   8.887 -2.1190 -0.8289  1.9216
 6577SOL     OW31192   4.025   2.404   3.592 -0.4536  0.1720  0.6639
 6577SOL    HW131193   4.086   2.381   3.522  2.1781  0.1794  2.9838
 6577SOL    HW231194   3.957   2.440   3.535  1.0938  1.3457 -0.4631
 6578SOL     OW31195   0.282   1.529   6.975  0.2720 -0.4176  0.0236
 6578SOL    HW131196   0.325   1.541   7.060 -2.4567  0.6104  1.2880
 6578SOL    HW231197   0.280   1.622   6.953  0.3375 -0.4112  0.0474
 6579SOL     OW31198   2.047   4.340   1.551 -0.2353 -0.1381  0.0167
 6579SOL    HW131199   2.079   4.423   1.516 -0.6208  0.1916  0.4551
 6579SOL    HW231200   2.005   4.380   1.627 -0.1272 -1.4827  0.7780
 6580SOL     OW31201   0.758   4.064  11.709  0.1663 -0.1399 -0.5459
 6580SOL    HW131202   0.838   4.011  11.702  0.2231 -0.1187 -0.0440
 6580SOL    HW231203   0.702   4.000  11.753  1.2216  1.3825  3.0018
 6581SOL     OW31204   1.219   1.381   0.153 -0.2749  0.2849 -0.1086
 6581SOL    HW131205   1.273   1.323   0.099  0.5797  0.2393  0.7909
 6581SOL    HW231206   1.282   1.443   0.188  0.1616 -0.5011  0.5090
 6582SOL     OW31207   0.991   1.667  17.421  0.2092 -0.1285 -0.2550
 6582SOL    HW131208   0.911   1.701  17.459  1.5964  2.3126  0.4792
 6582SOL    HW231209   1.004   1.581  17.461  2.3121  0.7940  1.0860
 6583SOL     OW31210   4.420   0.702   8.633 -0.4370 -0.2566  0.1653
 6583SOL    HW131211   4.413   0.610   8.606 -1.4725 -1.0147  2.9777
 6583SOL    HW231212   4.329   0.728   8.643 -0.5081 -0.5209  0.2034
 6584SOL     OW31213   1.685   1.879   0.286 -1.0818  0.4188 -0.5755
 6584SOL    HW131214   1.635   1.872   0.367  0.8090  2.5171  0.7796
 6584SOL    HW231215   1.648   1.816   0.224 -1.3590 -0.1714  0.2014
 6585SOL     OW31216   3.399   4.233   2.103 -0.3139 -0.7611 -0.8341
 6585SOL    HW131217   3.469   4.268   2.158  0.4909 -2.1751 -0.9627
 6585SOL    HW231218   3.441   4.232   2.016  1.5697 -0.3205  0.0792
 6586SOL     OW31219   1.122   0.906   4.378 -0.1618  0.1488  0.0258
 6586SOL    HW131220   1.070   0.972   4.422 -1.0533  0.6981 -1.8320
 6586SOL    HW231221   1.209   0.946   4.380  0.0904 -0.3389 -0.9000
 6587SOL     OW31222   0.912   0.955   5.603 -0.7098 -0.0018 -0.8530
 6587SOL    HW131223   0.950   0.902   5.673 -1.9233  2.9834  2.0633
 6587SOL    HW231224   0.843   1.001   5.650  0.0303  1.4854 -1.2105
 6588SOL     OW31225   3.374   2.604  11.924  0.1274 -0.3068 -0.7956
 6588SOL    HW131226   3.464   2.601  11.954  0.2368  0.0082 -1.0890
 6588SOL    HW231227   3.324   2.534  11.967  0.2710  0.9439  1.3698
 6589SOL     OW31228   3.564   0.847   7.310  0.2207  0.4229  0.1391
 6589SOL    HW131229   3.487   0.832   7.256  0.9421 -2.3317 -0.1719
 6589SOL    HW231230   3.581   0.753   7.315 -1.1968  0.3240  3.1710
 6590SOL     OW31231   4.662   0.605   5.260 -0.0860  0.3264 -0.1981
 6590SOL    HW131232   4.576   0.562   5.256  0.4306 -1.0443  3.0327
 6590SOL    HW231233   4.689   0.598   5.169  0.3419  1.0340 -0.1197
 6591SOL     OW31234   3.878   1.677   9.702  0.1677 -0.4619  0.3423
 6591SOL    HW131235   3.918   1.763   9.711 -0.7081  0.1197 -1.2382
 6591SOL    HW231236   3.937   1.615   9.745  2.9193  1.0485 -1.2364
 6592SOL     OW31237   2.667   0.525  15.039 -0.3930  0.0365  0.2181
 6592SOL    HW131238   2.635   0.612  15.060  1.8636  0.9895 -0.3195
 6592SOL    HW231239   2.669   0.520  14.944  0.3491 -0.5700  0.2587
 6593SOL     OW31240   3.815   0.997   3.834 -0.2036 -0.2267 -0.0984
 6593SOL    HW131241   3.876   0.991   3.907  0.6544  1.9904 -0.6481
 6593SOL    HW231242   3.875   1.015   3.762 -0.6434 -0.9774 -0.6554
 6594SOL     OW31243   4.445   3.478   3.717 -0.4647 -0.4139  0.1505
 6594SOL    HW131244   4.495   3.507   3.641 -0.3709 -0.7088  0.1006
 6594SOL    HW231245   4.515   3.467   3.781 -0.0070  0.5768 -0.1795
 6595SOL     OW31246   1.575   0.736   3.340 -0.0661  0.0664  0.0300
 6595SOL    HW131247   1.664   0.745   3.308 -0.0183  2.6243  0.9031
 6595SOL    HW231248   1.584   0.745   3.435  1.6829  2.6187 -0.3721
 6596SOL     OW31249   0.567   0.845   3.134  0.2699  0.1474  0.9227
 6596SOL    HW131250   0.541   0.932   3.105  1.3926 -0.9368 -3.3215
 6596SOL    HW231251   0.504   0.825   3.204 -0.7348 -0.3827 -0.1245
 6597SOL     OW31252   4.475   1.479   2.431 -0.2496  0.1327  0.3591
 6597SOL    HW131253   4.571   1.474   2.434 -0.2238 -0.1910 -1.0876
 6597SOL    HW231254   4.477   1.513   2.341 -3.5071  3.0402  1.3889
 6598SOL     OW31255   0.956   0.487   6.567  0.1821  0.2640  0.0354
 6598SOL    HW131256   0.861   0.495   6.576  0.1665  0.7443 -0.5512
 6598SOL    HW231257   0.963   0.428   6.492 -1.6321 -0.0702  0.1435
 6599SOL     OW31258   1.720   1.725   4.253 -0.2334  0.1123 -0.2298
 6599SOL    HW131259   1.645   1.782   4.263 -0.1878  0.4313 -1.8422
 6599SOL    HW231260   1.787   1.788   4.282 -0.4954 -0.3738  1.4754
 6600SOL     OW31261   2.766   4.126  14.930  0.3569 -0.2965 -0.5951
 6600SOL    HW131262   2.702   4.067  14.970  0.3402 -0.2841 -0.6039
 6600SOL    HW231263   2.712   4.179  14.872 -0.4932 -0.2107  0.2705
 6601SOL     OW31264   0.954   3.386   7.883  0.2617  1.1303  0.3620
 6601SOL    HW131265   0.919   3.415   7.967 -0.3791  0.8908  0.1776
 6601SOL    HW231266   0.956   3.290   7.887 -0.8754  1.1046  0.2622
 6602SOL     OW31267   2.457   4.610  10.611 -0.0974 -0.0053 -0.4896
 6602SOL    HW131268   2.428   4.694  10.645  2.5921  0.8164 -0.1754
 6602SOL    HW231269   2.388   4.554  10.647  1.2433 -1.8042 -0.6640
 6603SOL     OW31270   0.937   0.308  12.388  0.3322  0.0332  0.1430
 6603SOL    HW131271   0.989   0.241  12.343  1.0567 -0.4645  1.7442
 6603SOL    HW231272   0.965   0.308  12.479 -1.5167 -1.8889  0.7236
 6604SOL     OW31273   1.376   3.944   6.237 -0.1706  0.2580  0.7829
 6604SOL    HW131274   1.464   3.980   6.229 -0.9008  2.0267  0.7400
 6604SOL    HW231275   1.379   3.921   6.329  0.3698  0.1996  0.7492
 6605SOL     OW31276   3.774   1.469   9.306  0.0755  0.2277 -0.4767
 6605SOL    HW131277   3.720   1.396   9.338 -0.7025  0.8550 -0.3598
 6605SOL    HW231278   3.743   1.547   9.353 -0.0123 -0.2827  0.3158
 6606SOL     OW31279   0.407   2.958   7.646 -0.1820 -0.3892  0.2713
 6606SOL    HW131280   0.418   2.931   7.555  0.5088 -0.1029  0.2645
 6606SOL    HW231281   0.320   2.996   7.638  0.3445  1.3648  3.0397
 6607SOL     OW31282   3.790   3.018  11.116 -0.2185 -0.4135  0.1076
 6607SOL    HW131283   3.723   3.031  11.049 -0.3462  0.9442  0.4894
 6607SOL    HW231284   3.776   2.924  11.127 -2.2782 -0.3503 -1.8835
 6608SOL     OW31285   4.155   3.530   1.612  0.0734 -0.3105 -0.0988
 6608SOL    HW131286   4.081   3.469   1.613 -0.4524  0.3250 -0.3734
 6608SOL    HW231287   4.126   3.621   1.610  0.0957 -0.2962  0.1644
 6609SOL     OW31288   3.311   1.364   4.944 -0.4077 -0.1985 -0.1551
 6609SOL    HW131289   3.398   1.363   4.984 -0.1987  0.5108 -0.5939
 6609SOL    HW231290   3.301   1.270   4.926 -0.5569 -0.0897 -0.6512
 6610SOL     OW31291   2.967   4.644   7.340  0.2302 -0.4756  0.7680
 6610SOL    HW131292   2.969   0.011   7.310 -0.6954  0.3701  3.2692
 6610SOL    HW231293   2.887   4.619   7.293  0.2148  0.7256  0.1605
 6611SOL     OW31294   2.425   2.017   6.559 -0.8047  0.1779 -0.1134
 6611SOL    HW131295   2.364   1.972   6.501 -1.2135  3.0182 -1.8465
 6611SOL    HW231296   2.441   2.103   6.520  0.7889 -0.6316 -1.2412
 6612SOL     OW31297   3.399   3.728   2.597 -0.1522  0.2359 -0.0588
 6612SOL    HW131298   3.362   3.700   2.680 -1.5799 -1.9021 -1.3994
 6612SOL    HW231299   3.323   3.779   2.569  0.2113  1.1812  0.6857
 6613SOL     OW31300   2.097   0.358   6.606  0.3351  0.4166 -0.1038
 6613SOL    HW131301   2.179   0.376   6.652 -0.2968  0.1559  1.1298
 6613SOL    HW231302   2.071   0.445   6.576  1.6890  0.4812 -1.0792
 6614SOL     OW31303   1.624   3.457   3.265  0.0656  0.1539  0.0219
 6614SOL    HW131304   1.541   3.422   3.298  0.7354 -2.7950 -1.3885
 6614SOL    HW231305   1.671   3.382   3.227 -0.0909  0.1038 -0.0748
 6615SOL     OW31306   4.585   2.141   2.418  0.0263 -0.8652 -0.0755
 6615SOL    HW131307   4.649   2.081   2.380  1.7100  0.9024 -0.0346
 6615SOL    HW231308   4.551   2.170   2.333 -0.6278 -0.0998  0.4580
 6616SOL     OW31309   4.552   1.888   1.720  0.0402 -0.3740  0.2779
 6616SOL    HW131310   4.460   1.906   1.702 -0.5987  1.3894  5.3068
 6616SOL    HW231311   4.601   1.970   1.724  0.3852 -0.6103  0.9240
 6617SOL     OW31312   2.649   1.774   5.710 -0.0536  0.3941 -0.5719
 6617SOL    HW131313   2.734   1.777   5.754 -0.1052  2.2795 -0.5969
 6617SOL    HW231314   2.598   1.820   5.777  2.1323  1.4055  0.3842
 6618SOL     OW31315   2.779   0.396   3.960 -0.3632  0.3823 -0.2459
 6618SOL    HW131316   2.868   0.383   3.927 -0.2984 -3.8676  1.6728
 6618SOL    HW231317   2.782   0.483   4.002 -2.4940 -0.0083  0.7074
 6619SOL     OW31318   2.731   4.589   2.249 -0.1353  0.2774 -0.6450
 6619SOL    HW131319   2.806   4.575   2.306 -0.1009  0.0510 -0.7478
 6619SOL    HW231320   2.772   4.624   2.170  0.6579 -0.4593 -0.5538
 6620SOL     OW31321   3.674   1.502  10.220 -0.5621 -0.1989 -0.1598
 6620SOL    HW131322   3.646   1.448  10.146  1.8438 -0.3055 -1.0016
 6620SOL    HW231323   3.732   1.571  10.188  0.6296 -0.3224  1.7604
 6621SOL     OW31324   0.943   4.373  12.229  0.3743  0.3952  0.0959
 6621SOL    HW131325   0.885   4.303  12.198  2.4198 -0.0586 -2.7484
 6621SOL    HW231326   0.902   4.397  12.312  0.0808  0.2206 -0.0013
 6622SOL     OW31327   3.300   2.719  11.090  0.0332  0.7948  0.7138
 6622SOL    HW131328   3.251   2.767  11.024  1.1423  1.2318  0.2149
 6622SOL    HW231329   3.244   2.742  11.164 -0.0689  0.6445  0.6856
 6623SOL     OW31330   2.400   3.218   9.268  0.2095 -0.1756 -0.1959
 6623SOL    HW131331   2.323   3.271   9.249 -1.3758 -1.7363  1.8919
 6623SOL    HW231332   2.424   3.258   9.351  0.0057 -1.8697  0.6828
 6624SOL     OW31333   0.268   0.698   6.466  0.0470 -1.2321 -0.0333
 6624SOL    HW131334   0.191   0.754   6.456 -0.7397 -2.5275 -1.2212
 6624SOL    HW231335   0.299   0.726   6.552 -1.7008 -0.2819  0.2896
 6625SOL     OW31336   2.041   0.229  13.436  0.0093 -0.1191  0.0566
 6625SOL    HW131337   2.027   0.278  13.354  0.5929  0.4395  0.2925
 6625SOL    HW231338   1.958   0.252  13.478  0.2807  0.6649  0.1496
 6626SOL     OW31339   4.462   2.386   3.964 -0.1888 -0.1708  0.3292
 6626SOL    HW131340   4.514   2.429   4.031  1.1865  1.6877 -1.8987
 6626SOL    HW231341   4.391   2.447   3.943 -1.7884 -2.3065 -0.4132
 6627SOL     OW31342   0.639   4.552  12.336  0.0346 -0.5050  0.4259
 6627SOL    HW131343   0.593   4.482  12.383  1.0688 -1.8192 -0.5263
 6627SOL    HW231344   0.720   4.562  12.386 -1.4436  0.7337  2.5690
 6628SOL     OW31345   2.411   1.520   5.854 -0.1070 -0.0832  0.2892
 6628SOL    HW131346   2.350   1.449   5.832 -1.2566  0.9874  0.0180
 6628SOL    HW231347   2.431   1.561   5.770 -0.5609  1.4105  0.9221
 6629SOL     OW31348   0.362   4.669  17.549  0.0292  0.2527 -0.1733
 6629SOL    HW131349   0.373   4.672  17.454  3.8522 -0.3798  0.2454
 6629SOL    HW231350   0.296   0.014  17.554 -1.2669 -0.8985 -1.4734
 6630SOL     OW31351   3.240   0.821  12.624  0.5815  0.0719 -0.6576
 6630SOL    HW131352   3.233   0.834  12.718  3.1164  0.1007 -0.4800
 6630SOL    HW231353   3.282   0.735  12.624  2.0707  0.8141  0.7307
 6631SOL     OW31354   4.190   4.240  15.022 -0.0037  0.0581 -0.4736
 6631SOL    HW131355   4.105   4.271  14.991  0.3608 -0.0677 -1.5918
 6631SOL    HW231356   4.165   4.151  15.047 -1.4620  0.3303 -0.9976
 6632SOL     OW31357   2.372   0.598   4.317 -0.4679  0.4942 -0.3397
 6632SOL    HW131358   2.393   0.543   4.241  2.2658 -1.7870  2.0639
 6632SOL    HW231359   2.379   0.684   4.276 -0.8847  0.3702 -0.6676
 6633SOL     OW31360   2.305   0.610  13.946 -0.0882 -0.1794  0.1356
 6633SOL    HW131361   2.257   0.619  14.029 -0.9153  3.3590 -0.7584
 6633SOL    HW231362   2.392   0.643  13.966  0.2309 -0.0889 -1.4411
 6634SOL     OW31363   1.259   2.952   5.906 -0.2419  0.3119  0.1511
 6634SOL    HW131364   1.333   2.906   5.867 -1.9680 -1.4102 -1.0466
 6634SOL    HW231365   1.237   2.881   5.966  0.1839 -0.5092 -0.6835
 6635SOL     OW31366   2.741   0.517   5.658  0.1111  0.5368 -0.3604
 6635SOL    HW131367   2.658   0.491   5.700  0.5999 -1.6008 -0.7053
 6635SOL    HW231368   2.717   0.484   5.571 -1.5250 -1.6023  0.8731
 6636SOL     OW31369   1.453   3.941  14.379 -0.1454  0.2409  0.2047
 6636SOL    HW131370   1.358   3.943  14.390 -0.3397 -0.7186 -1.3030
 6636SOL    HW231371   1.476   4.032  14.402  0.5152  0.1294 -0.0160
 6637SOL     OW31372   1.598   2.873   5.636  0.0653  0.4333  0.0476
 6637SOL    HW131373   1.513   2.915   5.644 -0.2645 -0.0325 -1.0379
 6637SOL    HW231374   1.597   2.847   5.543 -0.5748 -1.2109  0.5095
 6638SOL     OW31375   4.400   0.819   6.283 -0.1358  0.5266  0.0515
 6638SOL    HW131376   4.419   0.877   6.209  1.5553 -0.5752 -0.3901
 6638SOL    HW231377   4.472   0.757   6.271 -0.2883  0.7099 -1.9271
 6639SOL     OW31378   3.220   1.170   9.445  0.3902  0.1704  0.3435
 6639SOL    HW131379   3.225   1.097   9.507 -0.8846  0.7444  1.1120
 6639SOL    HW231380   3.266   1.238   9.495  0.2485  1.2716 -1.0583
 6640SOL     OW31381   2.019   4.513  15.514  0.0094  0.2104  0.2024
 6640SOL    HW131382   2.047   4.534  15.425  0.9387  3.1688  1.2029
 6640SOL    HW231383   2.064   4.580  15.566 -0.9087 -0.2594  1.6170
 6641SOL     OW31384   2.710   4.612   2.565 -0.3058  0.3125  0.2252
 6641SOL    HW131385   2.799   4.577   2.563 -0.2379  0.5792 -1.3925
 6641SOL    HW231386   2.731   4.699   2.530 -3.7903  1.4906  1.1032
 6642SOL     OW31387   0.931   3.178   4.637  0.2578  0.0015  0.3802
 6642SOL    HW131388   0.837   3.198   4.631  0.6676  1.4292 -1.2498
 6642SOL    HW231389   0.945   3.182   4.542 -1.7209 -2.2141 -0.0079
 6643SOL     OW31390   4.250   0.095  17.310 -0.0031 -0.0563  0.1827
 6643SOL    HW131391   4.296   0.025  17.356  0.2294 -1.1419 -1.7535
 6643SOL    HW231392   4.223   0.048  17.232 -2.8156  1.8189  0.0085
 6644SOL     OW31393   1.651   2.031  16.779  0.2639  0.3997  0.2622
 6644SOL    HW131394   1.701   2.019  16.859  0.4737  0.2292  0.1059
 6644SOL    HW231395   1.569   1.984  16.793  0.3748 -0.0388 -0.5406
 6645SOL     OW31396   4.336   1.307   5.797  0.2908  0.3938 -0.3860
 6645SOL    HW131397   4.241   1.321   5.789  0.5275  2.6650  0.9326
 6645SOL    HW231398   4.368   1.374   5.857 -0.8869  0.6081  0.0186
 6646SOL     OW31399   0.582   0.113   8.435  0.1697 -0.0180 -0.5299
 6646SOL    HW131400   0.495   0.092   8.470 -0.5999 -0.2149 -2.5759
 6646SOL    HW231401   0.626   0.035   8.470  1.2995  1.0803  0.4795
 6647SOL     OW31402   2.009   0.094  16.231 -0.1348 -0.0384  0.0391
 6647SOL    HW131403   2.069   0.078  16.158 -0.0062  0.7066 -0.0144
 6647SOL    HW231404   2.012   0.010  16.277 -2.5655 -0.0368  0.2296
 6648SOL     OW31405   0.964   0.177   2.605 -0.8952  0.3933 -0.2183
 6648SOL    HW131406   0.877   0.141   2.617 -1.7637  2.8660  0.9753
 6648SOL    HW231407   1.013   0.140   2.678  0.1824 -1.2419 -1.7920
 6649SOL     OW31408   2.037   4.271   5.300 -0.2029 -0.0937  0.1904
 6649SOL    HW131409   2.037   4.184   5.260  1.3753  0.3236 -0.7036
 6649SOL    HW231410   1.963   4.312   5.256 -0.4233  0.2890  0.9066
 6650SOL     OW31411   3.095   0.689  14.965  0.1911  0.1230  0.5258
 6650SOL    HW131412   3.072   0.610  15.012 -0.1353 -0.5545 -0.7653
 6650SOL    HW231413   3.107   0.649  14.879 -0.1350 -0.1109  0.5919
 6651SOL     OW31414   3.205   4.272   8.877 -0.4280  0.0537 -0.0032
 6651SOL    HW131415   3.240   4.251   8.790 -3.1995 -1.9673 -0.6322
 6651SOL    HW231416   3.277   4.247   8.934 -0.0787  0.4511 -0.2706
 6652SOL     OW31417   1.281   4.074   8.613 -1.1535 -0.0236 -0.2078
 6652SOL    HW131418   1.264   3.980   8.605 -0.6782 -0.0879 -0.4417
 6652SOL    HW231419   1.243   4.097   8.698 -1.3927 -0.5277 -0.1800
 6653SOL     OW31420   2.714   4.464  16.566  0.2277  0.5233  0.1119
 6653SOL    HW131421   2.622   4.475  16.543  0.5609  1.1681 -0.9083
 6653SOL    HW231422   2.717   4.441  16.659  2.1185  2.1075  0.4349
 6654SOL     OW31423   3.357   1.155  13.387 -0.2671  0.8197 -0.0491
 6654SOL    HW131424   3.310   1.111  13.458 -1.5042  2.6277  0.2638
 6654SOL    HW231425   3.427   1.091  13.371  0.2031  1.1427  0.7163
 6655SOL     OW31426   4.122   2.929   3.755 -0.4476  0.2225  0.1046
 6655SOL    HW131427   4.083   2.985   3.823  1.2592 -0.8926  2.0101
 6655SOL    HW231428   4.050   2.904   3.698 -0.7925  2.2184 -0.3457
 6656SOL     OW31429   1.224   4.473   0.822 -0.1162 -0.3232 -0.1713
 6656SOL    HW131430   1.189   4.510   0.741 -0.7505  0.5098  0.4789
 6656SOL    HW231431   1.178   4.521   0.891 -0.9256 -1.4745  0.0931
 6657SOL     OW31432   4.380   2.514   2.989  0.7799  0.3188 -1.1051
 6657SOL    HW131433   4.286   2.521   2.976  0.4506 -0.8903  0.6736
 6657SOL    HW231434   4.405   2.443   2.929  1.0813  0.6138 -1.3268
 6658SOL     OW31435   4.672   3.162   1.344 -0.3786  0.0060  0.7831
 6658SOL    HW131436   0.013   3.153   1.274 -0.7534  0.0542  0.4309
 6658SOL    HW231437   4.613   3.097   1.305 -2.8092  0.8699  3.0114
 6659SOL     OW31438   2.914   3.772  13.502 -0.1900  0.2737 -0.2468
 6659SOL    HW131439   2.981   3.835  13.529 -0.3156  0.7579 -1.0667
 6659SOL    HW231440   2.836   3.826  13.491 -0.3250 -0.1373 -1.3306
 6660SOL     OW31441   0.800   4.678   3.172 -0.0383 -0.2677 -0.3111
 6660SOL    HW131442   0.873   4.649   3.226  0.0647 -0.4236 -0.5359
 6660SOL    HW231443   0.731   4.698   3.235 -0.3365 -1.2201 -0.3344
 6661SOL     OW31444   4.585   3.670   8.870 -0.2278  0.6416 -0.1656
 6661SOL    HW131445   4.501   3.652   8.914 -0.0882  0.2496 -0.0568
 6661SOL    HW231446   4.638   3.601   8.910 -0.7069  0.1966 -0.2964
 6662SOL     OW31447   1.011   4.286   3.313  0.5916  0.0654  0.0243
 6662SOL    HW131448   0.945   4.219   3.298  1.3024 -1.1502  2.3768
 6662SOL    HW231449   1.094   4.246   3.289  0.7564  0.5960 -0.2920
 6663SOL     OW31450   3.039   1.655  14.187 -0.1342 -0.5204  0.4500
 6663SOL    HW131451   3.110   1.591  14.189 -0.3608 -0.7540  0.9619
 6663SOL    HW231452   3.089   1.736  14.172 -0.2948 -0.6796 -0.9475
 6664SOL     OW31453   2.880   4.489   7.774 -0.0086 -0.2669 -0.4998
 6664SOL    HW131454   2.806   4.542   7.746 -0.2331  0.2147  0.9876
 6664SOL    HW231455   2.850   4.434   7.846 -0.0525  0.8474  0.3442
 6665SOL     OW31456   1.664   3.695   7.626 -0.4336 -0.1157  0.2247
 6665SOL    HW131457   1.649   3.664   7.715 -2.9363  0.5759  0.0686
 6665SOL    HW231458   1.592   3.649   7.583 -1.3872  2.5367 -1.0699
 6666SOL     OW31459   3.539   2.559   2.689  0.5520  0.2369 -0.0137
 6666SOL    HW131460   3.469   2.519   2.741  1.2769 -1.4338 -0.3028
 6666SOL    HW231461   3.519   2.524   2.603  0.8108 -1.3692  0.5793
 6667SOL     OW31462   0.318   4.637  10.157 -0.1823 -0.1884  0.3626
 6667SOL    HW131463   0.305   4.598  10.071  1.2687  0.9547 -0.3594
 6667SOL    HW231464   0.301   0.004  10.135  1.7187  1.1602  4.5317
 6668SOL     OW31465   1.560   0.085  12.291  0.0662  0.0452 -0.1181
 6668SOL    HW131466   1.504   0.128  12.227 -0.6838  0.9088  1.1254
 6668SOL    HW231467   1.511   0.130  12.360 -1.5548 -1.3157 -0.3897
 6669SOL     OW31468   2.446   2.377   9.498  0.4032  0.1153  0.0959
 6669SOL    HW131469   2.499   2.302   9.526 -0.3061  0.3057  1.9471
 6669SOL    HW231470   2.362   2.373   9.543  0.2430 -1.5010 -0.3389
 6670SOL     OW31471   2.473   0.445   5.744 -0.0608  0.0985  0.1717
 6670SOL    HW131472   2.418   0.411   5.674  2.1757 -2.4586 -0.3305
 6670SOL    HW231473   2.434   0.526   5.778 -0.2451  0.1435 -0.1495
 6671SOL     OW31474   3.391   3.442   7.066 -0.3081 -0.0300 -0.0456
 6671SOL    HW131475   3.359   3.524   7.103 -0.1800  0.1469 -0.3219
 6671SOL    HW231476   3.372   3.385   7.141 -0.0015 -0.6989 -0.4736
 6672SOL     OW31477   1.312   1.360   4.442 -0.4027  0.3897 -0.1103
 6672SOL    HW131478   1.283   1.440   4.487  0.5938 -0.3767  1.8783
 6672SOL    HW231479   1.400   1.375   4.409 -2.0527  0.8610 -4.3277
 6673SOL     OW31480   2.178   4.284  16.423  0.3078 -0.2439 -0.0427
 6673SOL    HW131481   2.125   4.268  16.345  1.6566 -1.7420 -0.6328
 6673SOL    HW231482   2.222   4.200  16.435 -1.1974 -0.8518  1.3354
 6674SOL     OW31483   0.598   2.718   8.750 -0.3799  0.0600 -0.5150
 6674SOL    HW131484   0.609   2.767   8.831 -0.8423 -0.3734 -0.1925
 6674SOL    HW231485   0.688   2.724   8.716  0.3642 -0.9317  1.2801
 6675SOL     OW31486   1.883   1.391  14.540 -0.3652  0.5037 -0.4055
 6675SOL    HW131487   1.837   1.311  14.518 -0.6278  0.8784 -1.2116
 6675SOL    HW231488   1.857   1.390  14.632 -2.4436  1.1514 -0.9729
 6676SOL     OW31489   2.912   1.948   8.428 -0.4099 -0.3860 -0.1276
 6676SOL    HW131490   2.842   1.928   8.490 -0.6524 -1.0797 -0.6189
 6676SOL    HW231491   2.847   1.997   8.377 -1.2040 -1.6513 -0.3401
 6677SOL     OW31492   0.838   3.595   1.018 -0.0690  0.2321 -0.2548
 6677SOL    HW131493   0.853   3.501   1.027  1.9830  0.5891 -0.0089
 6677SOL    HW231494   0.796   3.590   0.932  0.7603  0.7247 -0.6861
 6678SOL     OW31495   2.876   0.869  14.873 -0.2633 -0.1370  0.2514
 6678SOL    HW131496   2.962   0.833  14.892  0.0997  1.2052  1.1766
 6678SOL    HW231497   2.842   0.809  14.807 -1.2683  0.1897  0.4658
 6679SOL     OW31498   4.690   3.246  16.869  0.0183 -0.0329 -0.7647
 6679SOL    HW131499   4.712   3.248  16.963  2.1404 -2.4853 -1.2208
 6679SOL    HW231500   4.675   3.152  16.856 -2.1201  0.3716 -1.2662
 6680SOL     OW31501   0.898   1.306  14.804 -0.1186 -0.5227  0.3140
 6680SOL    HW131502   0.898   1.251  14.726  3.3270  1.1828 -0.9301
 6680SOL    HW231503   0.890   1.238  14.872 -0.8992 -1.2980 -0.5727
 6681SOL     OW31504   0.579   2.503   1.641 -0.0629  0.5057  1.1127
 6681SOL    HW131505   0.566   2.522   1.549  0.9007 -1.8599  0.4796
 6681SOL    HW231506   0.485   2.497   1.660 -0.0712 -0.2840  0.8332
 6682SOL     OW31507   3.526   1.240  11.254  0.0711  0.1892 -0.2708
 6682SOL    HW131508   3.557   1.154  11.283  0.8890 -0.1729 -2.1963
 6682SOL    HW231509   3.599   1.272  11.201  0.5554  0.0217  0.2977
 6683SOL     OW31510   2.993   1.848   6.795 -0.1884  0.1046  0.0623
 6683SOL    HW131511   2.905   1.867   6.826  0.0282 -1.1429  1.4219
 6683SOL    HW231512   3.047   1.875   6.869  1.4810 -1.5372 -0.5456
 6684SOL     OW31513   2.668   4.203   6.623  0.1346  0.3388  0.1554
 6684SOL    HW131514   2.680   4.139   6.693  0.6192  2.0208  1.6127
 6684SOL    HW231515   2.590   4.167   6.580  0.0458  0.5533  0.1364
 6685SOL     OW31516   1.548   4.231   6.422  0.2784 -0.5437  0.0204
 6685SOL    HW131517   1.571   4.181   6.344  0.3090 -0.3404 -0.1030
 6685SOL    HW231518   1.460   4.255   6.390 -0.1705 -0.6947  1.1529
 6686SOL     OW31519   1.331   4.154   4.285  1.1038 -0.2614  1.2617
 6686SOL    HW131520   1.303   4.240   4.253  2.3987 -0.8523 -1.4753
 6686SOL    HW231521   1.420   4.146   4.250  1.1251  3.0794  0.5550
 6687SOL     OW31522   2.180   4.141  16.840  0.4619  0.1171  0.4080
 6687SOL    HW131523   2.199   4.205  16.771 -1.6385  1.2514  0.8895
 6687SOL    HW231524   2.116   4.191  16.890  1.8204  1.2332  1.0282
 6688SOL     OW31525   3.783   3.217   7.881 -0.3842 -0.3431  0.0907
 6688SOL    HW131526   3.721   3.149   7.909 -1.9691  0.1958 -2.0711
 6688SOL    HW231527   3.749   3.298   7.921  2.3818 -0.4754  2.6866
 6689SOL     OW31528   0.680   2.646   7.497  0.0935  0.2527  0.6374
 6689SOL    HW131529   0.743   2.653   7.425  0.6318 -1.4161  0.9418
 6689SOL    HW231530   0.682   2.552   7.515  0.8620  0.0029 -0.7566
 6690SOL     OW31531   4.567   1.049   7.856  0.1145 -0.4564 -0.1009
 6690SOL    HW131532   4.603   0.988   7.791  1.4221  2.0131 -1.7103
 6690SOL    HW231533   4.565   0.991   7.932  0.3782 -1.4628 -0.8669
 6691SOL     OW31534   2.398   3.617  12.519  0.7196 -0.2381 -0.0099
 6691SOL    HW131535   2.327   3.562  12.552  1.8403 -0.4274  2.0860
 6691SOL    HW231536   2.436   3.647  12.602 -1.8698  1.0103  0.7215
 6692SOL     OW31537   0.056   1.160   9.117  0.1254 -0.2486  0.0469
 6692SOL    HW131538   0.093   1.196   9.197  0.8188 -0.5229 -0.1517
 6692SOL    HW231539   0.084   1.219   9.046  0.3321 -1.0117 -0.5028
 6693SOL     OW31540   4.255   3.773   7.618 -0.2104  0.0633  0.3876
 6693SOL    HW131541   4.287   3.840   7.678 -1.4191  0.0733  1.0241
 6693SOL    HW231542   4.170   3.816   7.607 -0.9945 -0.9727  2.4594
 6694SOL     OW31543   3.716   2.065   6.866  0.2425 -0.1076  0.0900
 6694SOL    HW131544   3.689   2.156   6.851  0.4102 -0.1274 -0.3474
 6694SOL    HW231545   3.759   2.068   6.951 -0.0680 -0.8673  0.2749
 6695SOL     OW31546   0.195   2.616   1.978  0.0194 -0.3751  1.0607
 6695SOL    HW131547   0.164   2.704   1.997  0.7329 -0.2821  1.7771
 6695SOL    HW231548   0.208   2.581   2.066 -2.8860  1.5548  2.2359
 6696SOL     OW31549   1.815   3.672   6.029  0.4969  0.0088  0.2350
 6696SOL    HW131550   1.767   3.705   5.953 -0.2476 -0.0382  0.6710
 6696SOL    HW231551   1.900   3.715   6.019 -0.2493  0.9938 -1.9565
 6697SOL     OW31552   2.455   0.362   3.375 -0.6856  0.3572  0.2222
 6697SOL    HW131553   2.427   0.398   3.291 -2.5072 -0.5126  0.4360
 6697SOL    HW231554   2.486   0.274   3.354 -2.7278 -0.3917  0.3299
 6698SOL     OW31555   0.573   2.755  14.663  0.7742  0.0911 -0.0048
 6698SOL    HW131556   0.556   2.752  14.569 -0.1372  1.0024  0.1246
 6698SOL    HW231557   0.654   2.807  14.664  1.5741 -1.2113  1.8667
 6699SOL     OW31558   4.713   1.361   1.037  0.3918  0.0286 -0.0146
 6699SOL    HW131559   0.013   1.311   1.115 -1.9910  0.4052  0.9720
 6699SOL    HW231560   4.630   1.322   1.009  0.5889  0.3582 -1.0556
 6700SOL     OW31561   1.778   3.933   2.973 -0.2833 -0.3770  0.1896
 6700SOL    HW131562   1.823   3.877   3.038  0.3459 -1.1937 -0.9516
 6700SOL    HW231563   1.810   4.017   3.006 -0.1914 -0.9636  1.5946
 6701SOL     OW31564   4.003   3.046   5.681 -0.4004 -0.3453 -0.2474
 6701SOL    HW131565   3.957   3.116   5.728  1.9598  0.2097  1.2343
 6701SOL    HW231566   4.079   3.027   5.736  0.6648  0.2960 -1.5167
 6702SOL     OW31567   3.473   1.824   2.128 -0.0523 -0.1445 -0.0808
 6702SOL    HW131568   3.466   1.915   2.156  0.1745 -1.1935  3.3802
 6702SOL    HW231569   3.536   1.832   2.056  0.9730 -1.5225  0.6599
 6703SOL     OW31570   0.302   0.767   6.735 -0.4673 -0.0362 -0.5308
 6703SOL    HW131571   0.253   0.795   6.812 -0.9351  1.0319 -1.2109
 6703SOL    HW231572   0.312   0.854   6.695 -0.1717  0.6049  0.9233
 6704SOL     OW31573   4.452   2.377   8.252  0.6936  0.0445  0.2265
 6704SOL    HW131574   4.487   2.307   8.308  1.9956  1.0655  0.7129
 6704SOL    HW231575   4.521   2.439   8.276 -0.1760  1.5604 -1.2452
 6705SOL     OW31576   2.986   4.186   2.850  0.1702  0.3668  0.0116
 6705SOL    HW131577   2.941   4.129   2.787 -2.7235  2.6081  0.0188
 6705SOL    HW231578   2.929   4.263   2.839 -1.9210 -1.1688  0.0606
 6706SOL     OW31579   1.548   3.220  17.290 -0.0052  0.0968  0.3847
 6706SOL    HW131580   1.600   3.298  17.271 -0.1228  0.1278  0.1959
 6706SOL    HW231581   1.460   3.259  17.298 -0.1017  0.0867 -0.6304
 6707SOL     OW31582   3.853   0.443  12.113 -0.4607 -0.8613 -0.1273
 6707SOL    HW131583   3.800   0.519  12.134 -0.5397  0.1035 -4.0165
 6707SOL    HW231584   3.851   0.431  12.018  3.2985  0.4781 -0.3796
 6708SOL     OW31585   4.265   0.743   3.096 -0.0205 -0.1615  0.1237
 6708SOL    HW131586   4.274   0.833   3.126  1.0991  0.0537 -0.8357
 6708SOL    HW231587   4.249   0.764   3.004 -0.9102 -2.0438 -0.1533
 6709SOL     OW31588   3.757   0.721   9.794 -0.2913  0.8370 -0.1593
 6709SOL    HW131589   3.700   0.648   9.768  1.9737 -0.9900 -0.0202
 6709SOL    HW231590   3.837   0.668   9.801 -1.2958 -0.6655  0.1057
 6710SOL     OW31591   0.656   4.172   4.840  0.0641 -0.6066 -0.1362
 6710SOL    HW131592   0.629   4.229   4.912  0.7741 -0.9432  0.3989
 6710SOL    HW231593   0.748   4.156   4.859  0.0995  1.8206  1.7057
 6711SOL     OW31594   2.972   4.034  10.995  0.1170  0.3899  0.0351
 6711SOL    HW131595   2.906   4.102  11.004 -0.0019  0.5776 -2.4433
 6711SOL    HW231596   2.912   3.962  11.012  0.3682  0.3341  0.6901
 6712SOL     OW31597   1.006   4.296   5.131 -0.7000  0.3374  1.0769
 6712SOL    HW131598   1.094   4.292   5.168 -0.1741  1.3464 -0.0783
 6712SOL    HW231599   0.999   4.390   5.146  0.9577  0.3491  1.7909
 6713SOL     OW31600   3.673   3.785  10.570 -0.3325  0.2901 -0.1400
 6713SOL    HW131601   3.702   3.696  10.550 -1.3646  0.0077 -0.3639
 6713SOL    HW231602   3.629   3.763  10.652  1.5856  0.3195  0.9094
 6714SOL     OW31603   3.233   3.271   4.810  0.2242 -0.1843  0.6643
 6714SOL    HW131604   3.228   3.345   4.871 -1.5367  1.2258 -1.1701
 6714SOL    HW231605   3.252   3.314   4.727 -0.8899 -0.9281  0.0345
 6715SOL     OW31606   2.620   2.747  13.426 -0.3410  0.9050  0.7531
 6715SOL    HW131607   2.673   2.723  13.350 -1.2402 -0.5093  0.5782
 6715SOL    HW231608   2.554   2.677  13.424 -0.6522  1.2351 -1.6937
 6716SOL     OW31609   4.568   3.444   0.283  0.5907 -0.1744 -0.3522
 6716SOL    HW131610   4.599   3.517   0.229  1.7147  0.1659  0.7551
 6716SOL    HW231611   4.483   3.425   0.244  0.9109 -0.6299 -0.8174
 6717SOL     OW31612   0.877   0.851  13.978  1.0757 -0.1844 -0.3380
 6717SOL    HW131613   0.856   0.814  14.064  0.7559  0.4024 -0.1593
 6717SOL    HW231614   0.932   0.923  14.008 -0.0061  0.5142 -0.0105
 6718SOL     OW31615   3.824   2.375   1.300 -0.1944 -0.3243  0.5172
 6718SOL    HW131616   3.753   2.426   1.340 -0.8384  0.1468 -1.2320
 6718SOL    HW231617   3.896   2.410   1.352 -1.6017  1.1485  1.4585
 6719SOL     OW31618   0.147   3.036   6.464 -0.3713  0.2969  0.1981
 6719SOL    HW131619   0.176   3.061   6.552 -2.0615 -1.0278  1.1372
 6719SOL    HW231620   0.230   3.012   6.422 -1.0177 -1.6909  0.0716
 6720SOL     OW31621   1.317   1.040   6.137 -0.6575 -0.0037  0.4800
 6720SOL    HW131622   1.290   0.970   6.197 -0.7015 -0.9585 -0.6456
 6720SOL    HW231623   1.239   1.040   6.082 -1.4067  2.6672  1.5600
 6721SOL     OW31624   4.200   0.492   9.303 -0.1550 -0.1110 -0.0147
 6721SOL    HW131625   4.253   0.415   9.324  0.2162  0.0432 -0.4005
 6721SOL    HW231626   4.254   0.533   9.236 -1.0096  0.4787 -0.3353
 6722SOL     OW31627   0.259   1.232   7.026  0.1824 -0.0364  0.1088
 6722SOL    HW131628   0.264   1.325   7.005 -1.0217  0.2935  1.2880
 6722SOL    HW231629   0.329   1.198   6.969 -0.1966  0.1964 -0.5038
 6723SOL     OW31630   2.059   2.250  11.637  0.2804  0.2333  0.8619
 6723SOL    HW131631   2.016   2.242  11.723  0.1204  0.4227  0.7987
 6723SOL    HW231632   2.066   2.345  11.642  3.4591 -0.0082  0.7614
 6724SOL     OW31633   3.910   3.850   4.574 -0.0833  0.4923 -0.7195
 6724SOL    HW131634   3.975   3.844   4.644  0.8975 -0.1041 -1.6921
 6724SOL    HW231635   3.897   3.759   4.549  0.9673 -0.3173  1.6750
 6725SOL     OW31636   3.481   4.688   6.853  0.1927 -0.1274  0.2736
 6725SOL    HW131637   3.488   0.046   6.804  0.8674  1.3711  2.8811
 6725SOL    HW231638   3.568   4.694   6.891  0.4590  0.1312 -0.3724
 6726SOL     OW31639   4.327   1.861   6.586 -0.4929  0.4168  0.5028
 6726SOL    HW131640   4.382   1.937   6.606  2.7351 -1.6586 -0.5038
 6726SOL    HW231641   4.261   1.858   6.655  0.1930 -0.4018  1.1155
 6727SOL     OW31642   2.408   3.964   8.133  0.1919  0.1146 -0.0681
 6727SOL    HW131643   2.335   3.906   8.112  0.2853 -0.1996  0.4540
 6727SOL    HW231644   2.380   4.049   8.101 -0.0884  0.2187  0.4537
 6728SOL     OW31645   2.221   4.622   8.058 -0.6575  0.8097  0.0539
 6728SOL    HW131646   2.184   4.708   8.077 -3.7604 -0.3522 -0.6812
 6728SOL    HW231647   2.140   4.571   8.054  0.1148 -0.5360  1.2943
 6729SOL     OW31648   0.450   4.319   3.440  0.3489  0.1198 -0.3846
 6729SOL    HW131649   0.426   4.375   3.514 -1.9072 -0.8514 -0.3947
 6729SOL    HW231650   0.368   4.285   3.407 -1.5989  0.8082  3.7320
 6730SOL     OW31651   0.080   0.954  15.900  0.6569  0.0557  0.1590
 6730SOL    HW131652   0.101   1.042  15.931 -1.4552  1.1883 -1.6324
 6730SOL    HW231653   0.154   0.935  15.843  1.5482 -2.1013  2.0670
 6731SOL     OW31654   2.755   1.157   2.169 -0.3870  0.4551 -0.5832
 6731SOL    HW131655   2.694   1.185   2.101 -0.0875  2.1960 -0.1145
 6731SOL    HW231656   2.696   1.137   2.241 -1.4069 -0.4790 -1.6811
 6732SOL     OW31657   1.062   3.182   1.147  0.6618  0.4963  0.4889
 6732SOL    HW131658   1.152   3.179   1.113  0.3651  0.6128 -0.3031
 6732SOL    HW231659   1.058   3.093   1.184  0.1190 -0.0465 -0.9059
 6733SOL     OW31660   1.955   0.834   9.993 -0.1079 -0.3410 -0.2631
 6733SOL    HW131661   1.905   0.786  10.058 -0.9376 -0.1416 -0.7553
 6733SOL    HW231662   1.912   0.796   9.917 -0.2799 -1.1606  0.2526
 6734SOL     OW31663   4.014   4.305   5.052  0.4129  0.4168 -0.4166
 6734SOL    HW131664   4.075   4.256   5.106 -2.0310  0.9819  2.8539
 6734SOL    HW231665   3.980   4.366   5.117  1.7891  0.9633 -0.2078
 6735SOL     OW31666   1.193   2.025   4.773 -0.2633 -0.1780 -0.1385
 6735SOL    HW131667   1.245   2.101   4.798  1.2899 -2.1528  2.5722
 6735SOL    HW231668   1.219   1.962   4.839  1.6456 -1.3403 -1.9967
 6736SOL     OW31669   3.715   3.736   1.198  0.4145 -0.1702  0.3849
 6736SOL    HW131670   3.691   3.658   1.147  0.0942 -0.1160  0.4555
 6736SOL    HW231671   3.767   3.685   1.260 -0.0027 -0.1274  0.7669
 6737SOL     OW31672   4.016   4.207   1.640 -0.3388 -0.0394  0.0856
 6737SOL    HW131673   4.033   4.170   1.726  0.5252 -0.5773 -0.3159
 6737SOL    HW231674   4.072   4.148   1.589  1.5801 -0.2942  2.4904
 6738SOL     OW31675   2.076   2.535  15.427  0.1148  0.1463  0.1624
 6738SOL    HW131676   2.087   2.629  15.413 -0.0987  0.2431  0.6261
 6738SOL    HW231677   2.159   2.508  15.388  0.0135  0.7188 -0.4265
 6739SOL     OW31678   3.231   4.026  15.735  0.1558 -0.0745 -0.0896
 6739SOL    HW131679   3.191   4.089  15.674 -1.2551 -1.0577 -0.1804
 6739SOL    HW231680   3.192   4.058  15.817 -0.7628 -1.3072 -0.0427
 6740SOL     OW31681   2.745   4.084  15.272  0.1721 -0.1165  0.1174
 6740SOL    HW131682   2.689   4.159  15.292 -1.3970 -0.8951 -1.2973
 6740SOL    HW231683   2.702   4.048  15.194  0.5279 -0.4996  0.0986
 6741SOL     OW31684   1.197   3.606   3.421 -0.1150 -0.2938 -0.8793
 6741SOL    HW131685   1.140   3.633   3.493  0.0779 -1.2238 -0.3864
 6741SOL    HW231686   1.135   3.568   3.359 -0.7681 -2.4576  1.0741
 6742SOL     OW31687   3.524   0.657   6.326  0.4289  0.3845  0.5031
 6742SOL    HW131688   3.447   0.612   6.361 -1.8882  2.5270 -1.8340
 6742SOL    HW231689   3.566   0.685   6.407  2.5267  1.9727 -1.1251
 6743SOL     OW31690   3.516   1.285   9.124  0.0343  0.5167 -0.1245
 6743SOL    HW131691   3.546   1.218   9.063 -0.4287  1.8617 -1.8484
 6743SOL    HW231692   3.501   1.233   9.203  0.3067  0.1570 -0.3074
 6744SOL     OW31693   4.580   2.219   9.036  0.3769  0.2427  0.0267
 6744SOL    HW131694   4.672   2.241   9.024  0.6072  0.3417  1.9514
 6744SOL    HW231695   4.593   2.158   9.109  2.3411  0.4469 -0.1605
 6745SOL     OW31696   0.628   4.336   0.160 -0.3564  0.0155 -0.3750
 6745SOL    HW131697   0.569   4.265   0.185 -0.3778  0.2516  0.2364
 6745SOL    HW231698   0.684   4.341   0.238  0.3263  0.3831 -0.8903
 6746SOL     OW31699   4.603   4.153   6.892  0.1508  0.0333  0.1645
 6746SOL    HW131700   4.522   4.205   6.895  0.2924  0.1867  1.4001
 6746SOL    HW231701   4.645   4.198   6.819 -1.1692  2.0584  0.6444
 6747SOL     OW31702   4.559   1.345   8.259 -0.3970 -0.0156  0.1358
 6747SOL    HW131703   4.647   1.345   8.298  0.4062  2.4606 -1.6308
 6747SOL    HW231704   4.570   1.286   8.185  1.7984  1.5057 -0.7737
 6748SOL     OW31705   2.820   3.245   8.285  0.3355 -0.1123 -0.0604
 6748SOL    HW131706   2.908   3.247   8.246  0.0837 -0.8459 -0.6547
 6748SOL    HW231707   2.840   3.217   8.374 -1.4532 -0.9660  0.0737
 6749SOL     OW31708   2.330   2.388   5.777  0.4777  0.0602 -0.5922
 6749SOL    HW131709   2.337   2.482   5.764 -0.8680  0.0013 -1.7840
 6749SOL    HW231710   2.395   2.352   5.717 -0.8584 -2.4617 -0.5490
 6750SOL     OW31711   2.947   0.890  16.384  0.1395 -0.0372 -0.0766
 6750SOL    HW131712   3.031   0.935  16.393  0.0700 -0.1310  1.0172
 6750SOL    HW231713   2.957   0.857  16.294 -1.9097  1.4589 -0.8694
 6751SOL     OW31714   3.671   1.062  10.769  0.6799  0.2794  0.0095
 6751SOL    HW131715   3.722   1.142  10.772  0.1102  0.5706  1.9399
 6751SOL    HW231716   3.633   1.062  10.682  2.0724  3.0729 -0.5753
 6752SOL     OW31717   1.124   4.677   6.363 -0.0748 -0.1001  0.0163
 6752SOL    HW131718   1.212   4.716   6.369 -0.2089  0.5311 -2.0010
 6752SOL    HW231719   1.119   4.656   6.456  0.0479  0.8358  0.2365
 6753SOL     OW31720   3.379   4.190   5.777 -0.1640  0.1575  0.3167
 6753SOL    HW131721   3.422   4.267   5.739  0.1208  0.2315  0.7803
 6753SOL    HW231722   3.440   4.142   5.833  1.0470  1.0394 -0.2397
 6754SOL     OW31723   1.280   2.066  12.671  0.1793 -0.0781 -0.3323
 6754SOL    HW131724   1.266   2.113  12.589 -1.8202 -0.7606 -0.3762
 6754SOL    HW231725   1.239   2.129  12.730  0.2402 -1.8646  1.6019
 6755SOL     OW31726   3.020   1.726   5.589  0.2289 -0.3208  0.3869
 6755SOL    HW131727   2.987   1.700   5.503 -0.3246  0.1189  0.4635
 6755SOL    HW231728   3.055   1.813   5.570 -1.9877  0.5990  0.4960
 6756SOL     OW31729   0.031   1.043   1.755  0.1367  0.0678 -0.0665
 6756SOL    HW131730   0.105   1.016   1.701  0.0117  0.3333 -0.3666
 6756SOL    HW231731   4.704   1.088   1.687 -1.1464 -0.9940  0.1911
 6757SOL     OW31732   1.474   2.328   5.079  0.0628  0.5984  0.0380
 6757SOL    HW131733   1.447   2.269   5.009 -0.0094 -1.6269  1.9539
 6757SOL    HW231734   1.389   2.357   5.114 -0.6307 -0.8588 -0.4646
 6758SOL     OW31735   1.474   1.498   5.722 -0.1784  0.3352 -0.0687
 6758SOL    HW131736   1.538   1.482   5.653 -0.7432 -2.7813  0.1133
 6758SOL    HW231737   1.413   1.562   5.686 -1.4564 -2.1415 -2.3536
 6759SOL     OW31738   2.825   1.735   4.048 -0.1860  0.4925 -0.9491
 6759SOL    HW131739   2.903   1.782   4.017 -0.5707  2.1589  0.6232
 6759SOL    HW231740   2.810   1.776   4.133 -0.1275  0.9629 -1.1702
 6760SOL     OW31741   4.524   4.583   6.148  0.5412 -0.2676 -0.0498
 6760SOL    HW131742   4.448   4.596   6.204 -0.5235  1.3229 -1.8493
 6760SOL    HW231743   4.553   4.496   6.175  0.1449 -0.5440 -0.5116
 6761SOL     OW31744   2.791   3.904  16.058  0.0363  0.1845 -0.2406
 6761SOL    HW131745   2.742   3.958  15.996  2.2039  1.8206 -0.5388
 6761SOL    HW231746   2.853   3.855  16.005  0.0002 -1.3224  1.0992
 6762SOL     OW31747   3.279   0.721  13.413  0.1901 -0.4166 -0.7153
 6762SOL    HW131748   3.188   0.750  13.403  0.3171  0.7924  1.5756
 6762SOL    HW231749   3.281   0.645  13.355  0.9393 -1.3355  0.5084
 6763SOL     OW31750   4.407   0.251  10.725  0.0596 -0.2519 -0.0311
 6763SOL    HW131751   4.492   0.239  10.768 -0.2384 -0.2237  0.5662
 6763SOL    HW231752   4.395   0.346  10.719  2.5488 -0.0006 -0.8923
 6764SOL     OW31753   2.478   1.580   5.591  0.1863 -0.6027 -0.1104
 6764SOL    HW131754   2.553   1.634   5.615 -0.6914  1.1225 -1.2443
 6764SOL    HW231755   2.464   1.619   5.505 -0.7056  1.5303  1.0064
 6765SOL     OW31756   4.686   3.773   6.712 -0.5444 -0.3675  0.1278
 6765SOL    HW131757   4.686   3.685   6.750 -3.5937 -1.6154 -2.7575
 6765SOL    HW231758   4.605   3.757   6.664 -1.0780  0.2362  0.8192
 6766SOL     OW31759   4.250   3.244   3.823  0.6651 -0.4131  0.6713
 6766SOL    HW131760   4.341   3.220   3.809  0.6906  1.6216 -2.4918
 6766SOL    HW231761   4.249   3.337   3.802 -3.3416 -0.3372  1.2334
 6767SOL     OW31762   4.576   1.308   2.951  0.5955  0.1107  0.3882
 6767SOL    HW131763   4.521   1.349   3.017 -0.6391  1.9732 -1.8128
 6767SOL    HW231764   4.529   1.317   2.868  1.6346  0.8653 -0.1108
 6768SOL     OW31765   3.430   2.562   6.633  0.1653 -0.0231  0.2539
 6768SOL    HW131766   3.369   2.635   6.626 -2.1209 -1.8505  0.7784
 6768SOL    HW231767   3.513   2.607   6.644 -0.9670  1.8572  1.1675
 6769SOL     OW31768   2.192   1.302   9.268  0.6876  0.1087  0.3262
 6769SOL    HW131769   2.172   1.209   9.281  2.0406  0.0161  1.7135
 6769SOL    HW231770   2.207   1.303   9.173  2.8783 -0.8568  0.6637
 6770SOL     OW31771   2.713   4.192  17.673  0.0772  0.1871 -0.3080
 6770SOL    HW131772   2.734   4.118   0.033  1.2635  0.5117 -0.3279
 6770SOL    HW231773   2.740   4.170  17.584  1.7840  1.1653 -0.0261
 6771SOL     OW31774   4.707   0.146   4.437 -0.3069  0.2292 -0.4281
 6771SOL    HW131775   0.002   0.055   4.461  1.7947  0.9202  0.5354
 6771SOL    HW231776   0.059   0.157   4.380  0.7580  0.2619  0.9819
 6772SOL     OW31777   0.858   0.243   1.940  0.0696 -0.0531  0.7173
 6772SOL    HW131778   0.917   0.280   2.005 -0.4483 -0.9912  1.7330
 6772SOL    HW231779   0.855   0.153   1.975  0.9112 -0.6420 -0.7625
 6773SOL     OW31780   4.067   3.916   5.610  0.3718 -0.3076 -0.3808
 6773SOL    HW131781   4.118   3.914   5.691 -1.7578 -0.3373  0.9847
 6773SOL    HW231782   4.013   3.838   5.622  1.2042 -0.1978  4.3806
 6774SOL     OW31783   4.388   1.464   3.109 -0.3893  0.4134  0.1635
 6774SOL    HW131784   4.338   1.382   3.118 -1.8701  1.1186 -1.8381
 6774SOL    HW231785   4.317   1.519   3.143 -0.3728 -0.3665  1.4626
 6775SOL     OW31786   2.409   2.112   2.030 -0.2859 -0.3334 -0.1941
 6775SOL    HW131787   2.454   2.129   1.947 -0.6164  1.7939  0.0859
 6775SOL    HW231788   2.336   2.172   2.031 -1.2011 -1.4451 -0.0707
 6776SOL     OW31789   2.892   0.622   1.707  0.2513  0.1008 -0.1229
 6776SOL    HW131790   2.801   0.606   1.684 -0.2164  0.1512  1.6899
 6776SOL    HW231791   2.942   0.582   1.635  0.1616 -1.1831  0.5334
 6777SOL     OW31792   4.126   4.663   7.798 -0.2372  0.1010  0.3117
 6777SOL    HW131793   4.091   4.642   7.711  4.5091  0.4989 -1.7121
 6777SOL    HW231794   4.217   4.638   7.779 -0.6905 -1.2385 -0.0772
 6778SOL     OW31795   4.312   4.617   3.008 -0.3721 -0.3445  0.3265
 6778SOL    HW131796   4.237   4.645   3.059  1.4209  2.3067  1.4725
 6778SOL    HW231797   4.319   4.687   2.942  1.5270 -1.7921 -1.0140
 6779SOL     OW31798   2.923   4.598   6.685 -0.0570  0.6625 -0.1086
 6779SOL    HW131799   3.016   4.621   6.687  0.4172 -0.9282 -3.6759
 6779SOL    HW231800   2.904   4.638   6.770 -2.0633  1.0491 -0.7362
 6780SOL     OW31801   0.561   1.914   1.818  0.2618  0.3933  0.0227
 6780SOL    HW131802   0.617   1.991   1.828 -0.6276  1.0436 -0.0002
 6780SOL    HW231803   0.500   1.918   1.892 -0.0500  0.5076 -0.2404
 6781SOL     OW31804   4.410   2.465   5.360 -0.3020  0.1084  0.2798
 6781SOL    HW131805   4.345   2.536   5.360  0.4099  0.7307 -2.1478
 6781SOL    HW231806   4.464   2.494   5.287 -0.4254 -2.4063 -0.8196
 6782SOL     OW31807   0.254   0.428   6.963  0.1407 -0.5127 -0.5053
 6782SOL    HW131808   0.282   0.441   7.054  0.3145 -1.0248 -0.4819
 6782SOL    HW231809   0.309   0.352   6.943 -0.7568 -1.1927 -0.3585
 6783SOL     OW31810   1.802   3.518   6.265  0.0609 -0.2141 -0.4908
 6783SOL    HW131811   1.816   3.568   6.184  0.8645  3.0657  1.6787
 6783SOL    HW231812   1.714   3.482   6.251 -0.2233  0.5276 -0.6074
 6784SOL     OW31813   2.436   0.861  10.243  0.0154  0.2548  0.0386
 6784SOL    HW131814   2.424   0.766  10.254 -0.0653  0.2277 -0.2758
 6784SOL    HW231815   2.369   0.868  10.175 -0.2188 -0.2546  0.2133
 6785SOL     OW31816   3.090   3.738   4.939 -0.0171 -0.5001 -0.0056
 6785SOL    HW131817   2.998   3.724   4.916  0.0432 -0.6823 -0.1322
 6785SOL    HW231818   3.093   3.826   4.977  2.1204  0.4485 -2.4251
 6786SOL     OW31819   3.452   3.034   0.810  0.4717 -0.7754 -0.2908
 6786SOL    HW131820   3.447   3.056   0.903 -0.2501 -0.1942 -0.4667
 6786SOL    HW231821   3.453   3.121   0.770 -3.2492 -0.1296  0.9489
 6787SOL     OW31822   1.298   4.059  14.773  0.0900 -0.2416  0.3922
 6787SOL    HW131823   1.349   4.095  14.845  0.3928 -1.5893  0.8583
 6787SOL    HW231824   1.251   4.135  14.739  0.1309  0.2416  1.4430
 6788SOL     OW31825   0.767   1.159   6.487 -0.4314  0.1352  0.4689
 6788SOL    HW131826   0.810   1.179   6.404 -0.0339 -0.4633  0.5287
 6788SOL    HW231827   0.683   1.202   6.473  0.3848  1.0422 -1.8176
 6789SOL     OW31828   2.825   3.691   4.861 -0.1056 -0.3277 -0.9899
 6789SOL    HW131829   2.832   3.745   4.783 -2.0412 -0.1465 -1.0427
 6789SOL    HW231830   2.740   3.722   4.894  0.9446  1.3987  0.0712
 6790SOL     OW31831   0.550   1.723   2.837  0.5457 -0.4065 -0.5307
 6790SOL    HW131832   0.619   1.784   2.810 -0.8345  1.2716 -0.3040
 6790SOL    HW231833   0.590   1.637   2.834  1.6760  0.0485  1.3705
 6791SOL     OW31834   1.138   3.837   8.597  0.1992 -0.3166 -0.0734
 6791SOL    HW131835   1.146   3.749   8.634  1.2250 -0.6256 -0.9984
 6791SOL    HW231836   1.170   3.831   8.507  1.3102  0.8145  0.2456
 6792SOL     OW31837   0.120   3.723  12.235 -0.1078  0.0957  0.1199
 6792SOL    HW131838   0.043   3.692  12.282  0.7278 -2.0014  0.0976
 6792SOL    HW231839   0.188   3.712  12.301  0.5129  0.2126 -0.4984
 6793SOL     OW31840   0.183   0.842   7.335 -0.0212  0.1342  0.2202
 6793SOL    HW131841   0.257   0.841   7.396 -0.8881  1.6161  1.3035
 6793SOL    HW231842   0.167   0.936   7.331 -0.9162 -0.0798 -1.1079
 6794SOL     OW31843   2.226   2.986   8.310 -0.3534 -0.0852 -0.5016
 6794SOL    HW131844   2.154   2.932   8.338 -2.7002  2.7259 -1.0934
 6794SOL    HW231845   2.243   3.041   8.387  1.5952  0.8356 -1.5648
 6795SOL     OW31846   0.036   3.084   3.775 -0.3757 -0.5050  0.4349
 6795SOL    HW131847   0.083   3.020   3.829  1.2652  0.7148  0.4701
 6795SOL    HW231848   0.095   3.092   3.701 -2.6896  1.5339 -1.1863
 6796SOL     OW31849   0.397   4.197   3.728  0.3063  0.3168 -0.2871
 6796SOL    HW131850   0.443   4.240   3.801 -1.3880  0.0162  0.9323
 6796SOL    HW231851   0.313   4.242   3.721  0.4076  0.8694  1.9010
 6797SOL     OW31852   1.880   0.764   5.354 -0.0265 -0.2766 -0.5543
 6797SOL    HW131853   1.940   0.799   5.420  3.0460 -0.4580 -3.2359
 6797SOL    HW231854   1.806   0.794   5.407  1.3958  2.3775 -0.0731
 6798SOL     OW31855   4.386   3.138  14.579  0.1876 -0.0243 -0.1479
 6798SOL    HW131856   4.452   3.197  14.616  1.5062 -0.1870 -2.2204
 6798SOL    HW231857   4.310   3.166  14.630 -0.0564  0.3781 -0.7184
 6799SOL     OW31858   1.995   4.712  14.813 -0.1613  0.0737 -0.0737
 6799SOL    HW131859   1.968   4.632  14.767  0.3888 -1.7477  2.8012
 6799SOL    HW231860   2.014   0.033  14.730 -0.6509 -0.4234 -0.4582
 6800SOL     OW31861   1.765   4.678  12.136 -0.1960  0.2360  0.1943
 6800SOL    HW131862   1.750   0.031  12.081 -0.2449  0.9066  1.1451
 6800SOL    HW231863   1.702   4.701  12.204  0.6195  1.9624  0.3542
 6801SOL     OW31864   2.049   3.080   5.453 -0.0658  0.2188  0.2386
 6801SOL    HW131865   2.069   2.993   5.490  0.7344  0.0394 -0.6057
 6801SOL    HW231866   1.989   3.045   5.386 -1.2040  2.0167  0.3342
 6802SOL     OW31867   3.348   3.710   0.571 -0.4234 -0.1119 -0.1134
 6802SOL    HW131868   3.268   3.751   0.604 -1.7539  0.0018 -3.5080
 6802SOL    HW231869   3.389   3.796   0.562  0.4597 -0.5631 -0.3890
 6803SOL     OW31870   0.909   0.596   7.226 -0.3086 -0.0130 -0.4575
 6803SOL    HW131871   0.836   0.539   7.202 -1.4122  0.8506  0.8317
 6803SOL    HW231872   0.977   0.588   7.160 -1.9807 -3.3339 -1.7598
 6804SOL     OW31873   2.530   0.803  14.707 -0.1133 -0.0093 -0.4284
 6804SOL    HW131874   2.559   0.894  14.715 -0.3172  0.2370 -2.4245
 6804SOL    HW231875   2.542   0.755  14.789  1.4855 -2.5474 -2.1572
 6805SOL     OW31876   3.916   1.987  11.699 -0.0497 -0.2923 -0.0527
 6805SOL    HW131877   4.007   2.000  11.725  0.4925 -0.6235 -1.7806
 6805SOL    HW231878   3.877   1.982  11.787  0.9495 -0.1565  0.3973
 6806SOL     OW31879   2.540   2.813  14.081 -0.4639 -0.0996  0.1950
 6806SOL    HW131880   2.562   2.884  14.140  1.9461  0.7750 -1.7401
 6806SOL    HW231881   2.630   2.779  14.076 -0.5936 -0.2381 -1.1975
 6807SOL     OW31882   4.422   1.175   8.951 -0.1560 -0.0783 -0.4291
 6807SOL    HW131883   4.382   1.152   9.035  2.1781 -0.2715  0.6249
 6807SOL    HW231884   4.347   1.170   8.892  2.3476 -0.3973 -3.5862
 6808SOL     OW31885   2.285   0.225   8.560 -0.2108  0.2858  0.1390
 6808SOL    HW131886   2.336   0.190   8.633 -0.1772  0.1458  0.0478
 6808SOL    HW231887   2.255   0.311   8.589  1.6271  1.1445 -0.4857
 6809SOL     OW31888   3.981   2.116   4.107  0.0200  0.1167  0.5698
 6809SOL    HW131889   3.981   2.113   4.011  0.8364 -0.4530  0.5870
 6809SOL    HW231890   4.060   2.162   4.133  0.7609 -0.1655 -1.2315
 6810SOL     OW31891   0.205   3.186   1.650 -0.2012  0.4224  0.6973
 6810SOL    HW131892   0.204   3.129   1.727 -1.2216  0.5228  0.7677
 6810SOL    HW231893   0.235   3.266   1.694 -0.4302  0.1079  1.4280
 6811SOL     OW31894   3.205   4.142   2.998 -0.6914 -0.3090  0.8156
 6811SOL    HW131895   3.134   4.147   2.934 -0.5063 -0.9469  0.5611
 6811SOL    HW231896   3.169   4.077   3.058  0.7159 -1.0209  0.8725
 6812SOL     OW31897   3.930   3.780   9.199  0.0003 -0.0178  0.7164
 6812SOL    HW131898   3.986   3.704   9.181 -0.6687 -0.2408 -0.4516
 6812SOL    HW231899   3.963   3.861   9.161 -0.7866 -0.7428 -1.5206
 6813SOL     OW31900   0.267   4.566   6.313  0.1878  0.0927  0.2629
 6813SOL    HW131901   0.284   4.553   6.219 -1.8702  0.9205 -0.2166
 6813SOL    HW231902   0.197   4.507   6.339 -2.0969  1.9826 -1.7177
 6814SOL     OW31903   0.177   3.442   0.036  0.1840 -0.2315 -0.0678
 6814SOL    HW131904   0.115   3.497   0.084  0.3485 -0.9530  0.9764
 6814SOL    HW231905   0.224   3.508  17.683 -0.6662  1.7113  1.7063
 6815SOL     OW31906   4.590   1.316   6.025 -0.4014 -0.3421  0.5136
 6815SOL    HW131907   4.677   1.354   6.037  0.2670 -1.5229 -0.6769
 6815SOL    HW231908   4.527   1.387   6.013 -1.4885 -1.2990  0.5962
 6816SOL     OW31909   3.328   4.134   5.332  0.0628 -0.1303  0.2449
 6816SOL    HW131910   3.398   4.082   5.291 -0.0115  1.8561 -2.3829
 6816SOL    HW231911   3.358   4.224   5.318  1.8609 -0.7078  0.3712
 6817SOL     OW31912   2.568   4.070   2.765 -0.3830 -0.4751  0.1511
 6817SOL    HW131913   2.569   3.975   2.754  1.2978 -0.7414  2.6659
 6817SOL    HW231914   2.588   4.112   2.682  0.9442  0.1893  0.8201
 6818SOL     OW31915   3.733   2.713   8.102  0.0217  0.0382 -0.2444
 6818SOL    HW131916   3.756   2.721   8.009 -1.4782 -1.1341 -0.7098
 6818SOL    HW231917   3.677   2.791   8.110 -0.9655 -0.5123 -1.8057
 6819SOL     OW31918   4.485   4.128   2.518  0.3588  0.1498  0.5762
 6819SOL    HW131919   4.500   4.194   2.450  2.3108 -1.1841 -0.2915
 6819SOL    HW231920   4.522   4.172   2.594  4.3241 -0.8551 -0.7558
 6820SOL     OW31921   2.131   3.687  13.602 -0.0484 -0.0254 -0.0976
 6820SOL    HW131922   2.136   3.598  13.567  0.9938  0.4479 -1.1604
 6820SOL    HW231923   2.213   3.695  13.651 -0.7848  0.2283  1.0860
 6821SOL     OW31924   0.419   1.632   4.516 -0.1041 -0.5183  0.0614
 6821SOL    HW131925   0.438   1.649   4.424  0.6879 -1.7880 -0.0008
 6821SOL    HW231926   0.355   1.561   4.511 -2.1458  1.3792 -0.9441
 6822SOL     OW31927   1.476   4.420  15.243  0.1305 -0.3079  0.0413
 6822SOL    HW131928   1.522   4.504  15.253  0.4847 -0.5075  0.1177
 6822SOL    HW231929   1.403   4.447  15.188 -0.4266 -1.6090  0.1535
 6823SOL     OW31930   1.866   2.817   9.712  0.1561  0.0327  0.3459
 6823SOL    HW131931   1.791   2.758   9.723 -0.0939  0.4119  0.6694
 6823SOL    HW231932   1.882   2.811   9.618 -0.6680  1.7762  0.0847
 6824SOL     OW31933   1.960   3.958   3.451  0.4883  0.3117  0.2732
 6824SOL    HW131934   1.973   4.043   3.410 -0.3518  0.7926  0.9965
 6824SOL    HW231935   1.867   3.937   3.436  0.8804 -1.0434 -0.2775
 6825SOL     OW31936   2.145   4.050   7.766 -0.5999 -0.4964  0.5654
 6825SOL    HW131937   2.164   3.990   7.838  0.2797 -2.1224 -1.0347
 6825SOL    HW231938   2.050   4.061   7.771 -0.5989  0.2832 -1.2962
 6826SOL     OW31939   0.841   2.355  16.789 -0.3329  0.0041 -0.1865
 6826SOL    HW131940   0.747   2.353  16.773 -0.6213  0.5186  1.4081
 6826SOL    HW231941   0.859   2.449  16.798  0.8466 -0.4748  2.6028
 6827SOL     OW31942   3.370   1.340   2.882 -0.4166  0.3641  0.0986
 6827SOL    HW131943   3.344   1.344   2.974  0.3070  0.6544  0.2903
 6827SOL    HW231944   3.297   1.294   2.839  2.2203 -0.5599 -3.4279
 6828SOL     OW31945   4.390   3.775   1.146  0.0674  0.0751  0.0347
 6828SOL    HW131946   4.434   3.734   1.220  0.1298  0.3223  0.1367
 6828SOL    HW231947   4.394   3.868   1.171  0.6022 -0.0230  0.3097
 6829SOL     OW31948   2.636   4.245   6.301 -0.1268  0.1614  0.0392
 6829SOL    HW131949   2.603   4.223   6.214  0.7650  0.9985 -0.5147
 6829SOL    HW231950   2.624   4.340   6.304  0.8967  0.3189 -1.0282
 6830SOL     OW31951   3.132   1.022  14.053  0.1231  0.8150  0.3262
 6830SOL    HW131952   3.164   1.112  14.045 -0.4507  1.1262  1.7540
 6830SOL    HW231953   3.190   0.985  14.119  1.4708  1.1262 -0.6713
 6831SOL     OW31954   1.667   3.631  13.859  0.2411  0.6030 -0.1369
 6831SOL    HW131955   1.587   3.597  13.819 -1.2375  0.8041  2.7066
 6831SOL    HW231956   1.714   3.639  13.776  1.5142  2.2416  0.7521
 6832SOL     OW31957   0.482   3.756   2.227  0.4790  0.2679 -0.1777
 6832SOL    HW131958   0.488   3.668   2.191 -2.0948  1.2238 -2.9414
 6832SOL    HW231959   0.446   3.730   2.311 -1.0227 -0.5680 -1.0758
 6833SOL     OW31960   2.599   1.366   2.482  0.1944  0.2195  0.4785
 6833SOL    HW131961   2.617   1.276   2.455  1.2961  0.3248  0.8724
 6833SOL    HW231962   2.523   1.385   2.426 -0.3675  0.0893  1.1970
 6834SOL     OW31963   3.139   3.818   3.931  0.4979 -0.2387 -0.7380
 6834SOL    HW131964   3.116   3.759   4.002  3.1856  1.1518  1.2756
 6834SOL    HW231965   3.056   3.841   3.889 -1.1393 -0.4504  2.3906
 6835SOL     OW31966   0.095   4.709   5.667  0.0511 -0.1976 -0.1302
 6835SOL    HW131967   0.186   4.713   5.640  0.4775  0.5766  1.4163
 6835SOL    HW231968   0.095   4.615   5.686  0.4281 -0.3058 -0.6783
 6836SOL     OW31969   3.384   4.676   3.770 -0.4120  0.4070 -0.2760
 6836SOL    HW131970   3.457   0.004   3.736  0.4010 -0.3261  0.3273
 6836SOL    HW231971   3.348   4.638   3.690  1.5535 -1.4919 -0.2724
 6837SOL     OW31972   3.381   2.175   6.417 -0.0532 -0.0488  0.7513
 6837SOL    HW131973   3.460   2.215   6.381 -0.4789 -0.2470 -0.4196
 6837SOL    HW231974   3.351   2.142   6.332 -0.5202  1.7428  0.2213
 6838SOL     OW31975   3.835   4.271   3.527 -0.5342 -0.3920 -0.1735
 6838SOL    HW131976   3.740   4.275   3.536 -0.5739 -3.2127  0.6459
 6838SOL    HW231977   3.847   4.177   3.516 -3.7385 -0.9081  0.8835
 6839SOL     OW31978   1.821   3.066   2.211 -0.3601 -0.1917 -0.3175
 6839SOL    HW131979   1.842   2.974   2.197  0.7490  0.0729 -0.3614
 6839SOL    HW231980   1.896   3.107   2.168 -0.3298 -0.1927 -0.2650
 6840SOL     OW31981   1.108   4.685   3.707 -0.0422 -0.3345  0.1705
 6840SOL    HW131982   1.084   4.678   3.615 -0.7499 -1.8229  0.4595
 6840SOL    HW231983   1.116   4.591   3.725  0.4882  0.0122  1.8065
 6841SOL     OW31984   3.451   1.300   6.299 -0.1335 -0.2863  0.1108
 6841SOL    HW131985   3.522   1.240   6.322  0.9792  0.7771 -0.5952
 6841SOL    HW231986   3.460   1.366   6.368  2.3387 -0.6716  0.1512
 6842SOL     OW31987   1.285   0.395   5.479 -0.1736  0.5208  0.8251
 6842SOL    HW131988   1.298   0.360   5.391 -1.4453  0.7863  0.5236
 6842SOL    HW231989   1.357   0.353   5.526  1.1223  0.2202 -1.4135
 6843SOL     OW31990   0.181   4.438   5.256  0.4410  0.0031  0.0034
 6843SOL    HW131991   0.109   4.500   5.241  1.9461  1.4574 -1.2854
 6843SOL    HW231992   0.182   4.378   5.181 -1.0908  1.4845 -1.2104
 6844SOL     OW31993   2.110   0.374  16.582 -0.2731  0.1947  0.1755
 6844SOL    HW131994   2.123   0.466  16.603  3.6372 -0.6063  1.3601
 6844SOL    HW231995   2.054   0.370  16.505  2.4799  1.8648 -1.8919
 6845SOL     OW31996   3.464   1.363   4.677  0.5890  0.4183 -0.0091
 6845SOL    HW131997   3.470   1.272   4.706  0.2136  0.3028 -0.2891
 6845SOL    HW231998   3.542   1.363   4.622 -0.7443 -0.6832 -1.9099
 6846SOL     OW31999   1.133   1.005   2.583  0.0002 -0.1477  0.1555
 6846SOL    HW132000   1.190   0.981   2.510  0.2191  0.7933  0.0182
 6846SOL    HW232001   1.168   1.088   2.614 -0.1918  0.1258 -0.3636
 6847SOL     OW32002   1.082   0.311   5.655  0.0452  0.0165 -0.2772
 6847SOL    HW132003   1.168   0.325   5.616 -0.5747  2.0654 -0.9001
 6847SOL    HW232004   1.022   0.345   5.588 -1.4608 -0.9321  0.5983
 6848SOL     OW32005   1.840   2.139   2.441 -0.0458 -0.0914 -0.7291
 6848SOL    HW132006   1.858   2.052   2.406 -0.0180 -0.2487 -0.3292
 6848SOL    HW232007   1.855   2.206   2.375 -1.0229  1.0255  0.1717
 6849SOL     OW32008   1.963   2.699   5.914 -0.0860  0.4836 -0.1610
 6849SOL    HW132009   1.920   2.759   5.853 -0.0399  2.8566  2.1195
 6849SOL    HW232010   1.975   2.622   5.860 -0.1776  0.6239 -0.3810
 6850SOL     OW32011   2.877   2.334   5.241  0.0564 -0.3658 -0.2853
 6850SOL    HW132012   2.961   2.297   5.213  0.7669 -0.1733  1.6107
 6850SOL    HW232013   2.874   2.411   5.185  0.4552 -1.1597 -1.4166
 6851SOL     OW32014   0.260   1.690   2.886 -0.4424  0.4713 -0.1316
 6851SOL    HW132015   0.240   1.782   2.903  0.1154  0.6999 -0.7281
 6851SOL    HW232016   0.351   1.705   2.859 -0.1070 -0.3923  0.4978
 6852SOL     OW32017   2.817   1.177   5.372 -0.5585 -0.0908 -0.0975
 6852SOL    HW132018   2.771   1.258   5.392 -1.3385 -0.7696  0.8630
 6852SOL    HW232019   2.901   1.201   5.334 -1.1313  2.0620 -0.0169
 6853SOL     OW32020   1.884   3.526   5.688 -0.3088 -0.0412  0.4842
 6853SOL    HW132021   1.963   3.549   5.736 -0.9836 -1.6430  2.3425
 6853SOL    HW232022   1.822   3.596   5.706  0.8513  0.1967  3.4351
 6854SOL     OW32023   4.190   3.741   2.079  0.1652  0.1006 -0.1085
 6854SOL    HW132024   4.140   3.748   1.998 -0.4039 -0.7886  0.1660
 6854SOL    HW232025   4.179   3.648   2.101  0.0535  0.3048  0.6603
 6855SOL     OW32026   0.707   0.646   6.479  0.6246  0.0429 -0.9485
 6855SOL    HW132027   0.671   0.690   6.402  2.0322  0.9047 -1.1130
 6855SOL    HW232028   0.741   0.718   6.532 -3.0532  2.0418 -1.2664
 6856SOL     OW32029   3.748   1.711   1.938  0.0821  0.2942 -0.4652
 6856SOL    HW132030   3.791   1.703   1.853  1.9319  1.9768  0.3010
 6856SOL    HW232031   3.691   1.785   1.916 -1.1589 -0.5154  0.0710
 6857SOL     OW32032   2.437   2.201   4.411 -0.1351  0.2779 -0.3424
 6857SOL    HW132033   2.355   2.249   4.406 -1.1937 -1.4892  0.2160
 6857SOL    HW232034   2.436   2.143   4.486  1.4345  2.0626  1.0773
 6858SOL     OW32035   2.875   2.900   3.928  0.0854  0.2404  0.1258
 6858SOL    HW132036   2.855   2.807   3.913 -1.1923  0.4092  0.7673
 6858SOL    HW232037   2.967   2.902   3.956 -0.0538  0.8077  0.5430
 6859SOL     OW32038   3.445   1.362   1.522 -0.0276  0.2565  0.1529
 6859SOL    HW132039   3.379   1.295   1.505  2.8319 -2.1872 -1.3247
 6859SOL    HW232040   3.482   1.371   1.434  1.0742 -2.5507  0.3297
 6860SOL     OW32041   4.337   1.006  12.959  0.2143 -0.6538 -0.3644
 6860SOL    HW132042   4.382   1.047  12.885 -1.6860  0.6872 -0.7630
 6860SOL    HW232043   4.260   0.972  12.914 -0.3193  0.1079 -0.0138
 6861SOL     OW32044   1.481   2.654  10.019  0.1311 -0.0784  0.1856
 6861SOL    HW132045   1.387   2.635  10.024  0.3137 -0.7899  0.8220
 6861SOL    HW232046   1.515   2.566  10.001  1.3879  0.2521  0.9627
 6862SOL     OW32047   0.596   1.275   1.539 -0.1442  0.0325 -0.2930
 6862SOL    HW132048   0.626   1.282   1.629  2.3939 -2.9603 -0.9442
 6862SOL    HW232049   0.581   1.368   1.519  0.7084  0.3361  0.4795
 6863SOL     OW32050   2.916   1.984   5.978 -0.0287 -0.4450 -0.1657
 6863SOL    HW132051   2.924   1.939   6.062  4.0166  0.9374  0.1708
 6863SOL    HW232052   2.899   1.909   5.922  1.5460 -1.0914  0.2414
 6864SOL     OW32053   4.447   1.251   6.896  0.1720  0.1645  0.7460
 6864SOL    HW132054   4.405   1.205   6.823 -0.6076  0.0574  1.2683
 6864SOL    HW232055   4.541   1.252   6.880  0.1669 -0.7447  0.6818
 6865SOL     OW32056   0.213   1.793   4.643 -0.7392  0.1561  0.4321
 6865SOL    HW132057   0.174   1.729   4.583  0.3220  0.5699 -0.7158
 6865SOL    HW232058   0.252   1.860   4.587 -0.5239 -1.3641 -1.2801
 6866SOL     OW32059   1.513   4.502  16.093  0.3888 -0.1457 -0.2689
 6866SOL    HW132060   1.534   4.420  16.138 -0.8034  0.7585  1.9315
 6866SOL    HW232061   1.592   4.511  16.040  0.0882 -1.1722 -0.9010
 6867SOL     OW32062   0.462   1.949   5.762 -0.2910  0.3829 -0.0454
 6867SOL    HW132063   0.514   2.025   5.788 -2.9651  1.1487  3.1744
 6867SOL    HW232064   0.494   1.877   5.816 -3.2817 -0.9776 -0.1168
 6868SOL     OW32065   3.355   2.706   8.225 -0.8039  0.0120  0.1170
 6868SOL    HW132066   3.361   2.612   8.237 -0.5965  0.0839  0.5839
 6868SOL    HW232067   3.260   2.719   8.227 -0.4339  3.0000 -2.3001
 6869SOL     OW32068   0.956   2.417  12.089 -0.1114  0.6975 -0.5244
 6869SOL    HW132069   0.866   2.443  12.111 -0.7357 -1.9491 -0.0295
 6869SOL    HW232070   0.951   2.430  11.994  0.1839  0.1114 -0.6163
 6870SOL     OW32071   1.165   1.467   8.033 -0.3730 -0.2676  0.4908
 6870SOL    HW132072   1.153   1.406   8.106  0.2547 -0.1438  0.7000
 6870SOL    HW232073   1.252   1.443   7.999 -0.7233  1.1038 -1.3665
 6871SOL     OW32074   3.911   1.495   3.113 -0.7620  0.2088  0.6397
 6871SOL    HW132075   3.818   1.504   3.094 -0.5049 -0.8656 -1.1547
 6871SOL    HW232076   3.914   1.409   3.155 -2.6914 -0.1803 -0.0590
 6872SOL     OW32077   2.724   4.023   8.670  0.8373 -0.0972 -0.3463
 6872SOL    HW132078   2.801   3.968   8.658  0.9171  0.2508 -1.4039
 6872SOL    HW232079   2.759   4.100   8.624 -0.3609  0.5202 -0.2383
 6873SOL     OW32080   2.517   2.153  13.748 -0.0758 -0.1310 -0.0219
 6873SOL    HW132081   2.560   2.071  13.772 -0.0866  0.1809  1.0690
 6873SOL    HW232082   2.575   2.224  13.776 -0.1109 -1.4102  3.3783
 6874SOL     OW32083   1.838   1.079   6.377  0.2744  0.0833  0.5293
 6874SOL    HW132084   1.743   1.070   6.373  0.2768 -0.7898  2.5175
 6874SOL    HW232085   1.851   1.159   6.327 -1.2869 -0.4964 -0.8065
 6875SOL     OW32086   2.168   2.273   2.539 -0.0652  0.0766  0.2333
 6875SOL    HW132087   2.075   2.262   2.522  0.3423 -2.0251 -0.6095
 6875SOL    HW232088   2.174   2.232   2.625  0.1950  1.4659  0.8846
 6876SOL     OW32089   2.322   0.304   5.305  0.1709 -0.2474 -0.4189
 6876SOL    HW132090   2.295   0.237   5.368  0.5166 -1.8771 -2.0089
 6876SOL    HW232091   2.314   0.380   5.364 -1.6226  0.8982 -2.1027
 6877SOL     OW32092   1.435   4.611  13.941 -0.1496  0.4849 -0.4312
 6877SOL    HW132093   1.459   4.703  13.950 -2.0291  0.8060  1.2059
 6877SOL    HW232094   1.401   4.584  14.026  1.0174  0.3452 -0.0053
 6878SOL     OW32095   4.668   1.798   5.094 -0.1389 -0.7983 -0.2154
 6878SOL    HW132096   4.662   1.843   5.010  0.5364  1.7509  1.0935
 6878SOL    HW232097   4.587   1.747   5.096  0.9852 -2.5639 -0.5036
 6879SOL     OW32098   4.212   0.448   3.318  0.3080  0.1780  0.2309
 6879SOL    HW132099   4.268   0.499   3.259 -0.5355 -0.8933 -1.4825
 6879SOL    HW232100   4.210   0.360   3.279  0.1435  1.3643 -2.4294
 6880SOL     OW32101   3.073   0.312   6.471 -0.1673  0.3945  0.2226
 6880SOL    HW132102   3.131   0.291   6.398 -3.4460  0.9629 -2.5399
 6880SOL    HW232103   3.039   0.226   6.496 -0.1995  0.1190 -0.7776
 6881SOL     OW32104   0.467   0.197   3.227 -0.0653 -0.5198 -0.3843
 6881SOL    HW132105   0.538   0.257   3.250  0.4316 -1.1333 -0.2983
 6881SOL    HW232106   0.435   0.175   3.314 -1.7805  2.4431 -0.2724
 6882SOL     OW32107   3.135   3.613  10.773 -0.0457  0.2045  0.1290
 6882SOL    HW132108   3.211   3.559  10.751  0.7177  1.6783 -0.8920
 6882SOL    HW232109   3.133   3.608  10.869  1.4505  1.4451  0.2325
 6883SOL     OW32110   3.269   0.101  11.701  0.4348 -0.1337 -0.2326
 6883SOL    HW132111   3.296   0.183  11.742  0.2148  0.1687 -0.6965
 6883SOL    HW232112   3.187   0.082  11.747 -2.1845 -0.5764 -5.0854
 6884SOL     OW32113   0.136   1.759   7.375  0.1904 -0.6727  0.0195
 6884SOL    HW132114   0.118   1.718   7.290 -0.3178 -0.8590  0.2181
 6884SOL    HW232115   0.049   1.787   7.400 -0.0210 -1.7800  0.5260
 6885SOL     OW32116   1.988   3.570   7.533 -0.5527  0.1942  0.2886
 6885SOL    HW132117   1.931   3.646   7.534  1.9551  2.0524  2.6171
 6885SOL    HW232118   2.048   3.593   7.463  2.9994 -1.7229  2.6785
 6886SOL     OW32119   0.584   3.973   8.952  0.1981 -0.1471  0.0430
 6886SOL    HW132120   0.580   3.976   8.856  0.0735  1.1498  0.0902
 6886SOL    HW232121   0.670   4.007   8.974 -0.8899  1.3023  2.0390
 6887SOL     OW32122   2.226   2.310   7.927  0.3032  0.5727  0.4268
 6887SOL    HW132123   2.306   2.280   7.884  1.3833  1.5564  1.7308
 6887SOL    HW232124   2.269   2.370   7.988 -0.4711  0.3282  1.2209
 6888SOL     OW32125   2.601   0.717   1.325 -0.2474 -0.5164 -0.4622
 6888SOL    HW132126   2.653   0.797   1.325  1.2771 -1.5161  1.5639
 6888SOL    HW232127   2.586   0.704   1.231  0.1313 -1.3951 -0.3950
 6889SOL     OW32128   4.009   1.520  11.264  0.1381 -0.1170  0.3836
 6889SOL    HW132129   3.939   1.586  11.269  1.5860  1.4509  0.1091
 6889SOL    HW232130   4.015   1.505  11.169  0.8017 -2.3288  0.7832
 6890SOL     OW32131   2.741   2.092   8.277 -0.1507 -0.3820  0.5083
 6890SOL    HW132132   2.691   2.171   8.299  0.6722 -0.2766  1.9966
 6890SOL    HW232133   2.736   2.095   8.182 -1.7463 -1.4041  0.5687
 6891SOL     OW32134   4.520   2.506   4.204 -0.5559  0.5436  0.1547
 6891SOL    HW132135   4.535   2.490   4.297  1.7543  3.6206  0.2907
 6891SOL    HW232136   4.433   2.545   4.210 -0.1070  1.8540 -2.0685
 6892SOL     OW32137   2.907   1.008  11.725  0.9331  0.0135 -0.0477
 6892SOL    HW132138   2.891   0.928  11.773  0.8210 -0.8198 -1.4790
 6892SOL    HW232139   2.872   0.977  11.641  1.3167 -0.7889  0.0932
 6893SOL     OW32140   2.984   3.031   0.822 -0.4740  0.0693 -0.1462
 6893SOL    HW132141   3.039   3.081   0.762  1.5673  1.7443  3.0834
 6893SOL    HW232142   2.956   3.100   0.882  1.6262  0.4157  0.4416
 6894SOL     OW32143   2.042   3.593   8.281 -0.1274  0.0214 -0.5413
 6894SOL    HW132144   2.071   3.561   8.195 -1.1014 -0.5281 -0.6692
 6894SOL    HW232145   2.022   3.683   8.255 -2.0594 -0.4519 -0.6681
 6895SOL     OW32146   0.349   4.115   0.370 -0.3598 -0.0685  0.0035
 6895SOL    HW132147   0.408   4.070   0.311 -1.6467  0.3120 -1.5890
 6895SOL    HW232148   0.268   4.065   0.361 -0.8691  0.3878  2.1631
 6896SOL     OW32149   4.151   0.880   6.567 -0.1270  0.4203 -0.0504
 6896SOL    HW132150   4.164   0.957   6.511  3.1552 -1.1678 -1.4710
 6896SOL    HW232151   4.156   0.806   6.506  1.6837  0.9456 -0.5171
 6897SOL     OW32152   3.016   2.572   7.766  0.3943 -0.2798 -0.2219
 6897SOL    HW132153   3.092   2.577   7.824 -2.2886  0.2322  3.2584
 6897SOL    HW232154   3.022   2.660   7.729 -0.6723  0.5756  1.6891
 6898SOL     OW32155   2.283   4.645  12.939 -0.3306 -0.0591  0.1925
 6898SOL    HW132156   2.204   4.609  12.899 -0.8879  1.6153 -0.2096
 6898SOL    HW232157   2.312   4.574  12.997 -0.9015  0.7510  1.4780
 6899SOL     OW32158   3.157   1.687   8.505 -0.1303 -0.4758 -0.5106
 6899SOL    HW132159   3.223   1.754   8.522 -0.6769  0.0781 -0.5965
 6899SOL    HW232160   3.091   1.748   8.474  0.9557  1.0686  0.2356
 6900SOL     OW32161   3.776   4.049  10.443 -0.0334 -0.3915 -0.1618
 6900SOL    HW132162   3.738   3.976  10.491  1.6830 -0.5251  1.0104
 6900SOL    HW232163   3.773   4.116  10.511 -1.1414 -1.0923  0.4674
 6901SOL     OW32164   4.058   4.436  14.687 -0.2730  0.2991  0.1154
 6901SOL    HW132165   4.120   4.418  14.758  0.2857  3.0773  0.3379
 6901SOL    HW232166   3.975   4.395  14.711 -1.0873  1.2562 -1.0545
 6902SOL     OW32167   0.473   0.519   6.576 -0.2598  0.3919  0.1110
 6902SOL    HW132168   0.550   0.563   6.540  1.3533 -2.1274  0.5503
 6902SOL    HW232169   0.466   0.551   6.666 -1.3947  0.7863 -0.1157
 6903SOL     OW32170   2.272   3.744   1.647 -0.0102  0.8637  0.2047
 6903SOL    HW132171   2.320   3.827   1.649  1.8515 -0.2704  2.7381
 6903SOL    HW232172   2.226   3.748   1.564  0.6542 -3.2292 -0.3815
 6904SOL     OW32173   1.414   3.103   2.795  0.2664  0.0492 -0.0612
 6904SOL    HW132174   1.395   3.120   2.702 -2.3336 -0.3877  0.4010
 6904SOL    HW232175   1.446   3.013   2.799  0.5973  0.1650 -0.0328
 6905SOL     OW32176   4.480   2.750   1.891 -0.1470  0.9219 -0.4051
 6905SOL    HW132177   4.530   2.769   1.970 -0.9237 -3.7815  1.1929
 6905SOL    HW232178   4.536   2.783   1.819 -0.9986  1.0072 -1.0259
 6906SOL     OW32179   1.143   1.545  16.898  1.0405  0.0693 -0.3385
 6906SOL    HW132180   1.106   1.578  16.981 -0.8264  0.1336 -1.1888
 6906SOL    HW232181   1.140   1.630  16.855  1.0692 -0.0729 -0.6212
 6907SOL     OW32182   4.002   4.615  11.310 -0.0398 -0.1382  0.3269
 6907SOL    HW132183   4.033   4.702  11.337  0.7845  0.0726 -1.3235
 6907SOL    HW232184   4.060   4.594  11.237  1.4111  1.9604  0.8932
 6908SOL     OW32185   0.122   2.870   4.059  0.1401 -0.4501  0.3868
 6908SOL    HW132186   0.184   2.917   4.004 -1.5472  1.1147 -0.1612
 6908SOL    HW232187   0.067   2.820   3.999  2.5983 -1.6181 -0.8982
 6909SOL     OW32188   2.022   1.792   9.768  0.4068 -0.1841  0.2504
 6909SOL    HW132189   2.081   1.729   9.726  0.2147  0.3155 -0.7482
 6909SOL    HW232190   1.974   1.736   9.829  0.5861  0.3359  0.8746
 6910SOL     OW32191   3.596   1.856   1.642 -0.2886  0.1099 -0.7321
 6910SOL    HW132192   3.551   1.791   1.587  0.5824 -1.6544  0.6389
 6910SOL    HW232193   3.568   1.938   1.601 -1.7032 -0.8193 -1.6208
 6911SOL     OW32194   0.906   1.752   7.166  0.1701 -0.2762  0.6893
 6911SOL    HW132195   0.871   1.669   7.133 -2.9301  0.3267  2.5542
 6911SOL    HW232196   0.944   1.792   7.088 -1.8379  0.8905  0.3285
 6912SOL     OW32197   4.267   0.613  12.325 -0.0530 -0.1480  0.0954
 6912SOL    HW132198   4.298   0.526  12.300  0.7613  0.2201 -0.1516
 6912SOL    HW232199   4.313   0.676  12.270 -1.4866 -1.1603 -2.2764
 6913SOL     OW32200   4.074   4.382  10.476 -0.5877  0.4856 -0.0665
 6913SOL    HW132201   4.138   4.388  10.405 -0.2280  0.1653  0.2259
 6913SOL    HW232202   4.100   4.470  10.503 -2.0457  0.8815 -0.0078
 6914SOL     OW32203   3.880   3.394   5.427 -0.4444 -0.3173  0.0472
 6914SOL    HW132204   3.790   3.422   5.442 -0.9050 -1.1604 -1.0670
 6914SOL    HW232205   3.865   3.302   5.404 -0.4003 -0.0736 -0.9669
 6915SOL     OW32206   0.321   2.577   3.747 -0.2459 -0.1557 -0.0700
 6915SOL    HW132207   0.226   2.587   3.752 -0.2154  0.8170 -1.4492
 6915SOL    HW232208   0.355   2.655   3.790  0.5434 -0.4990 -0.0794
 6916SOL     OW32209   3.247   2.854   5.513 -0.1432 -0.3082 -0.0352
 6916SOL    HW132210   3.316   2.807   5.561  1.2038  0.6540 -1.0372
 6916SOL    HW232211   3.182   2.866   5.582  1.5354 -0.7496  1.6089
 6917SOL     OW32212   0.218   0.331   8.576 -0.0141  0.5259 -0.3383
 6917SOL    HW132213   0.124   0.314   8.574  0.0968  0.2740 -3.2194
 6917SOL    HW232214   0.226   0.412   8.627 -1.3837  1.7611 -2.0952
 6918SOL     OW32215   0.177   1.392  16.147 -0.6759 -0.4403  0.0313
 6918SOL    HW132216   0.216   1.361  16.229  2.4856 -0.1159 -1.3431
 6918SOL    HW232217   0.220   1.478  16.146 -0.8803 -0.3569 -0.8527
 6919SOL     OW32218   0.175   3.898   3.718  0.1450 -0.2970  0.2566
 6919SOL    HW132219   0.132   3.976   3.683  0.4828  0.5505  1.7305
 6919SOL    HW232220   0.135   3.835   3.658  1.2702 -0.6035 -0.1777
 6920SOL     OW32221   0.864   0.886   4.620 -0.2728 -0.3253 -0.0536
 6920SOL    HW132222   0.896   0.833   4.694  1.3350  1.0197  0.2149
 6920SOL    HW232223   0.928   0.957   4.622 -0.8965  0.2235  0.1781
 6921SOL     OW32224   4.073   2.757   4.135  0.2460 -0.1216 -0.3956
 6921SOL    HW132225   4.052   2.814   4.208 -1.1795 -0.4233 -0.5783
 6921SOL    HW232226   4.049   2.815   4.063 -1.7121 -1.1493 -0.5576
 6922SOL     OW32227   2.983   3.153   6.357  0.3497  0.1349 -0.1424
 6922SOL    HW132228   2.992   3.202   6.276 -0.0316  0.1913 -0.1487
 6922SOL    HW232229   2.957   3.071   6.315  1.2316  1.5210 -3.3522
 6923SOL     OW32230   2.792   2.530   1.439 -0.1282  0.2006  0.1858
 6923SOL    HW132231   2.877   2.486   1.446 -0.6344 -0.9876 -1.1983
 6923SOL    HW232232   2.748   2.479   1.372  0.2814 -0.7518  0.6311
 6924SOL     OW32233   3.609   1.170   7.110 -0.3655  0.0312 -0.0521
 6924SOL    HW132234   3.670   1.165   7.184 -3.6822  0.4031  2.6880
 6924SOL    HW232235   3.572   1.256   7.130 -0.0667 -0.3387  2.0630
 6925SOL     OW32236   2.941   3.630   7.083  0.7014 -0.1073  0.1224
 6925SOL    HW132237   3.005   3.586   7.027 -1.0956 -2.2578 -0.2509
 6925SOL    HW232238   2.931   3.578   7.163  1.8212  0.6271  0.7470
 6926SOL     OW32239   1.838   2.299  12.942 -0.1977  0.0955 -0.5221
 6926SOL    HW132240   1.827   2.206  12.927  0.1082 -0.4981  2.9689
 6926SOL    HW232241   1.758   2.333  12.982 -0.6744 -3.2780  1.3529
 6927SOL     OW32242   4.409   1.022   3.153 -0.1075 -0.3541 -0.6765
 6927SOL    HW132243   4.356   1.053   3.080 -0.3889  0.5569 -0.0870
 6927SOL    HW232244   4.493   0.994   3.116  0.4287  1.2911 -0.7174
 6928SOL     OW32245   1.026   3.313   1.777  0.5122  0.2822  0.1445
 6928SOL    HW132246   1.033   3.273   1.689  0.0087  1.2136 -0.3143
 6928SOL    HW232247   1.119   3.319   1.800  0.3038 -1.0142  1.3198
 6929SOL     OW32248   3.205   2.743   2.727 -0.0917 -0.1496 -0.3122
 6929SOL    HW132249   3.188   2.718   2.637 -0.2969 -2.6827  0.4409
 6929SOL    HW232250   3.227   2.657   2.762  1.4615  0.7969  1.0246
 6930SOL     OW32251   1.632   0.464   7.263  0.3064  0.2930  0.5802
 6930SOL    HW132252   1.610   0.371   7.258 -0.2205  0.5522 -2.0349
 6930SOL    HW232253   1.629   0.469   7.359  1.5365 -0.6000  0.6615
 6931SOL     OW32254   0.745   1.916   3.927  0.0569 -0.5030 -0.2875
 6931SOL    HW132255   0.681   1.921   3.999 -0.3804  1.9158 -0.8382
 6931SOL    HW232256   0.725   1.833   3.884  1.3519 -2.0277  2.0038
 6932SOL     OW32257   3.609   2.989   9.071 -0.1117  0.1596  0.4557
 6932SOL    HW132258   3.584   2.979   9.163  1.5669  0.9532  1.0061
 6932SOL    HW232259   3.704   2.977   9.065 -0.5501 -1.9282 -2.1631
 6933SOL     OW32260   3.494   3.826  14.032  0.3180  0.4107  0.6280
 6933SOL    HW132261   3.524   3.906  14.074 -0.0381  1.6417 -1.4505
 6933SOL    HW232262   3.525   3.760  14.094  0.0150 -1.4111 -1.1449
 6934SOL     OW32263   3.214   0.094  15.520 -0.3587  0.7932  0.2923
 6934SOL    HW132264   3.260   0.030  15.466 -0.0094  0.9314  0.4263
 6934SOL    HW232265   3.273   0.100  15.595  1.8605  2.1520 -1.5688
 6935SOL     OW32266   2.548   0.453   0.721  0.1757 -0.3099 -0.3164
 6935SOL    HW132267   2.496   0.383   0.681  1.1163 -0.4413 -1.3122
 6935SOL    HW232268   2.601   0.408   0.787 -0.2017  1.4354  1.1500
 6936SOL     OW32269   1.168   3.732  16.854 -0.0349 -0.2628 -0.2481
 6936SOL    HW132270   1.141   3.821  16.875  0.5242 -0.7955  2.7213
 6936SOL    HW232271   1.084   3.693  16.830 -0.8445  0.0088  2.1220
 6937SOL     OW32272   3.571   2.836   5.430  0.1974 -0.3845  0.2167
 6937SOL    HW132273   3.519   2.791   5.496 -1.1578  3.1143  1.5214
 6937SOL    HW232274   3.588   2.755   5.381  0.2073 -0.7337  0.8019
 6938SOL     OW32275   3.622   3.683  17.014  0.6235 -0.1047  0.2846
 6938SOL    HW132276   3.703   3.730  16.991 -0.2490  0.5705 -1.3949
 6938SOL    HW232277   3.572   3.764  17.028  2.2919  1.0772 -0.5240
 6939SOL     OW32278   3.396   3.399  15.122 -0.2300  0.1888  0.3979
 6939SOL    HW132279   3.342   3.371  15.049  1.2826  0.7983 -0.9528
 6939SOL    HW232280   3.390   3.494  15.111  1.9090  0.4145  1.0611
 6940SOL     OW32281   0.245   4.561   9.915  0.2864 -0.2068 -0.1594
 6940SOL    HW132282   0.176   4.603   9.863  1.4621  1.8651 -0.0597
 6940SOL    HW232283   0.223   4.469   9.902 -0.1376  0.0581 -1.3648
 6941SOL     OW32284   1.775   2.920   8.908 -0.0878 -0.1620 -0.2248
 6941SOL    HW132285   1.856   2.881   8.876  0.4231  0.5809  0.1387
 6941SOL    HW232286   1.773   2.885   8.997 -0.7807  1.2622  0.3306
 6942SOL     OW32287   2.431   3.694  10.326  0.0312 -0.1053 -0.6756
 6942SOL    HW132288   2.470   3.676  10.411 -1.0535 -0.3613 -0.2324
 6942SOL    HW232289   2.463   3.623  10.271  1.8841 -0.1321  0.4408
 6943SOL     OW32290   3.883   3.316   6.811 -0.1300  0.7799  0.2947
 6943SOL    HW132291   3.892   3.374   6.735 -1.5653 -0.6139 -0.9695
 6943SOL    HW232292   3.918   3.237   6.769  0.2763 -0.0063  2.1376
 6944SOL     OW32293   0.879   0.987  10.155 -0.3854 -0.1817  0.6233
 6944SOL    HW132294   0.940   0.929  10.110 -0.9881  1.7380 -2.6594
 6944SOL    HW232295   0.808   1.002  10.093  2.2172 -1.6752 -2.6924
 6945SOL     OW32296   2.293   1.109   3.660 -0.4531  0.1655 -0.4572
 6945SOL    HW132297   2.200   1.097   3.642 -0.1006  0.5805 -2.6610
 6945SOL    HW232298   2.313   1.092   3.752  0.0676  2.5250 -0.1365
 6946SOL     OW32299   4.720   4.491  17.129  0.5193 -0.9019 -0.0431
 6946SOL    HW132300   4.626   4.500  17.115  0.6271 -0.0034 -0.1573
 6946SOL    HW232301   0.013   4.424  17.062 -1.7849 -1.8851  0.3362
 6947SOL     OW32302   3.727   0.645   8.015 -0.8657  0.2472  0.7482
 6947SOL    HW132303   3.775   0.650   8.097  2.7582 -1.3025 -1.2887
 6947SOL    HW232304   3.768   0.563   7.991  0.6955  1.5591 -1.0737
 6948SOL     OW32305   1.833   1.646   0.547  0.2638  0.1440 -0.4366
 6948SOL    HW132306   1.817   1.625   0.639 -2.9131  2.0525 -0.5632
 6948SOL    HW232307   1.904   1.707   0.566 -0.4909  0.7259  0.5227
 6949SOL     OW32308   0.993   1.640   7.785  0.3940 -0.0118  0.0794
 6949SOL    HW132309   1.059   1.577   7.814 -1.5213 -1.6982  0.7746
 6949SOL    HW232310   1.022   1.717   7.834  1.1647  0.1675 -0.6640
 6950SOL     OW32311   3.621   2.276   6.393 -0.1503 -0.4049  0.3862
 6950SOL    HW132312   3.672   2.196   6.411  1.5618  0.6816  0.3752
 6950SOL    HW232313   3.650   2.330   6.467 -0.6835 -1.8006  1.6214
 6951SOL     OW32314   0.449   4.155  17.532  0.2688 -0.3503 -0.1990
 6951SOL    HW132315   0.456   4.235  17.584  0.9116 -0.3921 -0.2121
 6951SOL    HW232316   0.442   4.184  17.442 -1.2767 -1.9092 -0.5805
 6952SOL     OW32317   0.997   3.245  13.890 -0.1566  0.3198 -0.0617
 6952SOL    HW132318   1.038   3.212  13.810  1.8532 -0.0262  1.1204
 6952SOL    HW232319   1.069   3.300  13.921 -0.2452  0.8589 -0.7924
 6953SOL     OW32320   0.124   1.449   6.751  0.2475  0.4111 -0.0152
 6953SOL    HW132321   0.201   1.409   6.711 -1.2597 -3.4278  0.9530
 6953SOL    HW232322   0.161   1.462   6.839  4.1682 -0.9142 -1.4624
 6954SOL     OW32323   3.969   3.006   6.779 -0.1784 -0.0947 -0.8019
 6954SOL    HW132324   3.977   2.988   6.873 -1.4861  2.1377 -0.2590
 6954SOL    HW232325   3.883   2.967   6.764 -0.2430 -0.4050  0.4110
 6955SOL     OW32326   2.679   0.498   1.092  0.1905 -0.3897  0.4396
 6955SOL    HW132327   2.618   0.434   1.129  0.3180 -0.9248 -0.2874
 6955SOL    HW232328   2.722   0.452   1.020 -2.8960 -0.7904 -1.1238
 6956SOL     OW32329   1.387   0.750   7.733 -0.8412  0.0552 -0.3060
 6956SOL    HW132330   1.330   0.720   7.663 -0.3607 -1.2764 -0.1423
 6956SOL    HW232331   1.329   0.795   7.794 -0.1303 -0.3015  0.6397
 6957SOL     OW32332   1.367   3.770  11.071 -0.6108 -0.4499  0.0791
 6957SOL    HW132333   1.461   3.785  11.061 -0.6359 -0.2525  0.1510
 6957SOL    HW232334   1.338   3.829  11.140 -0.6487 -0.5229  0.1255
 6958SOL     OW32335   3.563   1.930   1.893  0.0442 -0.8009  0.2598
 6958SOL    HW132336   3.595   2.019   1.910 -0.6321 -0.6470  0.7198
 6958SOL    HW232337   3.573   1.928   1.798 -2.3043 -0.0336 -0.0067
 6959SOL     OW32338   0.189   0.584   8.678  0.1074  0.3376 -0.1062
 6959SOL    HW132339   0.253   0.654   8.693  0.0227 -0.0926  2.3417
 6959SOL    HW232340   0.116   0.626   8.722 -1.3643 -1.1163 -1.1737
 6960SOL     OW32341   3.144   3.623   4.127  0.1108  0.4120 -0.2271
 6960SOL    HW132342   3.228   3.608   4.169  0.2314  1.3623 -0.1464
 6960SOL    HW232343   3.093   3.557   4.175  3.6767 -1.5197  0.8670
 6961SOL     OW32344   4.118   3.475   1.215 -0.1729  0.2617  0.4196
 6961SOL    HW132345   4.213   3.468   1.222 -0.3003 -0.3920  1.5742
 6961SOL    HW232346   4.087   3.387   1.238  0.9613 -0.9140 -2.6525
 6962SOL     OW32347   0.150   2.299   4.747  0.1082 -0.1425  0.5102
 6962SOL    HW132348   0.153   2.385   4.706 -1.7013 -1.0478 -1.5286
 6962SOL    HW232349   0.228   2.306   4.802  0.0510  0.5040  0.5056
 6963SOL     OW32350   3.955   1.021   5.781  0.3416 -0.7436 -0.1187
 6963SOL    HW132351   3.874   1.036   5.732 -0.2598 -4.0519 -0.1553
 6963SOL    HW232352   4.003   0.961   5.725 -2.1879 -2.8865  0.0012
 6964SOL     OW32353   0.143   1.890   0.745  0.4481  0.1048  0.2079
 6964SOL    HW132354   0.217   1.916   0.800  1.3733  0.5824 -1.2401
 6964SOL    HW232355   0.071   1.939   0.783  3.6334  2.9469  2.6028
 6965SOL     OW32356   2.175   2.289   1.298  0.5416 -0.4067 -0.4992
 6965SOL    HW132357   2.151   2.200   1.271 -0.2348 -0.2353 -0.3613
 6965SOL    HW232358   2.110   2.294   1.368  1.5010  0.1947  0.3471
 6966SOL     OW32359   1.729   0.550  15.522  0.1598  0.6845  0.5354
 6966SOL    HW132360   1.735   0.631  15.472 -0.2783  1.6000  1.9696
 6966SOL    HW232361   1.636   0.553  15.546 -1.0288 -2.3091 -3.8057
 6967SOL     OW32362   2.082   0.869  15.250 -0.1850 -0.9181  0.5520
 6967SOL    HW132363   2.151   0.803  15.258 -0.1745 -0.6007  3.2656
 6967SOL    HW232364   2.115   0.941  15.304 -0.2586  1.1958 -2.2262
 6968SOL     OW32365   2.730   3.412   8.684  0.1933  0.2926  0.5528
 6968SOL    HW132366   2.690   3.477   8.626 -1.4167  0.0611  1.4127
 6968SOL    HW232367   2.657   3.354   8.707 -0.0832  0.2610 -0.3853
 6969SOL     OW32368   2.119   0.532   3.619  0.4199  0.6802 -0.2769
 6969SOL    HW132369   2.146   0.490   3.701 -0.8842 -0.2054 -0.2926
 6969SOL    HW232370   2.091   0.619   3.646 -0.3462  0.4954 -0.4753
 6970SOL     OW32371   2.826   1.462   5.558  0.2397  0.4641 -0.0764
 6970SOL    HW132372   2.779   1.514   5.493 -0.0674 -0.7823 -0.8580
 6970SOL    HW232373   2.914   1.474   5.523  0.4544 -0.4457  0.1464
 6971SOL     OW32374   3.110   0.172   7.616  0.2388  0.2127 -0.1166
 6971SOL    HW132375   3.204   0.153   7.608  0.2688  0.5290 -0.5654
 6971SOL    HW232376   3.092   0.128   7.699  0.9103  1.0865  0.4934
 6972SOL     OW32377   0.809   0.913  13.213 -0.7005 -0.1788  0.5626
 6972SOL    HW132378   0.752   0.985  13.241  0.4686  1.0879 -0.3152
 6972SOL    HW232379   0.808   0.850  13.285 -2.1213 -0.9327 -0.1114
 6973SOL     OW32380   0.669   1.445   5.058  0.2162 -0.2300  0.0417
 6973SOL    HW132381   0.642   1.530   5.023  0.3292 -0.6277 -0.9934
 6973SOL    HW232382   0.628   1.392   4.990  1.1580  0.0474 -0.7378
 6974SOL     OW32383   3.443   3.050   6.116  0.2694  1.1077 -0.1336
 6974SOL    HW132384   3.458   2.958   6.135 -1.8321  0.8350  0.2236
 6974SOL    HW232385   3.363   3.075   6.162 -1.2097  2.4035 -3.4219
 6975SOL     OW32386   3.760   3.295   5.935 -0.5420 -0.4170 -0.3411
 6975SOL    HW132387   3.841   3.247   5.917 -0.1436  0.8983 -2.0553
 6975SOL    HW232388   3.732   3.258   6.019  1.2033  1.5911  1.0958
 6976SOL     OW32389   2.727   1.962   2.340 -0.2895 -0.2846  0.2734
 6976SOL    HW132390   2.725   1.889   2.278  1.1438  0.7023 -0.9632
 6976SOL    HW232391   2.677   2.030   2.294 -2.7990 -2.2677  0.1225
 6977SOL     OW32392   1.398   0.389  13.462  0.3717 -0.4426 -0.0914
 6977SOL    HW132393   1.460   0.344  13.519 -0.5527 -1.1079  0.3904
 6977SOL    HW232394   1.344   0.311  13.449 -0.4453  0.8244 -4.3429
 6978SOL     OW32395   2.439   3.738   3.152  0.0496 -0.5800 -0.0861
 6978SOL    HW132396   2.390   3.689   3.218 -1.0189  1.2390  0.4640
 6978SOL    HW232397   2.430   3.681   3.075 -0.5454  0.2468 -0.6221
 6979SOL     OW32398   2.952   0.108   5.912 -0.0166  0.1678  0.3146
 6979SOL    HW132399   2.894   0.164   5.965  1.0373  1.0858  0.5021
 6979SOL    HW232400   2.944   0.034   5.973  1.4135  0.1540  0.4727
 6980SOL     OW32401   3.805   2.854  14.601 -0.0817  0.7362  0.1326
 6980SOL    HW132402   3.753   2.808  14.667  3.1081 -0.6019  1.7152
 6980SOL    HW232403   3.894   2.827  14.624 -1.2663 -3.4263 -0.0431
 6981SOL     OW32404   1.581   4.419   7.547 -0.2216  0.0327 -0.1954
 6981SOL    HW132405   1.503   4.398   7.496 -1.3611  2.5283  0.5130
 6981SOL    HW232406   1.646   4.355   7.520 -0.5393 -0.6268  0.6189
 6982SOL     OW32407   3.877   0.103   3.601  0.1282  0.1319  0.0020
 6982SOL    HW132408   3.948   0.148   3.554  0.8634  0.6601  1.6048
 6982SOL    HW232409   3.820   0.065   3.534  0.2512 -1.4441  0.8144
 6983SOL     OW32410   0.079   0.682   3.786  0.5400  0.2907 -0.2622
 6983SOL    HW132411   0.080   0.587   3.773  1.4896 -0.0263  2.0597
 6983SOL    HW232412   0.115   0.730   3.712  1.0628  0.7413  0.2845
 6984SOL     OW32413   3.232   4.639   7.229  0.2927 -0.1069  0.5299
 6984SOL    HW132414   3.222   4.592   7.146  0.3359  1.6358 -0.4654
 6984SOL    HW232415   3.144   4.629   7.264  0.6443  0.4101  1.5687
 6985SOL     OW32416   3.922   1.119  14.757  0.2955 -0.0271  0.7306
 6985SOL    HW132417   3.987   1.150  14.820 -0.2591 -0.9121  1.7306
 6985SOL    HW232418   3.845   1.152  14.803 -1.1596 -0.9996 -0.9831
 6986SOL     OW32419   2.686   4.435  10.676  0.0572  0.1483 -0.4117
 6986SOL    HW132420   2.649   4.508  10.626  1.2202 -0.7414 -2.5667
 6986SOL    HW232421   2.752   4.487  10.723  0.1159  0.3533 -0.7217
 6987SOL     OW32422   4.704   3.000   4.769 -0.0757  0.3786  0.3641
 6987SOL    HW132423   4.705   2.932   4.836  1.3504  1.0003  0.9818
 6987SOL    HW232424   0.028   2.958   4.697 -3.1925 -1.7417 -0.4640
 6988SOL     OW32425   0.565   0.115  11.217  0.1091  0.3991  0.0321
 6988SOL    HW132426   0.640   0.171  11.195  0.6613  0.6623  2.5605
 6988SOL    HW232427   0.612   0.063  11.283  1.4528 -0.4100 -1.5491
 6989SOL     OW32428   4.324   1.178   3.927 -0.1116  0.0997  0.2069
 6989SOL    HW132429   4.310   1.196   4.020 -0.7215 -0.1682  0.1695
 6989SOL    HW232430   4.324   1.271   3.903 -2.2183 -0.9328 -3.8360
 6990SOL     OW32431   1.650   4.269   8.170  0.7239  0.3615 -0.2052
 6990SOL    HW132432   1.597   4.341   8.204 -0.0577 -0.1746 -0.2962
 6990SOL    HW232433   1.623   4.265   8.078 -2.7614  2.6709  0.7271
 6991SOL     OW32434   3.168   1.634  16.837 -0.3378  0.0206  0.0966
 6991SOL    HW132435   3.226   1.627  16.914  0.9446 -1.2139 -0.9700
 6991SOL    HW232436   3.102   1.574  16.871 -0.3583  0.4011  0.7313
 6992SOL     OW32437   4.451   2.792   8.884  0.3977 -0.8752  0.2056
 6992SOL    HW132438   4.481   2.797   8.975  0.7841  0.5391  0.0153
 6992SOL    HW232439   4.378   2.731   8.889 -0.2095  0.0262  2.2861
 6993SOL     OW32440   1.939   3.906   8.881  0.6101 -0.0987  0.6443
 6993SOL    HW132441   1.929   3.879   8.790 -3.3434  3.7146 -0.0363
 6993SOL    HW232442   2.017   3.855   8.907  2.5221  1.7927 -1.3776
 6994SOL     OW32443   1.168   1.431   2.388 -0.1176 -0.9488  0.5343
 6994SOL    HW132444   1.193   1.521   2.409  0.5048 -0.7086 -1.2010
 6994SOL    HW232445   1.128   1.434   2.301 -1.3735 -0.2020  1.1524
 6995SOL     OW32446   0.429   3.608  14.643 -0.1821  0.2698  0.2133
 6995SOL    HW132447   0.482   3.679  14.607 -0.6420  0.8006  0.5976
 6995SOL    HW232448   0.420   3.622  14.738  0.6088 -0.8128  0.4522
 6996SOL     OW32449   4.673   0.666   8.802 -0.6651 -0.2377 -0.3632
 6996SOL    HW132450   4.579   0.653   8.811 -0.9460  0.7586 -1.7578
 6996SOL    HW232451   4.700   0.660   8.893  2.7090  0.2807 -1.3121
 6997SOL     OW32452   0.520   1.951  12.935 -0.1134 -0.2042  0.1894
 6997SOL    HW132453   0.545   2.019  12.998 -1.3916  1.6324 -1.2934
 6997SOL    HW232454   0.604   1.905  12.933  1.1191  2.0383  0.3206
 6998SOL     OW32455   0.101   2.841   9.269 -0.5901  0.0488 -0.5011
 6998SOL    HW132456   0.085   2.750   9.246  1.9219 -0.4275 -0.4011
 6998SOL    HW232457   0.156   2.835   9.347  0.0259 -0.5419 -0.9816
 6999SOL     OW32458   2.524   2.296   5.108  0.1839 -0.2480  0.1130
 6999SOL    HW132459   2.580   2.229   5.070  0.1169 -1.2487  1.7933
 6999SOL    HW232460   2.539   2.364   5.042  1.2146  0.4320  1.0432
 7000SOL     OW32461   2.009   1.729   1.985  0.1799 -0.1340 -0.8212
 7000SOL    HW132462   1.932   1.697   2.030  0.5442 -1.3538 -1.0719
 7000SOL    HW232463   2.033   1.789   2.056 -0.7921 -0.4771 -0.2061
 7001SOL     OW32464   2.843   3.995   4.305 -0.1673  0.0340  0.2921
 7001SOL    HW132465   2.897   4.023   4.231 -0.4858 -0.6493 -0.1926
 7001SOL    HW232466   2.874   4.047   4.380  2.5306  0.5951 -1.2010
 7002SOL     OW32467   1.257   2.796   7.887  0.2896 -0.2901 -0.4813
 7002SOL    HW132468   1.182   2.778   7.942  0.9727 -0.4126  0.4042
 7002SOL    HW232469   1.202   2.835   7.818  0.8495 -0.5272 -1.0681
 7003SOL     OW32470   4.079   0.104   4.137 -0.6432 -0.6616 -0.2104
 7003SOL    HW132471   4.123   0.034   4.185  0.3743 -0.6110 -1.0636
 7003SOL    HW232472   4.086   0.082   4.044  2.8336  0.7260 -0.2643
 7004SOL     OW32473   3.520   4.049   3.603  0.8611  0.0895 -0.1033
 7004SOL    HW132474   3.595   4.037   3.545 -1.3066  1.9114 -3.3150
 7004SOL    HW232475   3.552   4.086   3.685 -1.3705  0.1440  0.7432
 7005SOL     OW32476   3.397   3.936   0.423 -0.2236 -0.0880 -0.3964
 7005SOL    HW132477   3.392   4.002   0.491 -2.9747  0.7496 -1.4420
 7005SOL    HW232478   3.490   3.953   0.404 -0.8058  1.5320 -1.8258
 7006SOL     OW32479   2.197   4.430   7.354 -0.3419  0.2058 -0.5603
 7006SOL    HW132480   2.159   4.424   7.441  2.4972  0.2849  0.6673
 7006SOL    HW232481   2.222   4.339   7.338 -0.9912 -0.2040  0.8132
 7007SOL     OW32482   2.561   1.045  10.413  0.2144 -0.1464  0.1749
 7007SOL    HW132483   2.537   0.991  10.337 -0.0981 -0.0702  0.2174
 7007SOL    HW232484   2.469   1.062  10.433 -0.1996  0.2714 -2.0425
 7008SOL     OW32485   3.203   3.612   2.767 -0.0702  0.3945  0.8988
 7008SOL    HW132486   3.151   3.554   2.712 -1.0153  2.9817 -0.9048
 7008SOL    HW232487   3.136   3.665   2.810 -2.2406 -1.6968  0.1189
 7009SOL     OW32488   2.021   0.495   5.675 -0.1792 -0.1650 -0.1865
 7009SOL    HW132489   1.935   0.528   5.702 -1.2371 -1.5209 -1.9337
 7009SOL    HW232490   2.000   0.452   5.593  0.8820 -0.8025 -0.1222
 7010SOL     OW32491   4.218   2.884   2.833 -0.2450  0.6602 -0.0048
 7010SOL    HW132492   4.149   2.818   2.841  0.2055  0.0039 -1.5645
 7010SOL    HW232493   4.261   2.866   2.749 -2.1908  2.4518 -1.3664
 7011SOL     OW32494   3.508   2.342   3.268 -0.1985 -0.3710  0.2846
 7011SOL    HW132495   3.438   2.394   3.307 -0.1012  0.0537 -0.1023
 7011SOL    HW232496   3.513   2.398   3.190 -1.1739  0.6717  0.9752
 7012SOL     OW32497   3.599   0.620   4.386  0.4407  0.4318 -0.3646
 7012SOL    HW132498   3.672   0.680   4.400  0.0375  0.3417  2.0786
 7012SOL    HW232499   3.622   0.572   4.306  0.5332 -0.6138  0.2980
 7013SOL     OW32500   4.302   2.040   1.865 -0.4350  0.1205 -0.4598
 7013SOL    HW132501   4.227   2.082   1.906 -1.5737 -1.3507 -0.9990
 7013SOL    HW232502   4.300   1.953   1.905 -1.1257  0.1540 -0.4136
 7014SOL     OW32503   3.450   2.493   2.413  0.1361  0.0333  0.3375
 7014SOL    HW132504   3.460   2.446   2.330  3.1299  1.2888 -0.0126
 7014SOL    HW232505   3.360   2.478   2.441  0.1694  1.2830  1.1019
 7015SOL     OW32506   0.224   0.435   9.058 -0.6433  0.3314 -0.6326
 7015SOL    HW132507   0.168   0.512   9.047 -0.9483 -0.2493 -3.2412
 7015SOL    HW232508   0.309   0.471   9.030  0.2207 -0.8030  0.5641
 7016SOL     OW32509   0.595   1.258  14.480  0.3470  0.2593  0.6632
 7016SOL    HW132510   0.548   1.316  14.421  3.0278  0.5622 -1.1572
 7016SOL    HW232511   0.524   1.205  14.517 -0.5553  0.9365 -0.1213
 7017SOL     OW32512   2.231   1.084   6.677  0.0650 -0.5777 -0.5357
 7017SOL    HW132513   2.286   1.145   6.726  0.2017 -1.2728  0.1957
 7017SOL    HW232514   2.229   1.109   6.585 -0.6955  2.1531  0.2254
 7018SOL     OW32515   3.625   4.304   0.440 -0.2429  0.5190  0.0854
 7018SOL    HW132516   3.575   4.280   0.518 -1.0396 -1.7802 -1.1150
 7018SOL    HW232517   3.593   4.390   0.412 -3.3416 -0.6117  0.1424
 7019SOL     OW32518   3.687   2.218   3.433 -0.1068 -0.4006 -0.3476
 7019SOL    HW132519   3.656   2.127   3.431  1.3604 -0.9017 -0.5039
 7019SOL    HW232520   3.639   2.262   3.363 -0.5040  1.4190  1.0664
 7020SOL     OW32521   4.044   1.039   0.948 -0.1369  0.0296 -0.2765
 7020SOL    HW132522   4.013   0.951   0.926 -1.0124 -0.1464  1.6559
 7020SOL    HW232523   4.026   1.092   0.871 -0.4766 -0.4279 -0.5171
 7021SOL     OW32524   2.258   1.833   6.431  0.0467  0.3325 -0.0152
 7021SOL    HW132525   2.219   1.871   6.352  2.0217  1.8692 -0.2643
 7021SOL    HW232526   2.186   1.789   6.475 -0.2262 -0.1375 -0.9245
 7022SOL     OW32527   0.396   3.716   1.830  0.3356  0.0528 -0.5421
 7022SOL    HW132528   0.464   3.655   1.803  1.4300  1.5196 -1.0727
 7022SOL    HW232529   0.354   3.736   1.746  1.2652  1.3384 -0.7076
 7023SOL     OW32530   2.503   1.494   6.919  0.3119 -0.1019 -0.2763
 7023SOL    HW132531   2.494   1.539   6.834  0.3499  0.5776  0.0776
 7023SOL    HW232532   2.598   1.499   6.929  0.4323  0.5471 -1.6540
 7024SOL     OW32533   3.643   4.000   0.266 -0.1211 -0.3880  0.3820
 7024SOL    HW132534   3.601   3.996   0.180  0.2582  1.5101  0.1208
 7024SOL    HW232535   3.671   4.091   0.263 -2.4220  0.2541 -1.2295
 7025SOL     OW32536   2.664   1.750   3.054  0.6411  0.1171  0.7852
 7025SOL    HW132537   2.750   1.772   3.089  0.7925 -1.3073  1.3033
 7025SOL    HW232538   2.618   1.834   3.045  1.7474  1.0827  4.0696
 7026SOL     OW32539   4.023   1.096   1.811  0.7400  0.4436 -0.4386
 7026SOL    HW132540   3.998   1.136   1.728 -0.3834 -1.7836 -1.1788
 7026SOL    HW232541   4.058   1.177   1.846  0.0096 -0.8504  3.2893
 7027SOL     OW32542   2.140   4.263  14.661 -0.0606  0.5713  0.3350
 7027SOL    HW132543   2.199   4.307  14.600  1.1267 -1.4445  0.0321
 7027SOL    HW232544   2.201   4.208  14.710  0.5793  0.3266 -0.7463
 7028SOL     OW32545   3.531   1.974  14.783  0.3203  0.1650  0.4108
 7028SOL    HW132546   3.556   2.056  14.740 -0.1294  0.2482  0.3133
 7028SOL    HW232547   3.548   1.906  14.718 -0.5013  0.3999 -0.0551
 7029SOL     OW32548   1.360   3.378   9.329 -0.2454 -0.2261 -0.1412
 7029SOL    HW132549   1.422   3.449   9.345 -1.4560  0.6032  0.9307
 7029SOL    HW232550   1.284   3.428   9.298  0.0875  1.0804  1.1744
 7030SOL     OW32551   2.252   2.663   8.896  0.2517 -0.1149  0.0755
 7030SOL    HW132552   2.238   2.568   8.895  0.5778 -0.1619 -0.6246
 7030SOL    HW232553   2.330   2.664   8.951  2.0284 -1.0144 -2.4318
 7031SOL     OW32554   0.307   3.699  10.198  0.1242  0.0178  0.4538
 7031SOL    HW132555   0.373   3.691  10.267 -0.8350 -0.2383  1.3328
 7031SOL    HW232556   0.310   3.794  10.189  2.5367 -0.0824  0.2200
 7032SOL     OW32557   3.396   3.901   1.009 -0.3688  0.2877 -0.0644
 7032SOL    HW132558   3.412   3.819   0.961  0.8256  1.0873 -1.0350
 7032SOL    HW232559   3.323   3.864   1.059  0.0170  0.2549  0.4725
 7033SOL     OW32560   1.625   3.315  10.994 -0.0878  0.0773  0.0940
 7033SOL    HW132561   1.543   3.283  10.955 -1.1569 -0.1090  2.4713
 7033SOL    HW232562   1.687   3.305  10.922  0.5445  1.7816  0.3894
 7034SOL     OW32563   2.990   0.616   5.402 -0.6019  0.1074  0.1261
 7034SOL    HW132564   2.956   0.705   5.408 -0.2683  0.3470 -1.5720
 7034SOL    HW232565   2.995   0.582   5.492 -1.2025 -1.1797 -0.3330
 7035SOL     OW32566   4.173   1.128   6.458  0.0463 -0.1571  0.1945
 7035SOL    HW132567   4.185   1.178   6.378  0.4363 -2.1415 -0.9817
 7035SOL    HW232568   4.126   1.188   6.516 -0.3531  0.1475 -0.4529
 7036SOL     OW32569   4.313   1.679   5.614  0.2061  0.1063 -0.3597
 7036SOL    HW132570   4.386   1.645   5.666  0.7211  2.2660  0.3042
 7036SOL    HW232571   4.346   1.764   5.588  0.8453 -0.2508 -0.7029
 7037SOL     OW32572   0.199   0.772  12.857  0.1860  0.0072 -0.0418
 7037SOL    HW132573   0.176   0.838  12.791 -0.8514 -0.8484 -0.5400
 7037SOL    HW232574   0.135   0.705  12.832  1.1705 -0.5614 -1.0555
 7038SOL     OW32575   2.072   2.350   7.655  0.0923 -0.7288 -0.4118
 7038SOL    HW132576   2.091   2.261   7.628  0.7244 -0.8421  0.4142
 7038SOL    HW232577   1.998   2.341   7.714  1.2103 -3.4012  0.5547
 7039SOL     OW32578   0.995   3.322   5.385  0.0910 -0.6257  0.3821
 7039SOL    HW132579   1.051   3.278   5.321 -0.8453 -0.8610 -0.2615
 7039SOL    HW232580   1.015   3.265   5.460  1.5025 -1.9619 -1.0125
 7040SOL     OW32581   0.508   0.862   4.908 -0.3518 -0.5013  0.8302
 7040SOL    HW132582   0.543   0.880   4.820 -1.8620  0.7972  0.5004
 7040SOL    HW232583   0.465   0.946   4.921  0.3725  0.1335 -0.8989
 7041SOL     OW32584   3.031   0.305   0.995 -0.0516  0.1325 -0.1251
 7041SOL    HW132585   3.124   0.284   0.984  0.7292  3.3441  0.2406
 7041SOL    HW232586   3.025   0.365   1.070  0.8106  0.4126 -0.2745
 7042SOL     OW32587   3.688   0.110  10.996 -0.3835 -0.2563  0.1080
 7042SOL    HW132588   3.659   0.048  10.929  0.7529 -1.0952  0.3794
 7042SOL    HW232589   3.783   0.098  10.988 -0.5215 -1.5230  0.3228
 7043SOL     OW32590   1.878   1.648   1.711  0.6678 -0.3709 -0.2479
 7043SOL    HW132591   1.873   1.659   1.806  0.8159 -1.1074 -0.1580
 7043SOL    HW232592   1.961   1.601   1.707 -1.3030 -3.8512 -0.3232
 7044SOL     OW32593   3.186   1.097  12.686 -0.1659 -0.6344 -0.8122
 7044SOL    HW132594   3.205   1.040  12.760 -0.1264 -0.9695 -1.0838
 7044SOL    HW232595   3.207   1.035  12.616  1.1941 -0.1225 -0.8503
 7045SOL     OW32596   4.431   1.989  13.049  0.0391  0.3526  0.1604
 7045SOL    HW132597   4.432   1.922  12.980 -0.0052  0.1046  0.4011
 7045SOL    HW232598   4.512   1.972  13.096 -0.5552  3.3776  2.3028
 7046SOL     OW32599   4.390   0.091   3.812 -0.4555 -0.2004 -0.1929
 7046SOL    HW132600   4.376   0.185   3.825 -0.4638 -0.3026  0.4959
 7046SOL    HW232601   4.408   0.083   3.718 -1.6880  0.9180 -0.5330
 7047SOL     OW32602   4.603   1.847   2.943 -0.2789 -0.1676 -0.0681
 7047SOL    HW132603   4.624   1.765   2.987 -0.5784 -0.8320 -1.1660
 7047SOL    HW232604   4.509   1.857   2.958 -0.1196 -0.6618  1.2931
 7048SOL     OW32605   3.645   1.267   2.247 -0.7650  0.0137  0.5242
 7048SOL    HW132606   3.621   1.203   2.314 -2.5178  0.3162  0.1835
 7048SOL    HW232607   3.561   1.310   2.229 -1.3533 -1.1283  0.5458
 7049SOL     OW32608   1.877   0.313  12.949  0.3761  0.7187  0.4074
 7049SOL    HW132609   1.851   0.404  12.935 -1.7309 -0.3186 -2.3682
 7049SOL    HW232610   1.797   0.263  12.965  2.2554 -2.5516 -0.4575
 7050SOL     OW32611   1.564   0.787   2.796  0.2749 -0.2346 -0.1205
 7050SOL    HW132612   1.517   0.789   2.879  0.9953 -1.3982  0.3210
 7050SOL    HW232613   1.488   0.783   2.738 -1.0321 -1.4625  1.6862
 7051SOL     OW32614   4.549   0.404   2.531 -0.9545 -0.3927  0.1849
 7051SOL    HW132615   4.567   0.409   2.625 -1.9421  0.5383  0.3185
 7051SOL    HW232616   4.553   0.495   2.503  1.2721 -0.6783 -0.4572
 7052SOL     OW32617   3.939   2.179  12.844  0.3890 -0.1929  0.2294
 7052SOL    HW132618   3.862   2.145  12.890 -0.0062  2.5897  1.6923
 7052SOL    HW232619   4.005   2.137  12.898 -0.3163  2.1684  2.9530
 7053SOL     OW32620   1.159   0.697   7.580  0.2358  0.4887 -0.2154
 7053SOL    HW132621   1.082   0.659   7.537  0.6907  0.8916 -1.3999
 7053SOL    HW232622   1.116   0.768   7.629 -1.0596  0.5751 -1.4772
 7054SOL     OW32623   3.875   4.330   2.780  0.5698 -0.0395 -0.3460
 7054SOL    HW132624   3.888   4.252   2.726  0.5050  0.2872 -0.8311
 7054SOL    HW232625   3.817   4.305   2.852  0.2616  0.6304 -0.3555
 7055SOL     OW32626   4.101   1.757   1.535  0.0804 -0.1898 -0.4673
 7055SOL    HW132627   4.143   1.704   1.468  2.1974 -2.3670  2.6128
 7055SOL    HW232628   4.170   1.823   1.543 -1.4419  1.1532  1.5999
 7056SOL     OW32629   2.481   2.188  10.906  0.3922  0.2344  0.1379
 7056SOL    HW132630   2.439   2.221  10.985 -3.1977 -2.0213 -0.8628
 7056SOL    HW232631   2.440   2.246  10.842  0.2049 -0.8398 -0.7035
 7057SOL     OW32632   3.436   3.062  15.750 -0.2391  0.1314  0.0163
 7057SOL    HW132633   3.410   3.150  15.723 -1.8398  0.0368  1.2873
 7057SOL    HW232634   3.528   3.083  15.768 -0.2987 -0.0548  0.5447
 7058SOL     OW32635   3.167   0.707  17.182  0.1711 -0.1483  0.7451
 7058SOL    HW132636   3.227   0.776  17.209  1.8957 -1.8910  1.4343
 7058SOL    HW232637   3.224   0.634  17.156 -1.6149 -0.4676 -2.2027
 7059SOL     OW32638   0.853   1.748  16.835  0.3275 -0.0886  0.1933
 7059SOL    HW132639   0.846   1.822  16.895 -1.1575 -1.3921  1.6303
 7059SOL    HW232640   0.948   1.753  16.831  0.2674  0.3409 -0.5772
 7060SOL     OW32641   0.625   4.247   2.593  0.0507 -0.5927  0.5260
 7060SOL    HW132642   0.571   4.271   2.517  1.6036 -1.0408 -0.7327
 7060SOL    HW232643   0.564   4.190   2.639 -0.5937 -0.2723  0.0728
 7061SOL     OW32644   0.639   4.597  17.257 -0.8214 -0.4639  0.5674
 7061SOL    HW132645   0.665   4.546  17.334  1.3292 -0.9394 -0.4571
 7061SOL    HW232646   0.719   4.645  17.234 -1.1391  0.3186  1.0808
 7062SOL     OW32647   0.060   2.831   4.989  0.0464 -0.1082 -0.2693
 7062SOL    HW132648   0.099   2.909   5.028 -1.5723  0.1337  0.8774
 7062SOL    HW232649   4.701   2.830   5.036 -1.2283  0.8409 -2.4806
 7063SOL     OW32650   3.012   4.316   8.531 -0.1352  0.0428 -0.6372
 7063SOL    HW132651   2.950   4.344   8.598 -0.4345 -0.2412 -0.7974
 7063SOL    HW232652   3.058   4.398   8.515 -2.0959  1.7226  2.3697
 7064SOL     OW32653   4.307   2.854  14.307  0.3567 -0.0584  0.0855
 7064SOL    HW132654   4.294   2.830  14.215 -1.1770  0.9749  0.0252
 7064SOL    HW232655   4.253   2.788  14.352  0.0302  1.2086  1.5464
 7065SOL     OW32656   3.219   1.162   6.253  0.5485 -0.2712  0.0292
 7065SOL    HW132657   3.294   1.205   6.294 -1.6065  2.2961  1.2439
 7065SOL    HW232658   3.231   1.068   6.266 -1.7227 -0.5972 -0.3545
 7066SOL     OW32659   3.437   2.724   5.648 -0.4866 -0.3215  0.0966
 7066SOL    HW132660   3.466   2.637   5.675 -0.6438 -0.7083 -1.0086
 7066SOL    HW232661   3.467   2.770   5.727  1.5900 -1.0649 -0.2686
 7067SOL     OW32662   4.620   3.476   6.889  0.1905 -0.0479 -0.6276
 7067SOL    HW132663   4.698   3.438   6.930 -0.2209  0.0141  0.2054
 7067SOL    HW232664   4.552   3.417   6.922  1.8906 -2.7503 -1.9139
 7068SOL     OW32665   3.556   4.036   8.656 -0.0875 -0.4007  0.4642
 7068SOL    HW132666   3.556   3.953   8.704  2.2017 -0.5809  0.1479
 7068SOL    HW232667   3.634   4.030   8.600 -0.0497 -2.1733  0.6893
 7069SOL     OW32668   3.160   0.393   4.292  0.1838  0.8675  0.1212
 7069SOL    HW132669   3.243   0.424   4.255  1.8942 -1.2763  2.2361
 7069SOL    HW232670   3.115   0.475   4.315  1.9414  2.3052 -1.4761
 7070SOL     OW32671   0.476   1.090   8.854 -0.1129 -0.2843  0.1815
 7070SOL    HW132672   0.413   1.041   8.907 -0.9899  0.2613 -0.3738
 7070SOL    HW232673   0.552   1.034   8.870 -0.9292 -1.6347 -0.7143
 7071SOL     OW32674   2.150   4.059   0.344  0.0404 -0.1222 -0.1021
 7071SOL    HW132675   2.074   4.015   0.305 -1.8583  1.5261  1.7415
 7071SOL    HW232676   2.162   4.126   0.276 -0.0175  0.4575  0.4622
 7072SOL     OW32677   2.054   0.559   0.730  0.1556  0.1692 -0.4022
 7072SOL    HW132678   2.020   0.518   0.650 -0.9132  0.4111 -0.0725
 7072SOL    HW232679   2.066   0.482   0.785  0.0966 -0.5603 -1.4067
 7073SOL     OW32680   2.989   3.762  15.920 -0.0059  0.6274 -0.5695
 7073SOL    HW132681   3.064   3.728  15.968  0.6875  0.9853 -1.4056
 7073SOL    HW232682   3.022   3.768  15.830 -0.7363 -0.9647 -0.9434
 7074SOL     OW32683   3.068   1.347  10.704  0.0966 -0.4930 -0.5923
 7074SOL    HW132684   3.086   1.254  10.711 -2.4361 -0.9661 -0.3133
 7074SOL    HW232685   3.021   1.369  10.785  0.5030 -2.6377  0.2232
 7075SOL     OW32686   1.094   0.534  12.341 -0.5754 -1.1513  0.2787
 7075SOL    HW132687   1.039   0.457  12.327 -0.3076 -1.0669 -1.2148
 7075SOL    HW232688   1.172   0.507  12.293 -1.7646  0.4006 -2.4891
 7076SOL     OW32689   3.856   0.378   8.451  0.1229  0.7605  0.3558
 7076SOL    HW132690   3.795   0.329   8.395 -0.9981  1.1169  1.2632
 7076SOL    HW232691   3.795   0.421   8.511  0.2870  1.5253 -0.0225
 7077SOL     OW32692   4.229   4.631   1.793  0.3854  0.6132  0.4377
 7077SOL    HW132693   4.265   4.620   1.705 -0.0928 -0.1821  0.3378
 7077SOL    HW232694   4.220   0.002   1.803  4.8540  1.0029  0.4657
 7078SOL     OW32695   2.292   0.839   4.923  0.2415 -0.6275 -0.2692
 7078SOL    HW132696   2.212   0.810   4.966 -0.0470  0.4830 -0.0603
 7078SOL    HW232697   2.363   0.815   4.982  2.2833  0.0405 -2.4295
 7079SOL     OW32698   1.372   1.163  14.761  0.1036  0.0994  0.0846
 7079SOL    HW132699   1.302   1.203  14.813 -0.3822 -1.1854  0.4179
 7079SOL    HW232700   1.317   1.116  14.699  0.4262 -2.4504  1.7531
 7080SOL     OW32701   2.864   3.415   4.915  0.3257  0.1625  0.0274
 7080SOL    HW132702   2.858   3.510   4.907 -1.9478 -0.0024 -0.0118
 7080SOL    HW232703   2.909   3.401   4.998  0.7761  0.6259 -0.1381
 7081SOL     OW32704   4.125   2.369  13.117 -0.6180 -0.6596  0.0539
 7081SOL    HW132705   4.201   2.312  13.105 -0.7925 -1.1653  1.3552
 7081SOL    HW232706   4.136   2.429  13.043 -0.1962 -0.9278 -0.1010
 7082SOL     OW32707   4.121   1.491  13.762  0.2075 -0.0141  0.1421
 7082SOL    HW132708   4.110   1.460  13.672 -0.2021  0.8205 -0.0923
 7082SOL    HW232709   4.141   1.582  13.742 -3.5070  0.9576  0.8091
 7083SOL     OW32710   1.747   3.271  10.755  0.1975 -0.2775 -0.1146
 7083SOL    HW132711   1.708   3.219  10.685 -1.2239 -2.5501  2.3741
 7083SOL    HW232712   1.793   3.322  10.688 -1.0420  0.3139 -0.5012
 7084SOL     OW32713   0.070   1.610  12.230 -0.2686  0.7679 -0.1974
 7084SOL    HW132714   0.154   1.567  12.214 -2.2659 -2.9240 -0.6319
 7084SOL    HW232715   0.043   1.581  12.317  0.4953 -0.2566 -0.3005
 7085SOL     OW32716   0.110   2.635   3.278 -0.1624  0.3462  0.3518
 7085SOL    HW132717   0.185   2.577   3.266  0.1595  1.3261 -2.3076
 7085SOL    HW232718   0.059   2.606   3.203  1.7900 -2.5519  0.1361
 7086SOL     OW32719   0.751   3.193   6.808  0.7819  0.4564  0.5831
 7086SOL    HW132720   0.716   3.259   6.867 -1.2595 -0.9245  0.9179
 7086SOL    HW232721   0.831   3.236   6.779  0.7855 -0.4684 -0.7998
 7087SOL     OW32722   1.029   3.766   1.673  0.2552 -0.6590 -0.0923
 7087SOL    HW132723   1.038   3.812   1.756  1.3899 -2.9589  1.0662
 7087SOL    HW232724   1.060   3.839   1.620  0.4800  0.7430  1.9670
 7088SOL     OW32725   2.683   1.440   4.534  0.2747 -0.2720  0.6470
 7088SOL    HW132726   2.779   1.439   4.529  0.3235  0.2366  1.4122
 7088SOL    HW232727   2.664   1.510   4.471 -1.4142 -0.2586  1.1885
 7089SOL     OW32728   2.087   0.739   5.049 -0.0549  0.0924  0.2075
 7089SOL    HW132729   2.079   0.644   5.049  0.8055  0.0167 -1.4639
 7089SOL    HW232730   1.996   0.765   5.036 -0.4316 -1.3813 -0.0936
 7090SOL     OW32731   1.845   3.618   1.644  0.3010 -0.3625  0.5180
 7090SOL    HW132732   1.861   3.639   1.552  0.6339  1.4488  0.9838
 7090SOL    HW232733   1.777   3.551   1.648 -1.0486  0.9941  0.2549
 7091SOL     OW32734   1.489   2.578   7.941  0.5469  0.4122  0.3029
 7091SOL    HW132735   1.537   2.591   7.860 -1.5790  2.5696 -0.6176
 7091SOL    HW232736   1.410   2.535   7.907  1.4939 -2.0444  1.1477
 7092SOL     OW32737   2.771   4.050  11.505 -0.2255  0.4184  0.2612
 7092SOL    HW132738   2.725   4.019  11.427 -1.3952  1.4388  0.5452
 7092SOL    HW232739   2.862   4.024  11.493  0.8658  2.2376  4.7565
 7093SOL     OW32740   3.125   1.345  14.020  0.3206  0.1646 -0.2256
 7093SOL    HW132741   3.178   1.413  14.061  0.8675 -0.4448  0.0774
 7093SOL    HW232742   3.051   1.326  14.078 -1.0738  1.3663 -1.5931
 7094SOL     OW32743   1.831   3.993   5.711  0.0356  0.2270 -0.0553
 7094SOL    HW132744   1.900   3.979   5.645 -0.9343  0.6188 -1.1587
 7094SOL    HW232745   1.779   4.052   5.657  1.8973  1.0315 -0.9798
 7095SOL     OW32746   0.521   3.263   9.738 -0.2179  0.2218 -0.3079
 7095SOL    HW132747   0.553   3.270   9.648  1.2736 -0.6383  0.1492
 7095SOL    HW232748   0.478   3.177   9.738  0.7041 -0.2377 -0.6972
 7096SOL     OW32749   1.306   1.142   6.804 -0.1153 -0.0261  0.5625
 7096SOL    HW132750   1.315   1.046   6.809  1.1314  0.0649  0.1055
 7096SOL    HW232751   1.393   1.174   6.780  0.1790 -0.2167  1.3630
 7097SOL     OW32752   2.180   1.202  13.864  0.2063  0.6153 -0.1218
 7097SOL    HW132753   2.272   1.198  13.840  0.1568 -4.0166  0.5443
 7097SOL    HW232754   2.140   1.143  13.801  1.2780  0.6994 -0.8688
 7098SOL     OW32755   2.505   1.600   2.881 -0.1831  0.2258  1.1737
 7098SOL    HW132756   2.565   1.642   2.944  0.5226  1.0197 -0.0290
 7098SOL    HW232757   2.573   1.551   2.835 -1.9081 -0.7146 -0.3330
 7099SOL     OW32758   2.359   3.790   2.011 -0.2051  0.5825 -0.1350
 7099SOL    HW132759   2.309   3.750   2.082 -1.0973  1.4409 -0.2796
 7099SOL    HW232760   2.310   3.764   1.933  1.0416  1.3501 -1.1783
 7100SOL     OW32761   2.546   0.778  16.264 -0.1697  0.4227 -0.5329
 7100SOL    HW132762   2.548   0.866  16.229  0.7375  0.9879  0.9106
 7100SOL    HW232763   2.472   0.785  16.325  1.1929  3.0222  0.8089
 7101SOL     OW32764   0.060   0.534  12.945  0.1813  0.4855 -0.0248
 7101SOL    HW132765   0.060   0.469  13.016  1.5665 -1.4640 -1.8124
 7101SOL    HW232766   4.719   0.597  12.978  0.4923  1.1590 -0.7129
 7102SOL     OW32767   0.841   1.391   0.144 -0.0538  0.4934 -0.1321
 7102SOL    HW132768   0.747   1.382   0.161  0.1923 -0.1145  0.8929
 7102SOL    HW232769   0.850   1.484   0.163 -0.9715  0.2967  1.2500
 7103SOL     OW32770   1.493   3.637   3.120 -0.0241  0.4317  0.0561
 7103SOL    HW132771   1.556   3.580   3.165 -0.5515 -0.4586 -0.3401
 7103SOL    HW232772   1.449   3.585   3.053 -2.6626  0.4122  1.7974
 7104SOL     OW32773   0.652   2.251   9.551 -0.7675 -0.6914 -0.1908
 7104SOL    HW132774   0.570   2.212   9.521 -0.6778 -0.9424 -0.1107
 7104SOL    HW232775   0.674   2.299   9.472 -0.7189 -1.0689 -0.4031
 7105SOL     OW32776   3.854   4.564  10.389  0.1125  0.4593  0.3773
 7105SOL    HW132777   3.830   4.599  10.475  0.2282  1.0064  0.1860
 7105SOL    HW232778   3.892   4.481  10.417  1.1861  1.3239  1.4342
 7106SOL     OW32779   1.866   2.889   5.725  0.4249 -0.0226 -0.3506
 7106SOL    HW132780   1.916   2.858   5.649  1.1225  1.8863 -0.6582
 7106SOL    HW232781   1.776   2.893   5.692  0.3343 -1.3920 -0.2829
 7107SOL     OW32782   0.893   3.518   4.757  0.3653  0.3048 -0.2730
 7107SOL    HW132783   0.910   3.464   4.834  2.6084  3.2320  1.2796
 7107SOL    HW232784   0.800   3.516   4.738  0.3953 -2.9481 -0.2006
 7108SOL     OW32785   3.049   1.130  13.786 -0.1380 -0.0048  0.1415
 7108SOL    HW132786   3.051   1.054  13.728 -3.7156  0.5337 -0.7213
 7108SOL    HW232787   3.048   1.080  13.867 -1.5794 -0.0286  0.1077
 7109SOL     OW32788   1.755   1.701   5.801  0.9889  0.3645 -0.7216
 7109SOL    HW132789   1.748   1.765   5.730  0.3651  1.0114 -0.0836
 7109SOL    HW232790   1.671   1.656   5.799  1.4810 -0.5184 -1.3261
 7110SOL     OW32791   0.083   4.694   9.736  0.0647 -0.8088  0.5960
 7110SOL    HW132792   0.013   4.637   9.704 -0.5610 -0.2131  0.8991
 7110SOL    HW232793   0.030   0.032   9.786 -1.5690 -0.0610 -2.0623
 7111SOL     OW32794   1.001   4.195   4.639  0.8420  0.2568 -0.6224
 7111SOL    HW132795   0.998   4.256   4.713 -0.9686 -2.7114  1.7551
 7111SOL    HW232796   1.095   4.199   4.621  1.1350  3.2895  1.4379
 7112SOL     OW32797   0.911   1.414   2.526  0.1078  0.2224 -0.6611
 7112SOL    HW132798   1.003   1.398   2.506  0.0029 -1.6888  0.3624
 7112SOL    HW232799   0.866   1.340   2.485 -1.2390  1.1137 -0.8051
 7113SOL     OW32800   2.558   0.104  10.412  0.1802 -0.2084 -0.7469
 7113SOL    HW132801   2.490   0.099  10.479  1.3009 -0.7954  0.3541
 7113SOL    HW232802   2.637   0.129  10.460  0.7305 -0.8352 -1.3252
 7114SOL     OW32803   2.353   1.612   8.765 -0.1494 -0.3506  0.7316
 7114SOL    HW132804   2.436   1.658   8.772 -1.0205  1.1684  1.1585
 7114SOL    HW232805   2.381   1.538   8.711 -0.1710  0.4647 -0.3984
 7115SOL     OW32806   0.939   1.135   5.387 -0.3492  0.0782 -0.6261
 7115SOL    HW132807   0.938   1.071   5.459  0.7830  3.2396  2.2130
 7115SOL    HW232808   0.980   1.080   5.321  0.0052 -1.1675  0.6390
 7116SOL     OW32809   4.576   4.073   5.311  0.3439 -0.2674 -0.4740
 7116SOL    HW132810   4.531   3.989   5.320  0.4994 -0.3321 -0.3036
 7116SOL    HW232811   4.622   4.059   5.394  0.3957  0.9643 -0.2924
 7117SOL     OW32812   3.287   2.121   4.389 -0.5368  0.2614  0.0775
 7117SOL    HW132813   3.265   2.213   4.398  0.0117  0.3942  0.0639
 7117SOL    HW232814   3.379   2.132   4.413 -0.1586  0.0636 -1.2780
 7118SOL     OW32815   0.296   0.879   8.127  0.2896 -1.2540 -1.0387
 7118SOL    HW132816   0.267   0.970   8.127 -0.4956 -1.5108 -1.1641
 7118SOL    HW232817   0.246   0.847   8.202 -1.2538 -2.0365 -2.4124
 7119SOL     OW32818   3.839   4.434   5.520 -0.0590  0.2759  0.7403
 7119SOL    HW132819   3.747   4.408   5.532 -0.5233  2.2995  1.5936
 7119SOL    HW232820   3.884   4.383   5.588  0.3837 -0.1606  0.1161
 7120SOL     OW32821   1.592   0.573   7.844  0.7150  0.0369 -0.4273
 7120SOL    HW132822   1.620   0.645   7.900  2.1494  0.6319 -1.9366
 7120SOL    HW232823   1.523   0.623   7.801  1.2527  0.8759 -0.3066
 7121SOL     OW32824   3.550   3.634   2.253  0.6803 -0.0218  0.2232
 7121SOL    HW132825   3.457   3.655   2.262  0.5730 -1.0745  1.6793
 7121SOL    HW232826   3.593   3.710   2.290 -1.4675  1.5182 -0.4685
 7122SOL     OW32827   4.258   2.738  16.645  0.6339  0.1559 -0.8146
 7122SOL    HW132828   4.164   2.735  16.666  1.0979  0.8796  1.3354
 7122SOL    HW232829   4.265   2.793  16.567  0.8473  0.0727 -0.8528
 7123SOL     OW32830   0.733   0.790   8.407 -0.0169 -0.5721 -0.4352
 7123SOL    HW132831   0.813   0.827   8.370  0.9762 -2.1351  0.1529
 7123SOL    HW232832   0.740   0.703   8.366  1.4403 -0.6957  0.0596
 7124SOL     OW32833   4.508   3.348   3.324  0.1471  0.6753 -0.2607
 7124SOL    HW132834   4.577   3.282   3.326 -1.8663 -1.4477  0.1038
 7124SOL    HW232835   4.432   3.301   3.358 -0.8474  0.5583 -2.6035
 7125SOL     OW32836   1.022   4.491   5.908  0.8715  0.6001  0.4272
 7125SOL    HW132837   0.992   4.518   5.995 -1.7597  0.0892 -0.3454
 7125SOL    HW232838   1.098   4.437   5.929 -0.1965 -0.9606  0.2337
 7126SOL     OW32839   2.837   4.455   3.907  0.2389 -0.0205 -0.2317
 7126SOL    HW132840   2.793   4.374   3.933  1.3008 -0.4165  0.3688
 7126SOL    HW232841   2.847   4.495   3.993  4.6808  1.8710 -1.5986
 7127SOL     OW32842   0.847   2.328   3.144  0.1245  0.2984 -0.4226
 7127SOL    HW132843   0.834   2.234   3.135  0.5605  0.3970 -2.1235
 7127SOL    HW232844   0.890   2.345   3.060  1.6242 -1.1960  0.0513
 7128SOL     OW32845   3.241   1.290   3.099 -0.4243  0.1131  0.7032
 7128SOL    HW132846   3.259   1.314   3.190 -1.8031  0.2247  0.9575
 7128SOL    HW232847   3.155   1.252   3.118  0.4412 -2.4056 -0.4925
 7129SOL     OW32848   1.382   0.734   2.195  0.5341 -0.1921 -0.1242
 7129SOL    HW132849   1.422   0.669   2.253  0.5756 -1.4370 -1.5457
 7129SOL    HW232850   1.446   0.805   2.203 -0.6207  0.8530 -0.2078
 7130SOL     OW32851   3.619   1.612   2.309 -0.1756 -0.2887  0.3946
 7130SOL    HW132852   3.547   1.551   2.328  1.2772 -2.3295 -0.7470
 7130SOL    HW232853   3.563   1.671   2.258  0.9204 -0.6444 -1.1977
 7131SOL     OW32854   0.617   3.876   2.786  0.2310  0.2444  0.2728
 7131SOL    HW132855   0.525   3.850   2.780  0.4306 -0.4867  0.3652
 7131SOL    HW232856   0.623   3.896   2.879 -0.6095  2.0916 -0.0855
 7132SOL     OW32857   0.319   3.868   7.291  0.1851  0.7445 -0.0192
 7132SOL    HW132858   0.338   3.784   7.250 -2.3284 -0.6780  1.7346
 7132SOL    HW232859   0.335   3.857   7.385 -0.9245 -0.7500 -0.0010
 7133SOL     OW32860   3.435   3.720   5.181  0.4637  0.1853  0.9158
 7133SOL    HW132861   3.442   3.723   5.085  1.4827  1.7124  1.0312
 7133SOL    HW232862   3.524   3.692   5.202  0.5911 -1.2522 -1.5917
 7134SOL     OW32863   0.910   0.322   7.790  0.0166  0.2842  0.5084
 7134SOL    HW132864   0.891   0.283   7.875 -2.6578  0.3222 -0.0452
 7134SOL    HW232865   0.897   0.243   7.737 -3.2940  0.1103  1.5789
 7135SOL     OW32866   3.806   0.594   5.827  0.6624  0.1638  0.1453
 7135SOL    HW132867   3.743   0.646   5.877  0.8935  1.7929 -1.2488
 7135SOL    HW232868   3.830   0.524   5.888  1.1345  0.8990  0.8002
 7136SOL     OW32869   4.587   3.787   3.691 -0.7978  0.4593 -0.0581
 7136SOL    HW132870   4.618   3.728   3.760 -0.2981 -0.5441 -1.1386
 7136SOL    HW232871   4.565   3.720   3.626 -1.5350 -0.9204  1.6167
 7137SOL     OW32872   2.847   1.201  11.132 -0.8841 -0.1326  0.2174
 7137SOL    HW132873   2.753   1.206  11.116 -0.9066  1.8630  0.8932
 7137SOL    HW232874   2.854   1.199  11.227  1.6968 -1.2171 -0.0045
 7138SOL     OW32875   0.254   1.273   8.866 -0.7690 -0.0570  0.3415
 7138SOL    HW132876   0.303   1.282   8.948 -0.2404 -0.5216  0.0711
 7138SOL    HW232877   0.322   1.237   8.809 -0.7725  0.3130  0.1022
 7139SOL     OW32878   3.054   2.401   6.733 -0.4667 -0.3364 -0.0385
 7139SOL    HW132879   3.139   2.365   6.706 -0.3909  0.9570 -1.5506
 7139SOL    HW232880   3.078   2.488   6.764  0.0022 -0.4799  0.0009
 7140SOL     OW32881   2.707   2.038   4.510 -0.2890  0.7189 -0.3105
 7140SOL    HW132882   2.721   2.018   4.602  0.3651 -1.9694 -1.0055
 7140SOL    HW232883   2.614   2.058   4.514 -0.7474 -1.5555  0.3114
 7141SOL     OW32884   2.069   1.392   6.208  0.4310  0.3759  0.3042
 7141SOL    HW132885   2.132   1.462   6.219  1.1868  0.2758 -3.4325
 7141SOL    HW232886   2.002   1.442   6.162 -0.7544 -0.1887  1.4124
 7142SOL     OW32887   1.441   3.375   2.929 -0.2203  0.4308  0.0980
 7142SOL    HW132888   1.429   3.304   2.867 -3.1408  0.4259  0.6925
 7142SOL    HW232889   1.381   3.345   2.997  3.7559 -1.3156  2.8224
 7143SOL     OW32890   4.316   0.585   8.276  0.0865  0.4884 -0.5725
 7143SOL    HW132891   4.316   0.495   8.245  0.8474 -0.2680  1.6257
 7143SOL    HW232892   4.255   0.625   8.214  0.7239 -1.0390 -2.1558
 7144SOL     OW32893   2.938   2.055   3.721  0.3247  0.0322 -0.7566
 7144SOL    HW132894   2.949   2.133   3.667 -1.3159 -0.3828 -1.6850
 7144SOL    HW232895   2.917   1.995   3.650 -1.6798 -0.6657  0.4149
 7145SOL     OW32896   3.617   3.770   3.792 -0.3430  0.1790  0.3342
 7145SOL    HW132897   3.652   3.857   3.814  2.3715 -0.0432 -3.0881
 7145SOL    HW232898   3.525   3.772   3.819 -1.1913  0.7404 -2.5971
 7146SOL     OW32899   2.627   0.521  14.719 -0.0640  0.6094  0.4272
 7146SOL    HW132900   2.648   0.428  14.728 -2.3321  0.0226 -0.4788
 7146SOL    HW232901   2.543   0.519  14.674  0.6594 -0.1632 -0.9322
 7147SOL     OW32902   2.037   4.380   6.495  0.2328  0.3510 -0.9329
 7147SOL    HW132903   2.113   4.364   6.551  0.5363 -2.4766 -2.1499
 7147SOL    HW232904   1.965   4.355   6.552  0.4918  0.8669 -0.3701
 7148SOL     OW32905   2.009   2.085   3.812  0.1610  0.3889  0.1551
 7148SOL    HW132906   1.948   2.048   3.748  0.8087 -1.3475  0.5323
 7148SOL    HW232907   1.971   2.074   3.899 -0.2542 -0.5708 -0.1519
 7149SOL     OW32908   2.561   3.421  12.067  0.1561  0.3543  0.2491
 7149SOL    HW132909   2.640   3.444  12.117  0.6663 -1.4987  0.2757
 7149SOL    HW232910   2.534   3.347  12.120  0.7127  0.6083  0.8957
 7150SOL     OW32911   4.036   3.107   7.512 -0.1848  0.2574 -0.0595
 7150SOL    HW132912   4.019   3.169   7.441 -0.9876 -2.4669 -2.2905
 7150SOL    HW232913   4.082   3.156   7.579 -0.9657  2.5612 -1.2121
 7151SOL     OW32914   1.421   4.512   6.133 -0.0038  0.0834 -0.0704
 7151SOL    HW132915   1.394   4.447   6.198  2.7126 -1.1391 -0.1560
 7151SOL    HW232916   1.413   4.591   6.186  2.9654  1.1347 -1.1454
 7152SOL     OW32917   0.834   1.183  14.583 -0.3658  0.0046 -0.1210
 7152SOL    HW132918   0.842   1.097  14.541  1.7259  0.6642 -1.0520
 7152SOL    HW232919   0.752   1.218  14.551  0.1414 -0.6000 -2.0663
 7153SOL     OW32920   2.917   4.143   3.802 -0.2625  0.3085 -0.3339
 7153SOL    HW132921   2.939   4.152   3.709  0.3308 -1.0344 -0.3175
 7153SOL    HW232922   2.836   4.195   3.803 -1.5054 -1.6485  1.0977
 7154SOL     OW32923   1.760   3.993  13.939 -0.2225  0.2833  0.3935
 7154SOL    HW132924   1.740   4.019  13.849 -0.0931  0.0237  0.2907
 7154SOL    HW232925   1.812   4.071  13.955  0.5888  0.0851 -1.3276
 7155SOL     OW32926   1.109   0.835   7.825 -0.5624  0.2834 -0.0063
 7155SOL    HW132927   1.118   0.750   7.867  0.3194  1.4201  2.0688
 7155SOL    HW232928   1.015   0.844   7.845 -0.5878  0.7465 -0.3316
 7156SOL     OW32929   1.808   0.798  15.451  0.0849 -0.0727  0.4089
 7156SOL    HW132930   1.797   0.840  15.537  1.3493  0.7242  0.1964
 7156SOL    HW232931   1.840   0.872  15.399 -0.0066  0.1455  0.6643
 7157SOL     OW32932   4.343   0.863   4.046 -0.4343  0.3756  0.2743
 7157SOL    HW132933   4.298   0.857   3.962  0.5383  0.4338 -0.2476
 7157SOL    HW232934   4.289   0.822   4.114 -1.0650 -0.0547 -0.4917
 7158SOL     OW32935   0.516   2.530  15.779  0.5409  0.2771 -0.6772
 7158SOL    HW132936   0.443   2.512  15.838  1.8313  0.8809  1.0954
 7158SOL    HW232937   0.573   2.589  15.829 -1.7404  2.0986 -0.2647
 7159SOL     OW32938   4.471   3.886   2.611  0.8038  0.4841  0.2002
 7159SOL    HW132939   4.465   3.971   2.568 -1.7669 -0.2222 -0.8317
 7159SOL    HW232940   4.514   3.908   2.694  2.5447 -0.0798 -0.5664
 7160SOL     OW32941   3.568   3.249   9.448 -0.5020  0.4894 -0.4544
 7160SOL    HW132942   3.585   3.342   9.464 -2.0383  0.3710  1.8760
 7160SOL    HW232943   3.621   3.205   9.514 -0.5073  0.5602 -0.4022
 7161SOL     OW32944   4.352   3.940   2.972 -0.2888 -0.4928 -0.2671
 7161SOL    HW132945   4.348   3.861   3.026 -1.8853  0.2845  0.7756
 7161SOL    HW232946   4.276   3.932   2.914 -0.3593 -1.5185 -0.0310
 7162SOL     OW32947   0.244   1.134   4.965 -0.1433 -0.2128 -0.3030
 7162SOL    HW132948   0.217   1.129   5.056 -0.8562 -3.9281 -0.7217
 7162SOL    HW232949   0.339   1.138   4.976 -0.3833  0.0021  1.7102
 7163SOL     OW32950   2.197   3.476  13.226 -0.1943 -0.2752 -0.0268
 7163SOL    HW132951   2.277   3.512  13.264 -0.2731 -0.8069  0.6470
 7163SOL    HW232952   2.228   3.431  13.147  0.4060  0.2080 -0.0648
 7164SOL     OW32953   0.119   1.386  11.931  0.1583 -0.4018  0.0732
 7164SOL    HW132954   0.181   1.388  11.858  1.3986  2.6380  1.2116
 7164SOL    HW232955   0.166   1.443  11.991 -0.6555 -0.8183  1.0932
 7165SOL     OW32956   3.204   0.677   9.588  0.3917 -0.3534 -0.4400
 7165SOL    HW132957   3.176   0.714   9.672  0.9662  1.5268 -1.0854
 7165SOL    HW232958   3.189   0.745   9.523 -0.4492  3.0141  3.2964
 7166SOL     OW32959   4.379   3.489  15.289  0.6040  0.4046  0.5120
 7166SOL    HW132960   4.377   3.484  15.193  0.7757 -2.4856  0.6362
 7166SOL    HW232961   4.430   3.569  15.301  0.6845  1.0236 -3.8673
 7167SOL     OW32962   1.303   1.999   5.847  0.8254  0.4754 -0.1544
 7167SOL    HW132963   1.308   2.090   5.877 -0.0449  0.5126 -0.1239
 7167SOL    HW232964   1.309   2.017   5.754  1.8481  3.6270  0.5173
 7168SOL     OW32965   3.982   4.088   6.053  0.0275  0.1782  0.1593
 7168SOL    HW132966   3.909   4.027   6.056 -0.3694  0.7844  2.7017
 7168SOL    HW232967   3.985   4.122   6.143  2.2031 -0.3809  0.2985
 7169SOL     OW32968   4.482   0.715   3.711  0.6814  0.1310  0.2385
 7169SOL    HW132969   4.572   0.718   3.742  0.9481 -3.6705 -0.1834
 7169SOL    HW232970   4.488   0.755   3.624 -0.7535  0.4253  0.2748
 7170SOL     OW32971   1.423   0.065   5.921 -0.2274  0.2948 -0.4501
 7170SOL    HW132972   1.439   4.704   5.963  0.3762  1.0431  0.8364
 7170SOL    HW232973   1.333   0.084   5.949 -0.2041  1.1125 -0.9364
 7171SOL     OW32974   1.046   1.611   8.470 -0.4642 -0.1707 -0.7565
 7171SOL    HW132975   1.040   1.636   8.378 -1.6312  2.3037  0.0090
 7171SOL    HW232976   0.978   1.663   8.513  0.7987  0.0008  1.0088
 7172SOL     OW32977   2.025   1.766   9.359 -0.3302 -0.1861 -0.1024
 7172SOL    HW132978   1.952   1.760   9.421  0.9569 -0.3502  1.3868
 7172SOL    HW232979   2.024   1.677   9.325 -0.3933 -1.0058  2.0565
 7173SOL     OW32980   0.902   2.289   1.408 -0.1786 -0.2468 -0.2367
 7173SOL    HW132981   0.888   2.368   1.461 -0.1854 -0.6628  0.3811
 7173SOL    HW232982   0.898   2.322   1.319 -2.2619 -2.1067 -0.8040
 7174SOL     OW32983   2.614   4.009   9.444 -0.6793  0.1954 -0.1348
 7174SOL    HW132984   2.558   4.086   9.431 -0.1640  0.7009  0.6554
 7174SOL    HW232985   2.665   4.017   9.363 -0.3259 -1.5655 -0.0920
 7175SOL     OW32986   2.001   3.452   2.531 -0.4422 -1.1486  0.4478
 7175SOL    HW132987   2.021   3.359   2.538  3.0277 -0.4531 -0.4069
 7175SOL    HW232988   2.067   3.487   2.591  0.6929 -0.6037 -1.1412
 7176SOL     OW32989   4.116   1.421  17.158  0.3697  0.0753 -0.5486
 7176SOL    HW132990   4.212   1.423  17.157  0.3528 -0.0926 -3.3285
 7176SOL    HW232991   4.111   1.379  17.244  1.1944 -0.9989 -1.0202
 7177SOL     OW32992   0.518   3.486   3.379 -0.2574  0.5247  0.0041
 7177SOL    HW132993   0.477   3.557   3.331  2.2820 -0.9868 -4.3878
 7177SOL    HW232994   0.508   3.409   3.322 -0.4428  1.3080 -1.0148
 7178SOL     OW32995   3.251   4.608   9.327 -0.5669 -0.4296  0.4219
 7178SOL    HW132996   3.251   4.603   9.231  1.1983  0.4297  0.3789
 7178SOL    HW232997   3.225   4.700   9.331 -0.3339 -0.2928 -1.2203
 7179SOL     OW32998   3.079   2.852   5.757 -0.1430 -0.4555 -0.0372
 7179SOL    HW132999   2.992   2.853   5.798 -0.9477  0.1894 -1.7320
 7179SOL    HW233000   3.119   2.778   5.803  2.9107  1.2052 -0.0555
 7180SOL     OW33001   3.050   3.649  11.028  0.4634 -0.0675  0.0595
 7180SOL    HW133002   2.959   3.618  11.024  0.5281 -0.1448 -0.7466
 7180SOL    HW233003   3.027   3.717  11.092 -0.2322  0.2304 -0.5113
 7181SOL     OW33004   1.893   1.840  13.047  0.3954 -0.6522 -0.7639
 7181SOL    HW133005   1.853   1.880  12.970 -2.1939 -0.6221  0.6124
 7181SOL    HW233006   1.925   1.758  13.009  1.1725 -0.2742 -0.9202
 7182SOL     OW33007   2.489   1.091  16.421 -0.2975  0.0962 -0.0748
 7182SOL    HW133008   2.565   1.036  16.437  0.8998  1.8674  0.3635
 7182SOL    HW233009   2.507   1.174  16.465 -1.5078  0.1077  0.4064
 7183SOL     OW33010   0.733   0.860  11.375  0.5359 -0.7339  0.4543
 7183SOL    HW133011   0.696   0.792  11.318  0.0203  2.0311 -2.5219
 7183SOL    HW233012   0.689   0.937  11.339  0.8505 -0.9486 -0.3918
 7184SOL     OW33013   3.607   3.045  12.948 -0.5190  0.0368  0.7960
 7184SOL    HW133014   3.513   3.040  12.963 -0.4930  1.5917  1.5492
 7184SOL    HW233015   3.604   3.060  12.853 -1.1454 -2.5615  0.3989
 7185SOL     OW33016   0.631   3.632   8.046  0.5428 -0.4759  0.7513
 7185SOL    HW133017   0.542   3.667   8.041  2.1222  3.0447 -2.8347
 7185SOL    HW233018   0.625   3.563   7.979 -1.5047 -0.0138  0.4543
 7186SOL     OW33019   3.512   0.783   5.007  0.6226  0.1567 -0.1341
 7186SOL    HW133020   3.426   0.763   4.969  1.1340 -1.9514 -0.1489
 7186SOL    HW233021   3.574   0.786   4.934  1.1771 -0.8951  0.3084
 7187SOL     OW33022   2.292   4.373  14.460 -0.3151  0.1523  0.6957
 7187SOL    HW133023   2.369   4.414  14.498 -0.5152 -0.3932  1.6872
 7187SOL    HW233024   2.236   4.448  14.442  1.4270  1.3869  0.4419
 7188SOL     OW33025   4.292   4.697   3.302 -0.5813 -0.0288  0.4380
 7188SOL    HW133026   4.240   0.040   3.256  0.0417  0.5266  0.5316
 7188SOL    HW233027   4.236   4.687   3.379 -1.0529 -0.0426  0.0934
 7189SOL     OW33028   2.521   2.919   7.208  0.0516 -0.2667  0.5028
 7189SOL    HW133029   2.566   3.000   7.231  1.7027 -1.1841  0.4772
 7189SOL    HW233030   2.431   2.947   7.188  0.1376 -0.4082 -0.0882
 7190SOL     OW33031   1.253   4.703  17.142  0.0242 -0.3071  0.5267
 7190SOL    HW133032   1.278   4.656  17.221 -0.0109 -1.8029 -0.3664
 7190SOL    HW233033   1.212   4.628  17.101 -2.1730 -0.0995  2.3730
 7191SOL     OW33034   3.495   0.564   9.744 -0.2828 -0.4621 -0.5140
 7191SOL    HW133035   3.531   0.518   9.820 -1.0429  1.9086  1.2961
 7191SOL    HW233036   3.413   0.515   9.734 -1.0652  1.1677 -2.0768
 7192SOL     OW33037   1.291   0.089   1.962 -0.4273 -0.2633  0.0346
 7192SOL    HW133038   1.316   0.020   2.024  0.7442 -0.6394 -0.8512
 7192SOL    HW233039   1.323   0.047   1.882 -2.6813  0.5520 -1.3088
 7193SOL     OW33040   2.842   2.295   8.515  0.1430 -0.0386  0.4780
 7193SOL    HW133041   2.755   2.261   8.499  1.3540 -1.8869 -2.2122
 7193SOL    HW233042   2.820   2.388   8.527  0.7834  0.2042 -0.1743
 7194SOL     OW33043   4.284   1.076   2.927 -0.0460 -0.2150 -0.0292
 7194SOL    HW133044   4.197   1.067   2.889  0.3779 -0.6550 -0.8927
 7194SOL    HW233045   4.342   1.072   2.851  1.6173  1.9329  1.1025
 7195SOL     OW33046   2.568   0.579   1.900 -0.4482 -0.1840  0.2488
 7195SOL    HW133047   2.522   0.496   1.915  1.1489 -0.9484  0.9538
 7195SOL    HW233048   2.581   0.579   1.805 -0.9040  0.7477  0.1971
 7196SOL     OW33049   0.785   4.153  17.163  0.5397 -0.2354  0.4161
 7196SOL    HW133050   0.839   4.074  17.165  0.9130 -0.0029 -0.7953
 7196SOL    HW233051   0.784   4.178  17.255 -1.3234 -0.5574  0.4699
 7197SOL     OW33052   2.047   0.833   1.515 -0.3977  0.0456 -0.5791
 7197SOL    HW133053   1.996   0.874   1.445 -1.6476 -0.2520  0.1500
 7197SOL    HW233054   1.982   0.771   1.551  1.2074 -0.6069  1.1879
 7198SOL     OW33055   2.728   3.324   2.910 -0.5038  0.4085  0.8280
 7198SOL    HW133056   2.742   3.301   3.001  1.2967  0.2846  0.5090
 7198SOL    HW233057   2.701   3.236   2.883 -0.1741  0.6188 -0.1983
 7199SOL     OW33058   3.820   0.947  11.501  0.4137  0.6791  0.8218
 7199SOL    HW133059   3.834   0.928  11.593  1.3847  1.7349  0.8806
 7199SOL    HW233060   3.770   0.866  11.486  1.7431 -0.7585  4.1853
 7200SOL     OW33061   2.030   3.033  14.784  0.2628 -0.5245 -0.0886
 7200SOL    HW133062   1.977   2.973  14.732 -0.8528  1.9656 -1.8375
 7200SOL    HW233063   2.102   2.971  14.792 -0.3487 -1.4787 -2.1473
 7201SOL     OW33064   0.618   4.361   8.474  0.1617  0.3323 -0.0235
 7201SOL    HW133065   0.699   4.325   8.437  0.7261  0.6257  0.9283
 7201SOL    HW233066   0.641   4.445   8.513 -1.0594  0.7886 -0.3046
 7202SOL     OW33067   3.365   0.730   7.135  0.1910 -0.3231 -0.8565
 7202SOL    HW133068   3.357   0.815   7.092  3.2638  0.7721  0.7553
 7202SOL    HW233069   3.308   0.670   7.087  1.8013 -1.4192 -1.4008
 7203SOL     OW33070   3.467   2.578   4.558  0.8076  0.2238 -0.0431
 7203SOL    HW133071   3.478   2.673   4.554 -0.2841  0.4368  1.8027
 7203SOL    HW233072   3.391   2.563   4.502 -0.6499  2.8959  1.1833
 7204SOL     OW33073   2.847   3.392   3.915  0.7979  0.4112 -0.4982
 7204SOL    HW133074   2.933   3.425   3.891 -0.2317  2.4845 -1.4082
 7204SOL    HW233075   2.838   3.455   3.987 -1.4886 -0.0591 -0.3808
 7205SOL     OW33076   2.466   2.793   6.557  0.1619 -0.3330 -0.2279
 7205SOL    HW133077   2.502   2.834   6.636  0.4063  0.1799 -0.6104
 7205SOL    HW233078   2.394   2.744   6.596 -1.1329 -0.2890 -2.5921
 7206SOL     OW33079   0.629   4.368   5.039  0.1270  0.2763  0.4041
 7206SOL    HW133080   0.556   4.409   5.085 -0.7087  0.7010 -1.3176
 7206SOL    HW233081   0.672   4.440   4.994 -1.8154  0.1536 -1.6095
 7207SOL     OW33082   2.822   3.613   4.074 -0.0449 -0.1662 -0.1159
 7207SOL    HW133083   2.889   3.679   4.058 -1.5886  1.1549 -1.1286
 7207SOL    HW233084   2.748   3.665   4.105 -0.2656  0.9998 -2.6091
 7208SOL     OW33085   2.801   1.261   6.886  0.2415  0.1428 -0.0287
 7208SOL    HW133086   2.748   1.228   6.813  0.2388  0.9259 -0.3768
 7208SOL    HW233087   2.829   1.348   6.859  0.5881  0.6427  1.9843
 7209SOL     OW33088   3.416   1.139   5.558 -0.6629 -0.1540 -0.4161
 7209SOL    HW133089   3.426   1.168   5.648  0.4255 -3.0331  0.3730
 7209SOL    HW233090   3.340   1.081   5.563 -2.3693  2.2194  1.1281
 7210SOL     OW33091   2.838   2.069   1.547  0.5327  0.3116 -0.1239
 7210SOL    HW133092   2.913   2.021   1.583  1.7023  1.1447 -1.4650
 7210SOL    HW233093   2.788   1.998   1.507  0.4095  0.0762  0.4412
 7211SOL     OW33094   1.024   3.689   9.579 -0.6565 -0.0427 -0.0124
 7211SOL    HW133095   1.073   3.707   9.499 -1.5946 -0.5263 -0.6951
 7211SOL    HW233096   1.066   3.750   9.641  1.4057 -0.6113 -0.8661
 7212SOL     OW33097   0.475   0.548  16.322  0.0924  0.0468 -0.2099
 7212SOL    HW133098   0.546   0.489  16.298  1.0855  1.8410 -1.7076
 7212SOL    HW233099   0.403   0.523  16.264  0.7199  1.2115 -1.5012
 7213SOL     OW33100   0.577   2.846   1.947 -0.2822  0.5342  0.2352
 7213SOL    HW133101   0.490   2.884   1.962 -1.0158  0.0712 -2.7727
 7213SOL    HW233102   0.607   2.826   2.036 -0.8666 -3.5898 -0.4878
 7214SOL     OW33103   1.487   1.854   3.336  0.0228 -0.2091  0.1617
 7214SOL    HW133104   1.421   1.785   3.339  0.8218 -1.0096 -0.7635
 7214SOL    HW233105   1.435   1.932   3.357 -0.3308 -0.4935  0.3585
 7215SOL     OW33106   1.940   4.389   5.751  0.0593  0.2503 -0.2524
 7215SOL    HW133107   1.997   4.341   5.811 -0.2871 -0.2751 -0.3355
 7215SOL    HW233108   1.865   4.329   5.754 -0.1915  0.5658 -0.3012
 7216SOL     OW33109   0.718   0.949   1.715 -0.1126 -0.0929 -0.2482
 7216SOL    HW133110   0.789   0.939   1.652  1.4480 -1.7901  1.7912
 7216SOL    HW233111   0.706   1.044   1.714  0.2762 -0.0356  0.4218
 7217SOL     OW33112   4.411   2.177   5.888 -0.5539 -0.0188  0.2145
 7217SOL    HW133113   4.429   2.241   5.819 -1.5433  0.9590  0.8772
 7217SOL    HW233114   4.330   2.209   5.926 -1.3192 -0.2498 -1.2233
 7218SOL     OW33115   1.184   4.094   6.127  0.0080 -0.1543  0.6142
 7218SOL    HW133116   1.241   4.021   6.101 -0.7723 -0.3679 -0.4811
 7218SOL    HW233117   1.187   4.071   6.220 -1.4280 -3.3167 -0.1166
 7219SOL     OW33118   3.898   1.337   6.467  0.1260 -0.0573  0.7049
 7219SOL    HW133119   3.849   1.257   6.446 -0.1174  0.9484 -2.5425
 7219SOL    HW233120   3.855   1.408   6.419  1.7607  2.1268  2.4568
 7220SOL     OW33121   2.416   0.079   7.045 -0.9304  0.1525  0.5288
 7220SOL    HW133122   2.460   0.158   7.076 -0.0972  0.1596 -0.6334
 7220SOL    HW233123   2.496   0.037   7.012 -0.6536  1.1522 -0.0931
 7221SOL     OW33124   0.524   1.292  12.415 -0.2033 -0.3728 -0.3277
 7221SOL    HW133125   0.474   1.341  12.480  1.7855  0.1267  0.8338
 7221SOL    HW233126   0.470   1.297  12.337  0.1432  3.1646 -0.3844
 7222SOL     OW33127   2.459   3.963   6.875  0.2924  0.2168  0.2331
 7222SOL    HW133128   2.373   4.004   6.862 -0.8677 -2.1054  0.4632
 7222SOL    HW233129   2.458   3.901   6.802 -0.5923  0.3743  0.1115
 7223SOL     OW33130   2.367   0.926   6.235  0.2054  0.5007 -0.0287
 7223SOL    HW133131   2.297   0.877   6.192 -0.5458  1.6063 -0.0510
 7223SOL    HW233132   2.400   0.957   6.151 -3.1409 -3.2629 -2.7594
 7224SOL     OW33133   2.041   3.788  17.315  0.2465  0.2072  0.4877
 7224SOL    HW133134   2.103   3.858  17.296 -0.6747  0.8152 -0.2928
 7224SOL    HW233135   2.065   3.781  17.407  1.9569 -0.4262 -0.0085
 7225SOL     OW33136   2.132   1.702   2.581  0.2782  0.4142 -0.2012
 7225SOL    HW133137   2.177   1.702   2.497 -1.3393  0.9724 -1.0642
 7225SOL    HW233138   2.089   1.787   2.572  0.8384  0.7185 -0.0212
 7226SOL     OW33139   2.096   0.237  11.685 -0.2007  0.8121 -0.2387
 7226SOL    HW133140   2.030   0.167  11.687  1.5033 -0.7901 -0.3186
 7226SOL    HW233141   2.061   0.292  11.754 -1.2809 -1.5538  1.0998
 7227SOL     OW33142   3.157   4.689   3.007 -0.8045 -0.3186 -0.9496
 7227SOL    HW133143   3.126   4.608   2.966 -1.4025 -1.5164  1.8179
 7227SOL    HW233144   3.152   0.018   2.928 -0.9007  1.6382  0.3534
 7228SOL     OW33145   0.722   1.783  12.853  0.5822 -0.3780 -0.5564
 7228SOL    HW133146   0.797   1.781  12.795 -0.9748  1.4506 -2.6237
 7228SOL    HW233147   0.678   1.702  12.825  1.0788 -0.4711 -1.0574
 7229SOL     OW33148   2.729   3.880   5.078 -0.6491  0.8838  0.4426
 7229SOL    HW133149   2.784   3.954   5.101 -0.0913  0.7769 -0.5374
 7229SOL    HW233150   2.655   3.878   5.138 -0.0755  0.3335  1.1314
 7230SOL     OW33151   0.821   3.383   3.208 -0.1700  0.4327 -0.0453
 7230SOL    HW133152   0.770   3.306   3.233  1.0209 -0.2172  0.3556
 7230SOL    HW233153   0.835   3.431   3.289 -1.8530  0.4955  0.2110
 7231SOL     OW33154   2.277   2.124   9.645 -0.3213  0.3636  0.0449
 7231SOL    HW133155   2.367   2.155   9.655 -0.5139  1.0234 -0.2725
 7231SOL    HW233156   2.287   2.057   9.577  1.9405  1.4887 -0.7348
 7232SOL     OW33157   0.126   3.233  11.957 -1.0656 -0.0175  0.1408
 7232SOL    HW133158   0.063   3.259  11.889 -0.1883 -0.3111 -0.7852
 7232SOL    HW233159   0.101   3.294  12.026  1.5689  1.7361 -0.4746
 7233SOL     OW33160   3.200   1.451   3.715  0.0750  0.0123  0.2497
 7233SOL    HW133161   3.279   1.484   3.671 -1.0531  3.6717  0.9062
 7233SOL    HW233162   3.238   1.389   3.776 -1.0515 -0.4245  0.5053
 7234SOL     OW33163   3.195   0.061   2.412  0.1479  0.3313 -0.1249
 7234SOL    HW133164   3.180   0.055   2.318 -2.7394 -2.1261  0.4633
 7234SOL    HW233165   3.151   0.144   2.429 -0.7914 -0.9201  3.7148
 7235SOL     OW33166   3.845   2.133   4.921 -1.3608 -0.3802 -0.1126
 7235SOL    HW133167   3.774   2.094   4.972 -0.3469 -0.2365  1.3887
 7235SOL    HW233168   3.897   2.057   4.893 -0.7100  0.5110 -1.3126
 7236SOL     OW33169   0.174   2.312   1.802 -0.1583 -0.0506  0.1163
 7236SOL    HW133170   0.268   2.324   1.815 -0.0852  2.1095 -2.2916
 7236SOL    HW233171   0.162   2.225   1.765 -0.5419  0.6075 -1.3022
 7237SOL     OW33172   0.147   4.566   0.185  0.3191 -0.1220 -0.5755
 7237SOL    HW133173   0.093   4.587   0.109 -0.8473  0.6383  0.4632
 7237SOL    HW233174   0.106   4.480   0.187  1.6767 -0.7996 -1.4601
 7238SOL     OW33175   4.080   1.859   7.401 -0.0194  0.0717  0.1070
 7238SOL    HW133176   4.003   1.818   7.440  1.1711 -2.0821  0.1960
 7238SOL    HW233177   4.153   1.803   7.425  0.6117  1.1298  0.6137
 7239SOL     OW33178   0.321   3.903  17.529  0.3954  0.3065 -0.1036
 7239SOL    HW133179   0.396   3.962  17.519  1.3687 -0.6677  1.3876
 7239SOL    HW233180   0.262   3.934  17.461  1.7112  0.1080 -1.3464
 7240SOL     OW33181   0.198   3.224   2.049  0.5513 -0.4010 -1.0710
 7240SOL    HW133182   0.205   3.320   2.045 -2.1044 -0.2105 -1.2551
 7240SOL    HW233183   0.158   3.209   2.135  2.7892  1.1956  0.2414
 7241SOL     OW33184   3.083   4.693   3.736 -0.1677  0.1926  0.1170
 7241SOL    HW133185   3.055   4.650   3.655 -1.9146 -0.9088  1.3170
 7241SOL    HW233186   3.080   4.620   3.797 -0.1154  0.2082  0.1382
 7242SOL     OW33187   1.872   3.076   1.645 -0.4501  0.2914 -0.4762
 7242SOL    HW133188   1.949   3.103   1.595 -0.6148  3.0294  0.7749
 7242SOL    HW233189   1.847   3.155   1.692 -0.3200  0.6936 -1.0889
 7243SOL     OW33190   4.070   1.958  12.958 -0.0896  0.2292  0.0345
 7243SOL    HW133191   4.103   1.971  12.870 -1.0165  0.3922 -0.2857
 7243SOL    HW233192   4.071   1.862  12.961  2.6263  0.2885  1.4875
 7244SOL     OW33193   3.790   0.303   5.111  0.2547  0.1113  0.1750
 7244SOL    HW133194   3.741   0.257   5.180  2.0333 -0.3660  1.1017
 7244SOL    HW233195   3.807   0.387   5.153 -1.1609  1.1548 -1.3633
 7245SOL     OW33196   3.456   1.638  16.826  0.4027 -0.2877  0.0148
 7245SOL    HW133197   3.527   1.604  16.880  1.1677  2.0560  0.4624
 7245SOL    HW233198   3.496   1.714  16.784  0.7631 -1.1569 -1.2155
 7246SOL     OW33199   3.330   1.894   8.541 -0.5107 -0.0053 -0.0746
 7246SOL    HW133200   3.308   1.987   8.550  2.2622  0.8004 -1.7125
 7246SOL    HW233201   3.406   1.894   8.483 -1.0578 -1.1736 -0.7844
 7247SOL     OW33202   4.634   4.298   3.361 -0.1926  0.0940  0.3920
 7247SOL    HW133203   4.577   4.345   3.422 -1.1646  0.8432 -1.1143
 7247SOL    HW233204   4.579   4.221   3.346 -0.7607  0.0059  2.8566
 7248SOL     OW33205   1.251   0.600   3.485  0.1352  0.2517  0.1027
 7248SOL    HW133206   1.213   0.647   3.411  3.8777  2.5868 -0.2949
 7248SOL    HW233207   1.251   0.514   3.444 -0.3903  0.3509 -0.1123
 7249SOL     OW33208   3.608   0.920   4.009  0.3430 -0.1829  0.5558
 7249SOL    HW133209   3.546   0.911   3.936  0.6829 -0.3177  0.2863
 7249SOL    HW233210   3.684   0.938   3.954 -0.1998 -2.9626 -1.0686
 7250SOL     OW33211   3.607   1.517   9.013 -0.1074 -0.1651 -0.1286
 7250SOL    HW133212   3.588   1.435   9.057  0.3638 -0.8531 -1.2163
 7250SOL    HW233213   3.532   1.523   8.953 -0.1229  1.8723  0.0997
 7251SOL     OW33214   0.039   2.147   0.772  0.7925 -1.0519  0.4117
 7251SOL    HW133215   0.011   2.124   0.683  0.3613 -2.1004  0.8254
 7251SOL    HW233216   4.680   2.185   0.802 -0.4741  0.6766 -5.2469
 7252SOL     OW33217   4.243   0.610   6.363 -0.2507  0.1444  0.1322
 7252SOL    HW133218   4.293   0.687   6.336 -0.3526 -0.0718 -0.6676
 7252SOL    HW233219   4.273   0.535   6.312 -0.3416  0.9965 -1.1630
 7253SOL     OW33220   3.440   1.688   5.845 -0.1484 -0.3607  0.5435
 7253SOL    HW133221   3.480   1.706   5.760  0.5244 -0.3697  0.8595
 7253SOL    HW233222   3.348   1.687   5.820 -0.1888  0.9743  0.6612
 7254SOL     OW33223   3.857   1.731   5.471  0.0954 -0.0836 -0.2232
 7254SOL    HW133224   3.929   1.790   5.492 -0.3761  0.3558  0.1533
 7254SOL    HW233225   3.896   1.644   5.478  0.0758 -0.1476 -0.9047
 7255SOL     OW33226   0.931   0.427   9.101 -0.3160  0.0844  0.0878
 7255SOL    HW133227   0.903   0.336   9.089  0.5860 -0.2272  0.3551
 7255SOL    HW233228   1.019   0.425   9.138  0.1269 -0.4875 -1.0092
 7256SOL     OW33229   4.701   4.007   3.075 -0.3129  0.1574 -0.6359
 7256SOL    HW133230   4.707   3.941   3.144  1.7144 -1.2241 -2.1080
 7256SOL    HW233231   0.063   4.016   3.032  0.3435  0.6222  0.7838
 7257SOL     OW33232   3.955   3.983   7.056  0.4015 -0.0827  0.5725
 7257SOL    HW133233   3.986   3.898   7.025  2.6199  1.2318 -0.8326
 7257SOL    HW233234   3.965   3.969   7.150 -1.1187  3.0238  1.1953
 7258SOL     OW33235   4.595   0.405   2.830  0.1220  0.0129  0.0060
 7258SOL    HW133236   4.510   0.449   2.836  0.0485 -0.6208  3.0812
 7258SOL    HW233237   4.639   0.445   2.904  1.6233 -1.6627 -0.0105
 7259SOL     OW33238   1.580   4.341   2.852  0.6387  0.0213 -0.2977
 7259SOL    HW133239   1.528   4.267   2.821 -0.8890  1.7758 -1.9540
 7259SOL    HW233240   1.654   4.338   2.792 -0.0459 -0.9050 -1.0748
 7260SOL     OW33241   1.567   3.109   2.306  0.1082  0.2721  0.0021
 7260SOL    HW133242   1.643   3.066   2.267  1.0321  2.3407 -0.5195
 7260SOL    HW233243   1.505   3.039   2.290 -1.0389  1.0654  0.9651
 7261SOL     OW33244   3.305   0.027  13.811 -0.0215 -0.1238  0.0930
 7261SOL    HW133245   3.328   0.057  13.899 -0.9314  0.5257  0.1142
 7261SOL    HW233246   3.392   0.029  13.771  0.3322  1.2429  0.9173
 7262SOL     OW33247   3.106   3.013   6.751  0.0109  0.3492  0.4291
 7262SOL    HW133248   3.017   3.038   6.723  0.0981  1.1103  0.8357
 7262SOL    HW233249   3.152   3.073   6.692  0.3629  0.1080  0.4592
 7263SOL     OW33250   4.656   0.779   5.459  0.1972 -0.2140 -0.1609
 7263SOL    HW133251   0.014   0.824   5.438 -1.7356  2.2164 -2.3673
 7263SOL    HW233252   4.651   0.721   5.383 -1.9252 -1.1588  0.7032
 7264SOL     OW33253   0.070   2.282   7.639 -0.3645  0.7038 -0.0962
 7264SOL    HW133254   0.155   2.325   7.636  1.1787 -2.3300  0.4114
 7264SOL    HW233255   0.028   2.334   7.708 -2.6929 -1.4257  0.0750
 7265SOL     OW33256   3.404   2.745  14.032 -0.0635  0.6787 -0.1146
 7265SOL    HW133257   3.324   2.701  14.005 -0.5414  0.9455  0.9048
 7265SOL    HW233258   3.392   2.798  14.111 -1.2990  1.3031 -0.7260
 7266SOL     OW33259   0.420   2.108   2.444 -0.1314 -0.4428  0.4318
 7266SOL    HW133260   0.411   2.013   2.448  0.4283 -0.5076  0.1663
 7266SOL    HW233261   0.501   2.105   2.393 -0.8769  0.3605 -0.8036
 7267SOL     OW33262   0.186   3.116   6.715  0.4181 -0.5399 -0.1673
 7267SOL    HW133263   0.181   3.051   6.785 -0.0458 -1.7434 -1.3367
 7267SOL    HW233264   0.279   3.104   6.697  0.2659  0.8814 -1.8479
 7268SOL     OW33265   3.662   3.554   4.069  0.3187 -0.0494 -0.1542
 7268SOL    HW133266   3.707   3.486   4.120  1.5051  1.8625  1.3249
 7268SOL    HW233267   3.715   3.633   4.080 -0.2630  0.2978  0.1793
 7269SOL     OW33268   1.902   3.695  10.243 -0.0770  0.3726 -0.8342
 7269SOL    HW133269   1.971   3.712  10.179 -0.3306 -0.7445 -1.4033
 7269SOL    HW233270   1.950   3.689  10.326 -0.1930  1.4023 -0.7026
 7270SOL     OW33271   3.561   2.841  15.609 -0.3968 -0.2809  0.1970
 7270SOL    HW133272   3.546   2.898  15.534 -1.1561 -0.0543  0.5152
 7270SOL    HW233273   3.550   2.901  15.683  1.0369 -0.1412  0.2883
 7271SOL     OW33274   0.863   0.875   7.951 -0.0595  0.1039  0.4914
 7271SOL    HW133275   0.810   0.924   8.014 -1.8154 -1.0676 -0.0812
 7271SOL    HW233276   0.788   0.853   7.895  0.7558 -0.3009 -0.4577
 7272SOL     OW33277   0.661   0.964  11.662 -0.3088 -0.1677 -0.3734
 7272SOL    HW133278   0.726   0.979  11.594 -1.0303 -3.2730 -1.7907
 7272SOL    HW233279   0.616   1.048  11.670 -1.0072 -0.6979  1.1954
 7273SOL     OW33280   2.161   2.958   6.378 -0.6775 -0.2982 -0.5685
 7273SOL    HW133281   2.093   2.952   6.310 -0.3089 -0.8140 -0.8921
 7273SOL    HW233282   2.131   2.901   6.448 -2.4880 -0.2584 -1.3031
 7274SOL     OW33283   4.139   1.457   1.751 -0.2041  0.5809  0.4878
 7274SOL    HW133284   4.227   1.487   1.728 -0.6564  0.7647 -1.0668
 7274SOL    HW233285   4.151   1.418   1.837  0.3435 -3.3847 -1.3578
 7275SOL     OW33286   3.088   2.284   8.405 -0.0503 -0.4990 -0.1197
 7275SOL    HW133287   3.007   2.302   8.453  0.2914  1.6778 -0.3650
 7275SOL    HW233288   3.140   2.353   8.445 -0.9950  0.1120  0.0612
 7276SOL     OW33289   1.435   3.591  12.744  0.3317  0.1025  0.0181
 7276SOL    HW133290   1.531   3.588  12.739  0.3809  2.8517 -0.2802
 7276SOL    HW233291   1.426   3.684  12.762  1.5875 -0.2406  2.3892
 7277SOL     OW33292   0.495   2.384  12.707  0.9391 -0.3335 -0.1715
 7277SOL    HW133293   0.518   2.431  12.787 -1.5960  0.3096  0.1969
 7277SOL    HW233294   0.574   2.338  12.678  0.3799  1.6389 -4.9409
 7278SOL     OW33295   1.562   0.403  14.731 -0.1831 -0.1314  0.2565
 7278SOL    HW133296   1.476   0.378  14.699 -0.7199  1.7951  0.2122
 7278SOL    HW233297   1.615   0.338  14.684 -1.7297 -2.1699  1.3577
 7279SOL     OW33298   2.390   3.859  14.893  0.3702  0.1823 -0.1500
 7279SOL    HW133299   2.294   3.859  14.892  0.3668 -2.4454  1.7834
 7279SOL    HW233300   2.411   3.767  14.908  0.1836  0.1714  0.0448
 7280SOL     OW33301   0.325   0.043   8.565  0.0438  0.0848  0.1920
 7280SOL    HW133302   0.249   0.006   8.521  0.2266  0.7118 -0.6421
 7280SOL    HW233303   0.300   0.134   8.550  2.2795  0.8192  0.8688
 7281SOL     OW33304   2.500   3.350   6.140 -0.0341  0.2689 -0.2011
 7281SOL    HW133305   2.554   3.421   6.175  1.0227 -1.6793  2.1288
 7281SOL    HW233306   2.531   3.274   6.189  1.4697  0.1451 -1.3253
 7282SOL     OW33307   4.015   1.695   0.879  0.3055 -0.3005 -0.0857
 7282SOL    HW133308   4.045   1.779   0.914  1.1962 -0.0505 -1.4971
 7282SOL    HW233309   3.926   1.712   0.847  0.6185  1.3531 -0.0806
 7283SOL     OW33310   3.212   3.367   4.481  0.3829  0.2924  0.9019
 7283SOL    HW133311   3.171   3.429   4.420  0.3492 -0.0690  0.5521
 7283SOL    HW233312   3.302   3.397   4.468  0.1027  2.0948  3.0090
 7284SOL     OW33313   2.237   3.470   4.792  0.1352 -0.1793 -0.4370
 7284SOL    HW133314   2.218   3.389   4.839 -2.9038  0.1243 -1.1358
 7284SOL    HW233315   2.332   3.480   4.799 -0.0338  0.4802  0.9929
 7285SOL     OW33316   0.563   0.677  16.542 -0.4239  0.0084 -0.1344
 7285SOL    HW133317   0.499   0.620  16.499 -2.0963  2.4167 -0.8355
 7285SOL    HW233318   0.634   0.654  16.481 -0.5416 -3.8354  1.1443
 7286SOL     OW33319   3.662   0.166   6.509 -0.3039 -0.4514 -0.7754
 7286SOL    HW133320   3.717   0.108   6.562  0.0469  0.2094 -0.4222
 7286SOL    HW233321   3.607   0.180   6.586 -0.8966  0.9214 -1.4662
 7287SOL     OW33322   0.857   1.437   3.332 -0.0353  0.1608  0.9162
 7287SOL    HW133323   0.802   1.475   3.263  1.8327  0.4867 -0.4169
 7287SOL    HW233324   0.897   1.517   3.366 -0.6488  0.3726  1.1395
 7288SOL     OW33325   3.329   0.949   4.491  0.0460  0.2008 -0.0199
 7288SOL    HW133326   3.331   0.910   4.403  0.0103  1.1116 -0.4191
 7288SOL    HW233327   3.305   1.037   4.463 -0.8562  0.1707  0.6497
 7289SOL     OW33328   0.772   3.796   0.738 -0.1410  0.2630  0.3764
 7289SOL    HW133329   0.812   3.831   0.818  0.1417 -1.0629  0.8167
 7289SOL    HW233330   0.754   3.706   0.763  0.8992 -0.0708 -0.0772
 7290SOL     OW33331   3.265   2.163   3.385 -0.1065 -0.1143 -0.3152
 7290SOL    HW133332   3.242   2.071   3.371 -1.0854 -0.0437  0.7513
 7290SOL    HW233333   3.353   2.165   3.349  0.2862  1.9921  0.7424
 7291SOL     OW33334   0.364   1.606  14.718  0.1531 -0.3552  0.1298
 7291SOL    HW133335   0.448   1.626  14.759  0.4502  0.6578 -0.9615
 7291SOL    HW233336   0.331   1.539  14.777  1.3150 -0.4636  0.6579
 7292SOL     OW33337   2.419   3.465   3.631 -0.0888 -0.0846  0.0962
 7292SOL    HW133338   2.349   3.457   3.696 -0.6530 -0.2415 -0.5280
 7292SOL    HW233339   2.490   3.437   3.689  1.6334  2.9584 -0.5749
 7293SOL     OW33340   0.070   2.567  11.609  0.2397  0.3682  0.5820
 7293SOL    HW133341   0.063   2.643  11.667  0.0969  1.8531 -1.3843
 7293SOL    HW233342   0.158   2.577  11.572  1.1443  1.2646  2.9949
 7294SOL     OW33343   4.698   0.056  11.149  0.2333  0.6758 -0.0083
 7294SOL    HW133344   4.687   0.053  11.054  5.0588 -1.0533 -0.5145
 7294SOL    HW233345   0.070   0.049  11.158  0.5193  2.6239 -1.5382
 7295SOL     OW33346   0.551   3.608   5.186 -0.4199  0.0291 -0.2810
 7295SOL    HW133347   0.571   3.690   5.232  0.1237 -0.0127 -0.4412
 7295SOL    HW233348   0.563   3.644   5.098  0.1219  2.0614  0.6149
 7296SOL     OW33349   3.047   1.004   5.102 -0.1595 -0.0246 -0.2720
 7296SOL    HW133350   3.053   1.063   5.177  2.0774 -0.0417 -0.4476
 7296SOL    HW233351   2.970   1.043   5.060 -0.6907 -0.3107  0.4273
 7297SOL     OW33352   2.225   3.154  11.233 -0.3288 -0.7580 -0.3586
 7297SOL    HW133353   2.180   3.142  11.317 -1.3269 -0.7681 -0.9018
 7297SOL    HW233354   2.292   3.216  11.262 -1.1770 -0.6156  1.3346
 7298SOL     OW33355   4.704   0.998   1.020 -0.2863  0.1273  0.0183
 7298SOL    HW133356   4.641   0.977   0.952 -2.3187  0.8332  1.7084
 7298SOL    HW233357   4.645   0.990   1.095  1.4093  0.1471  1.3585
 7299SOL     OW33358   0.664   4.458  17.564  0.5404  0.0657 -0.0075
 7299SOL    HW133359   0.649   4.546  17.598  1.5173 -0.0982  0.8639
 7299SOL    HW233360   0.605   4.415  17.626 -0.1189  0.2847 -0.4910
 7300SOL     OW33361   4.616   1.347   6.654  0.4216  0.0053 -0.3658
 7300SOL    HW133362   4.694   1.339   6.709  1.1366  2.5980 -0.9771
 7300SOL    HW233363   4.585   1.258   6.641  0.4317 -0.1700  0.8692
 7301SOL     OW33364   3.175   0.420   5.321  0.0893  0.3338  0.4388
 7301SOL    HW133365   3.163   0.394   5.229 -2.6800 -0.9249  1.1393
 7301SOL    HW233366   3.094   0.470   5.331  0.1621  0.1968  1.6352
 7302SOL     OW33367   3.988   0.837  10.568 -0.2156 -0.0878 -0.1506
 7302SOL    HW133368   3.979   0.891  10.490  1.5661  1.0623  0.4442
 7302SOL    HW233369   4.080   0.815  10.555 -0.5447 -1.4174 -0.2703
 7303SOL     OW33370   0.890   4.652  13.332 -0.4531 -0.1748  0.0890
 7303SOL    HW133371   0.908   4.565  13.298  0.3718 -1.0455  2.7567
 7303SOL    HW233372   0.822   4.641  13.398 -1.0332 -1.7442 -0.7615
 7304SOL     OW33373   0.456   3.714   7.803  0.1182  0.1057  0.0332
 7304SOL    HW133374   0.426   3.748   7.887  0.5767  1.5841 -0.4021
 7304SOL    HW233375   0.445   3.620   7.818  1.1911  0.2009  1.5206
 7305SOL     OW33376   4.556   0.126   0.047  0.1068 -0.2227 -0.4991
 7305SOL    HW133377   4.464   0.101   0.050 -0.2986  1.2393 -0.7838
 7305SOL    HW233378   4.568   0.126   0.142 -3.4191  0.9174 -0.0338
 7306SOL     OW33379   2.276   2.829   2.429  0.0384  0.4419 -0.1041
 7306SOL    HW133380   2.278   2.768   2.355 -1.8304 -2.3982  2.2315
 7306SOL    HW233381   2.371   2.827   2.440 -0.0098 -0.1331  0.2072
 7307SOL     OW33382   1.097   2.167  17.293  0.0592  0.3669  0.6379
 7307SOL    HW133383   1.120   2.116  17.216 -1.4666  1.0201 -0.2599
 7307SOL    HW233384   1.001   2.164  17.292  0.0081  1.5250  1.2307
 7308SOL     OW33385   1.271   0.768  10.718 -0.0159  0.1563 -0.4296
 7308SOL    HW133386   1.185   0.812  10.722 -0.0359  0.2057 -1.3698
 7308SOL    HW233387   1.259   0.701  10.650 -2.1277  1.2797 -1.1657
 7309SOL     OW33388   3.509   0.673  15.652 -0.0295 -0.4187  0.1454
 7309SOL    HW133389   3.532   0.689  15.743  1.0972 -2.1958  0.1825
 7309SOL    HW233390   3.458   0.753  15.640  2.7149  1.6038  1.8827
 7310SOL     OW33391   2.066   0.499   9.885 -0.1672  0.3723  0.0181
 7310SOL    HW133392   2.069   0.573   9.946  0.1831 -0.9114  1.5406
 7310SOL    HW233393   1.977   0.467   9.897 -0.3145  0.6873 -0.2209
 7311SOL     OW33394   3.644   1.444   2.618 -0.1464 -0.1298 -0.0309
 7311SOL    HW133395   3.574   1.386   2.648 -2.1616  1.8591 -0.8839
 7311SOL    HW233396   3.715   1.386   2.591 -1.7571 -1.4703 -1.3668
 7312SOL     OW33397   4.296   4.112   2.213 -0.0302 -0.2381  0.5520
 7312SOL    HW133398   4.386   4.139   2.194 -0.4916  0.3823 -0.8037
 7312SOL    HW233399   4.262   4.194   2.249 -1.6595 -0.9485  0.6429
 7313SOL     OW33400   1.878   0.910   2.409  0.1267 -0.3479 -0.4661
 7313SOL    HW133401   1.836   0.996   2.414 -1.9303 -1.2244 -2.9546
 7313SOL    HW233402   1.834   0.849   2.467  2.2240 -2.5750 -1.2042
 7314SOL     OW33403   0.495   3.291   0.082 -0.4189 -0.2452 -0.2722
 7314SOL    HW133404   0.414   3.255   0.118  0.1563  0.0044  1.2439
 7314SOL    HW233405   0.478   3.283  17.685  3.2041 -1.3184 -0.8506
 7315SOL     OW33406   1.850   2.719   7.414  0.9798 -0.5037  0.2669
 7315SOL    HW133407   1.769   2.667   7.415  1.2862 -0.9731  2.6167
 7315SOL    HW233408   1.917   2.651   7.420  1.4400 -0.1342 -0.7111
 7316SOL     OW33409   1.583   3.236  16.035  0.3454  0.6489  0.4023
 7316SOL    HW133410   1.597   3.201  15.948 -1.0446  1.6999 -0.2437
 7316SOL    HW233411   1.648   3.177  16.075  0.2621  0.9808  1.0384
 7317SOL     OW33412   0.784   2.308   7.150  0.4550  0.0883  0.5904
 7317SOL    HW133413   0.793   2.384   7.207  1.0723  0.0729  0.5122
 7317SOL    HW233414   0.838   2.242   7.194 -0.5889 -1.6054 -0.6511
 7318SOL     OW33415   3.833   0.988   4.929 -0.0695 -0.2277  0.0703
 7318SOL    HW133416   3.801   1.074   4.904  0.2557 -0.2151 -0.3005
 7318SOL    HW233417   3.775   0.929   4.881  0.6186  0.4470 -1.5735
 7319SOL     OW33418   2.547   3.966   5.306  0.5384 -0.4222 -0.2490
 7319SOL    HW133419   2.555   4.059   5.286  0.4948 -0.5731 -0.9751
 7319SOL    HW233420   2.477   3.963   5.372 -0.4898  0.5278 -1.2948
 7320SOL     OW33421   3.677   1.010   7.497  0.1760  0.2566  0.3793
 7320SOL    HW133422   3.750   0.959   7.531 -0.2694  0.1560  1.1969
 7320SOL    HW233423   3.647   0.943   7.435  1.1610 -0.4758  0.6909
 7321SOL     OW33424   4.020   1.921   5.578 -0.2176 -0.3508  0.3616
 7321SOL    HW133425   4.115   1.924   5.561 -0.0138 -0.6850  1.4763
 7321SOL    HW233426   4.018   1.955   5.667 -0.4477 -0.5505  0.4308
 7322SOL     OW33427   3.501   4.540   2.844 -0.0538 -0.3267  0.1312
 7322SOL    HW133428   3.424   4.497   2.808  0.8357 -1.4597 -0.4240
 7322SOL    HW233429   3.470   4.630   2.837  1.6717  0.5066  3.0177
 7323SOL     OW33430   2.388   3.515  17.456 -0.1821  0.0098 -0.4730
 7323SOL    HW133431   2.472   3.562  17.449 -1.1862  1.7553 -0.7938
 7323SOL    HW233432   2.353   3.537  17.369 -1.3164 -0.4112 -0.1181
 7324SOL     OW33433   2.515   0.400   5.097 -0.2524  0.8961  0.2162
 7324SOL    HW133434   2.450   0.368   5.160  0.0617  0.2056  0.1899
 7324SOL    HW233435   2.593   0.367   5.142 -0.2669 -0.9111 -1.1078
 7325SOL     OW33436   3.289   0.678  16.741 -0.0743  0.4921  0.8625
 7325SOL    HW133437   3.286   0.631  16.658 -2.4928  0.7175  0.8315
 7325SOL    HW233438   3.202   0.653  16.769  0.3285  0.0246  1.7006
 7326SOL     OW33439   0.088   1.384  11.191  0.0429 -0.6456 -0.4852
 7326SOL    HW133440   0.103   1.375  11.097  1.4968  2.3559 -0.5301
 7326SOL    HW233441   0.005   1.432  11.196  0.0488 -0.8551  1.6920
 7327SOL     OW33442   2.648   2.653   2.247 -0.5100 -0.2362  0.1136
 7327SOL    HW133443   2.729   2.632   2.293 -0.2482  0.1469 -0.1783
 7327SOL    HW233444   2.614   2.710   2.315 -0.5099  0.0086 -0.0940
 7328SOL     OW33445   3.123   0.985   7.408 -0.3166 -0.3446 -0.5445
 7328SOL    HW133446   3.113   1.005   7.501 -0.4601 -2.1821 -0.1492
 7328SOL    HW233447   3.070   1.054   7.369 -0.6248  0.3753  1.1379
 7329SOL     OW33448   3.035   0.279   3.327 -0.3970 -0.3503  0.0827
 7329SOL    HW133449   3.040   0.316   3.238  2.0634  1.5149  0.9831
 7329SOL    HW233450   2.974   0.340   3.370 -1.6295 -2.4372  1.2679
 7330SOL     OW33451   1.253   3.938  11.267 -0.3282  0.1412  0.4055
 7330SOL    HW133452   1.202   3.952  11.348 -0.1859  0.8856  0.3723
 7330SOL    HW233453   1.315   4.011  11.273 -1.4223  1.1025  0.2464
 7331SOL     OW33454   4.332   1.505   6.916  0.6028  0.1201 -0.2819
 7331SOL    HW133455   4.368   1.530   6.831  0.9580 -0.9448 -0.4415
 7331SOL    HW233456   4.374   1.420   6.926  0.2918  0.0925  0.7671
 7332SOL     OW33457   1.222   0.097   7.323  0.6268 -0.3061 -0.0151
 7332SOL    HW133458   1.275   0.062   7.252 -0.8542 -0.2707 -1.1485
 7332SOL    HW233459   1.147   0.134   7.275  1.8142  1.8982 -0.1424
 7333SOL     OW33460   1.063   3.614  10.622 -0.2918  0.4504 -0.3896
 7333SOL    HW133461   0.987   3.565  10.591  1.1700 -1.0940 -1.5032
 7333SOL    HW233462   1.054   3.698  10.577 -0.9778 -0.4191 -1.8786
 7334SOL     OW33463   0.264   0.171   0.588 -1.0946  0.2604  1.0646
 7334SOL    HW133464   0.198   0.185   0.656  0.0212 -0.3707  2.2740
 7334SOL    HW233465   0.234   0.084   0.561 -0.9798  0.3391  0.6808
 7335SOL     OW33466   2.620   0.935   6.570 -0.6907  0.2741  0.6188
 7335SOL    HW133467   2.666   0.884   6.504  0.6129  0.2361  1.5667
 7335SOL    HW233468   2.589   0.858   6.618  1.2077 -0.9226 -0.0957
 7336SOL     OW33469   3.305   3.018  11.674 -0.3338  0.5795 -0.1990
 7336SOL    HW133470   3.365   3.035  11.602  0.0427 -0.3810 -0.1120
 7336SOL    HW233471   3.222   3.034  11.629  0.6338 -0.8308 -2.5067
 7337SOL     OW33472   4.561   1.096   1.538  0.2447 -0.0185 -0.2959
 7337SOL    HW133473   4.531   1.005   1.545  0.9888 -0.3571 -1.3795
 7337SOL    HW233474   4.543   1.104   1.444 -1.7135 -2.9826 -0.1725
 7338SOL     OW33475   1.969   4.486   8.050  0.1939 -0.1988  0.1976
 7338SOL    HW133476   1.915   4.554   8.010 -0.9973 -0.7741  0.8468
 7338SOL    HW233477   1.933   4.409   8.007  0.0196  1.0089 -1.8368
 7339SOL     OW33478   0.239   4.073   6.424  0.4400 -0.4889  0.3061
 7339SOL    HW133479   0.317   4.086   6.478  0.3577 -1.3420  0.6134
 7339SOL    HW233480   0.261   4.010   6.355 -0.6340  0.3242 -0.7849
 7340SOL     OW33481   4.221   3.172   4.314  0.4574  0.2379  0.2934
 7340SOL    HW133482   4.280   3.246   4.296  0.4769  0.2838  0.5521
 7340SOL    HW233483   4.216   3.141   4.223 -1.8212 -0.5112  0.6739
 7341SOL     OW33484   4.472   3.744  15.773  0.1717  0.4829 -0.3077
 7341SOL    HW133485   4.522   3.812  15.728  1.2852 -0.3243 -0.2815
 7341SOL    HW233486   4.511   3.748  15.860  0.0089 -2.9747 -0.0844
 7342SOL     OW33487   2.341   4.487   6.642  0.2388  0.4468 -0.4136
 7342SOL    HW133488   2.310   4.578   6.636  0.5599  0.4628 -1.9418
 7342SOL    HW233489   2.415   4.498   6.700  0.8719  1.3223 -1.3780
 7343SOL     OW33490   2.434   1.726  10.343  0.5121  0.2953 -0.2063
 7343SOL    HW133491   2.467   1.748  10.430  1.1680  0.4927 -0.5073
 7343SOL    HW233492   2.382   1.805  10.328  0.8159  0.8477  1.5804
 7344SOL     OW33493   2.801   4.054   6.817 -0.1813  0.3691  0.0551
 7344SOL    HW133494   2.749   3.977   6.843 -1.5383  1.6688  1.2317
 7344SOL    HW233495   2.791   4.114   6.891  0.9145 -0.8108  1.1552
 7345SOL     OW33496   0.282   0.410   7.307  0.2479 -0.2705 -0.3993
 7345SOL    HW133497   0.340   0.348   7.262 -0.4006  0.1298 -1.8050
 7345SOL    HW233498   0.205   0.354   7.317  0.0476  0.2053  0.7581
 7346SOL     OW33499   3.458   3.060   1.838  0.6386 -0.0896 -0.2515
 7346SOL    HW133500   3.464   3.084   1.930 -2.4086  1.4394 -0.4251
 7346SOL    HW233501   3.521   3.126   1.808 -0.3893  1.6480  1.3783
 7347SOL     OW33502   3.843   3.464   6.592 -0.1598  0.0219  0.4167
 7347SOL    HW133503   3.826   3.493   6.503  1.6861 -2.5082 -0.7583
 7347SOL    HW233504   3.753   3.434   6.606  0.3157 -1.1821  0.8599
 7348SOL     OW33505   0.358   3.525   2.692 -0.3252 -0.4711 -0.1960
 7348SOL    HW133506   0.370   3.544   2.599 -1.2859  0.2425 -0.1767
 7348SOL    HW233507   0.398   3.439   2.683  0.4583 -0.1564  0.2746
 7349SOL     OW33508   2.543   2.268   5.616  0.7105  0.2000 -0.0120
 7349SOL    HW133509   2.597   2.208   5.667  1.4215  1.2280  0.4384
 7349SOL    HW233510   2.580   2.253   5.529  1.3554 -1.1048  0.4885
 7350SOL     OW33511   2.172   4.139   4.493  0.0899  0.4067 -0.1133
 7350SOL    HW133512   2.200   4.229   4.476 -0.2788  0.8019  1.3657
 7350SOL    HW233513   2.081   4.158   4.516 -0.6757 -1.0507 -1.9570
 7351SOL     OW33514   4.140   0.604   6.852  0.2825 -0.5486 -0.3006
 7351SOL    HW133515   4.170   0.562   6.771 -0.7831 -0.2568 -0.8484
 7351SOL    HW233516   4.072   0.659   6.814  0.4085  0.0818  0.3891
 7352SOL     OW33517   2.341   0.051   9.571  0.0902 -0.6884  0.4476
 7352SOL    HW133518   2.336   0.134   9.618  1.1840 -0.1246 -0.4320
 7352SOL    HW233519   2.344   4.722   9.651  1.1790 -0.7806  0.3431
 7353SOL     OW33520   1.278   4.104   0.840 -0.6361 -0.1706 -0.2415
 7353SOL    HW133521   1.360   4.062   0.863 -0.3191  0.1550 -0.7797
 7353SOL    HW233522   1.305   4.165   0.772  0.4445 -0.3494  0.0344
 7354SOL     OW33523   1.041   3.613   2.514 -0.1430 -0.5383 -0.5787
 7354SOL    HW133524   0.959   3.655   2.541  0.8440  0.3383  1.0884
 7354SOL    HW233525   1.072   3.575   2.597  0.9387 -0.0852 -0.7785
 7355SOL     OW33526   2.686   0.173  12.309  0.0908  0.3634  0.1471
 7355SOL    HW133527   2.774   0.164  12.345 -0.7391 -2.3726  1.5186
 7355SOL    HW233528   2.653   0.238  12.370 -2.8087  0.1314 -1.1559
 7356SOL     OW33529   1.811   1.499   6.953 -0.6187  0.1291  0.3823
 7356SOL    HW133530   1.815   1.403   6.943  2.0459  0.0735  2.1697
 7356SOL    HW233531   1.720   1.517   6.976 -0.9184  0.6046 -1.1269
 7357SOL     OW33532   2.782   1.868  16.536  0.2112  0.4860 -0.2900
 7357SOL    HW133533   2.767   1.788  16.588  1.4588  0.0953 -0.5127
 7357SOL    HW233534   2.795   1.839  16.446 -0.2824 -1.1711  0.1752
 7358SOL     OW33535   0.776   1.427  10.956 -0.6170  0.5235  0.1721
 7358SOL    HW133536   0.796   1.385  10.872 -0.6622 -1.6100  1.2322
 7358SOL    HW233537   0.690   1.463  10.935  0.0662  1.4028 -1.0684
 7359SOL     OW33538   3.549   0.865   8.204  0.0624 -0.0213  0.7312
 7359SOL    HW133539   3.511   0.861   8.116 -1.2874 -0.0103  1.3278
 7359SOL    HW233540   3.497   0.802   8.253  0.1742  0.3977  1.3891
 7360SOL     OW33541   4.449   1.748   2.615  0.3562 -0.2266 -0.1312
 7360SOL    HW133542   4.367   1.699   2.607 -0.9500  1.7899  0.8631
 7360SOL    HW233543   4.418   1.836   2.592  0.9289 -0.1878 -0.7589
 7361SOL     OW33544   0.834   2.133   7.534  0.1669  0.2971 -0.1206
 7361SOL    HW133545   0.775   2.083   7.591 -0.2127 -0.0910 -0.8458
 7361SOL    HW233546   0.837   2.071   7.461 -2.9651  0.3680 -0.3075
 7362SOL     OW33547   2.064   0.289   0.799  0.2054  0.1840 -0.0154
 7362SOL    HW133548   2.019   0.208   0.822  1.3265 -0.1159  1.1600
 7362SOL    HW233549   2.150   0.259   0.769 -0.0611  0.7150 -1.3104
 7363SOL     OW33550   1.599   1.979   8.455 -0.3557 -0.6666 -0.2112
 7363SOL    HW133551   1.606   1.990   8.550  0.0440  0.5865 -0.3820
 7363SOL    HW233552   1.687   1.949   8.432 -1.1474 -1.1857 -2.5454
 7364SOL     OW33553   4.133   2.013   2.138 -0.3671 -0.1164  0.5706
 7364SOL    HW133554   4.173   1.935   2.176 -1.0584 -0.8934 -0.3113
 7364SOL    HW233555   4.041   1.987   2.146 -0.0851 -0.9358  1.1803
 7365SOL     OW33556   3.488   4.284   4.276 -0.1091 -0.4693  0.0746
 7365SOL    HW133557   3.404   4.302   4.232  0.3863  0.7998 -0.3333
 7365SOL    HW233558   3.512   4.371   4.308 -0.1144 -1.8762  3.8447
 7366SOL     OW33559   1.575   4.607   8.724 -0.1376  0.2184  0.0335
 7366SOL    HW133560   1.617   4.605   8.638  2.4280  0.8514  1.2617
 7366SOL    HW233561   1.642   4.562   8.775  0.9219  1.9870  0.2210
 7367SOL     OW33562   1.482   2.497   6.575 -0.2570 -0.1133 -0.5410
 7367SOL    HW133563   1.462   2.410   6.541  3.1375 -0.3744 -1.8617
 7367SOL    HW233564   1.435   2.540   6.503  0.8210 -0.4135 -1.4168
 7368SOL     OW33565   1.904   3.300   4.407  0.6020 -0.3544 -0.0414
 7368SOL    HW133566   1.840   3.230   4.418 -0.5038  0.7427  0.5292
 7368SOL    HW233567   1.865   3.361   4.469  1.3885  0.3678 -0.2495
 7369SOL     OW33568   3.331   1.735   3.859  0.2031  0.8177  0.0228
 7369SOL    HW133569   3.391   1.735   3.933 -1.2671  1.4389  1.2067
 7369SOL    HW233570   3.393   1.688   3.804 -1.0971 -0.9675  0.0846
 7370SOL     OW33571   2.082   3.292   5.670 -0.1467 -0.5685  0.0249
 7370SOL    HW133572   2.087   3.221   5.607 -0.8625 -0.5359 -0.0735
 7370SOL    HW233573   1.992   3.321   5.652  0.9867  2.0990 -1.4305
 7371SOL     OW33574   4.057   0.407   8.243 -0.4778  0.4169 -0.2953
 7371SOL    HW133575   3.992   0.395   8.312 -1.4392  0.0740 -1.2614
 7371SOL    HW233576   4.134   0.360   8.275 -1.2077 -0.1335  0.6291
 7372SOL     OW33577   4.170   1.016   7.439 -0.0525  0.6327 -0.2829
 7372SOL    HW133578   4.084   1.056   7.453 -1.3883 -2.1632 -0.3751
 7372SOL    HW233579   4.222   1.096   7.433  2.5815 -1.0432  0.2499
 7373SOL     OW33580   4.457   4.318   5.620 -0.3115 -0.4129  0.4103
 7373SOL    HW133581   4.413   4.235   5.637  2.7576 -1.9499  0.7936
 7373SOL    HW233582   4.478   4.342   5.710 -0.1050 -0.5165  0.3910
 7374SOL     OW33583   3.129   3.647  17.318 -0.1630 -0.3495 -0.0935
 7374SOL    HW133584   3.126   3.576  17.253 -0.1015 -2.5266  2.2574
 7374SOL    HW233585   3.220   3.678  17.309  0.0489 -1.2370 -1.0348
 7375SOL     OW33586   2.958   3.053   2.290 -0.6718 -0.0144 -0.1817
 7375SOL    HW133587   2.918   2.983   2.238  1.3540 -0.0242 -1.7461
 7375SOL    HW233588   2.891   3.060   2.357 -0.1096  0.8537  0.2859
 7376SOL     OW33589   4.344   3.969  10.792  0.7974 -0.4387  0.0296
 7376SOL    HW133590   4.322   3.992  10.882 -1.9144  2.7751 -1.4815
 7376SOL    HW233591   4.274   4.008  10.740  0.5359  0.0008  0.7200
 7377SOL     OW33592   1.345   1.230   5.442 -0.0442  0.9097  0.2758
 7377SOL    HW133593   1.382   1.210   5.356 -1.1339 -1.5491  0.3759
 7377SOL    HW233594   1.265   1.274   5.412 -0.7425 -1.5348 -1.4891
 7378SOL     OW33595   1.266   2.245   7.600 -0.4979  0.2492  0.2254
 7378SOL    HW133596   1.335   2.178   7.592  1.3125  2.1144  0.3042
 7378SOL    HW233597   1.196   2.191   7.637 -0.2893 -1.1500 -1.3721
 7379SOL     OW33598   4.250   3.243   7.718  0.0494 -0.4640  0.0202
 7379SOL    HW133599   4.337   3.220   7.753  0.1207 -0.5734 -0.2315
 7379SOL    HW233600   4.191   3.195   7.776 -0.2814 -0.8970 -0.6782
 7380SOL     OW33601   3.750   2.147  13.048  0.2077  0.4963  0.9343
 7380SOL    HW133602   3.677   2.089  13.027  1.1001  0.3126 -1.6715
 7380SOL    HW233603   3.793   2.098  13.118 -0.2737 -2.3276 -0.7414
 7381SOL     OW33604   2.694   3.174   6.983 -0.3166  0.6078 -0.6691
 7381SOL    HW133605   2.732   3.259   6.958 -0.0934  1.1148  1.4038
 7381SOL    HW233606   2.634   3.204   7.052  1.9750  0.1216  1.5231
 7382SOL     OW33607   2.617   2.538  10.303 -0.6361 -0.0502 -0.1362
 7382SOL    HW133608   2.657   2.614  10.346 -0.3142 -0.2625 -0.0596
 7382SOL    HW233609   2.605   2.574  10.215  0.1511 -0.0182 -0.2339
 7383SOL     OW33610   2.031   2.951   9.325  0.4386  0.6128 -0.1861
 7383SOL    HW133611   2.107   2.977   9.272  1.2959 -1.2493  0.1301
 7383SOL    HW233612   2.066   2.879   9.377  0.8417  1.7141  1.0781
 7384SOL     OW33613   1.950   0.637  14.814  0.8736  0.0192  0.2876
 7384SOL    HW133614   1.918   0.687  14.739 -1.6348 -1.1969  0.5619
 7384SOL    HW233615   1.980   0.557  14.772  0.8343 -0.6399  1.5004
 7385SOL     OW33616   3.394   3.238   7.571  0.0549 -0.3418 -0.5040
 7385SOL    HW133617   3.482   3.248   7.535  0.2534  0.2264  0.1149
 7385SOL    HW233618   3.412   3.242   7.665  0.5922  1.7143 -0.6922
 7386SOL     OW33619   3.993   2.354  13.627  0.3562  0.0198 -0.4579
 7386SOL    HW133620   4.008   2.365  13.533 -1.4407 -0.0473 -0.7603
 7386SOL    HW233621   3.949   2.269  13.628  0.9311 -0.2562  3.0706
 7387SOL     OW33622   4.022   2.648  14.912 -0.3490 -0.0229  0.9259
 7387SOL    HW133623   4.086   2.683  14.974 -0.1940 -0.8403  1.2208
 7387SOL    HW233624   3.977   2.731  14.893 -0.3161 -0.1226  0.4115
 7388SOL     OW33625   0.102   0.960   2.228 -0.5920 -0.2011  1.0328
 7388SOL    HW133626   0.065   1.049   2.228  2.7340  1.1715  3.5185
 7388SOL    HW233627   0.196   0.978   2.227 -0.7014  0.3771  0.7915
 7389SOL     OW33628   3.716   2.889   3.804 -0.7651  0.3753  1.0870
 7389SOL    HW133629   3.746   2.980   3.794  1.0764 -0.2475  0.9484
 7389SOL    HW233630   3.667   2.895   3.886 -3.2788 -0.2479 -0.3688
 7390SOL     OW33631   1.387   1.838   6.914  0.5004 -0.1006  0.3555
 7390SOL    HW133632   1.444   1.891   6.859  1.3655  0.3057  1.6286
 7390SOL    HW233633   1.304   1.846   6.867  0.2703 -1.1009  0.5896
 7391SOL     OW33634   3.516   2.809   5.102 -0.0684 -0.2008 -0.2894
 7391SOL    HW133635   3.480   2.735   5.052  0.6290 -1.4451  1.0677
 7391SOL    HW233636   3.600   2.779   5.137  0.8661  0.1455 -2.2438
 7392SOL     OW33637   1.231   2.727   2.940  0.0873 -0.0582 -0.1852
 7392SOL    HW133638   1.163   2.777   2.894 -0.7595  0.0214  1.1644
 7392SOL    HW233639   1.232   2.786   3.015 -1.2134  0.0716 -0.2663
 7393SOL     OW33640   4.030   1.046  10.782 -0.0913  0.0183  0.8544
 7393SOL    HW133641   3.964   0.977  10.779 -1.0751  1.0392 -1.0846
 7393SOL    HW233642   4.060   1.058  10.692 -0.9267  0.4029  0.6244
 7394SOL     OW33643   2.116   0.267   7.605  0.2674 -0.4491  0.5005
 7394SOL    HW133644   2.209   0.260   7.623  0.6287 -0.1705 -1.2351
 7394SOL    HW233645   2.114   0.266   7.509  1.5271  1.4018  0.4487
 7395SOL     OW33646   0.424   2.227   4.311 -0.6167  0.2851 -0.4997
 7395SOL    HW133647   0.337   2.259   4.286 -0.7099  0.2504 -0.2156
 7395SOL    HW233648   0.479   2.296   4.275  0.6294 -0.0944  0.6888
 7396SOL     OW33649   1.877   1.062   3.435  0.2424 -0.1064 -0.9395
 7396SOL    HW133650   1.937   1.003   3.391  2.2223  1.1777  0.0394
 7396SOL    HW233651   1.816   1.097   3.369  0.8162 -2.4254 -2.6897
 7397SOL     OW33652   4.573   3.271   0.869  0.3134 -0.1908 -0.1788
 7397SOL    HW133653   4.637   3.292   0.937 -0.3379  2.6636 -0.4527
 7397SOL    HW233654   4.522   3.351   0.870 -0.0743 -0.4375 -0.1842
 7398SOL     OW33655   1.549   1.617   3.724 -0.4366 -0.6900  0.0034
 7398SOL    HW133656   1.621   1.565   3.689  1.2129  0.5659  1.4721
 7398SOL    HW233657   1.504   1.551   3.776  2.8653 -4.3758 -1.7791
 7399SOL     OW33658   2.121   4.141   5.550 -0.1294 -0.0242 -0.7266
 7399SOL    HW133659   2.094   4.180   5.467 -1.1177  2.9054  0.9520
 7399SOL    HW233660   2.079   4.055   5.546  0.8379 -0.5404  0.1744
 7400SOL     OW33661   1.129   3.560   1.219 -0.0826  0.2143  0.3955
 7400SOL    HW133662   1.071   3.575   1.145  1.6955 -1.8991 -1.4191
 7400SOL    HW233663   1.076   3.583   1.296 -1.7550 -1.5487 -0.2461
 7401SOL     OW33664   2.293   4.180   5.092 -0.3191  0.0246  0.3157
 7401SOL    HW133665   2.294   4.138   5.177 -0.8106  0.5020  0.5597
 7401SOL    HW233666   2.370   4.237   5.087  0.0158 -0.3239  1.5730
 7402SOL     OW33667   0.267   1.766  16.890  0.4711  0.3278 -0.0379
 7402SOL    HW133668   0.347   1.718  16.912  0.9549  1.7681  1.3723
 7402SOL    HW233669   0.229   1.684  16.859  1.9774 -0.8084  1.1107
 7403SOL     OW33670   2.085   2.480   4.971 -0.1016  0.0259  0.1602
 7403SOL    HW133671   2.136   2.455   4.893  1.2864  2.1423  0.3650
 7403SOL    HW233672   2.155   2.498   5.034  0.3166 -1.3977  0.1136
 7404SOL     OW33673   1.582   2.609   7.687 -0.3769 -0.5920  0.8547
 7404SOL    HW133674   1.554   2.691   7.647  1.5634 -0.1329  0.4016
 7404SOL    HW233675   1.538   2.548   7.628  1.8373 -1.4590  0.0862
 7405SOL     OW33676   3.481   2.203  12.175 -0.5778  0.0851 -0.5252
 7405SOL    HW133677   3.538   2.271  12.137 -0.5531  1.0504  1.2495
 7405SOL    HW233678   3.404   2.206  12.119 -2.9441  2.0171  2.8068
 7406SOL     OW33679   0.591   0.841   3.510 -0.3433  0.5662 -0.0148
 7406SOL    HW133680   0.553   0.780   3.573 -1.1619 -2.0532 -3.0895
 7406SOL    HW233681   0.679   0.804   3.510 -0.2465  0.7944 -0.2166
 7407SOL     OW33682   1.682   3.973  15.132 -0.6459  0.3063 -0.0288
 7407SOL    HW133683   1.701   3.924  15.052  2.3429 -0.6423  1.2670
 7407SOL    HW233684   1.587   3.966  15.124 -0.1865 -0.8718 -4.2055
 7408SOL     OW33685   1.471   1.825   9.183 -0.8653 -0.1754 -0.5637
 7408SOL    HW133686   1.439   1.788   9.101  2.0879 -0.7093 -1.4778
 7408SOL    HW233687   1.422   1.768   9.243  0.1588 -1.1513 -0.6629
 7409SOL     OW33688   2.854   2.724   4.198  0.1277  1.0605  0.3140
 7409SOL    HW133689   2.809   2.804   4.172 -1.3004  0.2563  0.3407
 7409SOL    HW233690   2.799   2.656   4.158  0.0086  2.3702 -1.7679
 7410SOL     OW33691   2.818   1.360  11.671 -0.2106 -0.0742  0.9479
 7410SOL    HW133692   2.905   1.331  11.699 -0.8012 -0.3425  2.5029
 7410SOL    HW233693   2.836   1.454  11.665 -0.1897 -0.1162  0.3912
 7411SOL     OW33694   1.303   4.526  14.971 -0.2706  0.3671 -0.1016
 7411SOL    HW133695   1.241   4.594  14.996 -1.2685 -0.9399  0.9747
 7411SOL    HW233696   1.379   4.584  14.979 -1.0482  0.9691  3.2688
 7412SOL     OW33697   1.535   0.030   7.473 -0.1425 -0.1280 -0.1193
 7412SOL    HW133698   1.532   0.093   7.401  1.0808  1.3199  1.1089
 7412SOL    HW233699   1.623   0.037   7.509  0.1952 -1.3180 -0.7240
 7413SOL     OW33700   1.632   4.637  14.487  0.0559  0.1418 -0.5322
 7413SOL    HW133701   1.579   4.713  14.462  1.1154  0.1843 -2.7113
 7413SOL    HW233702   1.609   4.614  14.577  0.3271 -0.2405 -0.5632
 7414SOL     OW33703   0.530   2.767   4.169  0.1908 -0.2358 -0.7147
 7414SOL    HW133704   0.579   2.794   4.246  1.9974  0.4570 -2.0886
 7414SOL    HW233705   0.468   2.715   4.220 -1.5395  0.2020 -2.3744
 7415SOL     OW33706   2.532   1.519   1.748 -0.1597 -0.5069  0.4486
 7415SOL    HW133707   2.464   1.459   1.721  0.1881 -0.3660 -0.7196
 7415SOL    HW233708   2.585   1.529   1.669 -0.3181  2.1421  0.6739
 7416SOL     OW33709   2.106   3.448  15.393 -0.2889  0.2800 -0.3634
 7416SOL    HW133710   2.159   3.378  15.431  2.0799  1.9277 -0.6858
 7416SOL    HW233711   2.050   3.401  15.331  1.0015 -1.1247 -0.4627
 7417SOL     OW33712   3.320   0.464   4.054  0.1161  0.4298  0.3026
 7417SOL    HW133713   3.274   0.532   4.005  0.5645  0.9185  0.5662
 7417SOL    HW233714   3.370   0.426   3.982 -2.5189 -1.9215 -0.2901
 7418SOL     OW33715   2.301   3.698   8.278  0.1771  0.1970  0.5153
 7418SOL    HW133716   2.246   3.774   8.300  1.1539  1.2533 -0.6717
 7418SOL    HW233717   2.291   3.640   8.353  0.5945  0.0577  0.4611
 7419SOL     OW33718   1.340   2.595   1.810 -0.4798  0.6637  0.4759
 7419SOL    HW133719   1.259   2.646   1.802 -1.0138 -0.4569 -1.2802
 7419SOL    HW233720   1.411   2.654   1.783  0.9203 -1.2088  0.1145
 7420SOL     OW33721   2.634   3.296   0.831  0.3432 -0.1474 -0.9179
 7420SOL    HW133722   2.669   3.215   0.868 -0.9148 -0.4274 -0.3561
 7420SOL    HW233723   2.570   3.264   0.768 -1.9685  2.5259  0.1055
 7421SOL     OW33724   4.390   2.744  17.569 -0.2731 -0.4743  0.0497
 7421SOL    HW133725   4.443   2.690  17.628 -0.1094 -1.6656 -1.1988
 7421SOL    HW233726   4.304   2.737  17.610 -1.1088 -0.1608 -1.6773
 7422SOL     OW33727   0.369   0.170   4.578 -0.0183  0.3452  0.7066
 7422SOL    HW133728   0.292   0.177   4.634 -0.2256  3.1336  0.0709
 7422SOL    HW233729   0.346   0.236   4.512  2.3366 -0.4987 -0.9556
 7423SOL     OW33730   1.971   3.928   2.564  0.4478 -0.1903  0.2461
 7423SOL    HW133731   1.942   3.837   2.575  0.4552 -0.1646  0.4684
 7423SOL    HW233732   1.924   3.947   2.483 -0.1368 -1.3628  0.3085
 7424SOL     OW33733   0.115   3.870   9.154  0.5112 -0.2795 -0.1510
 7424SOL    HW133734   0.210   3.870   9.139  0.7784 -0.6872  1.5113
 7424SOL    HW233735   0.094   3.804   9.220 -1.8884 -1.9018 -2.5401
 7425SOL     OW33736   2.755   1.982   5.242 -0.2563 -0.1444 -0.0224
 7425SOL    HW133737   2.762   2.060   5.297  0.5510  1.0343 -1.8024
 7425SOL    HW233738   2.659   1.981   5.241 -0.2416  0.5900 -1.4049
 7426SOL     OW33739   0.108   1.262   3.042 -0.4614  0.1028 -0.2756
 7426SOL    HW133740   0.033   1.286   2.987  0.0872  1.8511 -0.2438
 7426SOL    HW233741   0.110   1.167   3.036 -0.0395  0.1447 -0.7530
 7427SOL     OW33742   2.748   2.581   0.983 -0.0227 -0.0792  0.4905
 7427SOL    HW133743   2.665   2.598   1.026 -0.3593 -0.5233  0.0126
 7427SOL    HW233744   2.779   2.667   0.954 -2.9892  0.0565 -2.2372
 7428SOL     OW33745   3.811   4.209   4.647 -0.4049  0.3828  0.2177
 7428SOL    HW133746   3.764   4.128   4.623  1.3882 -0.0608 -1.8234
 7428SOL    HW233747   3.799   4.259   4.566  2.7090 -0.7660 -0.9672
 7429SOL     OW33748   3.210   3.008   8.794  0.3244 -0.6286 -0.3333
 7429SOL    HW133749   3.246   2.943   8.855 -1.6640 -0.4343  1.0534
 7429SOL    HW233750   3.282   3.069   8.783 -0.0358 -0.3261 -0.9777
 7430SOL     OW33751   1.859   2.832  12.426 -0.1364 -0.2333 -0.7896
 7430SOL    HW133752   1.903   2.772  12.365  2.2736 -0.1528  0.8610
 7430SOL    HW233753   1.788   2.863  12.370  0.5089  0.6818 -1.1001
 7431SOL     OW33754   0.026   2.381   7.380 -0.1785  0.3391 -0.2865
 7431SOL    HW133755   0.116   2.404   7.357  0.2035 -0.7053  0.1945
 7431SOL    HW233756   0.035   2.355   7.472  0.3311  1.2889 -0.0598
 7432SOL     OW33757   1.004   1.903   5.583 -0.3036 -0.0595  0.0915
 7432SOL    HW133758   1.006   1.837   5.514  1.8869 -0.0815  0.1646
 7432SOL    HW233759   0.914   1.919   5.610 -0.7861 -0.4326 -1.3391
 7433SOL     OW33760   3.485   2.749   3.326 -0.0692 -0.1891  0.6337
 7433SOL    HW133761   3.442   2.789   3.250  0.0965 -2.2056 -0.5295
 7433SOL    HW233762   3.575   2.774   3.306 -0.3222  1.5385  1.6502
 7434SOL     OW33763   0.724   0.942   3.805 -0.1187 -0.3583  0.0330
 7434SOL    HW133764   0.744   0.884   3.878  1.0033 -3.0158 -2.3898
 7434SOL    HW233765   0.755   0.896   3.727 -0.2578 -0.9667  0.3398
 7435SOL     OW33766   1.129   0.232   8.205 -0.1281  0.1421  0.7638
 7435SOL    HW133767   1.147   0.142   8.234  1.0298  0.2503  0.3543
 7435SOL    HW233768   1.152   0.229   8.112 -2.2242 -1.7394  0.2739
 7436SOL     OW33769   3.814   1.296  10.708  0.3365  0.2105 -0.1177
 7436SOL    HW133770   3.910   1.295  10.712  0.3087 -5.0911 -1.2305
 7436SOL    HW233771   3.811   1.371  10.649  0.9113  1.5062  1.5162
 7437SOL     OW33772   3.409   1.533  17.674 -0.3029 -0.4582  0.3620
 7437SOL    HW133773   3.482   1.596  17.678 -0.5676 -0.3412  3.4901
 7437SOL    HW233774   3.340   1.581   0.023  0.0036 -0.3633  0.7263
 7438SOL     OW33775   1.749   3.696   4.138  0.2610 -0.1708 -0.1857
 7438SOL    HW133776   1.799   3.766   4.179  0.2635 -0.5680  0.4805
 7438SOL    HW233777   1.816   3.643   4.094 -0.1943 -0.6058 -0.3615
 7439SOL     OW33778   3.151   2.514   0.384  0.1950 -0.1482 -0.1721
 7439SOL    HW133779   3.211   2.529   0.311 -0.4252 -0.6663 -0.7855
 7439SOL    HW233780   3.157   2.599   0.427 -1.3846  0.3246 -0.8795
 7440SOL     OW33781   2.325   2.451   4.030 -0.1570 -0.2681  0.4833
 7440SOL    HW133782   2.271   2.477   3.956 -1.8442  0.5811  2.0084
 7440SOL    HW233783   2.407   2.441   3.982  0.1229 -0.9109  1.0992
 7441SOL     OW33784   4.163   0.548   8.860 -0.0094 -0.1729 -0.0785
 7441SOL    HW133785   4.216   0.477   8.822  2.9094  1.5513  0.7943
 7441SOL    HW233786   4.142   0.600   8.783  1.3943 -0.3147 -0.5602
 7442SOL     OW33787   1.354   3.143   1.154 -0.7344  0.2164 -0.0633
 7442SOL    HW133788   1.438   3.138   1.108 -1.1347  0.4325 -0.8082
 7442SOL    HW233789   1.360   3.061   1.203  1.5191  0.9476  0.8763
 7443SOL     OW33790   2.497   0.977   0.866 -0.1594  0.0742 -0.1688
 7443SOL    HW133791   2.494   0.886   0.835 -1.2816  0.0794 -0.0768
 7443SOL    HW233792   2.416   1.010   0.826  1.3620  2.1661 -1.5462
 7444SOL     OW33793   4.152   3.228   1.727 -0.2845 -0.2695 -0.3526
 7444SOL    HW133794   4.179   3.296   1.788 -0.5673 -0.5882  0.1222
 7444SOL    HW233795   4.064   3.254   1.701 -0.5878 -1.9090 -1.0031
 7445SOL     OW33796   0.639   1.136   5.633 -0.2846  0.2569 -0.4568
 7445SOL    HW133797   0.601   1.080   5.565 -0.4145 -1.2269  0.8391
 7445SOL    HW233798   0.639   1.222   5.592 -0.2378 -0.1277 -1.2695
 7446SOL     OW33799   4.698   0.387  11.732 -0.4325 -0.0558 -0.1862
 7446SOL    HW133800   4.693   0.396  11.828 -0.7791 -3.5768  0.1100
 7446SOL    HW233801   0.067   0.402  11.715 -0.4441  0.3907  0.1234
 7447SOL     OW33802   2.557   1.955   6.233 -0.3403  0.1047 -0.2333
 7447SOL    HW133803   2.536   1.975   6.142 -0.4923  0.9251 -0.0160
 7447SOL    HW233804   2.524   2.035   6.274  1.7679 -0.3783  2.4312
 7448SOL     OW33805   1.020   0.839   5.826  0.2117 -0.3146  0.7865
 7448SOL    HW133806   1.101   0.834   5.775 -0.3014 -0.2135 -0.0318
 7448SOL    HW233807   1.048   0.846   5.917 -0.3704  0.3027  0.9160
 7449SOL     OW33808   1.898   2.855   7.183 -0.7098  0.1414  0.0041
 7449SOL    HW133809   1.952   2.798   7.127  0.0970  0.3932  0.5211
 7449SOL    HW233810   1.881   2.789   7.250  0.7901  0.0394  0.2920
 7450SOL     OW33811   2.089   2.711   7.802  0.6062  0.5624  0.3278
 7450SOL    HW133812   2.003   2.669   7.806  1.0054 -0.2522  0.4492
 7450SOL    HW233813   2.120   2.706   7.892 -0.9494  0.0163  0.8329
 7451SOL     OW33814   3.771   4.111   7.510  0.1249 -0.1921  0.2998
 7451SOL    HW133815   3.768   4.092   7.604 -1.2639  2.7186  0.8457
 7451SOL    HW233816   3.691   4.074   7.475  0.3228 -0.5073  0.1842
 7452SOL     OW33817   1.302   3.215   3.894  0.5928 -0.1706 -0.9228
 7452SOL    HW133818   1.212   3.246   3.888  1.1341  1.8568  1.2443
 7452SOL    HW233819   1.340   3.297   3.927 -3.2540  1.3837 -0.4093
 7453SOL     OW33820   2.080   1.908   5.171  0.6427  0.6208  0.4033
 7453SOL    HW133821   2.026   1.852   5.115  2.0715  0.5405 -0.8676
 7453SOL    HW233822   2.128   1.834   5.209  1.7876  1.1609  0.0041
 7454SOL     OW33823   2.024   3.224   8.052  0.1600 -0.3035  0.7645
 7454SOL    HW133824   2.109   3.231   8.096 -0.2168 -1.0410  1.5964
 7454SOL    HW233825   2.032   3.134   8.021  1.1633  0.2215 -0.4965
 7455SOL     OW33826   3.342   3.117   5.443  0.1885 -0.1449 -0.2991
 7455SOL    HW133827   3.285   3.040   5.445 -1.2711  0.8614 -3.9147
 7455SOL    HW233828   3.402   3.093   5.372 -1.6784 -3.4398 -0.7908
 7456SOL     OW33829   3.634   3.808   8.799 -0.3833 -0.7720 -0.2000
 7456SOL    HW133830   3.550   3.819   8.843  0.7081  1.1116  1.4211
 7456SOL    HW233831   3.691   3.877   8.832 -1.4483  0.1779 -0.3317
 7457SOL     OW33832   0.580   1.893   4.172 -0.4194 -0.6325 -0.5337
 7457SOL    HW133833   0.493   1.856   4.188  0.2605 -2.1045 -0.2466
 7457SOL    HW233834   0.638   1.817   4.162  0.0208 -0.5057  1.0862
 7458SOL     OW33835   1.193   4.316  10.132  0.0348 -0.5520  0.5219
 7458SOL    HW133836   1.132   4.316  10.206  0.0957  1.1206  0.5877
 7458SOL    HW233837   1.141   4.273  10.065  0.8811  1.3669 -1.3564
 7459SOL     OW33838   0.495   1.676   6.737 -0.1605  0.2146 -0.0647
 7459SOL    HW133839   0.547   1.707   6.663  1.1093  0.7080  1.0268
 7459SOL    HW233840   0.496   1.747   6.801 -1.2672  0.1500  0.0278
 7460SOL     OW33841   4.443   3.728   9.956 -0.6839  0.0720  0.4067
 7460SOL    HW133842   4.465   3.682  10.037  0.3280 -0.1181  0.0365
 7460SOL    HW233843   4.349   3.731   9.973 -0.4253  1.6518  1.5808
 7461SOL     OW33844   1.770   2.390   6.029 -0.0469  0.2469  0.1813
 7461SOL    HW133845   1.832   2.422   5.964 -0.1165 -0.9977 -0.4985
 7461SOL    HW233846   1.700   2.456   6.020  0.0016  0.3861  0.8472
 7462SOL     OW33847   3.541   3.746   5.977  0.3808 -0.2119 -0.0726
 7462SOL    HW133848   3.524   3.693   5.899  0.7022 -0.0450 -0.2525
 7462SOL    HW233849   3.537   3.675   6.041  1.2448  0.2729  0.5192
 7463SOL     OW33850   3.526   1.331   8.105 -0.0818 -0.5654 -0.7439
 7463SOL    HW133851   3.527   1.372   8.191 -1.2938  1.0997 -1.5284
 7463SOL    HW233852   3.433   1.324   8.085 -0.6724  2.4620  0.9391
 7464SOL     OW33853   2.777   3.072   0.626 -0.2030  0.2492  0.3242
 7464SOL    HW133854   2.810   3.000   0.680  0.9178 -0.8318 -1.8127
 7464SOL    HW233855   2.691   3.042   0.597  1.2463 -3.0261 -0.6104
 7465SOL     OW33856   4.285   2.917   0.965  0.0466 -0.0146 -0.2340
 7465SOL    HW133857   4.354   2.905   0.900 -0.9594 -1.8969 -0.9509
 7465SOL    HW233858   4.223   2.853   0.932 -0.1787 -0.8360  1.7477
 7466SOL     OW33859   1.124   3.917   1.139 -0.3215 -0.3531  0.1143
 7466SOL    HW133860   1.149   3.852   1.073  1.0921  1.0786 -0.7702
 7466SOL    HW233861   1.190   3.986   1.131 -1.3369  0.5659 -0.3715
 7467SOL     OW33862   4.246   1.575   8.019  0.2007 -0.0382  0.0427
 7467SOL    HW133863   4.337   1.548   8.027  0.5388  1.1879  0.2857
 7467SOL    HW233864   4.244   1.574   7.923 -2.5961 -2.1787  0.1380
 7468SOL     OW33865   4.535   4.199   2.118  0.3388  0.7356  0.1532
 7468SOL    HW133866   4.560   4.224   2.207 -0.3737  0.7976  0.3395
 7468SOL    HW233867   4.563   4.279   2.073 -1.1777 -0.0455 -2.1836
 7469SOL     OW33868   2.829   1.573  10.864  0.1424  0.5581  0.2845
 7469SOL    HW133869   2.744   1.599  10.898  0.1208  1.2982 -0.3313
 7469SOL    HW233870   2.818   1.478  10.856 -1.1633  0.7985 -0.7828
 7470SOL     OW33871   4.541   4.298   1.790 -0.0733  0.4258  0.0697
 7470SOL    HW133872   4.571   4.219   1.746 -0.1591  0.7634 -0.5892
 7470SOL    HW233873   4.591   4.363   1.741 -0.1740 -0.4443 -1.1714
 7471SOL     OW33874   2.098   4.622   1.452 -0.5938 -0.0710 -0.0827
 7471SOL    HW133875   2.084   4.675   1.374  2.0328  1.4629  0.4956
 7471SOL    HW233876   2.021   4.643   1.506 -0.3335  1.4397 -0.3059
 7472SOL     OW33877   2.773   2.282   6.376  0.2917 -0.0018  0.1509
 7472SOL    HW133878   2.694   2.273   6.323  0.6615 -0.2603 -0.3613
 7472SOL    HW233879   2.735   2.312   6.459 -0.6199 -0.6443 -0.0383
 7473SOL     OW33880   0.178   4.074   7.198  0.1824  0.0203  0.1370
 7473SOL    HW133881   0.133   4.051   7.279 -0.5131 -1.2373 -0.6176
 7473SOL    HW233882   0.256   4.020   7.206 -0.1931 -0.7273 -1.2954
 7474SOL     OW33883   3.835   1.123   7.259 -0.8095  0.4646 -0.0644
 7474SOL    HW133884   3.802   1.082   7.340  0.5562  2.1341  1.3345
 7474SOL    HW233885   3.888   1.058   7.214  1.2233  0.7561  1.8960
 7475SOL     OW33886   0.239   4.124   8.799 -0.3008  0.5801 -0.1118
 7475SOL    HW133887   0.254   4.041   8.752  1.7029  1.5831 -1.2808
 7475SOL    HW233888   0.286   4.105   8.880 -0.9284 -1.5080 -0.2222
 7476SOL     OW33889   0.608   1.418   2.904 -0.2578  0.3103  0.1967
 7476SOL    HW133890   0.627   1.327   2.882 -0.6231  0.2606  0.0813
 7476SOL    HW233891   0.664   1.454   2.835  1.5580 -0.8451  1.0660
 7477SOL     OW33892   2.698   3.285   2.184  0.0455  0.4557  0.2050
 7477SOL    HW133893   2.689   3.330   2.268  3.6614  0.8746  0.3375
 7477SOL    HW233894   2.728   3.361   2.134 -0.1452  1.4645  1.6200
 7478SOL     OW33895   1.645   2.001   2.546  0.1544  0.2750 -0.0685
 7478SOL    HW133896   1.705   2.069   2.515 -1.2128  1.0870 -0.9345
 7478SOL    HW233897   1.598   1.986   2.464 -2.1491  0.2008  1.2459
 7479SOL     OW33898   2.789   1.177   4.211 -0.8463  0.3492  0.7633
 7479SOL    HW133899   2.843   1.114   4.259  1.9099  1.6005 -0.6925
 7479SOL    HW233900   2.700   1.152   4.237  0.4540 -2.4594  2.4886
 7480SOL     OW33901   0.600   3.867   9.679  0.0789  0.5774 -0.2068
 7480SOL    HW133902   0.611   3.852   9.773  0.1336 -0.6691 -0.4160
 7480SOL    HW233903   0.673   3.924   9.656 -0.2257  1.2852  0.5385
 7481SOL     OW33904   2.885   3.352  11.530  0.2604 -0.0680  0.2649
 7481SOL    HW133905   2.935   3.431  11.509 -2.0603  1.5286  0.7465
 7481SOL    HW233906   2.835   3.340  11.449 -0.2748 -1.7790  0.8541
 7482SOL     OW33907   3.961   0.700  16.295 -0.0281  0.5033 -0.4299
 7482SOL    HW133908   3.872   0.688  16.262  0.2258 -1.1256 -0.5476
 7482SOL    HW233909   3.954   0.790  16.326 -0.8629 -0.2050  1.4173
 7483SOL     OW33910   1.370   1.180   0.050  0.2282 -0.2595 -0.3035
 7483SOL    HW133911   1.400   1.094   0.020  0.7877  0.3777 -1.5763
 7483SOL    HW233912   1.318   1.144   0.122  0.7229  0.0377  0.2050
 7484SOL     OW33913   1.771   3.434   8.549  0.2749 -0.1418  0.0460
 7484SOL    HW133914   1.770   3.435   8.453  2.6003  0.7641  0.0466
 7484SOL    HW233915   1.678   3.427   8.571  0.6085  0.6556  1.7765
 7485SOL     OW33916   3.914   2.846   9.481 -0.2768  0.1604  0.0880
 7485SOL    HW133917   4.007   2.826   9.492 -0.5593 -0.4081  1.4982
 7485SOL    HW233918   3.913   2.933   9.521 -1.3253  0.4514 -0.5890
 7486SOL     OW33919   2.637   2.469   5.825 -0.0021 -0.3995 -0.0935
 7486SOL    HW133920   2.667   2.412   5.896  1.4964 -1.1968 -1.3513
 7486SOL    HW233921   2.572   2.412   5.784  1.3207 -0.3599 -2.2721
 7487SOL     OW33922   3.801   0.389   6.010  0.2685 -0.1775  0.1678
 7487SOL    HW133923   3.752   0.421   6.087  0.6370  0.3695  0.1705
 7487SOL    HW233924   3.887   0.426   6.027  1.2900 -1.8839 -1.4367
 7488SOL     OW33925   3.694   0.046   8.620  0.7936 -0.0042 -0.3912
 7488SOL    HW133926   3.720   4.700   8.560 -1.7038 -0.1223 -1.3139
 7488SOL    HW233927   3.673   4.712   8.693  0.5549  2.7847  1.7786
 7489SOL     OW33928   3.213   4.545   6.931  0.1051  0.0754 -0.1727
 7489SOL    HW133929   3.174   4.600   6.863  2.6066  1.8728 -0.1240
 7489SOL    HW233930   3.297   4.587   6.945  0.0418 -0.6837  2.4446
 7490SOL     OW33931   3.534   0.578  17.339  0.6369 -0.5170  0.1503
 7490SOL    HW133932   3.473   0.546  17.272 -0.2749 -0.2694  0.8651
 7490SOL    HW233933   3.541   0.671  17.322 -3.2943  0.5089  4.0427
 7491SOL     OW33934   1.239   4.187   5.304 -0.2836  0.1138  0.2330
 7491SOL    HW133935   1.254   4.094   5.282  2.2747  0.2976  1.2821
 7491SOL    HW233936   1.166   4.176   5.365 -0.5465 -0.7981 -0.2265
 7492SOL     OW33937   2.133   2.638   2.847 -0.1870 -0.2277  0.1805
 7492SOL    HW133938   2.195   2.584   2.895 -1.6279 -1.3120  0.8353
 7492SOL    HW233939   2.059   2.578   2.836 -0.2172  0.2971 -2.4205
 7493SOL     OW33940   0.003   2.563   8.105  0.5348  0.0842  0.6439
 7493SOL    HW133941   0.074   2.503   8.127 -0.6284 -1.5903 -0.2178
 7493SOL    HW233942   4.692   2.571   8.194  0.1702  1.0609  0.4227
 7494SOL     OW33943   0.127   3.631   4.713  0.3809  0.7656 -0.2269
 7494SOL    HW133944   0.185   3.595   4.780 -2.0569 -0.9971  0.9196
 7494SOL    HW233945   0.054   3.569   4.718  0.7752  0.3689  0.7204
 7495SOL     OW33946   0.289   1.832   1.297 -0.3044 -0.1262  0.6204
 7495SOL    HW133947   0.239   1.765   1.251  0.0378  1.4608 -2.0578
 7495SOL    HW233948   0.277   1.909   1.240 -0.1902 -0.2862  0.3807
 7496SOL     OW33949   0.230   0.353  15.581 -0.6204 -0.4557 -0.3964
 7496SOL    HW133950   0.214   0.311  15.496  3.4135 -1.7127 -0.5167
 7496SOL    HW233951   0.295   0.292  15.614  0.6865  0.4679 -1.2622
 7497SOL     OW33952   0.177   1.672  15.821  0.0613  0.2958  0.4552
 7497SOL    HW133953   0.214   1.607  15.760 -2.0000 -1.6409  1.3047
 7497SOL    HW233954   0.252   1.713  15.864 -1.1237  2.4132  0.5223
 7498SOL     OW33955   3.158   2.433   1.492  0.5896 -0.4353  0.0118
 7498SOL    HW133956   3.083   2.400   1.444  0.1333  0.1504  0.3255
 7498SOL    HW233957   3.201   2.472   1.416 -0.7897  1.2144  0.0823
 7499SOL     OW33958   0.193   4.382   4.113 -0.1684 -0.4256 -0.4388
 7499SOL    HW133959   0.202   4.469   4.075 -2.1965 -0.5783 -1.2391
 7499SOL    HW233960   0.098   4.388   4.114 -0.0035  2.1108  0.1842
 7500SOL     OW33961   0.365   1.741  12.843  0.4093 -0.0657 -0.1475
 7500SOL    HW133962   0.429   1.807  12.872 -0.5979 -0.0154  1.9833
 7500SOL    HW233963   0.385   1.725  12.751  0.7456 -0.7278  0.0378
 7501SOL     OW33964   0.783   3.592   6.475 -0.8200  0.5232  0.8077
 7501SOL    HW133965   0.872   3.614   6.500 -0.3210 -1.0373  0.3764
 7501SOL    HW233966   0.802   3.534   6.401  2.3702  1.2601  1.0757
 7502SOL     OW33967   0.532   3.953   3.351  0.3562  0.5550  0.5087
 7502SOL    HW133968   0.567   3.992   3.431  2.0578 -0.5608  0.2992
 7502SOL    HW233969   0.508   3.867   3.385 -2.5651  1.1823  0.0766
 7503SOL     OW33970   1.359   0.063  14.737 -0.3008 -0.0991 -0.0039
 7503SOL    HW133971   1.370   0.105  14.823 -0.9581 -0.7815  0.4119
 7503SOL    HW233972   1.351   0.142  14.684 -0.0117  1.7436  2.6802
 7504SOL     OW33973   1.170   3.520   5.554 -0.2656 -0.3132  0.4041
 7504SOL    HW133974   1.168   3.612   5.579  0.3015 -0.5147  1.1628
 7504SOL    HW233975   1.082   3.505   5.519 -0.7638  0.3899  1.3827
 7505SOL     OW33976   3.562   2.641   6.999 -0.2042  0.3054  0.1262
 7505SOL    HW133977   3.568   2.666   7.091  1.1744  2.3664 -0.5275
 7505SOL    HW233978   3.495   2.572   7.003  0.0235  0.0647 -0.1776
 7506SOL     OW33979   4.499   2.617  11.139 -0.0903 -0.1070 -0.4970
 7506SOL    HW133980   4.437   2.574  11.197  1.4649  0.6261  1.7404
 7506SOL    HW233981   4.463   2.706  11.142 -0.1506 -0.1509  0.1990
 7507SOL     OW33982   1.460   2.912   4.721  0.0819  0.1326  0.1216
 7507SOL    HW133983   1.432   3.002   4.736 -0.3808 -0.3903  2.3454
 7507SOL    HW233984   1.515   2.884   4.793 -0.4735  0.1023  0.5360
 7508SOL     OW33985   0.883   0.417  17.625 -0.2286  0.1582  0.7462
 7508SOL    HW133986   0.924   0.501  17.604  0.4476  0.4368  3.0822
 7508SOL    HW233987   0.805   0.411  17.571  1.1237  1.3169 -1.3278
 7509SOL     OW33988   0.062   3.771   2.768  0.6362  0.2522 -0.0650
 7509SOL    HW133989   0.007   3.694   2.753  3.0299 -1.4160 -0.3441
 7509SOL    HW233990   4.716   3.832   2.790  1.4248  1.8551 -2.0184
 7510SOL     OW33991   3.703   4.118   3.812  0.1245 -0.6265  0.0475
 7510SOL    HW133992   3.688   4.197   3.864  2.1611  0.2835 -0.7289
 7510SOL    HW233993   3.795   4.094   3.826  0.0198 -0.7167  0.5762
 7511SOL     OW33994   2.607   1.415   7.622 -0.0381  0.2818 -0.3436
 7511SOL    HW133995   2.643   1.491   7.669  0.4192 -0.3464  0.3318
 7511SOL    HW233996   2.680   1.387   7.567  0.0357  0.1012 -0.1531
 7512SOL     OW33997   3.566   2.423   5.594 -0.8133  0.2334  0.4035
 7512SOL    HW133998   3.509   2.371   5.651  1.5131 -3.5158 -0.6431
 7512SOL    HW233999   3.645   2.420   5.648 -1.0813  0.9033  0.8279
 7513SOL     OW34000   1.722   0.893  11.218  0.4622  0.1420 -0.1531
 7513SOL    HW134001   1.670   0.814  11.205  0.3911  0.0415  0.7249
 7513SOL    HW234002   1.714   0.932  11.131  0.5428 -0.1875 -0.3048
 7514SOL     OW34003   2.426   1.787   4.255 -0.5542  0.0472  0.1041
 7514SOL    HW134004   2.335   1.813   4.269 -0.2536  2.0066 -1.5359
 7514SOL    HW234005   2.464   1.872   4.231 -1.1353  0.3468  0.2439
 7515SOL     OW34006   3.483   0.687   1.660  0.1165 -0.2634 -0.0914
 7515SOL    HW134007   3.410   0.684   1.721 -0.9636 -2.2763 -1.4715
 7515SOL    HW234008   3.450   0.630   1.590  0.4100  0.3342 -0.7139
 7516SOL     OW34009   0.869   1.463   4.056  0.2839  0.2281  0.0193
 7516SOL    HW134010   0.792   1.410   4.076 -1.2118  1.5890 -2.1437
 7516SOL    HW234011   0.930   1.390   4.042 -0.3280 -0.2279 -0.2823
 7517SOL     OW34012   0.397   4.599   3.290  0.0612 -0.0154  0.4356
 7517SOL    HW134013   0.389   4.557   3.204 -1.4970 -0.4036  0.7765
 7517SOL    HW234014   0.306   4.626   3.301 -0.2251  0.0913 -2.0329
 7518SOL     OW34015   4.186   1.757   2.209  0.3784 -0.1463  0.1431
 7518SOL    HW134016   4.174   1.662   2.222  0.6023 -0.5960 -2.9210
 7518SOL    HW234017   4.194   1.773   2.115 -2.5455 -0.8146 -0.2206
 7519SOL     OW34018   2.198   1.019   1.045  0.5639  0.4870  0.8786
 7519SOL    HW134019   2.213   1.094   1.102 -0.8900  1.6050 -0.1924
 7519SOL    HW234020   2.232   0.946   1.097 -1.1987 -1.1415 -0.2735
 7520SOL     OW34021   4.528   2.048   4.485  0.0535  0.6232  0.1820
 7520SOL    HW134022   4.502   1.958   4.504  0.3461  0.3988 -0.5113
 7520SOL    HW234023   4.451   2.072   4.434  2.1351  0.5733 -2.9349
 7521SOL     OW34024   2.769   3.440  15.121  0.2187 -0.1743 -0.1534
 7521SOL    HW134025   2.800   3.531  15.126 -0.0605 -0.2186  2.1785
 7521SOL    HW234026   2.845   3.389  15.094 -0.9021 -2.7205  1.5418
 7522SOL     OW34027   4.336   1.409   8.413 -0.3286  0.0792 -0.3386
 7522SOL    HW134028   4.403   1.396   8.345 -3.3927  0.3214 -3.3838
 7522SOL    HW234029   4.324   1.316   8.435  0.2731 -0.1564 -1.0066
 7523SOL     OW34030   3.282   4.573  16.423 -0.2735  0.0120 -0.3517
 7523SOL    HW134031   3.219   4.640  16.398 -0.9051 -0.3070  0.3739
 7523SOL    HW234032   3.230   4.523  16.486 -0.5524 -1.0154 -1.3977
 7524SOL     OW34033   0.188   1.176  15.982  0.1373  0.6356  0.1578
 7524SOL    HW134034   0.252   1.218  15.925  1.4752 -1.1992  0.2782
 7524SOL    HW234035   0.170   1.246  16.045 -1.7051 -0.8842  1.3347
 7525SOL     OW34036   4.551   1.157  14.066 -0.2886  0.5697  0.9301
 7525SOL    HW134037   4.491   1.231  14.053 -1.1758 -0.6057 -1.7104
 7525SOL    HW234038   4.484   1.093  14.044 -0.3551  1.1900 -0.6648
 7526SOL     OW34039   0.261   2.030   8.679  1.1309 -0.8376 -0.4149
 7526SOL    HW134040   0.236   1.942   8.709  1.2970 -0.4253  0.9371
 7526SOL    HW234041   0.279   2.010   8.587 -0.5985 -0.8295 -0.7610
 7527SOL     OW34042   0.870   0.808   3.550  0.1783 -0.0532 -0.0507
 7527SOL    HW134043   0.959   0.841   3.562  0.5893 -0.9662 -0.5630
 7527SOL    HW234044   0.888   0.719   3.519  1.6994  1.0545 -2.3377
 7528SOL     OW34045   0.341   1.979   8.395 -0.5613 -0.1903  0.1796
 7528SOL    HW134046   0.353   1.885   8.385 -3.5227 -0.6736  1.1507
 7528SOL    HW234047   0.432   2.008   8.398  0.5025 -3.4967 -0.4779
 7529SOL     OW34048   3.998   0.639  10.787  0.0685 -0.2175  0.5324
 7529SOL    HW134049   4.005   0.701  10.715  1.0407  0.0376  0.8437
 7529SOL    HW234050   4.008   0.700  10.861  0.4903  1.5865 -1.0216
 7530SOL     OW34051   0.020   2.098  12.206  0.0881  0.1946  0.4273
 7530SOL    HW134052   4.715   2.149  12.131  0.5642 -0.6068 -0.2961
 7530SOL    HW234053   0.094   2.152  12.234  0.9105 -0.1343 -1.1238
 7531SOL     OW34054   3.726   3.165   0.864  0.3408 -0.3142 -0.0198
 7531SOL    HW134055   3.684   3.197   0.784  0.0631 -1.7639 -0.4530
 7531SOL    HW234056   3.738   3.246   0.914 -0.4672 -0.4288  0.3670
 7532SOL     OW34057   3.835   3.805   5.216 -0.1868  0.0367  0.0432
 7532SOL    HW134058   3.781   3.868   5.266 -0.7944  0.1937 -0.7993
 7532SOL    HW234059   3.922   3.818   5.254 -0.1407  0.4823 -0.2180
 7533SOL     OW34060   4.170   4.608  10.556 -0.7063 -0.3712 -0.2202
 7533SOL    HW134061   4.228   4.683  10.544  0.8862 -1.0419  3.4576
 7533SOL    HW234062   4.146   4.625  10.647 -0.6068 -1.4909  0.0121
 7534SOL     OW34063   3.920   4.519  13.972  0.3184 -0.2716 -0.0176
 7534SOL    HW134064   4.006   4.550  14.000  1.8720 -3.5585 -1.2189
 7534SOL    HW234065   3.880   4.520  14.059  0.9682 -0.2210  0.2865
 7535SOL     OW34066   2.760   0.373   5.996  0.0045 -0.2650  0.4404
 7535SOL    HW134067   2.846   0.370   6.039  0.0333 -0.1655  0.3912
 7535SOL    HW234068   2.757   0.468   5.982 -1.4449 -0.5981 -1.5299
 7536SOL     OW34069   2.267   4.721   0.566 -0.1621  0.1913  0.6449
 7536SOL    HW134070   2.193   4.664   0.543 -0.6464  0.8227  0.6561
 7536SOL    HW234071   2.341   4.662   0.583 -1.2148 -1.4175 -0.2771
 7537SOL     OW34072   1.865   0.758   1.953  0.1082  0.3436 -0.7367
 7537SOL    HW134073   1.947   0.762   1.903  0.0866 -1.1052 -0.8914
 7537SOL    HW234074   1.906   0.761   2.039 -0.2285 -1.3022 -0.5233
 7538SOL     OW34075   2.646   0.160   3.992 -0.2343  0.4364 -0.9866
 7538SOL    HW134076   2.686   0.245   3.974 -0.5969  0.7165 -0.4823
 7538SOL    HW234077   2.688   0.109   3.922  1.3303 -0.5777  0.6595
 7539SOL     OW34078   1.777   3.837   6.254  0.2147 -0.1614 -0.2112
 7539SOL    HW134079   1.846   3.895   6.221 -0.4022  0.9636  0.4713
 7539SOL    HW234080   1.776   3.774   6.183  0.8905 -2.7530  2.0785
 7540SOL     OW34081   2.708   2.153   4.993 -0.2132  0.0489  0.1227
 7540SOL    HW134082   2.773   2.148   5.063  1.2881  0.7783 -1.2239
 7540SOL    HW234083   2.708   2.064   4.957 -1.2676  0.4671 -0.8939
 7541SOL     OW34084   1.172   1.070   7.936  0.2454 -0.5002 -0.4186
 7541SOL    HW134085   1.230   1.027   7.998  1.5057  1.8928  0.0671
 7541SOL    HW234086   1.149   0.993   7.884  0.9131 -0.5053 -0.7172
 7542SOL     OW34087   3.669   1.057  14.967  0.5009  0.4752 -0.3272
 7542SOL    HW134088   3.612   1.103  15.028  2.1684 -0.4266  1.9244
 7542SOL    HW234089   3.614   1.056  14.888 -0.7629  3.0202  0.5369
 7543SOL     OW34090   1.638   0.658   7.093 -0.1849  0.2332 -0.0111
 7543SOL    HW134091   1.622   0.592   7.160 -1.1296 -0.8149 -1.2576
 7543SOL    HW234092   1.550   0.695   7.100  0.2172  1.0906  0.4702
 7544SOL     OW34093   4.457   2.063   8.674  0.2292  0.5326 -0.5513
 7544SOL    HW134094   4.460   2.064   8.578 -1.9802 -2.4138 -0.6514
 7544SOL    HW234095   4.516   2.136   8.692 -0.7336  1.0388  0.5898
 7545SOL     OW34096   2.089   4.214  12.757 -0.2949 -0.1753 -0.1133
 7545SOL    HW134097   2.055   4.301  12.738  2.2542  0.4011 -2.1248
 7545SOL    HW234098   2.156   4.236  12.821  1.0055  1.5172 -2.0499
 7546SOL     OW34099   2.079   1.631   6.935  0.4661  0.0451  0.2509
 7546SOL    HW134100   2.080   1.537   6.913 -1.2727  0.0002  0.3139
 7546SOL    HW234101   2.045   1.631   7.024 -0.5545 -0.8605 -0.1400
 7547SOL     OW34102   0.607   3.877   0.563 -0.2511 -0.0786  0.1161
 7547SOL    HW134103   0.635   3.842   0.478 -0.4013  0.4934 -0.1675
 7547SOL    HW234104   0.677   3.843   0.619 -0.9880 -0.7436  0.6288
 7548SOL     OW34105   3.575   3.901   2.370 -0.2390  0.1169 -0.0335
 7548SOL    HW134106   3.502   3.885   2.431 -2.1345  1.2569 -2.0061
 7548SOL    HW234107   3.548   3.979   2.321  1.6830  0.4351 -0.5589
 7549SOL     OW34108   4.608   2.168   3.034 -0.9927 -0.2312 -0.5352
 7549SOL    HW134109   4.583   2.219   2.957 -0.3905 -1.9342 -1.8739
 7549SOL    HW234110   4.573   2.084   3.005  0.2808 -0.8145 -0.4155
 7550SOL     OW34111   3.451   1.082   2.405 -0.4199  0.5995 -0.0219
 7550SOL    HW134112   3.407   1.149   2.352 -2.3017 -1.7437 -1.4290
 7550SOL    HW234113   3.486   1.019   2.342 -0.5623  0.2666  0.2293
 7551SOL     OW34114   4.009   2.698   4.788  0.0339  0.3645  0.7907
 7551SOL    HW134115   3.981   2.771   4.733 -0.2471 -2.1015 -2.3312
 7551SOL    HW234116   3.932   2.681   4.843 -0.8898  2.0546  0.0057
 7552SOL     OW34117   1.439   3.034   1.673 -1.0458 -0.6482 -0.5453
 7552SOL    HW134118   1.432   2.939   1.661  0.2202 -0.6130 -1.5735
 7552SOL    HW234119   1.370   3.063   1.613 -2.5468  0.0021  1.4897
 7553SOL     OW34120   2.990   1.903   0.553 -0.7069 -0.2055  0.6688
 7553SOL    HW134121   2.950   1.821   0.581  1.2973 -1.0178  1.1804
 7553SOL    HW234122   3.085   1.891   0.559 -1.0254 -3.1754 -0.2126
 7554SOL     OW34123   4.091   4.012  16.322  0.4037 -0.2222  0.2270
 7554SOL    HW134124   4.108   4.098  16.362  0.4471  0.9370 -2.2751
 7554SOL    HW234125   4.109   3.937  16.379  0.0019 -0.0292  0.6101
 7555SOL     OW34126   1.181   3.623   4.376  0.4952 -0.5275  0.2744
 7555SOL    HW134127   1.172   3.650   4.284 -0.6181  0.8752  0.7865
 7555SOL    HW234128   1.252   3.680   4.406  0.2578 -0.5700  0.9141
 7556SOL     OW34129   1.269   3.902   5.269 -0.1431  0.0002  0.0243
 7556SOL    HW134130   1.268   3.848   5.189  1.2643  2.7179 -1.8279
 7556SOL    HW234131   1.198   3.862   5.320 -1.0140  0.5349 -0.7657
 7557SOL     OW34132   1.248   4.492  16.156  0.0717 -0.5440  0.4954
 7557SOL    HW134133   1.342   4.491  16.141  0.1270 -0.2992  0.8239
 7557SOL    HW234134   1.244   4.568  16.214 -1.1378  1.4107 -2.1276
 7558SOL     OW34135   2.642   2.883   6.173 -0.0802  0.2322  0.1619
 7558SOL    HW134136   2.565   2.849   6.218 -0.9274 -0.1072 -1.5571
 7558SOL    HW234137   2.625   2.870   6.080 -1.9934  1.4944  0.3387
 7559SOL     OW34138   1.423   4.156  15.319  0.7200 -0.4541  0.2141
 7559SOL    HW134139   1.448   4.247  15.303  3.3881 -1.2272  0.0427
 7559SOL    HW234140   1.472   4.127  15.396  1.8950  1.2528  0.1119
 7560SOL     OW34141   1.520   2.838   5.378 -0.0570  0.1897  0.5132
 7560SOL    HW134142   1.443   2.824   5.323  0.8004 -1.6627 -0.2096
 7560SOL    HW234143   1.579   2.865   5.307 -0.6121 -0.6939 -0.2741
 7561SOL     OW34144   0.316   3.166   9.533  0.4277 -0.5017  0.3772
 7561SOL    HW134145   0.402   3.181   9.495  0.2140 -0.3822 -0.0595
 7561SOL    HW234146   0.261   3.217   9.473 -1.2570  0.8194  3.0180
 7562SOL     OW34147   0.493   1.232   6.883  0.1290  0.1937 -0.1222
 7562SOL    HW134148   0.513   1.278   6.965  1.0081 -3.2491  1.5888
 7562SOL    HW234149   0.558   1.161   6.883  0.3490  0.3960 -1.4110
 7563SOL     OW34150   0.416   0.011   2.749 -0.0481  0.3682 -0.0201
 7563SOL    HW134151   0.342   4.674   2.747 -0.2003  0.5334  0.5332
 7563SOL    HW234152   0.371   0.075   2.805  2.0564  0.9440  1.0279
 7564SOL     OW34153   0.739   0.250   2.991 -0.6139  0.4954 -0.0850
 7564SOL    HW134154   0.730   0.168   2.942  2.2048  1.4359 -2.1217
 7564SOL    HW234155   0.644   0.262   3.000 -0.1259  2.8018  1.9801
 7565SOL     OW34156   1.017   0.364   6.303  0.0589 -0.0154  0.3870
 7565SOL    HW134157   1.007   0.270   6.287 -0.4832  0.0065  0.5818
 7565SOL    HW234158   1.024   0.399   6.214  1.8865  0.7186  0.8333
 7566SOL     OW34159   0.661   1.595  12.648  0.4415  0.0164 -0.2520
 7566SOL    HW134160   0.572   1.562  12.632  1.4859 -3.1365  0.5285
 7566SOL    HW234161   0.714   1.521  12.620 -0.0298 -1.1493  1.9338
 7567SOL     OW34162   4.233   1.073   1.160 -0.5887  0.5223  0.3568
 7567SOL    HW134163   4.155   1.058   1.106  0.6629  0.0483 -1.3323
 7567SOL    HW234164   4.203   1.154   1.202 -0.1725 -0.5166  2.6552
 7568SOL     OW34165   4.344   4.257   4.548 -0.4080 -0.2725 -0.4298
 7568SOL    HW134166   4.373   4.190   4.485 -2.4895  0.9011 -2.6402
 7568SOL    HW234167   4.262   4.222   4.583  1.6009 -3.0293  1.5083
 7569SOL     OW34168   1.017   1.632   2.877 -0.7140  0.2683 -0.0498
 7569SOL    HW134169   0.968   1.699   2.926  0.3141  0.6402  0.4654
 7569SOL    HW234170   1.104   1.630   2.916 -1.3240 -0.7627  1.2373
 7570SOL     OW34171   0.107   1.628   1.220 -0.1956 -0.2990  0.2122
 7570SOL    HW134172   0.192   1.597   1.249  0.8288  0.7922 -1.5844
 7570SOL    HW234173   0.067   1.651   1.304 -1.0087 -1.9917  0.2783
 7571SOL     OW34174   0.992   4.252  16.542  0.1651  0.2385  0.4993
 7571SOL    HW134175   1.011   4.331  16.492 -0.0423  0.3555  0.6100
 7571SOL    HW234176   0.897   4.261  16.548  0.5725  2.9445  2.5558
 7572SOL     OW34177   1.557   3.572   7.858  0.8417  0.5964  0.1957
 7572SOL    HW134178   1.589   3.588   7.947  0.7277  0.1812  0.3144
 7572SOL    HW234179   1.465   3.589   7.877  0.6354  0.3816 -0.6136
 7573SOL     OW34180   1.961   3.738   2.816  0.0721 -0.1286 -0.2324
 7573SOL    HW134181   1.977   3.663   2.874 -1.2604 -1.1504 -1.2177
 7573SOL    HW234182   1.894   3.779   2.871 -0.6246 -0.7698 -0.5998
 7574SOL     OW34183   4.397   0.126  11.295 -0.3177 -0.7627 -0.0307
 7574SOL    HW134184   4.376   0.156  11.384 -1.9398 -1.0702 -0.3148
 7574SOL    HW234185   4.489   0.098  11.301  0.5976  1.7408 -2.5119
 7575SOL     OW34186   2.661   2.082   5.806 -0.0334 -0.1198  0.1677
 7575SOL    HW134187   2.721   2.081   5.881 -1.1410  0.8765  1.0715
 7575SOL    HW234188   2.585   2.067   5.862 -0.2365  0.3574  0.0249
 7576SOL     OW34189   2.153   2.146   7.476  0.5577 -0.1958  0.7120
 7576SOL    HW134190   2.245   2.122   7.473  0.2003 -1.5814  1.0886
 7576SOL    HW234191   2.121   2.094   7.549 -1.7497 -1.1488 -0.9808
 7577SOL     OW34192   2.641   0.422   6.641 -0.9974 -0.0593  0.5902
 7577SOL    HW134193   2.677   0.493   6.694 -0.3636  1.4553 -1.9183
 7577SOL    HW234194   2.635   0.473   6.561 -1.3554 -0.5796  0.2794
 7578SOL     OW34195   2.170   0.512   8.171  0.0203  0.0068  0.2715
 7578SOL    HW134196   2.224   0.476   8.241  1.3476  1.9814  0.2778
 7578SOL    HW234197   2.235   0.537   8.105 -0.4071  2.7832  0.8869
 7579SOL     OW34198   1.475   3.559   6.856  0.7074 -0.2255  0.0244
 7579SOL    HW134199   1.470   3.643   6.901  1.7256 -0.7386  1.0812
 7579SOL    HW234200   1.561   3.528   6.883 -0.2168 -3.1865 -0.3815
 7580SOL     OW34201   1.198   0.615   4.970 -0.0470 -0.1031 -0.0393
 7580SOL    HW134202   1.290   0.615   4.942  0.2578 -3.8780  0.9953
 7580SOL    HW234203   1.167   0.526   4.958 -0.0898 -0.0761 -0.1321
 7581SOL     OW34204   1.703   3.867   4.551 -0.2352  0.0506  0.2422
 7581SOL    HW134205   1.675   3.782   4.583  0.0972  0.1995  0.9365
 7581SOL    HW234206   1.797   3.847   4.548 -0.2019  0.0440  1.1162
 7582SOL     OW34207   3.833   4.059  16.502 -0.5591  0.1833  0.0183
 7582SOL    HW134208   3.788   4.061  16.418 -0.5970  1.1178  0.0632
 7582SOL    HW234209   3.896   4.126  16.476  0.3218 -0.8810 -0.5759
 7583SOL     OW34210   2.684   1.609   7.776  0.4488  0.5961 -0.2791
 7583SOL    HW134211   2.723   1.680   7.725 -1.9522  0.8166 -1.8182
 7583SOL    HW234212   2.628   1.661   7.833  1.2871  1.1086  0.0690
 7584SOL     OW34213   3.216   4.647  10.125 -0.1333 -0.6002 -0.2565
 7584SOL    HW134214   3.159   4.595  10.069  1.4219 -0.4015 -2.0463
 7584SOL    HW234215   3.305   4.639  10.091  0.1246 -1.3599  0.6214
 7585SOL     OW34216   0.097   0.675   4.742  0.2839 -0.0042 -0.2981
 7585SOL    HW134217   0.109   0.766   4.771  4.1897 -0.3274 -0.9067
 7585SOL    HW234218   0.003   0.658   4.741  0.3851 -0.5102 -1.1013
 7586SOL     OW34219   2.001   1.639   7.201  0.4630  0.5989  0.1766
 7586SOL    HW134220   1.970   1.580   7.269 -0.6913  0.7762 -0.2063
 7586SOL    HW234221   1.937   1.710   7.197 -1.0374 -0.7267  0.5879
 7587SOL     OW34222   2.880   1.353   9.091  0.8326 -0.1678  0.2525
 7587SOL    HW134223   2.846   1.352   9.002  0.7940 -3.6563  0.3032
 7587SOL    HW234224   2.847   1.436   9.126 -0.2874 -0.8930  0.9531
 7588SOL     OW34225   1.962   3.543  13.369  0.0893 -0.0767 -0.6610
 7588SOL    HW134226   2.046   3.506  13.341  1.0704 -0.0095  2.1442
 7588SOL    HW234227   1.963   3.495  13.452 -1.1310 -1.1967 -1.3179
 7589SOL     OW34228   3.553   1.109   5.342 -0.7374  0.8198  0.3942
 7589SOL    HW134229   3.632   1.078   5.386  0.4268  0.7043 -1.7561
 7589SOL    HW234230   3.501   1.134   5.418 -0.1155  1.7112  0.5301
 7590SOL     OW34231   3.978   0.774   0.872  0.1014 -0.0451 -0.1197
 7590SOL    HW134232   3.898   0.734   0.837  0.5546 -0.4534 -0.6857
 7590SOL    HW234233   4.027   0.697   0.899  0.1572 -0.5761 -1.7438
 7591SOL     OW34234   2.416   2.165   1.285  0.4042  0.7532 -0.1371
 7591SOL    HW134235   2.324   2.189   1.271  0.4627  0.1858 -1.5179
 7591SOL    HW234236   2.431   2.117   1.203 -0.9420  0.0282  0.0259
 7592SOL     OW34237   4.392   3.070   6.851  0.3206 -0.2462 -0.1909
 7592SOL    HW134238   4.398   3.014   6.928  0.8802  0.1633  0.0685
 7592SOL    HW234239   4.484   3.075   6.824  0.4700 -2.1624  0.0285
 7593SOL     OW34240   4.625   2.769  14.686  0.3508  0.1507  0.8430
 7593SOL    HW134241   4.617   2.821  14.765 -1.7970  0.2115  0.5979
 7593SOL    HW234242   4.713   2.733  14.693 -0.3303 -2.2133 -2.8404
 7594SOL     OW34243   2.434   1.438  14.610 -0.3148  0.2217  0.0492
 7594SOL    HW134244   2.437   1.400  14.698  0.9636  3.0608  1.2463
 7594SOL    HW234245   2.454   1.530  14.630 -3.7527  1.2090 -1.1920
 7595SOL     OW34246   4.233   1.338   7.341 -0.0251  0.4926 -0.0021
 7595SOL    HW134247   4.147   1.378   7.328  0.1403  0.7155 -0.4467
 7595SOL    HW234248   4.298   1.403   7.313  0.6491  0.0123  0.4877
 7596SOL     OW34249   0.909   1.797  15.344  0.3736  0.0775 -0.4418
 7596SOL    HW134250   0.821   1.761  15.332  0.6991 -1.5245  1.9950
 7596SOL    HW234251   0.945   1.793  15.255  1.4862 -2.2036  0.1173
 7597SOL     OW34252   2.824   1.878   3.505  0.0595 -0.0808  0.3562
 7597SOL    HW134253   2.878   1.799   3.505 -0.8263 -0.7004 -3.2258
 7597SOL    HW234254   2.735   1.846   3.488  0.4998 -1.1022  0.0128
 7598SOL     OW34255   0.828   1.334   8.656  1.1232 -0.1521 -0.3207
 7598SOL    HW134256   0.737   1.333   8.624  1.0103 -0.1408  0.0059
 7598SOL    HW234257   0.854   1.246   8.632  0.8145 -0.5607  0.8475
 7599SOL     OW34258   0.229   0.815  11.591  0.3590 -0.3079 -0.3486
 7599SOL    HW134259   0.240   0.910  11.590  1.4115 -0.4547 -2.2492
 7599SOL    HW234260   0.316   0.789  11.620  0.3468  0.8274  0.7097
 7600SOL     OW34261   4.374   1.812  12.100 -0.2204  0.2157 -0.2741
 7600SOL    HW134262   4.290   1.769  12.084 -0.0768  0.2398 -1.0822
 7600SOL    HW234263   4.423   1.741  12.141  0.4510  0.4096 -0.7470
 7601SOL     OW34264   4.277   0.664  16.644 -0.0032  0.5133  0.4214
 7601SOL    HW134265   4.282   0.569  16.634 -1.0967  0.4684  0.2618
 7601SOL    HW234266   4.183   0.670  16.664 -0.5631  1.9116 -2.5118
 7602SOL     OW34267   3.472   3.311   0.761  0.1544 -0.0996  0.1506
 7602SOL    HW134268   3.423   3.352   0.832  0.0750 -1.8342  1.1094
 7602SOL    HW234269   3.479   3.382   0.698 -0.5990  0.7246  0.9913
 7603SOL     OW34270   0.981   2.555   9.993  0.3023  0.6622 -0.3680
 7603SOL    HW134271   0.943   2.603  10.067  1.4164 -1.1376  1.3760
 7603SOL    HW234272   0.970   2.469  10.032 -1.5815  0.0946 -2.1937
 7604SOL     OW34273   4.592   2.817  15.849  0.4434  0.1059  0.0251
 7604SOL    HW134274   4.516   2.874  15.858  0.5193  0.0245  1.2665
 7604SOL    HW234275   4.637   2.845  15.770  0.3554 -1.4071 -0.5750
 7605SOL     OW34276   2.554   3.453  17.693 -0.1695 -0.1952 -0.4860
 7605SOL    HW134277   2.502   3.436  17.615 -0.8651 -1.2101  0.1916
 7605SOL    HW234278   2.561   3.548  17.686  0.4123 -0.3467 -1.9155
 7606SOL     OW34279   0.356   1.402   6.022 -0.0596 -0.0858 -0.1355
 7606SOL    HW134280   0.419   1.350   5.973 -2.6369 -1.6427 -1.8201
 7606SOL    HW234281   0.413   1.432   6.093  0.3013 -2.1729  0.4459
 7607SOL     OW34282   3.443   1.452   9.495  0.1909 -0.0024  1.0561
 7607SOL    HW134283   3.516   1.489   9.543 -0.1982 -0.8074  2.2799
 7607SOL    HW234284   3.391   1.404   9.559  0.2541  1.0615  1.8939
 7608SOL     OW34285   0.775   4.163   3.366 -0.8953  0.3359 -0.0025
 7608SOL    HW134286   0.807   4.073   3.372 -1.8589 -0.0729 -1.0831
 7608SOL    HW234287   0.700   4.157   3.426 -0.9657  1.3740  0.0121
 7609SOL     OW34288   0.443   1.591   4.247 -0.1838 -0.4222  0.0814
 7609SOL    HW134289   0.482   1.588   4.160  0.3996  0.2381  0.3238
 7609SOL    HW234290   0.506   1.530   4.286 -0.5239  0.7589  2.5205
 7610SOL     OW34291   1.133   4.151  15.177  0.2140 -0.2859  0.2620
 7610SOL    HW134292   1.093   4.094  15.243  0.5505 -0.5377  0.2463
 7610SOL    HW234293   1.223   4.144  15.210 -0.5198  0.7260  2.4791
 7611SOL     OW34294   1.443   2.096  12.999  0.0628 -0.3501 -0.0914
 7611SOL    HW134295   1.358   2.123  13.032  1.1535  0.4067  2.0815
 7611SOL    HW234296   1.484   2.080  13.084 -0.3024  1.5241  0.4201
 7612SOL     OW34297   0.842   4.655   5.669  0.2837 -0.2677  0.0544
 7612SOL    HW134298   0.791   0.007   5.696  1.6119  0.4446  0.5875
 7612SOL    HW234299   0.819   4.599   5.744 -1.8660 -1.0867 -1.2171
 7613SOL     OW34300   2.859   0.225   7.442 -0.1355  0.0901 -0.8007
 7613SOL    HW134301   2.947   0.232   7.479  0.1221 -0.5294 -1.2924
 7613SOL    HW234302   2.873   0.256   7.353  0.8716  0.3232 -0.5674
 7614SOL     OW34303   3.576   0.145   9.106  0.0867  0.3416  0.2971
 7614SOL    HW134304   3.670   0.130   9.117  0.5709  1.9990 -1.5231
 7614SOL    HW234305   3.553   0.170   9.196 -0.8277  1.0412 -0.1269
 7615SOL     OW34306   4.171   2.696   1.571 -0.1162  0.0963  0.4360
 7615SOL    HW134307   4.198   2.606   1.554  0.1091  0.1275  0.6321
 7615SOL    HW234308   4.161   2.739   1.486 -0.2468 -1.0156 -0.0982
 7616SOL     OW34309   4.634   4.596   7.541 -0.3735 -0.8047 -0.0072
 7616SOL    HW134310   4.720   4.636   7.554  0.1500 -1.3378 -1.8155
 7616SOL    HW234311   4.596   4.632   7.461  0.7455  3.3383  1.2933
 7617SOL     OW34312   4.613   0.468  15.733 -0.4758  0.2977  0.1721
 7617SOL    HW134313   4.669   0.530  15.780  0.2480 -0.0324 -0.2583
 7617SOL    HW234314   4.543   0.522  15.697  0.2286  2.6211  2.3096
 7618SOL     OW34315   4.571   0.639   1.531  0.2538 -0.2957  0.2077
 7618SOL    HW134316   4.577   0.552   1.570 -2.8839  0.5896  2.6779
 7618SOL    HW234317   4.663   0.647   1.507  0.4084  1.6335  1.4199
 7619SOL     OW34318   1.106   1.684   0.185 -0.0262 -0.2707  0.0255
 7619SOL    HW134319   1.028   1.669   0.132 -0.2815 -0.7673  0.5479
 7619SOL    HW234320   1.112   1.593   0.213  1.7351  0.0276  0.5747
 7620SOL     OW34321   2.987   0.582   7.215  0.0883  0.0524  0.4361
 7620SOL    HW134322   2.968   0.630   7.295 -0.3870  2.4532 -1.1312
 7620SOL    HW234323   2.992   0.661   7.161  0.5938 -0.7588 -0.7260
 7621SOL     OW34324   2.614   1.062  14.695  0.1434 -0.0296  0.1859
 7621SOL    HW134325   2.698   1.076  14.738 -0.6441  1.6091  1.2454
 7621SOL    HW234326   2.574   1.145  14.724 -1.1281 -0.3466 -0.6711
 7622SOL     OW34327   1.878   3.839   7.531 -1.0689 -0.7338 -0.3956
 7622SOL    HW134328   1.793   3.799   7.549 -0.5246 -0.5934  2.4322
 7622SOL    HW234329   1.864   3.930   7.553  3.8196 -0.3663  1.1443
 7623SOL     OW34330   0.109   0.694   1.468  0.2682 -0.1641 -0.3414
 7623SOL    HW134331   0.137   0.784   1.486  1.1436 -0.9026  1.9178
 7623SOL    HW234332   0.102   0.695   1.373 -0.2545 -2.0607 -0.3195
 7624SOL     OW34333   3.139   0.255   1.972  0.4180 -0.3833  0.3205
 7624SOL    HW134334   3.066   0.316   1.961 -0.6077 -0.9309  3.9412
 7624SOL    HW234335   3.145   0.229   1.880 -0.4975  2.7961 -0.6346
 7625SOL     OW34336   2.987   4.338   7.311 -0.5198 -0.6599  0.1363
 7625SOL    HW134337   2.902   4.335   7.355 -0.0833  0.1028  1.0283
 7625SOL    HW234338   2.970   4.407   7.246 -2.0045  0.2731  1.4802
 7626SOL     OW34339   2.277   1.738   6.061  0.1615 -0.1910 -0.3398
 7626SOL    HW134340   2.226   1.808   6.102 -0.8016  0.2005 -2.2102
 7626SOL    HW234341   2.264   1.672   6.129 -0.6673  0.7274  0.4050
 7627SOL     OW34342   3.902   0.590   1.617  0.2011  0.6844  0.2119
 7627SOL    HW134343   3.851   0.548   1.548  1.5797 -0.1699 -0.2757
 7627SOL    HW234344   3.851   0.671   1.609 -1.2605 -0.2194  0.5586
 7628SOL     OW34345   4.509   2.035   4.179  0.4971 -0.3488  0.1886
 7628SOL    HW134346   4.581   2.017   4.240 -0.4020 -1.9739  0.7659
 7628SOL    HW234347   4.560   2.037   4.099  0.0582 -0.8262 -0.0985
 7629SOL     OW34348   2.294   3.189  14.677  0.5464  0.0292  0.1398
 7629SOL    HW134349   2.365   3.138  14.715  2.0016  1.1557 -1.0325
 7629SOL    HW234350   2.249   3.128  14.619 -0.5249 -0.3407  1.3836
 7630SOL     OW34351   2.301   0.850   5.569  0.5728 -0.7132  0.0716
 7630SOL    HW134352   2.344   0.935   5.562  0.9966 -0.8207  1.4023
 7630SOL    HW234353   2.358   0.799   5.511 -0.6064 -0.9784 -0.8429
 7631SOL     OW34354   4.101   2.675   8.580  0.3383 -0.0054  0.2078
 7631SOL    HW134355   4.128   2.743   8.518  2.0428 -0.5903  0.3229
 7631SOL    HW234356   4.060   2.719   8.654  1.8552 -1.1754  1.7273
 7632SOL     OW34357   2.680   4.207   5.498 -0.2959  0.1141  0.0508
 7632SOL    HW134358   2.635   4.179   5.577  1.9689 -0.4288  1.1344
 7632SOL    HW234359   2.605   4.224   5.441  0.6013  1.3647 -0.7517
 7633SOL     OW34360   3.330   0.497   6.436 -0.3691  1.3177  0.5117
 7633SOL    HW134361   3.304   0.418   6.389  0.7872  0.2386  1.6799
 7633SOL    HW234362   3.351   0.456   6.520 -0.2901  0.0318 -0.1315
 7634SOL     OW34363   0.179   0.001   9.092 -0.4253 -1.0409 -0.5638
 7634SOL    HW134364   0.218   0.042   9.169 -3.5141 -0.5868  0.7488
 7634SOL    HW234365   0.161   0.072   9.031  1.3551  1.3042  1.6817
 7635SOL     OW34366   2.003   3.972   4.820  0.1505 -0.2917  0.3923
 7635SOL    HW134367   2.034   4.061   4.838  0.4597  0.0884 -1.9726
 7635SOL    HW234368   1.917   3.971   4.863 -0.3336 -0.0805 -0.5572
 7636SOL     OW34369   3.173   2.535   5.102 -0.1099  0.4207 -0.1000
 7636SOL    HW134370   3.110   2.581   5.159 -0.3452  0.4438 -0.3794
 7636SOL    HW234371   3.230   2.500   5.171 -2.7297  0.0982  1.9354
 7637SOL     OW34372   2.820   0.495  16.540 -0.1205 -0.4022 -0.6950
 7637SOL    HW134373   2.866   0.560  16.593 -0.9028 -0.5578  0.1842
 7637SOL    HW234374   2.777   0.552  16.477 -0.7639 -0.2321 -0.1017
 7638SOL     OW34375   3.325   1.844  15.413  0.5848  0.9521  0.3922
 7638SOL    HW134376   3.332   1.912  15.479  2.1211  1.5775 -0.4235
 7638SOL    HW234377   3.242   1.810  15.446  1.3567 -1.2709 -0.0071
 7639SOL     OW34378   3.023   3.243   1.752 -0.2417 -0.0047 -0.5539
 7639SOL    HW134379   2.995   3.331   1.777  1.1583  0.9368 -2.2756
 7639SOL    HW234380   3.068   3.211   1.830 -0.4532 -1.2781 -0.9418
 7640SOL     OW34381   2.684   1.440   3.861 -0.0316  0.0208  0.2271
 7640SOL    HW134382   2.695   1.524   3.815 -3.1608  0.1124 -0.3634
 7640SOL    HW234383   2.682   1.459   3.955  0.3645  0.0809  0.2243
 7641SOL     OW34384   2.108   1.030   1.701  0.4970  0.6250 -0.3694
 7641SOL    HW134385   2.046   1.091   1.662  0.3980  0.6026 -0.2465
 7641SOL    HW234386   2.103   0.952   1.645  0.0751  0.1762  0.2964
 7642SOL     OW34387   3.821   3.488  11.305 -0.3843 -0.3700 -0.5656
 7642SOL    HW134388   3.877   3.527  11.372 -1.7548 -1.0669  0.9735
 7642SOL    HW234389   3.871   3.509  11.226  2.3961 -2.5407  0.5879
 7643SOL     OW34390   1.866   0.286   7.725  0.2674 -0.2853  0.1875
 7643SOL    HW134391   1.959   0.275   7.707  0.3572  4.4107 -2.2903
 7643SOL    HW234392   1.867   0.329   7.810  1.4694  0.7962 -0.3703
 7644SOL     OW34393   0.515   3.664   2.928 -0.3445 -0.3049 -0.2040
 7644SOL    HW134394   0.602   3.630   2.907  0.8694  2.5391  0.2005
 7644SOL    HW234395   0.455   3.603   2.886  1.1281 -0.9780 -1.3277
 7645SOL     OW34396   0.340   0.461   5.989 -0.3428 -0.4223 -0.4455
 7645SOL    HW134397   0.414   0.491   5.935 -1.4766  1.5730 -0.8836
 7645SOL    HW234398   0.301   0.386   5.943  3.2458 -2.0086 -0.9124
 7646SOL     OW34399   1.457   1.820  15.899  0.2577  0.2399  0.2132
 7646SOL    HW134400   1.486   1.880  15.830  0.1215 -0.6694 -0.6381
 7646SOL    HW234401   1.362   1.830  15.892  0.6200  4.0020  0.2720
 7647SOL     OW34402   3.847   1.427   7.951 -0.3286 -0.3575  0.5089
 7647SOL    HW134403   3.940   1.418   7.974 -0.1361 -0.1375 -0.1946
 7647SOL    HW234404   3.806   1.378   8.022  0.8221 -0.1172  1.3396
 7648SOL     OW34405   0.927   3.641   1.434 -0.1714  0.0193  0.0231
 7648SOL    HW134406   0.953   3.672   1.521  0.5187  1.6358 -0.7694
 7648SOL    HW234407   0.876   3.564   1.460 -0.7723  0.5231  0.3230
 7649SOL     OW34408   4.565   2.221   8.455  0.2321  0.0258 -0.2727
 7649SOL    HW134409   4.587   2.268   8.536  1.7892  0.2134 -0.8128
 7649SOL    HW234410   4.621   2.144   8.456  0.4535  0.1907  0.0767
 7650SOL     OW34411   2.701   1.739   8.722 -0.2449  0.5821 -0.4694
 7650SOL    HW134412   2.656   1.805   8.774 -0.8386  0.3686 -0.7118
 7650SOL    HW234413   2.695   1.776   8.634  1.5863  1.4980 -0.2111
 7651SOL     OW34414   0.075   4.061   0.075 -0.8947 -0.2060 -0.3993
 7651SOL    HW134415   0.124   4.082  17.692  0.3737  0.7559  0.6326
 7651SOL    HW234416   0.099   3.975   0.108  3.4383  1.8360  1.7845
 7652SOL     OW34417   0.646   3.907  10.853  0.0257 -0.6449 -0.7936
 7652SOL    HW134418   0.583   3.924  10.923 -0.6398 -1.9795 -1.0845
 7652SOL    HW234419   0.728   3.919  10.900 -0.1415  0.1287 -0.6945
 7653SOL     OW34420   3.351   1.158   7.338  0.1758  0.1952 -0.1162
 7653SOL    HW134421   3.368   1.092   7.406  0.8850 -1.6756 -2.1355
 7653SOL    HW234422   3.318   1.097   7.272 -0.6044  0.2826  0.1805
 7654SOL     OW34423   0.264   0.430  11.655  0.2260  0.0757  0.4350
 7654SOL    HW134424   0.272   0.514  11.699  0.9882  1.4293 -2.2667
 7654SOL    HW234425   0.356   0.427  11.631 -0.0970  0.4694 -0.8677
 7655SOL     OW34426   3.452   1.863  10.701 -0.2674 -0.7924  0.3453
 7655SOL    HW134427   3.390   1.791  10.688  1.1505 -1.7629 -1.0486
 7655SOL    HW234428   3.389   1.933  10.721  1.7125  0.6724  1.3822
 7656SOL     OW34429   2.820   2.897   5.843  0.6440 -0.3325  0.0303
 7656SOL    HW134430   2.736   2.854   5.857 -0.0904  1.7614  2.0789
 7656SOL    HW234431   2.789   2.988   5.844  0.4006 -0.4242  0.9969
 7657SOL     OW34432   1.094   1.062   6.494  0.5707  0.1456 -0.6214
 7657SOL    HW134433   1.037   1.080   6.568  1.9209  2.1423 -0.0571
 7657SOL    HW234434   1.088   1.152   6.460  0.3137  0.6891  0.8701
 7658SOL     OW34435   3.706   1.212   4.834 -0.0450 -0.1191 -0.1442
 7658SOL    HW134436   3.627   1.170   4.800  0.8899 -1.0226 -1.2204
 7658SOL    HW234437   3.690   1.303   4.857 -0.6930 -0.7213  1.7883
 7659SOL     OW34438   0.657   3.700   6.810  0.3254  0.1124 -0.2370
 7659SOL    HW134439   0.697   3.613   6.809  1.4996  0.6559 -0.3429
 7659SOL    HW234440   0.729   3.745   6.855  1.0191  0.1853 -1.4230
 7660SOL     OW34441   2.870   2.676  13.590  0.0830  0.1827 -0.4916
 7660SOL    HW134442   2.898   2.597  13.543 -1.1063  0.2186 -1.2812
 7660SOL    HW234443   2.779   2.654  13.612 -0.1004  1.5770  0.1734
 7661SOL     OW34444   3.250   2.668   3.033  0.0742  0.4261  0.0724
 7661SOL    HW134445   3.164   2.633   3.055 -0.6456  1.6421 -0.7520
 7661SOL    HW234446   3.217   2.755   3.008  0.0802  0.3514 -0.1902
 7662SOL     OW34447   0.533   0.673   5.370  0.4675 -0.2150 -0.1593
 7662SOL    HW134448   0.566   0.759   5.395 -0.1245  0.3632 -1.3418
 7662SOL    HW234449   0.503   0.647   5.457  0.0724  0.2446 -0.1579
 7663SOL     OW34450   2.316   1.970   6.819  0.3106  0.7731  0.3244
 7663SOL    HW134451   2.389   1.970   6.757  0.0698  0.9244  0.0468
 7663SOL    HW234452   2.346   2.042   6.875  2.9391  0.8001 -1.0961
 7664SOL     OW34453   1.204   4.041   5.699  0.7908  0.5851 -0.1463
 7664SOL    HW134454   1.179   4.051   5.791 -0.7919  1.2256 -0.6337
 7664SOL    HW234455   1.290   4.081   5.710  1.5195 -1.1646  0.4508
 7665SOL     OW34456   0.306   1.311   1.878  0.3147  0.0744  0.4896
 7665SOL    HW134457   0.276   1.375   1.943 -0.4763 -0.5967  0.7845
 7665SOL    HW234458   0.312   1.229   1.927  0.0312 -0.5287 -0.4962
 7666SOL     OW34459   0.441   1.899  13.639  0.5893 -0.4209 -0.4264
 7666SOL    HW134460   0.403   1.812  13.645  0.2271 -0.3675 -1.9575
 7666SOL    HW234461   0.482   1.911  13.724 -0.7140  1.3877 -0.0389
 7667SOL     OW34462   1.008   2.296   7.768  0.3838 -0.4835 -0.1852
 7667SOL    HW134463   1.000   2.222   7.828 -1.4928  0.7271  1.0913
 7667SOL    HW234464   0.966   2.265   7.688 -2.5603  1.3959  0.6067
 7668SOL     OW34465   3.687   2.782  13.102 -0.0296  0.0546 -0.0390
 7668SOL    HW134466   3.707   2.735  13.183  1.7761  0.8531 -0.0170
 7668SOL    HW234467   3.743   2.734  13.040 -0.6199  2.0997 -2.1510
 7669SOL     OW34468   3.274   2.934   2.897  0.0094 -0.7006 -0.3660
 7669SOL    HW134469   3.259   2.861   2.837 -0.1096 -1.2568  0.3368
 7669SOL    HW234470   3.275   3.013   2.842 -1.4277  0.6655  1.5417
 7670SOL     OW34471   1.127   4.407  12.972  0.0832 -0.2235 -0.7086
 7670SOL    HW134472   1.144   4.314  12.961 -1.1061 -0.2091 -2.6170
 7670SOL    HW234473   1.215   4.438  12.951 -0.3002  1.0842 -0.3915
 7671SOL     OW34474   3.193   3.735  16.365 -0.0749  0.3456 -0.4513
 7671SOL    HW134475   3.149   3.777  16.439  0.0782 -0.5145  0.1360
 7671SOL    HW234476   3.188   3.640  16.371 -0.5731  0.3367 -1.0181
 7672SOL     OW34477   1.305   2.940  11.941  0.0872 -0.0554 -0.5078
 7672SOL    HW134478   1.390   2.980  11.958  0.0034 -0.9093  2.0098
 7672SOL    HW234479   1.254   2.976  12.014  1.3695  0.9891 -0.1315
 7673SOL     OW34480   3.107   2.763   0.584 -0.1508 -0.0802  0.1712
 7673SOL    HW134481   3.137   2.854   0.576  0.1707 -0.3453 -1.5072
 7673SOL    HW234482   3.042   2.764   0.515  0.0760  2.8953 -0.0045
 7674SOL     OW34483   3.955   1.985   1.867 -0.1435 -0.1927  0.1603
 7674SOL    HW134484   3.999   2.069   1.879 -0.2103 -0.2536  0.8479
 7674SOL    HW234485   3.935   1.960   1.957 -0.9449  2.2107  0.6615
 7675SOL     OW34486   4.587   4.133   8.315  0.0985  0.4227  0.1771
 7675SOL    HW134487   4.635   4.094   8.388 -1.1537 -1.4132  0.0157
 7675SOL    HW234488   4.504   4.085   8.317  1.2135 -1.5276 -0.7219
 7676SOL     OW34489   2.517   2.673   8.993 -0.6042 -0.5718  0.0084
 7676SOL    HW134490   2.568   2.723   8.930 -1.5326  0.4902  0.0757
 7676SOL    HW234491   2.526   2.733   9.068  2.9660  0.3741 -1.2095
 7677SOL     OW34492   0.034   0.611  15.928  0.5949 -0.1703 -0.2665
 7677SOL    HW134493   4.720   0.593  16.014 -1.0942  3.2785 -0.3026
 7677SOL    HW234494   0.048   0.705  15.932 -0.8171  0.0959 -1.8945
 7678SOL     OW34495   4.703   0.379  13.672  0.4525 -0.0431  1.2591
 7678SOL    HW134496   0.042   0.368  13.600  0.2657  0.0435  1.0846
 7678SOL    HW234497   4.639   0.443  13.641  1.8252  1.6723  1.8912
 7679SOL     OW34498   0.260   0.676   5.740  0.5611  0.5806  0.6483
 7679SOL    HW134499   0.173   0.637   5.740  1.0055 -0.4512  1.5819
 7679SOL    HW234500   0.257   0.711   5.829 -1.6002  0.4509  0.6266
 7680SOL     OW34501   3.997   3.489   3.066  0.0063 -0.0863  0.0367
 7680SOL    HW134502   3.912   3.455   3.038 -1.5012  2.2110  1.8605
 7680SOL    HW234503   4.030   3.498   2.977  2.4405  1.8242  1.1665
 7681SOL     OW34504   2.881   3.754  17.462  0.1499 -0.0704 -0.4237
 7681SOL    HW134505   2.950   3.752  17.396  2.5471 -1.7829  2.2003
 7681SOL    HW234506   2.811   3.694  17.435 -1.7962  0.8445  2.5124
 7682SOL     OW34507   0.188   3.494   3.603  0.2092  0.2621  0.2404
 7682SOL    HW134508   0.100   3.497   3.640 -0.5029  0.8714 -1.4947
 7682SOL    HW234509   0.176   3.551   3.526  1.0310  1.0156  0.6588
 7683SOL     OW34510   0.395   2.460   5.567  0.2669  0.0340 -0.3189
 7683SOL    HW134511   0.458   2.504   5.510 -0.3192  0.8663 -0.3225
 7683SOL    HW234512   0.319   2.440   5.511 -0.4607  0.2935  0.5704
 7684SOL     OW34513   4.032   4.719   8.259  0.2269 -0.0706 -0.5101
 7684SOL    HW134514   4.048   0.014   8.352  2.4196 -0.5236 -0.7776
 7684SOL    HW234515   3.978   4.640   8.251 -1.9341  1.3969 -0.2294
 7685SOL     OW34516   4.546   3.684   7.719  0.1395 -0.4359  0.0271
 7685SOL    HW134517   4.475   3.631   7.683 -0.8844  1.4110 -0.6644
 7685SOL    HW234518   4.525   3.675   7.812  1.2592  2.0144  0.5041
 7686SOL     OW34519   2.986   1.256   8.072  0.0276 -0.5270  0.3274
 7686SOL    HW134520   2.938   1.296   7.999 -0.3443  0.9077  1.3723
 7686SOL    HW234521   2.963   1.164   8.053 -1.3205 -0.0567 -0.3572
 7687SOL     OW34522   2.758   4.459  17.645 -0.2409  0.2883  0.1761
 7687SOL    HW134523   2.828   4.458  17.579  0.0286 -0.4285  0.4756
 7687SOL    HW234524   2.746   4.368  17.671  1.4379 -0.7564 -2.6515
 7688SOL     OW34525   0.102   3.571  16.744  0.0356 -0.4004 -0.3804
 7688SOL    HW134526   0.104   3.655  16.698  1.7740  0.9535  2.1430
 7688SOL    HW234527   0.026   3.536  16.698 -2.4526  1.4705  2.2582
 7689SOL     OW34528   3.840   4.000   3.071 -0.5463 -0.9344  0.5344
 7689SOL    HW134529   3.915   3.954   3.109 -0.3337 -0.6138  0.5003
 7689SOL    HW234530   3.782   4.026   3.143 -0.1803  2.3557 -0.3721
 7690SOL     OW34531   0.062   0.744   4.053 -0.1662 -0.0929  0.3363
 7690SOL    HW134532   0.046   0.712   3.964 -0.7442 -0.3975  0.5481
 7690SOL    HW234533   4.698   0.737   4.092  0.1982 -1.7189  0.8900
 7691SOL     OW34534   0.789   2.447  16.250  0.0939 -0.2337  0.0228
 7691SOL    HW134535   0.802   2.541  16.265  1.6949 -0.6420  1.1983
 7691SOL    HW234536   0.784   2.399  16.332 -1.3149  0.7001  0.4892
 7692SOL     OW34537   2.793   1.275  14.603 -0.3731  0.0306  0.2818
 7692SOL    HW134538   2.797   1.250  14.695  1.6675 -0.3646  0.0980
 7692SOL    HW234539   2.879   1.258  14.565 -1.6722  0.1627 -2.7243
 7693SOL     OW34540   0.089   0.696   9.065 -0.5259 -0.1329  0.3594
 7693SOL    HW134541   0.163   0.719   9.122 -0.9969  4.0467 -0.6770
 7693SOL    HW234542   0.015   0.748   9.097 -0.4975 -0.1283  0.4197
 7694SOL     OW34543   0.532   2.262   3.883 -0.0972 -0.0931 -0.6307
 7694SOL    HW134544   0.492   2.189   3.928 -1.5106 -0.3187 -2.2716
 7694SOL    HW234545   0.617   2.229   3.853 -0.0414 -1.5609  1.1458
 7695SOL     OW34546   2.795   0.860   4.847 -0.1734 -0.2885 -0.3142
 7695SOL    HW134547   2.862   0.827   4.907 -0.6973  0.2540  0.5637
 7695SOL    HW234548   2.719   0.810   4.878  0.5630 -1.2259 -0.0299
 7696SOL     OW34549   1.831   1.814   8.425 -0.6504  0.5319  0.0695
 7696SOL    HW134550   1.790   1.798   8.340 -1.2256  1.4213  0.1832
 7696SOL    HW234551   1.827   1.727   8.466  0.5878  0.1780 -0.5531
 7697SOL     OW34552   2.334   2.516   6.330  0.5858  0.1727 -0.0072
 7697SOL    HW134553   2.256   2.570   6.321 -0.0017 -0.1700  2.9444
 7697SOL    HW234554   2.396   2.586   6.351  0.9923  0.4122 -2.0334
 7698SOL     OW34555   4.434   3.782   5.217 -0.9474 -0.3873  0.4132
 7698SOL    HW134556   4.433   3.736   5.301  0.7391  0.7020  1.0294
 7698SOL    HW234557   4.489   3.727   5.162  0.1302 -1.6398  2.7357
 7699SOL     OW34558   2.057   1.050   8.685 -0.0602 -0.2721 -0.4254
 7699SOL    HW134559   2.048   1.078   8.776  2.1991  1.4666 -0.7425
 7699SOL    HW234560   1.986   0.987   8.672 -0.2685 -0.0559 -0.3333
 7700SOL     OW34561   3.986   3.160  12.490 -0.1923 -0.4043  0.5337
 7700SOL    HW134562   3.925   3.226  12.524  0.2054 -0.4484  1.3272
 7700SOL    HW234563   4.067   3.180  12.536 -0.2861 -0.7333  0.8385
 7701SOL     OW34564   2.652   4.312   3.300 -0.1528 -0.6398  0.1338
 7701SOL    HW134565   2.686   4.400   3.281 -0.9505 -0.1777  0.8307
 7701SOL    HW234566   2.575   4.312   3.243 -0.0940 -1.4611  0.0574
 7702SOL     OW34567   2.866   0.187   4.787  0.8727  0.0079  0.0678
 7702SOL    HW134568   2.828   0.271   4.813  0.2011 -0.7604  1.5718
 7702SOL    HW234569   2.787   0.134   4.769 -0.0049  1.7539 -1.2225
 7703SOL     OW34570   4.654   1.650   1.773 -0.3009  0.0136 -0.1989
 7703SOL    HW134571   4.711   1.646   1.850  0.2101  3.1960 -0.4313
 7703SOL    HW234572   4.625   1.740   1.785 -0.8908 -0.3179  0.8713
 7704SOL     OW34573   4.434   4.651  12.385 -0.4241 -0.7054 -0.1562
 7704SOL    HW134574   4.363   4.715  12.396  1.5616  1.7215 -1.4453
 7704SOL    HW234575   4.389   4.599  12.318  0.1202  0.1568 -1.1990
 7705SOL     OW34576   3.724   3.395  13.395 -0.0769 -0.0877  0.1405
 7705SOL    HW134577   3.804   3.446  13.379 -1.9793  3.0071  0.3505
 7705SOL    HW234578   3.656   3.460  13.417  0.4127  0.1951  0.8018
 7706SOL     OW34579   4.342   1.206   1.903 -0.0038 -0.0358  0.5671
 7706SOL    HW134580   4.380   1.250   1.827 -1.4576 -0.0482 -0.1534
 7706SOL    HW234581   4.291   1.275   1.945 -1.1435 -0.3703 -0.2726
 7707SOL     OW34582   4.064   0.986   6.035  0.2734  0.0478  0.8562
 7707SOL    HW134583   4.136   1.046   6.055  1.0158 -1.2514  2.0908
 7707SOL    HW234584   4.039   1.006   5.945 -0.3456 -0.9561  0.8062
 7708SOL     OW34585   2.469   4.024   7.424 -0.3958  0.3746  0.1214
 7708SOL    HW134586   2.496   3.975   7.346  3.0946  0.3369  1.3485
 7708SOL    HW234587   2.545   4.002   7.478  0.7581  0.3103 -1.5586
 7709SOL     OW34588   2.387   3.273   3.074 -0.4707  0.3956  0.0065
 7709SOL    HW134589   2.449   3.203   3.096 -0.5940  0.3019  0.0597
 7709SOL    HW234590   2.312   3.237   3.122 -0.6347 -1.0877 -1.3664
 7710SOL     OW34591   0.853   2.922  11.560 -0.2361  0.0239 -0.4065
 7710SOL    HW134592   0.801   2.845  11.538 -1.1778  0.9408 -1.4048
 7710SOL    HW234593   0.907   2.931  11.482  0.1273  0.1946 -0.1346
 7711SOL     OW34594   0.413   2.984   6.689  0.1642  0.2042 -0.0989
 7711SOL    HW134595   0.503   3.002   6.661  0.2386  0.5601  0.3676
 7711SOL    HW234596   0.400   2.904   6.639 -0.6216 -0.2109  0.7818
 7712SOL     OW34597   0.402   1.830   9.293  0.1831  0.4945  0.4411
 7712SOL    HW134598   0.437   1.742   9.309 -0.7570  0.4000  2.0137
 7712SOL    HW234599   0.334   1.810   9.229  0.5557 -0.4211  0.3368
 7713SOL     OW34600   2.957   0.756   3.006  0.0020  0.3341 -0.1117
 7713SOL    HW134601   3.045   0.754   2.969 -0.2604  0.3499 -0.7306
 7713SOL    HW234602   2.918   0.672   2.980  0.9756  0.3072 -1.4661
 7714SOL     OW34603   1.959   0.866   5.879 -0.2391 -0.0874  0.5493
 7714SOL    HW134604   1.938   0.928   5.948 -3.8604 -1.7065  0.8800
 7714SOL    HW234605   2.010   0.800   5.926  1.4056  0.9985  0.3182
 7715SOL     OW34606   4.350   4.465   8.066  0.0874  0.5597  0.4440
 7715SOL    HW134607   4.408   4.388   8.065  0.8126  1.1051  0.6013
 7715SOL    HW234608   4.414   4.533   8.087  0.7467  1.2118 -3.6048
 7716SOL     OW34609   4.283   4.026  13.173 -0.1375 -0.2947  0.1870
 7716SOL    HW134610   4.203   4.072  13.196  0.2843 -0.7069  2.4375
 7716SOL    HW234611   4.322   3.986  13.251  0.4271  0.4281  0.2686
 7717SOL     OW34612   3.504   3.332  11.423 -0.3678 -0.2728 -0.4990
 7717SOL    HW134613   3.590   3.372  11.410 -0.5761  0.1105 -0.6992
 7717SOL    HW234614   3.451   3.412  11.427  1.8720  1.1898  0.2110
 7718SOL     OW34615   0.055   3.164   9.939  0.7432  0.1540 -0.1568
 7718SOL    HW134616   4.705   3.105   9.954  0.6177  0.1949 -0.6106
 7718SOL    HW234617   0.077   3.192  10.028  1.2380 -0.3293 -0.1223
 7719SOL     OW34618   2.628   0.413   4.828  0.2567  0.0372  0.4969
 7719SOL    HW134619   2.649   0.468   4.752 -2.2369 -1.6884 -1.4490
 7719SOL    HW234620   2.554   0.362   4.796  1.5910 -2.4580  1.4157
 7720SOL     OW34621   0.171   1.859   1.679 -0.3988 -0.5143 -0.1233
 7720SOL    HW134622   0.250   1.806   1.689 -0.5408 -0.7694 -0.3604
 7720SOL    HW234623   0.131   1.821   1.601  1.5359 -0.0669 -1.3562
 7721SOL     OW34624   4.635   2.472  17.083 -0.9179  0.5844 -0.2639
 7721SOL    HW134625   4.554   2.523  17.076 -1.7012 -0.6783 -0.4429
 7721SOL    HW234626   4.606   2.394  17.035 -1.0547 -0.7639  2.0106
 7722SOL     OW34627   3.376   2.091   4.684 -0.3947 -0.2743  0.1409
 7722SOL    HW134628   3.322   2.168   4.671  1.1159  1.2006  2.5816
 7722SOL    HW234629   3.389   2.084   4.779  1.1829 -1.8622 -0.1802
 7723SOL     OW34630   1.890   1.011   7.008 -0.5851  0.4582  0.7174
 7723SOL    HW134631   1.984   0.997   6.996 -0.5907  1.5595 -0.6366
 7723SOL    HW234632   1.862   0.938   6.952 -1.4816  1.3778 -0.0319
 7724SOL     OW34633   3.324   0.907  17.344 -0.0687 -0.6945 -1.0326
 7724SOL    HW134634   3.356   0.890  17.433 -0.6103  0.3316 -0.6360
 7724SOL    HW234635   3.334   1.002  17.334  1.2451 -0.2261  4.5462
 7725SOL     OW34636   2.571   2.408  12.646 -0.0076 -0.0322  0.3441
 7725SOL    HW134637   2.650   2.454  12.675  0.5922 -0.1619 -1.0919
 7725SOL    HW234638   2.601   2.318  12.647 -0.6398 -0.2367  0.6519
 7726SOL     OW34639   4.328   0.943  11.734 -0.1118 -0.1835 -0.4882
 7726SOL    HW134640   4.296   1.032  11.721 -2.6112 -0.7917  1.4181
 7726SOL    HW234641   4.416   0.956  11.698  0.3779 -1.0549  0.3734
 7727SOL     OW34642   4.354   4.456   7.207 -0.1921  0.2501  0.1577
 7727SOL    HW134643   4.284   4.444   7.272  1.4638 -1.6501  1.5792
 7727SOL    HW234644   4.397   4.533   7.244 -0.1266 -0.3709  1.3888
 7728SOL     OW34645   0.861   4.689   1.557 -0.4923  0.1508 -0.5915
 7728SOL    HW134646   0.856   0.040   1.497  0.3858 -0.2183 -1.1207
 7728SOL    HW234647   0.781   4.640   1.540 -1.4703  1.6079 -0.2145
 7729SOL     OW34648   1.534   1.124  13.948  0.2045  0.0127 -0.6292
 7729SOL    HW134649   1.588   1.132  13.869 -0.4682 -0.4339 -1.1369
 7729SOL    HW234650   1.457   1.085  13.907 -2.4071  0.7785  3.5025
 7730SOL     OW34651   4.166   0.116   6.497  0.3623 -0.3812 -0.1967
 7730SOL    HW134652   4.189   0.025   6.513 -0.9747 -0.4024  1.5826
 7730SOL    HW234653   4.163   0.155   6.584  0.5110 -0.5280 -0.1266
 7731SOL     OW34654   1.664   4.213   8.774  0.0389 -0.2386  0.1216
 7731SOL    HW134655   1.691   4.172   8.856  2.8044  1.0636 -0.1586
 7731SOL    HW234656   1.695   4.303   8.778  1.9387 -0.8005 -2.0898
 7732SOL     OW34657   1.715   0.007  16.814  0.3642 -0.2527 -0.0949
 7732SOL    HW134658   1.788   0.070  16.810  1.4769 -1.6978 -2.2044
 7732SOL    HW234659   1.754   4.649  16.784 -1.7588 -0.9528 -0.8615
 7733SOL     OW34660   0.753   0.669   6.135  0.1421  0.1377 -0.6540
 7733SOL    HW134661   0.775   0.762   6.143  2.1932 -0.2636 -1.4190
 7733SOL    HW234662   0.691   0.674   6.062 -0.3731  1.4122 -0.1235
 7734SOL     OW34663   3.704   1.474   3.442 -0.0812  0.1229  0.5029
 7734SOL    HW134664   3.715   1.481   3.536 -1.0730  2.4994  0.4627
 7734SOL    HW234665   3.661   1.389   3.437 -1.1849  0.7390 -0.7411
 7735SOL     OW34666   0.255   0.794   1.926  0.8362  0.1741  0.4438
 7735SOL    HW134667   0.337   0.757   1.893  1.1464 -0.9430  2.5177
 7735SOL    HW234668   0.196   0.723   1.902  0.1533  1.0178 -0.3685
 7736SOL     OW34669   2.569   1.931   8.884  0.5511 -0.4964  0.1148
 7736SOL    HW134670   2.512   1.995   8.925 -1.0650 -1.4499 -0.6272
 7736SOL    HW234671   2.559   1.965   8.795 -0.2100  1.2012  0.8631
 7737SOL     OW34672   4.047   1.880   7.714  0.1667  0.1504 -0.9182
 7737SOL    HW134673   4.003   1.858   7.796 -0.2189  0.5682 -1.0105
 7737SOL    HW234674   3.978   1.936   7.678  0.1961 -0.2384 -1.5767
 7738SOL     OW34675   1.214   3.129   8.167 -0.2607  0.1106  0.7915
 7738SOL    HW134676   1.276   3.060   8.193  0.5246  0.0403 -1.3470
 7738SOL    HW234677   1.193   3.172   8.250 -2.4580  1.5056 -0.5121
 7739SOL     OW34678   3.140   3.440  11.233 -0.3274 -0.0936  0.2145
 7739SOL    HW134679   3.189   3.485  11.164  0.2527  0.7180  1.1514
 7739SOL    HW234680   3.167   3.348  11.230  0.7173  0.1878  0.7935
 7740SOL     OW34681   2.878   0.362  15.186 -0.1712 -0.6619 -0.2952
 7740SOL    HW134682   2.808   0.407  15.138 -0.0035  0.1767  0.2542
 7740SOL    HW234683   2.838   0.315  15.259 -0.5675 -1.0960 -0.7926
 7741SOL     OW34684   0.897   1.656   3.486  0.3310  0.1939 -0.8452
 7741SOL    HW134685   0.809   1.628   3.512  0.3315  0.5764 -0.4490
 7741SOL    HW234686   0.886   1.747   3.460 -0.3391  0.0414 -1.0978
 7742SOL     OW34687   3.042   3.435   7.786  0.0397 -0.2721 -0.2318
 7742SOL    HW134688   3.127   3.427   7.830  0.5008 -0.7833 -1.2153
 7742SOL    HW234689   2.986   3.465   7.857 -0.5758 -0.8444 -0.4764
 7743SOL     OW34690   2.705   2.742   7.102  0.1136  0.1941 -0.2024
 7743SOL    HW134691   2.649   2.813   7.134 -0.6786 -0.2305 -0.6454
 7743SOL    HW234692   2.778   2.744   7.164 -0.6959 -0.0833  0.7516
 7744SOL     OW34693   0.624   1.494   2.353  0.3916 -0.3186  0.1211
 7744SOL    HW134694   0.690   1.518   2.418 -0.5124  1.4100  0.4187
 7744SOL    HW234695   0.556   1.468   2.415 -0.4839  2.0763  0.1948
 7745SOL     OW34696   3.658   1.267   9.444  0.1410  0.0058 -0.1964
 7745SOL    HW134697   3.616   1.188   9.477 -0.6063  0.4237 -0.1554
 7745SOL    HW234698   3.635   1.330   9.512 -1.7661  0.6065 -1.4002
 7746SOL     OW34699   1.293   3.665   7.840  0.4548  0.2253  0.1924
 7746SOL    HW134700   1.218   3.632   7.890  0.3475  0.5819  0.2655
 7746SOL    HW234701   1.254   3.691   7.757 -1.8672 -0.9582  0.8951
 7747SOL     OW34702   2.592   0.510  17.466  0.4957  0.2345  0.2929
 7747SOL    HW134703   2.634   0.476  17.546 -0.6958  0.6869  1.1089
 7747SOL    HW234704   2.666   0.565  17.439  0.6159  0.3507  0.8545
 7748SOL     OW34705   4.391   4.589  11.483  0.5484 -0.1314  0.2670
 7748SOL    HW134706   4.365   4.605  11.392  1.5318  2.9732  0.5346
 7748SOL    HW234707   4.441   4.508  11.476  1.2875  0.3072  0.5039
 7749SOL     OW34708   2.519   2.742   5.006  0.0662 -0.0736  0.1783
 7749SOL    HW134709   2.509   2.791   4.924 -1.4056 -1.2493 -0.3409
 7749SOL    HW234710   2.563   2.811   5.056 -2.1568  1.8058 -0.4161
 7750SOL     OW34711   1.185   0.872   6.340 -0.0237 -0.1841  0.1831
 7750SOL    HW134712   1.167   0.953   6.388  2.2480  0.5577 -0.1942
 7750SOL    HW234713   1.170   0.808   6.410  0.5479 -1.5491 -0.9538
 7751SOL     OW34714   0.988   2.326  14.788  0.0275 -0.5025 -0.1045
 7751SOL    HW134715   1.063   2.321  14.848  0.3500 -1.5412 -0.6048
 7751SOL    HW234716   1.030   2.324  14.702 -0.5529  0.4163 -0.4155
 7752SOL     OW34717   4.504   1.996  11.946  0.1921  0.3340  0.1199
 7752SOL    HW134718   4.487   2.052  12.022  0.0069  0.7323 -0.2205
 7752SOL    HW234719   4.451   1.923  11.979 -0.5931  1.5619  1.5929
 7753SOL     OW34720   3.122   0.912   8.283 -0.6749 -0.4703  0.0361
 7753SOL    HW134721   3.070   0.932   8.205 -1.7804 -0.4670  0.7677
 7753SOL    HW234722   3.081   0.965   8.352 -0.1679  0.9082 -0.7169
 7754SOL     OW34723   3.483   2.440   8.759 -0.2823 -0.4568  0.2991
 7754SOL    HW134724   3.577   2.427   8.744 -0.3352 -0.2540 -0.2157
 7754SOL    HW234725   3.457   2.513   8.702  0.0308 -1.4947 -1.1774
 7755SOL     OW34726   0.150   1.740   5.875 -0.5396 -0.0204 -0.4793
 7755SOL    HW134727   0.159   1.689   5.956 -0.7098  1.1628  0.2836
 7755SOL    HW234728   0.235   1.733   5.830 -0.3933  0.9771 -0.3697
 7756SOL     OW34729   2.377   2.562  10.083  0.2465 -0.3241 -0.7926
 7756SOL    HW134730   2.305   2.579  10.023 -0.2242 -0.3577 -0.2373
 7756SOL    HW234731   2.362   2.468  10.093  1.1160 -0.2188  1.6267
 7757SOL     OW34732   2.668   0.250  14.761  0.0595  0.1891  0.5803
 7757SOL    HW134733   2.593   0.211  14.807  0.0087 -0.7533 -0.3215
 7757SOL    HW234734   2.741   0.260  14.821 -0.9070  0.2113  1.7548
 7758SOL     OW34735   3.873   3.020   9.130 -0.5550  0.6562  0.3093
 7758SOL    HW134736   3.873   3.106   9.088  2.4875  0.8761  0.7482
 7758SOL    HW234737   3.924   3.045   9.207 -0.9164  0.9003  0.4680
 7759SOL     OW34738   2.019   0.598   2.591 -0.4563  0.0882 -0.3047
 7759SOL    HW134739   1.969   0.584   2.510 -1.6566  0.5460  0.3535
 7759SOL    HW234740   1.960   0.665   2.626  1.2559 -0.0151  2.7163
 7760SOL     OW34741   1.937   0.786   7.301 -0.2383  0.0692 -0.3862
 7760SOL    HW134742   2.019   0.766   7.254 -0.9982 -0.0853 -1.6515
 7760SOL    HW234743   1.875   0.719   7.272  0.7290 -0.7517 -0.5709
 7761SOL     OW34744   4.490   4.585  11.148 -0.5669  0.6111 -0.3652
 7761SOL    HW134745   4.569   4.633  11.169  0.2792 -0.8102 -0.2728
 7761SOL    HW234746   4.503   4.552  11.059 -2.5661 -1.7310  0.1902
 7762SOL     OW34747   1.401   0.428   8.487 -0.4582  0.1827  0.2522
 7762SOL    HW134748   1.321   0.419   8.538  0.2021 -1.1304  1.0670
 7762SOL    HW234749   1.419   0.339   8.454  1.3644  0.1089  1.4542
 7763SOL     OW34750   1.653   3.007   7.764 -0.5089 -0.4147  0.3970
 7763SOL    HW134751   1.721   3.003   7.831 -0.2745 -1.5917  0.0883
 7763SOL    HW234752   1.566   3.016   7.802 -0.0014  1.6968  1.0630
 7764SOL     OW34753   3.725   0.225  16.483 -0.4091  0.0897 -0.3575
 7764SOL    HW134754   3.652   0.170  16.455  1.3481 -1.0203 -2.7699
 7764SOL    HW234755   3.789   0.214  16.413 -0.2185  2.7739 -0.6088
 7765SOL     OW34756   0.323   0.149   9.273 -0.1347  0.0516 -0.1510
 7765SOL    HW134757   0.263   0.157   9.348  4.0962  0.7691  3.1799
 7765SOL    HW234758   0.411   0.144   9.310  0.0427  0.4072 -0.5241
 7766SOL     OW34759   1.150   0.710   3.257 -0.2558  0.2020 -0.1868
 7766SOL    HW134760   1.158   0.659   3.176 -1.5336 -1.2636  0.5999
 7766SOL    HW234761   1.073   0.766   3.243 -1.4898 -1.6512 -0.8179
 7767SOL     OW34762   3.506   1.534   1.222 -0.0916 -0.6919 -0.6896
 7767SOL    HW134763   3.453   1.517   1.145  1.5551 -1.7667 -1.6005
 7767SOL    HW234764   3.587   1.485   1.202  0.8371  0.6024 -0.1137
 7768SOL     OW34765   3.464   1.345  16.989  0.6452  0.2572  0.0291
 7768SOL    HW134766   3.540   1.394  16.957  0.8137  0.1308  0.2314
 7768SOL    HW234767   3.496   1.308  17.071  0.2308  0.2178  0.1722
 7769SOL     OW34768   0.467   0.142   7.875  0.5687  0.2116 -0.7006
 7769SOL    HW134769   0.483   0.237   7.880 -0.1828  0.2875  0.4173
 7769SOL    HW234770   0.528   0.106   7.940  0.0590  1.6868  0.6085
 7770SOL     OW34771   1.359   2.231   4.820  0.1784  0.1841 -0.3377
 7770SOL    HW134772   1.399   2.261   4.737  2.6316  3.4423  2.0044
 7770SOL    HW234773   1.314   2.311   4.848  0.6160 -0.0973  1.1253
 7771SOL     OW34774   0.978   0.675   2.776  0.4550 -0.4341  0.4559
 7771SOL    HW134775   1.012   0.596   2.734  0.7648  0.2549 -0.6177
 7771SOL    HW234776   0.902   0.643   2.823  1.2570 -2.6707  0.2058
 7772SOL     OW34777   2.285   1.076   0.782  0.4583  0.7724  0.3294
 7772SOL    HW134778   2.252   1.053   0.869 -1.8657  1.4598 -0.3869
 7772SOL    HW234779   2.246   1.161   0.762  0.0967  0.2476 -1.1839
 7773SOL     OW34780   2.257   0.683   0.512  0.0892 -0.1021 -0.3353
 7773SOL    HW134781   2.210   0.642   0.585  0.7039  0.0012  0.1178
 7773SOL    HW234782   2.239   0.774   0.536  1.4233 -0.0351  0.4454
 7774SOL     OW34783   2.641   3.227  13.666  0.2308 -0.6318  0.5198
 7774SOL    HW134784   2.649   3.132  13.660 -1.9007 -0.8615  1.0335
 7774SOL    HW234785   2.722   3.255  13.625 -0.2604  0.1890  0.0995
 7775SOL     OW34786   0.011   3.297  14.153 -0.1974  0.0091  0.3324
 7775SOL    HW134787   4.666   3.354  14.186 -1.4575 -0.8334 -0.8249
 7775SOL    HW234788   4.724   3.220  14.208  0.3502 -0.5240 -0.2946
 7776SOL     OW34789   2.674   2.765  10.439  0.0823 -0.1010 -0.4394
 7776SOL    HW134790   2.688   2.845  10.390  0.4761  0.7877  1.1209
 7776SOL    HW234791   2.582   2.774  10.466 -0.0112 -0.3063 -0.6888
 7777SOL     OW34792   4.652   1.310  14.962 -0.1001  0.6467  0.0933
 7777SOL    HW134793   4.668   1.238  15.023 -1.9048  1.5601  1.6473
 7777SOL    HW234794   4.720   1.373  14.985  0.3581  0.4113 -0.6147
 7778SOL     OW34795   3.677   2.199   2.515  0.4358 -0.3410  0.6113
 7778SOL    HW134796   3.660   2.176   2.607  3.3997  1.4361  1.6066
 7778SOL    HW234797   3.742   2.268   2.526  1.2096 -0.9734 -0.0397
 7779SOL     OW34798   1.696   1.201   5.402 -0.0226  0.0272 -0.3590
 7779SOL    HW134799   1.644   1.247   5.337 -1.7768 -0.7544  0.4786
 7779SOL    HW234800   1.783   1.193   5.363 -0.3263 -3.0667 -0.4095
 7780SOL     OW34801   3.698   0.468   2.826 -0.2462  0.0066 -0.2139
 7780SOL    HW134802   3.630   0.491   2.763 -0.9859 -0.1943  0.5074
 7780SOL    HW234803   3.645   0.441   2.901  0.2500  0.0386  0.1469
 7781SOL     OW34804   1.475   2.378   4.369  0.2401  0.3455  0.3833
 7781SOL    HW134805   1.395   2.325   4.364  0.1726  0.5944 -1.1955
 7781SOL    HW234806   1.503   2.374   4.277  0.4384 -1.2947  0.5036
 7782SOL     OW34807   0.960   2.154   6.949  0.3649  0.4128  0.0538
 7782SOL    HW134808   1.037   2.206   6.928  1.3962 -0.9669  0.4128
 7782SOL    HW234809   0.940   2.212   7.023 -0.1890 -0.8427  0.8885
 7783SOL     OW34810   2.313   3.164  16.721 -0.8471 -0.4562 -0.1935
 7783SOL    HW134811   2.249   3.103  16.758 -0.5925  0.3807  1.6337
 7783SOL    HW234812   2.292   3.248  16.763  2.0469 -0.2537  0.8321
 7784SOL     OW34813   3.448   1.496  10.608 -0.5118 -0.0682 -0.4511
 7784SOL    HW134814   3.428   1.484  10.701  0.6882 -0.6127 -0.2625
 7784SOL    HW234815   3.513   1.427  10.592 -0.6520  0.0919 -1.7095
 7785SOL     OW34816   0.304   3.923   6.203  0.4740 -0.3311 -0.1105
 7785SOL    HW134817   0.341   3.980   6.136  0.5751 -0.5980 -0.2801
 7785SOL    HW234818   0.282   3.849   6.147 -0.9790  0.3892 -0.4786
 7786SOL     OW34819   0.591   3.085   2.796  0.5997  0.4151 -0.3410
 7786SOL    HW134820   0.633   3.000   2.803  1.0100  0.5449 -1.2624
 7786SOL    HW234821   0.591   3.116   2.886  2.2408  0.6401 -0.4250
 7787SOL     OW34822   4.585   4.456   2.099  0.0704 -0.0289 -0.0419
 7787SOL    HW134823   4.524   4.530   2.099  0.1084  0.0118 -1.3507
 7787SOL    HW234824   4.633   4.473   2.179  2.2274 -1.1408 -1.0932
 7788SOL     OW34825   1.289   0.611  11.759 -0.0388 -0.5093  0.3041
 7788SOL    HW134826   1.241   0.608  11.842  0.0996  0.8964  0.4430
 7788SOL    HW234827   1.284   0.521  11.728 -2.1453 -0.2948  0.0222
 7789SOL     OW34828   1.299   3.198  10.491  0.0285 -0.4853  0.0419
 7789SOL    HW134829   1.274   3.262  10.559 -1.9682  0.2823 -1.4054
 7789SOL    HW234830   1.360   3.257  10.446 -0.3253  0.3822  0.6884
 7790SOL     OW34831   0.165   2.675  14.469  0.5174  0.8110  0.8090
 7790SOL    HW134832   0.204   2.616  14.404  0.9013  1.9659 -0.0151
 7790SOL    HW234833   0.238   2.737  14.466 -0.3598  1.8404  0.6661
 7791SOL     OW34834   2.907   3.438  14.113 -0.0185 -0.2955  0.5313
 7791SOL    HW134835   2.983   3.472  14.066 -0.3330 -1.7183 -1.0050
 7791SOL    HW234836   2.841   3.499  14.079 -0.1545 -0.7987 -0.1174
 7792SOL     OW34837   3.606   3.951   4.992 -0.2199 -0.2191  0.4116
 7792SOL    HW134838   3.572   3.863   4.975 -1.1208 -0.0909  1.5917
 7792SOL    HW234839   3.698   3.937   4.967 -0.4675 -0.6887 -0.2069
 7793SOL     OW34840   0.719   2.375   4.549  0.0231 -0.5961  0.1071
 7793SOL    HW134841   0.667   2.443   4.506 -1.6006 -0.0562  2.9016
 7793SOL    HW234842   0.804   2.418   4.551  0.6743 -1.8563 -0.3113
 7794SOL     OW34843   1.658   3.685   5.389  0.2879  0.0664 -0.3970
 7794SOL    HW134844   1.745   3.643   5.383  1.0892  1.2707  3.3589
 7794SOL    HW234845   1.612   3.621   5.334  2.4808  0.0992 -2.3064
 7795SOL     OW34846   0.396   4.542   9.653 -0.0184  0.6302  0.8653
 7795SOL    HW134847   0.382   4.588   9.736 -0.4303  0.8105  0.6956
 7795SOL    HW234848   0.487   4.512   9.657 -0.5910 -0.9762  1.9135
 7796SOL     OW34849   3.372   0.187   8.937 -0.0964  0.3730 -0.3234
 7796SOL    HW134850   3.454   0.171   8.983 -0.5485  0.1035  0.3766
 7796SOL    HW234851   3.304   0.136   8.980  0.1546  1.7696  1.7204
 7797SOL     OW34852   0.877   4.417   0.858  0.4454 -0.0304 -0.4580
 7797SOL    HW134853   0.889   4.323   0.870 -1.1065 -0.0682  0.7689
 7797SOL    HW234854   0.948   4.446   0.916  1.6889 -1.4297 -1.2560
 7798SOL     OW34855   2.643   1.271   6.200 -0.5965  0.6719  0.4528
 7798SOL    HW134856   2.597   1.301   6.278  0.9290 -2.6112  2.6247
 7798SOL    HW234857   2.568   1.220   6.168 -0.4512 -0.2023  1.5221
 7799SOL     OW34858   4.136   3.518   4.226  0.1628 -0.2799  0.0088
 7799SOL    HW134859   4.169   3.553   4.144 -0.5011 -0.5514 -0.3709
 7799SOL    HW234860   4.212   3.468   4.257  0.8132  1.3990  1.1225
 7800SOL     OW34861   2.850   3.450  15.495  0.5128 -0.4829  0.2280
 7800SOL    HW134862   2.940   3.476  15.474  0.3652 -0.6645 -0.6123
 7800SOL    HW234863   2.880   3.378  15.551 -0.7651 -0.7640  0.5504
 7801SOL     OW34864   1.225   4.161  12.885 -0.2821  0.2989 -0.0682
 7801SOL    HW134865   1.148   4.119  12.922  0.1302  0.7848  1.3580
 7801SOL    HW234866   1.217   4.141  12.792 -1.2951 -0.3855  0.1681
 7802SOL     OW34867   2.947   4.539  15.442 -0.7651  0.0153  0.1843
 7802SOL    HW134868   2.997   4.540  15.361  0.8755  3.4315  1.2481
 7802SOL    HW234869   2.875   4.595  15.412 -0.8502 -0.2333 -0.0732
 7803SOL     OW34870   1.975   3.819   3.162  0.1124  0.0447  0.4752
 7803SOL    HW134871   1.980   3.800   3.256  2.2260  0.5586  0.4615
 7803SOL    HW234872   2.068   3.821   3.137 -0.0927 -1.7103 -0.4985
 7804SOL     OW34873   1.061   2.067   5.331  0.4686  0.0850  0.0525
 7804SOL    HW134874   1.135   2.056   5.271 -0.5675 -0.9769 -1.0325
 7804SOL    HW234875   0.991   2.031   5.277  0.2584 -1.1452  1.1315
 7805SOL     OW34876   3.463   2.536   3.110 -0.2395 -0.0468 -0.2244
 7805SOL    HW134877   3.388   2.578   3.068 -0.3461 -0.4417 -0.4307
 7805SOL    HW234878   3.529   2.603   3.093  0.6918 -0.2545  2.5382
 7806SOL     OW34879   0.611   3.069   7.048  0.1124  0.1071 -0.5639
 7806SOL    HW134880   0.690   3.037   7.003  0.3784 -0.9813  0.6859
 7806SOL    HW234881   0.631   3.162   7.033  0.5231  0.0335 -0.4723
 7807SOL     OW34882   0.221   1.723   3.913 -0.5422  0.4536 -0.0106
 7807SOL    HW134883   0.178   1.638   3.926 -1.2237  0.4795 -2.0759
 7807SOL    HW234884   0.197   1.755   3.826  0.4313  0.1937 -0.3747
 7808SOL     OW34885   1.529   3.558   8.126  0.0065  0.6442 -0.0968
 7808SOL    HW134886   1.502   3.643   8.159 -0.3221  0.7550 -0.6406
 7808SOL    HW234887   1.582   3.522   8.197 -1.2773 -1.2710 -0.1239
 7809SOL     OW34888   3.275   0.173   8.144  0.6687 -0.0709 -0.1317
 7809SOL    HW134889   3.262   0.206   8.233 -1.7449  2.0204 -1.2513
 7809SOL    HW234890   3.245   0.082   8.142 -0.1468  0.1356  2.9827
 7810SOL     OW34891   2.706   0.942  16.476 -0.0870 -0.2085 -0.0272
 7810SOL    HW134892   2.799   0.929  16.460  0.3422  3.8820 -0.8663
 7810SOL    HW234893   2.684   0.862  16.428 -2.1130  0.4882 -0.2652
 7811SOL     OW34894   2.167   0.701   7.847  0.2807  0.7079  0.0841
 7811SOL    HW134895   2.127   0.654   7.774  0.3006  1.3121 -0.3154
 7811SOL    HW234896   2.214   0.628   7.887  1.2678  1.5346  0.4516
 7812SOL     OW34897   2.217   1.931   9.427 -0.1226  0.2952 -0.8063
 7812SOL    HW134898   2.267   1.923   9.346  1.0446  0.9486 -0.1574
 7812SOL    HW234899   2.137   1.895   9.388  1.2697 -2.7096 -0.8593
 7813SOL     OW34900   4.322   2.494  16.141  0.1268 -1.0213  0.4908
 7813SOL    HW134901   4.245   2.514  16.088  1.3323  2.1592 -0.0351
 7813SOL    HW234902   4.299   2.551  16.215  1.2873  1.4450 -1.0788
 7814SOL     OW34903   3.660   3.560  12.774 -0.5788  0.0048  0.3754
 7814SOL    HW134904   3.626   3.632  12.827 -0.3809 -0.8463  1.6335
 7814SOL    HW234905   3.579   3.537  12.728  0.8314 -0.3202 -2.0000
 7815SOL     OW34906   1.477   3.624   6.255 -0.0860 -0.3701  0.0198
 7815SOL    HW134907   1.533   3.660   6.187 -0.6116  1.7862  0.7162
 7815SOL    HW234908   1.449   3.545   6.209 -1.5696  0.5097 -0.5885
 7816SOL     OW34909   1.270   1.796   0.745  0.4507 -0.0573  0.4296
 7816SOL    HW134910   1.330   1.853   0.697  2.3475 -1.7894  0.7345
 7816SOL    HW234911   1.184   1.818   0.709  0.8529  1.4039  0.3556
 7817SOL     OW34912   0.053   2.041   2.255  0.2512  0.2524  0.6627
 7817SOL    HW134913   0.081   2.058   2.165 -1.4635  0.0732  0.0996
 7817SOL    HW234914   0.107   1.963   2.269  1.7539  1.3217  0.8145
 7818SOL     OW34915   2.415   0.636   3.805  0.1327 -0.1333 -0.4513
 7818SOL    HW134916   2.460   0.619   3.722  1.2687  4.4591 -0.8233
 7818SOL    HW234917   2.367   0.555   3.819  1.4776 -1.1252 -1.4963
 7819SOL     OW34918   3.993   2.940   5.410 -0.2317 -0.3020  0.2374
 7819SOL    HW134919   3.928   3.010   5.396  0.8106  0.9980  1.7967
 7819SOL    HW234920   4.033   2.977   5.489 -0.5346  2.6423 -0.9904
 7820SOL     OW34921   1.924   4.480   0.883 -0.0506 -0.2210  0.0885
 7820SOL    HW134922   1.903   4.399   0.838 -1.5895  1.4304 -2.1893
 7820SOL    HW234923   2.017   4.472   0.905  0.2772  2.1534 -0.4417
 7821SOL     OW34924   2.577   1.352   8.909 -0.0125  0.5831 -0.1403
 7821SOL    HW134925   2.631   1.320   8.836 -0.0907 -1.0784  0.5243
 7821SOL    HW234926   2.633   1.422   8.943 -0.2132  1.1143 -0.9060
 7822SOL     OW34927   0.750   1.932   5.629  0.1873  0.5253 -0.1931
 7822SOL    HW134928   0.709   1.846   5.631 -0.8983  1.0157 -1.3039
 7822SOL    HW234929   0.709   1.972   5.553 -0.1477  0.0627 -0.2581
 7823SOL     OW34930   4.437   2.720   5.779  0.3661  0.2981 -0.2182
 7823SOL    HW134931   4.392   2.639   5.804 -0.1874  0.7357  0.1942
 7823SOL    HW234932   4.399   2.783   5.839 -0.4485  0.8485 -1.3179
 7824SOL     OW34933   2.032   1.103   3.650 -0.2998  0.2264  0.0687
 7824SOL    HW134934   1.991   1.066   3.728 -0.4667 -0.5042 -0.3652
 7824SOL    HW234935   1.964   1.094   3.582 -0.6049 -1.6904  0.6453
 7825SOL     OW34936   3.228   4.349  16.249 -0.3464  0.5704 -0.6626
 7825SOL    HW134937   3.301   4.331  16.190  2.6066  0.9997  2.8247
 7825SOL    HW234938   3.251   4.427  16.300 -0.2515 -0.7351  1.3153
 7826SOL     OW34939   2.229   3.061   6.879  0.6108  0.3744  0.1591
 7826SOL    HW134940   2.222   3.049   6.974  0.8864 -1.1710 -0.0288
 7826SOL    HW234941   2.152   3.012   6.854  1.2299 -1.2526  1.4594
 7827SOL     OW34942   3.048   2.720   6.407  0.3569  0.2726  0.0556
 7827SOL    HW134943   3.114   2.782   6.438 -0.4936  2.2628 -2.0239
 7827SOL    HW234944   3.097   2.650   6.365 -1.2961 -0.9558  0.1869
 7828SOL     OW34945   4.148   0.495   7.878  0.4446 -0.5815 -0.0849
 7828SOL    HW134946   4.121   0.525   7.792 -0.0250  0.0095  0.2712
 7828SOL    HW234947   4.107   0.408   7.886 -1.1999  0.0926 -1.3051
 7829SOL     OW34948   2.283   1.511   3.247  0.1693  0.0058  0.2523
 7829SOL    HW134949   2.296   1.422   3.216 -0.4320  0.4054 -1.1427
 7829SOL    HW234950   2.363   1.532   3.296 -0.4616  0.6570  1.0114
 7830SOL     OW34951   1.124   4.019   1.546 -0.2574 -0.1791  0.3205
 7830SOL    HW134952   1.213   3.989   1.565 -0.5260 -1.1385  0.0828
 7830SOL    HW234953   1.126   4.114   1.555  0.3349 -0.2010  0.4211
 7831SOL     OW34954   4.104   3.528   5.354  0.6539 -0.3997  0.7395
 7831SOL    HW134955   4.017   3.489   5.357  0.2703  0.3495 -0.4945
 7831SOL    HW234956   4.093   3.606   5.299 -3.2636 -1.2790  0.3017
 7832SOL     OW34957   4.650   1.420   4.979  0.1357  0.0375  0.3436
 7832SOL    HW134958   4.674   1.357   4.911 -1.3512  0.8249 -0.9195
 7832SOL    HW234959   4.659   1.502   4.930 -2.4787  1.2286  1.8621
 7833SOL     OW34960   0.805   3.710   2.634  0.8606  0.2330  0.2675
 7833SOL    HW134961   0.740   3.755   2.689 -0.1377  1.4767 -1.9035
 7833SOL    HW234962   0.765   3.628   2.604  0.1571 -0.3024  2.7327
 7834SOL     OW34963   1.287   3.731   4.767 -0.3716 -0.3069 -0.6354
 7834SOL    HW134964   1.348   3.678   4.716 -0.8227 -0.3923 -1.0832
 7834SOL    HW234965   1.208   3.708   4.720 -1.2896 -0.4906  1.0045
 7835SOL     OW34966   2.735   4.187   1.725  0.3471 -0.1918 -0.1133
 7835SOL    HW134967   2.697   4.193   1.813  0.3664 -0.4404 -0.0900
 7835SOL    HW234968   2.698   4.266   1.685 -0.6599 -1.1538 -1.0904
 7836SOL     OW34969   3.055   1.972   4.318 -0.7360 -0.4359 -0.8015
 7836SOL    HW134970   3.031   2.047   4.264 -0.1268  0.2079 -0.1768
 7836SOL    HW234971   3.141   1.993   4.353  0.0753 -1.9482 -1.9055
 7837SOL     OW34972   0.731   2.758   2.887  0.6359  0.4402 -0.3388
 7837SOL    HW134973   0.700   2.721   2.970 -0.4699  1.6832 -0.1995
 7837SOL    HW234974   0.721   2.682   2.829 -2.0548  1.5247 -1.2977
 7838SOL     OW34975   0.020   1.775   6.783  0.0779  0.2997  0.1351
 7838SOL    HW134976   0.089   1.751   6.845  0.0320 -0.5300 -0.1445
 7838SOL    HW234977   0.025   1.870   6.794  0.1162  0.5037 -1.7797
 7839SOL     OW34978   4.308   0.894  16.462 -0.8920 -0.0746 -0.4690
 7839SOL    HW134979   4.290   0.843  16.383 -1.0996 -0.9524  0.1370
 7839SOL    HW234980   4.287   0.829  16.530  0.2813 -1.1464 -1.1270
 7840SOL     OW34981   3.875   2.748   2.449 -0.2895 -0.5482  0.1599
 7840SOL    HW134982   3.962   2.710   2.459  0.1638 -0.1564 -2.2815
 7840SOL    HW234983   3.894   2.794   2.367 -0.2984  0.4635  0.7194
 7841SOL     OW34984   1.671   1.079   3.233 -0.2349 -0.2334 -0.0362
 7841SOL    HW134985   1.615   1.002   3.223 -0.2908 -0.1921 -0.0399
 7841SOL    HW234986   1.601   1.118   3.286  0.1421  2.0505 -1.2358
 7842SOL     OW34987   0.953   0.517   4.690  0.4343 -0.2687  0.4718
 7842SOL    HW134988   0.879   0.468   4.656  0.9210 -1.3162  0.9158
 7842SOL    HW234989   0.964   0.587   4.625  0.7718 -0.2074  0.5932
 7843SOL     OW34990   4.144   0.760   7.457 -0.2401  0.7829 -0.5132
 7843SOL    HW134991   4.169   0.850   7.436  0.2711  0.7294 -0.1477
 7843SOL    HW234992   4.144   0.727   7.367 -2.2861  1.5258 -0.7680
 7844SOL     OW34993   2.568   1.078   2.384  0.3430 -0.3232 -0.2777
 7844SOL    HW134994   2.496   1.047   2.329  0.5062 -0.0568 -0.6486
 7844SOL    HW234995   2.559   1.019   2.459  1.7727  0.2861  0.3595
 7845SOL     OW34996   1.696   0.671   6.155  0.3472  0.0217  0.2923
 7845SOL    HW134997   1.701   0.617   6.076 -2.2615 -1.1902  0.9510
 7845SOL    HW234998   1.681   0.759   6.119  2.3083  0.7812  1.3546
 7846SOL     OW34999   2.622   4.383   1.595  0.0220 -0.1727  0.0026
 7846SOL    HW135000   2.619   4.362   1.502 -1.4314  2.9861 -0.6629
 7846SOL    HW235001   2.601   4.476   1.589  1.3950 -0.0185 -2.2374
 7847SOL     OW35002   4.219   2.571  13.666  0.1245  0.1288 -0.2889
 7847SOL    HW135003   4.246   2.483  13.690  0.1034 -0.2947 -1.7810
 7847SOL    HW235004   4.245   2.572  13.574  2.7825  0.7072  0.4735
 7848SOL     OW35005   3.444   4.317  15.009  0.3728  0.3292  0.0824
 7848SOL    HW135006   3.498   4.254  15.056  0.8986  0.5030 -0.2972
 7848SOL    HW235007   3.507   4.356  14.949 -3.1534 -0.6018 -4.2474
 7849SOL     OW35008   0.874   4.120   2.367  0.4221 -0.2441  0.0357
 7849SOL    HW135009   0.939   4.075   2.313  0.7001  0.3113 -0.0974
 7849SOL    HW235010   0.867   4.205   2.324  1.3007 -1.6534 -2.9160
 7850SOL     OW35011   4.643   0.715  13.091 -0.2940 -0.0944 -0.2715
 7850SOL    HW135012   4.559   0.736  13.133 -1.4160 -0.3554 -2.3454
 7850SOL    HW235013   4.688   0.695  13.173  0.4559 -2.7131 -1.3414
 7851SOL     OW35014   3.676   3.205   6.165 -0.9447 -0.2641 -0.5313
 7851SOL    HW135015   3.598   3.152   6.153 -0.7413 -0.7360  0.1776
 7851SOL    HW235016   3.696   3.197   6.259  0.2211 -2.1055 -0.9428
 7852SOL     OW35017   2.729   3.727   2.501 -0.0794 -0.0360  0.3705
 7852SOL    HW135018   2.679   3.746   2.580  0.6578 -0.4845  0.9426
 7852SOL    HW235019   2.684   3.786   2.440 -0.8419 -1.2929 -0.2671
 7853SOL     OW35020   3.652   1.086   1.643  0.0480  0.2119 -0.3204
 7853SOL    HW135021   3.560   1.085   1.672  0.5903  2.3582  1.3630
 7853SOL    HW235022   3.663   1.173   1.606 -1.0234 -0.6114 -2.6202
 7854SOL     OW35023   1.178   0.887   2.848  0.3593 -0.0962  0.0300
 7854SOL    HW135024   1.111   0.818   2.844 -1.1568  1.4930 -1.7234
 7854SOL    HW235025   1.161   0.931   2.765  0.2389  0.6472  0.4527
 7855SOL     OW35026   3.114   0.937   1.587 -0.3222 -0.2231  0.1227
 7855SOL    HW135027   3.050   0.881   1.542 -1.2399  0.6061  0.3928
 7855SOL    HW235028   3.079   0.944   1.676 -0.9361 -1.5973 -0.0103
 7856SOL     OW35029   1.755   0.216  14.604 -0.0453  0.4486  0.0251
 7856SOL    HW135030   1.786   0.233  14.515  0.1265 -1.1374 -0.2285
 7856SOL    HW235031   1.697   0.143  14.582  1.4091  0.1729 -2.9339
 7857SOL     OW35032   4.157   1.297  12.849 -0.4685 -0.4815 -0.1023
 7857SOL    HW135033   4.129   1.264  12.935 -1.8282  1.6533  0.2790
 7857SOL    HW235034   4.122   1.385  12.859  1.9344  0.5283 -0.6577
 7858SOL     OW35035   1.700   2.466   4.759  0.1408  0.2443  0.3698
 7858SOL    HW135036   1.625   2.521   4.784 -0.6704 -1.0393  0.7194
 7858SOL    HW235037   1.758   2.508   4.823  0.4405 -2.1130  1.6134
 7859SOL     OW35038   4.486   0.616   6.628  0.1157 -0.3151 -0.0594
 7859SOL    HW135039   4.557   0.556   6.604 -0.1909 -0.3429 -0.9241
 7859SOL    HW235040   4.516   0.648   6.712  0.7515  3.3131 -1.6736
 7860SOL     OW35041   2.168   0.303  13.889 -0.0061 -0.3470 -0.3578
 7860SOL    HW135042   2.210   0.323  13.806 -0.2649 -0.9639 -0.6324
 7860SOL    HW235043   2.150   0.389  13.929 -2.1684 -1.2777  0.6640
 7861SOL     OW35044   2.513   4.285   6.039  0.0545  0.2852 -0.6871
 7861SOL    HW135045   2.418   4.301   6.034 -0.2614 -0.9227  1.2140
 7861SOL    HW235046   2.524   4.222   5.968  1.4238 -1.4944  1.1031
 7862SOL     OW35047   4.170   3.658  13.515 -0.5806  0.0583 -0.1204
 7862SOL    HW135048   4.251   3.610  13.530  0.6518  1.1233 -3.3105
 7862SOL    HW235049   4.181   3.734  13.571 -1.9466 -2.4017  3.5155
 7863SOL     OW35050   0.428   1.663   5.164 -0.4736  0.5255  0.2763
 7863SOL    HW135051   0.481   1.721   5.110  0.1151  3.1167  3.6963
 7863SOL    HW235052   0.378   1.738   5.197 -2.6089  0.0309 -1.8002
 7864SOL     OW35053   1.816   0.069   4.738 -0.5245  0.2070  0.2606
 7864SOL    HW135054   1.871   0.052   4.662  0.8273 -0.1293  1.3020
 7864SOL    HW235055   1.731   0.044   4.703 -0.8911  0.4689  0.9566
 7865SOL     OW35056   4.284   3.320   6.363  0.7526  0.5609 -0.2211
 7865SOL    HW135057   4.377   3.315   6.386  0.6976  1.7816  0.2777
 7865SOL    HW235058   4.283   3.369   6.281 -2.8434  0.3730 -0.2665
 7866SOL     OW35059   0.254   3.154   7.897 -0.0445  0.2395 -0.0328
 7866SOL    HW135060   0.245   3.249   7.888 -3.1353 -0.1662 -1.4144
 7866SOL    HW235061   0.179   3.145   7.955 -0.4669 -2.1510 -0.9594
 7867SOL     OW35062   2.349   1.546   7.592  0.6722 -0.5789  0.2171
 7867SOL    HW135063   2.292   1.471   7.609  0.4125 -0.4012  0.1316
 7867SOL    HW235064   2.429   1.510   7.554 -0.6616 -0.5806 -2.5510
 7868SOL     OW35065   1.108   0.660   5.240 -0.3352  0.1419  0.6342
 7868SOL    HW135066   1.016   0.636   5.256 -0.6277  1.8836  1.5763
 7868SOL    HW235067   1.105   0.666   5.145 -1.1116 -3.5457  0.3942
 7869SOL     OW35068   3.227   1.401   8.386  0.2901  0.2219 -0.0630
 7869SOL    HW135069   3.283   1.416   8.310 -0.5412 -0.3374 -0.7921
 7869SOL    HW235070   3.194   1.487   8.413 -2.7340  0.1796 -3.5645
 7870SOL     OW35071   4.584   3.119  12.941 -0.1041  0.4600  0.1481
 7870SOL    HW135072   4.515   3.169  12.896  0.8083  0.6992 -0.9880
 7870SOL    HW235073   4.637   3.107  12.862  0.9106 -2.6896  1.3149
 7871SOL     OW35074   4.686   0.979   0.020  0.2476 -0.2012  0.3525
 7871SOL    HW135075   4.594   1.004   0.035 -0.3473  0.3939 -4.4878
 7871SOL    HW235076   4.700   0.932   0.102 -0.6306 -2.3475 -0.7391
 7872SOL     OW35077   1.097   0.088   2.953 -0.4027 -0.0105  1.1966
 7872SOL    HW135078   1.163   0.089   2.883 -1.8644 -0.2815 -0.1945
 7872SOL    HW235079   1.023   0.042   2.913  1.1189 -0.2248 -1.3443
 7873SOL     OW35080   2.878   4.109   4.584 -0.4709 -0.6212 -0.5145
 7873SOL    HW135081   2.875   4.195   4.542  2.6267  0.1895  0.8767
 7873SOL    HW235082   2.843   4.130   4.670  1.3556  0.6396 -0.0781
 7874SOL     OW35083   1.996   3.079  12.996  0.7264  0.4130 -0.2850
 7874SOL    HW135084   2.032   3.028  13.070  2.2657 -0.3178 -1.5302
 7874SOL    HW235085   1.947   3.147  13.042 -0.1231 -0.1081 -0.4392
 7875SOL     OW35086   1.039   2.989  11.769  0.2087 -0.2973  0.7922
 7875SOL    HW135087   1.012   3.054  11.834 -1.6604  0.4906 -0.7734
 7875SOL    HW235088   0.980   3.003  11.695 -1.0179 -1.3254  1.5614
 7876SOL     OW35089   3.439   3.001   2.213 -0.8317 -0.3448 -0.2017
 7876SOL    HW135090   3.375   3.000   2.284 -0.5184  0.2124  0.0935
 7876SOL    HW235091   3.414   3.078   2.161  3.0110  0.0319 -1.5222
 7877SOL     OW35092   3.545   0.283   7.066 -0.1781 -0.2137 -0.0242
 7877SOL    HW135093   3.509   0.214   7.122 -0.2945 -0.6047 -0.5874
 7877SOL    HW235094   3.497   0.355   7.107  1.0962  1.1857 -1.0265
 7878SOL     OW35095   1.858   0.659   1.633 -0.0271 -0.2006  0.0631
 7878SOL    HW135096   1.775   0.682   1.591 -0.3042 -0.3974  0.5048
 7878SOL    HW235097   1.832   0.589   1.692  1.4830  0.3734  1.4124
 7879SOL     OW35098   3.011   4.667  12.331  0.3319 -0.8181  0.0937
 7879SOL    HW135099   3.003   0.032  12.365 -1.8624 -1.5270  1.5062
 7879SOL    HW235100   3.104   4.658  12.354  0.2154 -1.1780  0.4381
 7880SOL     OW35101   0.316   3.552   4.902  0.2755 -0.0667 -0.2493
 7880SOL    HW135102   0.312   3.476   4.959  1.7602  0.4230  0.5127
 7880SOL    HW235103   0.405   3.582   4.924  0.5130 -2.4338  1.9274
 7881SOL     OW35104   2.456   0.554   8.485  0.2431 -0.2165 -0.3093
 7881SOL    HW135105   2.475   0.524   8.574  0.3535  0.0652 -0.2375
 7881SOL    HW235106   2.377   0.505   8.461 -0.0034 -0.5410  1.1609
 7882SOL     OW35107   3.485   1.094   4.749 -0.0497  0.3375  0.1223
 7882SOL    HW135108   3.411   1.068   4.804 -1.1525  0.6021 -1.2181
 7882SOL    HW235109   3.503   1.019   4.693 -2.0596 -0.1621  0.1602
 7883SOL     OW35110   0.349   4.226  10.257 -0.2612  0.2093  0.1575
 7883SOL    HW135111   0.283   4.262  10.315 -0.5286  1.9228 -1.2234
 7883SOL    HW235112   0.432   4.256  10.293 -1.7675  0.2413  3.5803
 7884SOL     OW35113   0.641   1.590   9.720 -0.1607  0.6682 -0.2904
 7884SOL    HW135114   0.672   1.659   9.661 -1.5785  1.3042 -0.2840
 7884SOL    HW235115   0.636   1.640   9.802 -2.4230 -2.0550  1.2161
 7885SOL     OW35116   1.039   3.278   3.867 -0.0233  0.3552 -0.4661
 7885SOL    HW135117   1.035   3.353   3.808  0.9171 -0.4286 -1.5374
 7885SOL    HW235118   1.012   3.327   3.944  2.4075  3.6680 -1.7154
 7886SOL     OW35119   2.510   3.169   3.552 -0.1399  0.2200 -0.4577
 7886SOL    HW135120   2.512   3.190   3.646  1.6089  0.2495 -0.5017
 7886SOL    HW235121   2.602   3.143   3.543  0.3703  2.2723 -1.2702
 7887SOL     OW35122   1.267   4.294  13.770  0.4544  0.7253  0.2462
 7887SOL    HW135123   1.334   4.361  13.758  0.5903  0.2205 -1.9230
 7887SOL    HW235124   1.279   4.242  13.690  0.6460 -0.7069  1.2072
 7888SOL     OW35125   1.688   1.368   2.247  0.1736 -0.0592 -0.0715
 7888SOL    HW135126   1.657   1.446   2.293  1.2281 -1.2184  2.5963
 7888SOL    HW235127   1.618   1.363   2.181  0.1865 -0.1425 -0.0786
 7889SOL     OW35128   1.376   0.378   2.679  0.0410 -0.1297  0.5625
 7889SOL    HW135129   1.376   0.461   2.632 -1.1762 -0.4651 -0.0421
 7889SOL    HW235130   1.466   0.356   2.702  0.3492  1.4855  0.9031
 7890SOL     OW35131   1.009   1.244   3.174  0.1357 -0.1403  0.4198
 7890SOL    HW135132   1.051   1.184   3.236 -1.1315  0.2425  1.6501
 7890SOL    HW235133   0.984   1.315   3.234  1.5795 -1.6147  2.7574
 7891SOL     OW35134   4.705   0.203   2.434 -0.0123 -0.3228  0.1201
 7891SOL    HW135135   0.062   0.228   2.389 -0.5916  1.0621 -0.1359
 7891SOL    HW235136   4.670   0.289   2.456  1.0891  0.1679 -0.0562
 7892SOL     OW35137   1.714   3.706   3.387  0.3635  0.4263  0.0424
 7892SOL    HW135138   1.789   3.652   3.412  0.8299  0.4556 -1.3426
 7892SOL    HW235139   1.659   3.634   3.355  2.2974 -0.5352 -1.0872
 7893SOL     OW35140   4.588   3.332  15.430 -0.3571  1.0580 -0.6699
 7893SOL    HW135141   4.549   3.381  15.503 -1.0535  0.3151 -0.5435
 7893SOL    HW235142   4.514   3.357  15.374 -1.1125 -1.7007 -0.8908
 7894SOL     OW35143   3.629   1.514   1.678  0.2018 -0.0844 -0.3273
 7894SOL    HW135144   3.566   1.489   1.610 -0.2335  0.4232 -0.1093
 7894SOL    HW235145   3.699   1.562   1.634 -1.4258  0.0592 -2.7869
 7895SOL     OW35146   0.385   4.630   2.467 -0.2548 -0.1396 -0.6177
 7895SOL    HW135147   0.473   4.660   2.443  0.2418 -0.8908  0.2740
 7895SOL    HW235148   0.385   4.665   2.556  1.5305  0.7583 -0.9720
 7896SOL     OW35149   3.904   2.832   3.594 -0.1342 -0.4777 -0.0366
 7896SOL    HW135150   3.838   2.848   3.661  0.6296 -0.9626  0.8369
 7896SOL    HW235151   3.889   2.741   3.567 -0.7183 -1.1348  2.4710
 7897SOL     OW35152   2.706   2.044   7.071  0.2982  0.1496  0.1468
 7897SOL    HW135153   2.638   1.977   7.064  0.4852 -0.0751  0.5004
 7897SOL    HW235154   2.717   2.048   6.976 -2.1045 -1.2244 -0.1723
 7898SOL     OW35155   3.293   2.061   1.283  0.3119  0.1515  0.2931
 7898SOL    HW135156   3.217   2.093   1.233  0.1386  0.9888  1.1038
 7898SOL    HW235157   3.356   2.132   1.272  0.3289  0.2687  1.1822
 7899SOL     OW35158   4.137   1.900  11.438 -0.2239 -0.0935  0.6876
 7899SOL    HW135159   4.176   1.982  11.408 -0.2022  0.4487  2.1582
 7899SOL    HW235160   4.144   1.918  11.532  0.3969  2.0905  0.2309
 7900SOL     OW35161   4.124   3.438   2.467  0.4163  0.2682  0.2849
 7900SOL    HW135162   4.067   3.434   2.544  0.2319 -1.5616  0.0611
 7900SOL    HW235163   4.178   3.516   2.480  0.6039  0.1670  0.1118
 7901SOL     OW35164   2.951   3.635   6.542 -0.2733 -0.7185 -0.1446
 7901SOL    HW135165   3.019   3.649   6.607 -1.2347 -1.7442  1.0873
 7901SOL    HW235166   2.977   3.684   6.464  0.1033 -0.0172  0.4302
 7902SOL     OW35167   0.529   0.639   9.060 -0.2870  0.3257 -0.1233
 7902SOL    HW135168   0.496   0.728   9.064  1.7543  0.8901  5.0468
 7902SOL    HW235169   0.610   0.646   9.111  1.8568  0.4477 -3.6247
 7903SOL     OW35170   1.995   0.373  12.700  0.5585  0.2607  0.1821
 7903SOL    HW135171   1.985   0.468  12.706 -0.7831  0.1367 -0.0343
 7903SOL    HW235172   1.939   0.350  12.775 -0.8470 -1.1324 -1.2920
 7904SOL     OW35173   3.500   4.387   1.042  0.1375 -0.7089  0.2419
 7904SOL    HW135174   3.520   4.387   0.948  1.3296  0.4357  0.4930
 7904SOL    HW235175   3.567   4.325   1.072  1.3151  0.6461  0.4324
 7905SOL     OW35176   1.499   3.969  16.892 -0.1392 -0.5475  0.9970
 7905SOL    HW135177   1.486   4.058  16.862 -0.9572 -0.8902  0.3378
 7905SOL    HW235178   1.424   3.953  16.949  0.5638 -2.6527  1.3541
 7906SOL     OW35179   1.455   3.280   3.379 -0.0287 -0.2834 -0.3400
 7906SOL    HW135180   1.369   3.268   3.339 -1.2774 -2.2643  2.8994
 7906SOL    HW235181   1.506   3.209   3.341  1.7633 -0.6478  2.6778
 7907SOL     OW35182   0.567   3.164   7.831  0.3336  0.1023 -0.0740
 7907SOL    HW135183   0.477   3.196   7.837  0.7510  1.2156  0.1687
 7907SOL    HW235184   0.543   3.090   7.775 -2.2717  2.7493 -2.4367
 7908SOL     OW35185   0.325   2.566   4.249  0.6349 -0.4018  0.6587
 7908SOL    HW135186   0.268   2.491   4.266  1.0231 -1.0319 -0.8129
 7908SOL    HW235187   0.391   2.524   4.194  0.8547  1.9588 -0.8734
 7909SOL     OW35188   3.028   4.502  16.948  0.3250 -0.7817  0.2191
 7909SOL    HW135189   2.960   4.448  16.988 -0.9576  1.1795  0.6432
 7909SOL    HW235190   3.031   4.577  17.006 -1.1890 -1.8173  1.6382
 7910SOL     OW35191   3.320   1.201  12.245  0.4247  0.2875 -0.1598
 7910SOL    HW135192   3.242   1.233  12.198  0.6095  2.2383  0.8498
 7910SOL    HW235193   3.294   1.110  12.260 -1.3263  0.6974 -0.6970
 7911SOL     OW35194   0.320   1.691   2.590  0.9013  1.0690  0.3574
 7911SOL    HW135195   0.247   1.669   2.647  0.6784 -0.6117 -0.5829
 7911SOL    HW235196   0.349   1.605   2.559  1.5293  2.5188 -3.0882
 7912SOL     OW35197   1.769   2.762   8.130  0.5864  0.3516 -0.4011
 7912SOL    HW135198   1.676   2.748   8.149 -0.2716  4.0093 -1.8305
 7912SOL    HW235199   1.790   2.698   8.062  0.6551 -1.3810  1.2488
 7913SOL     OW35200   0.766   4.600   6.692  0.3785  0.4708 -0.5597
 7913SOL    HW135201   0.798   4.653   6.766  1.1378  0.8452 -1.1538
 7913SOL    HW235202   0.741   4.666   6.628 -2.6145 -0.7552 -0.6347
 7914SOL     OW35203   0.980   0.069   0.020 -0.1091 -0.0575 -0.4733
 7914SOL    HW135204   1.019   0.148  17.679  1.8851 -1.9247 -2.2995
 7914SOL    HW235205   0.886   0.065   0.007 -0.0834 -0.3994 -0.5659
 7915SOL     OW35206   1.682   3.750   3.679 -0.7333 -0.0054  0.4465
 7915SOL    HW135207   1.591   3.729   3.699 -0.6479  0.3653  1.2530
 7915SOL    HW235208   1.689   3.748   3.584 -0.4412 -1.7395  0.5152
 7916SOL     OW35209   0.693   0.675   1.873  0.7000 -0.2858 -0.5258
 7916SOL    HW135210   0.708   0.597   1.927 -1.7328 -1.0967 -1.0035
 7916SOL    HW235211   0.622   0.644   1.817  0.4561  0.2475 -0.5026
 7917SOL     OW35212   3.826   2.423   7.005  0.7361  0.3598 -0.0409
 7917SOL    HW135213   3.818   2.388   7.094  1.7091 -0.8640 -0.4237
 7917SOL    HW235214   3.741   2.466   6.993  0.5225  0.2877  1.2628
 7918SOL     OW35215   3.877   3.012   7.716 -0.3025 -0.0387 -0.0889
 7918SOL    HW135216   3.946   3.034   7.654 -0.9582  1.3765 -0.3263
 7918SOL    HW235217   3.824   3.092   7.720  1.1313  0.9670 -1.2519
 7919SOL     OW35218   0.789   2.540   1.807  0.2795  0.2896  0.4731
 7919SOL    HW135219   0.869   2.529   1.757  0.3124 -0.5266  0.7062
 7919SOL    HW235220   0.724   2.506   1.746  0.8423  1.2682 -0.6759
 7920SOL     OW35221   4.119   0.592   7.642 -0.0526 -0.3973 -0.1335
 7920SOL    HW135222   4.135   0.523   7.578  0.3276 -0.0454 -0.4227
 7920SOL    HW235223   4.148   0.667   7.589  1.2758 -1.0294 -0.3056
 7921SOL     OW35224   2.270   1.842   0.728 -0.0519  0.4552 -0.5601
 7921SOL    HW135225   2.364   1.826   0.729 -0.1836 -0.3264 -1.0798
 7921SOL    HW235226   2.267   1.918   0.670 -0.6369 -0.1016 -1.2562
 7922SOL     OW35227   4.274   0.081   8.164  0.2504  0.0584  0.4569
 7922SOL    HW135228   4.202   0.020   8.184  0.6082 -0.2168  0.8878
 7922SOL    HW235229   4.350   0.025   8.148  0.0860 -0.2712  0.8122
 7923SOL     OW35230   2.084   2.824  17.046  0.2394  0.1225 -0.0081
 7923SOL    HW135231   2.074   2.877  17.125  1.8718  0.1950  0.1426
 7923SOL    HW235232   2.016   2.758  17.063  0.4960  0.1405  1.1223
 7924SOL     OW35233   3.424   2.812   7.887  0.4004  0.6204 -0.0358
 7924SOL    HW135234   3.346   2.852   7.849 -0.1905 -2.2312 -1.8613
 7924SOL    HW235235   3.451   2.751   7.818  0.2101 -0.7720  1.1169
 7925SOL     OW35236   3.531   3.277   3.761 -0.1091 -0.7875 -0.2600
 7925SOL    HW135237   3.494   3.206   3.813 -2.2967 -0.3156 -1.1676
 7925SOL    HW235238   3.504   3.354   3.812 -0.1128 -2.6057  2.4769
 7926SOL     OW35239   0.700   0.714   3.964  0.0123 -0.0777  0.1577
 7926SOL    HW135240   0.700   0.680   4.053  0.5855 -2.2498 -0.6742
 7926SOL    HW235241   0.684   0.637   3.908  2.1681  1.2545 -2.3206
 7927SOL     OW35242   4.715   3.277   6.085 -0.2387 -0.3618 -0.8274
 7927SOL    HW135243   0.024   3.192   6.114  0.5337  0.0899 -0.3646
 7927SOL    HW235244   0.074   3.325   6.079 -0.7204  0.8154  1.9432
 7928SOL     OW35245   2.834   1.342   7.170 -0.4281 -0.3592  0.4390
 7928SOL    HW135246   2.827   1.325   7.076  1.2065  0.4264  0.1923
 7928SOL    HW235247   2.740   1.339   7.187 -0.9646  1.5617 -2.2414
 7929SOL     OW35248   4.544   4.650   8.110  0.6442 -1.1530  0.5183
 7929SOL    HW135249   4.592   4.648   8.193 -1.0123  1.4171  1.5239
 7929SOL    HW235250   4.611   4.676   8.046  0.5106  3.3730  2.2325
 7930SOL     OW35251   1.729   0.071  15.823  0.3049  0.0814 -0.1021
 7930SOL    HW135252   1.679   0.151  15.810 -1.0844 -0.7782 -0.0034
 7930SOL    HW235253   1.812   0.111  15.851  1.5544 -1.4384 -1.6187
 7931SOL     OW35254   1.291   3.914  10.841 -0.5574  0.5833  0.0595
 7931SOL    HW135255   1.338   3.996  10.851 -0.0640  0.1034  1.5528
 7931SOL    HW235256   1.327   3.865  10.915 -0.0605 -2.0550 -1.9297
 7932SOL     OW35257   2.922   2.234   1.870  0.1657  0.4060  0.1892
 7932SOL    HW135258   2.837   2.242   1.828  0.1437  2.1757  0.5588
 7932SOL    HW235259   2.986   2.236   1.798 -1.6229  0.1734 -1.4007
 7933SOL     OW35260   2.278   0.537   2.873 -0.3999 -0.0279  0.2163
 7933SOL    HW135261   2.340   0.596   2.916  0.0451 -0.7353  0.5520
 7933SOL    HW235262   2.200   0.575   2.912 -1.5966 -0.1478 -2.0500
 7934SOL     OW35263   1.058   3.990   4.825 -0.5349  0.2705  0.0121
 7934SOL    HW135264   1.061   3.915   4.766 -0.6766  0.2876 -0.0166
 7934SOL    HW235265   1.005   4.038   4.761 -0.3641  0.7881  0.2573
 7935SOL     OW35266   3.169   0.890  15.129  0.3158 -0.8815 -0.4985
 7935SOL    HW135267   3.162   0.801  15.092 -0.2541  0.1711 -2.9338
 7935SOL    HW235268   3.226   0.934  15.067 -0.0865 -0.4852 -0.5909
 7936SOL     OW35269   3.193   1.423  11.538 -0.1195  0.6228  1.2473
 7936SOL    HW135270   3.126   1.362  11.570 -0.5869  0.2786 -0.3911
 7936SOL    HW235271   3.209   1.471  11.619  1.5950  0.7821  0.8204
 7937SOL     OW35272   3.392   3.537   3.786 -0.0841  0.0710 -0.1041
 7937SOL    HW135273   3.396   3.631   3.805 -0.6564  0.1078 -0.1406
 7937SOL    HW235274   3.379   3.540   3.691  1.8653 -1.3456 -0.4145
 7938SOL     OW35275   2.350   1.357   4.234  0.3293  0.0399 -0.2205
 7938SOL    HW135276   2.345   1.434   4.291  0.0637 -0.1622  0.0263
 7938SOL    HW235277   2.374   1.394   4.149 -0.6438  2.8124  0.6886
 7939SOL     OW35278   0.133   0.129   6.147 -0.2545 -0.0491  0.2589
 7939SOL    HW135279   0.064   0.195   6.146 -0.5232 -0.3475 -1.8813
 7939SOL    HW235280   0.096   0.074   6.217 -0.4472  2.3159  1.9974
 7940SOL     OW35281   2.661   3.860   5.536 -0.4810 -0.8202  0.3157
 7940SOL    HW135282   2.753   3.837   5.534 -0.3923 -0.4290 -0.1211
 7940SOL    HW235283   2.649   3.898   5.448  2.0026 -0.7103  0.0392
 7941SOL     OW35284   0.873   4.299   8.394 -0.1641 -0.1167  0.3112
 7941SOL    HW135285   0.902   4.278   8.305  0.8535 -0.3187  0.6857
 7941SOL    HW235286   0.948   4.347   8.429  0.1802 -1.7047  1.7615
 7942SOL     OW35287   3.875   0.227   5.402 -0.1241  0.1071 -0.0487
 7942SOL    HW135288   3.842   0.317   5.406 -0.3166  0.0696 -0.6748
 7942SOL    HW235289   3.807   0.193   5.460 -0.2855 -1.9003 -1.4210
 7943SOL     OW35290   0.222   4.454   8.412  0.1288 -0.3325 -0.1498
 7943SOL    HW135291   0.172   4.446   8.493  0.6535 -1.2010  0.0988
 7943SOL    HW235292   0.290   4.392   8.438 -0.2566 -0.5919  0.2482
 7944SOL     OW35293   2.673   2.625   8.522  0.3607 -0.3807 -0.1160
 7944SOL    HW135294   2.578   2.621   8.532  0.1418 -2.6604 -3.2701
 7944SOL    HW235295   2.700   2.611   8.613  1.2500  0.2885 -0.2737
 7945SOL     OW35296   2.965   4.673   6.205  0.3018 -0.2695  0.1300
 7945SOL    HW135297   3.058   4.677   6.183  0.0789  0.2141 -0.7209
 7945SOL    HW235298   2.961   4.582   6.236  1.3132  0.4277  2.3325
 7946SOL     OW35299   1.357   4.131   7.503 -0.6060 -0.0578 -0.0091
 7946SOL    HW135300   1.364   4.138   7.408 -1.9153  0.5753 -0.0598
 7946SOL    HW235301   1.346   4.038   7.518  0.5240 -0.2921 -0.6450
 7947SOL     OW35302   3.569   3.731   6.499 -0.2568  0.1749 -0.0353
 7947SOL    HW135303   3.654   3.774   6.502 -0.9027  1.5015 -0.6329
 7947SOL    HW235304   3.526   3.747   6.583 -1.9491 -0.8857 -0.6741
 7948SOL     OW35305   0.295   3.910   3.044  0.0746 -0.3867 -0.1260
 7948SOL    HW135306   0.377   3.929   2.998  0.3698  2.2181  1.4629
 7948SOL    HW235307   0.313   3.967   3.119 -0.9196 -0.5318  0.2189
 7949SOL     OW35308   2.241   0.891   2.851 -1.2595 -0.3172 -0.0410
 7949SOL    HW135309   2.252   0.971   2.902  0.3704 -0.7338  0.2702
 7949SOL    HW235310   2.233   0.929   2.763  2.0810 -1.9573 -1.0532
 7950SOL     OW35311   1.996   2.102  11.400 -0.0019 -0.7094  0.0241
 7950SOL    HW135312   2.038   2.158  11.465  2.4423 -0.3674 -1.8770
 7950SOL    HW235313   1.921   2.076  11.455 -0.0312  0.0386  0.3407
 7951SOL     OW35314   4.049   2.691   3.335 -0.0007  0.2479 -0.0717
 7951SOL    HW135315   4.119   2.694   3.270 -1.9921  0.7106 -2.1781
 7951SOL    HW235316   4.104   2.716   3.409 -0.4041  0.7091  0.0726
 7952SOL     OW35317   3.122   2.396   8.153 -0.0846  0.5817  0.3896
 7952SOL    HW135318   3.080   2.341   8.086  0.1300 -1.1158  1.6446
 7952SOL    HW235319   3.114   2.361   8.242  0.4142  1.9244  0.9575
 7953SOL     OW35320   3.259   2.128   8.026  0.2779 -0.2555 -0.4520
 7953SOL    HW135321   3.196   2.078   8.078 -0.6325  1.3854  0.0143
 7953SOL    HW235322   3.227   2.213   8.057 -1.3568 -0.6137 -1.1382
 7954SOL     OW35323   4.333   4.007   8.347 -0.5782 -0.0045 -0.2948
 7954SOL    HW135324   4.320   4.004   8.441 -1.0107  2.3100 -0.2645
 7954SOL    HW235325   4.303   4.095   8.323  0.3507  0.4963  0.4019
 7955SOL     OW35326   4.627   4.188   5.051  0.0955 -0.1480  0.3079
 7955SOL    HW135327   4.539   4.205   5.017 -0.4663 -1.6091  0.9927
 7955SOL    HW235328   4.603   4.152   5.137  0.0155  1.9925  1.1853
 7956SOL     OW35329   3.622   1.216   3.447 -0.1548  0.0797 -0.3815
 7956SOL    HW135330   3.620   1.179   3.535 -1.3479 -2.9988 -1.7297
 7956SOL    HW235331   3.570   1.146   3.410  0.2599 -0.6446  0.4042
 7957SOL     OW35332   4.322   0.898   7.033 -0.6274 -0.2477  1.0050
 7957SOL    HW135333   4.330   0.834   6.962  0.4005  1.8270 -0.7597
 7957SOL    HW235334   4.262   0.965   6.998 -0.8063 -0.6154  0.6135
 7958SOL     OW35335   3.854   4.612  13.242  0.3500 -0.3884  0.1880
 7958SOL    HW135336   3.836   4.706  13.246  0.6896 -0.3427  0.6373
 7958SOL    HW235337   3.936   4.611  13.192 -0.9618  2.6488 -2.0052
 7959SOL     OW35338   0.516   2.817   2.594 -0.0371 -0.2542  0.6474
 7959SOL    HW135339   0.601   2.782   2.619  0.0071 -0.6407 -0.0322
 7959SOL    HW235340   0.546   2.849   2.509  0.1289 -0.6565  0.5531
 7960SOL     OW35341   3.517   3.163   7.177  0.2137  0.0534  0.1458
 7960SOL    HW135342   3.601   3.122   7.199 -0.1885 -0.6601  0.3574
 7960SOL    HW235343   3.534   3.232   7.113  0.1876  0.5711  0.6999
 7961SOL     OW35344   2.411   2.803   4.317  0.0665 -0.1591  0.1940
 7961SOL    HW135345   2.495   2.825   4.358  0.1084 -1.2563  0.7058
 7961SOL    HW235346   2.433   2.812   4.224 -2.5835 -1.1360 -0.5093
 7962SOL     OW35347   1.713   1.829   8.174  0.5704  0.0434 -0.2300
 7962SOL    HW135348   1.659   1.907   8.161  2.1441  0.8627 -1.7224
 7962SOL    HW235349   1.792   1.850   8.125  0.5555 -1.8283 -1.0659
 7963SOL     OW35350   1.470   1.206  14.489  0.3049 -0.3601  0.1030
 7963SOL    HW135351   1.413   1.132  14.511  0.0496 -0.2045 -0.0437
 7963SOL    HW235352   1.467   1.246  14.576  0.6489  0.0565 -0.0753
 7964SOL     OW35353   1.157   4.259   7.663 -0.1911 -0.6136  0.0175
 7964SOL    HW135354   1.184   4.341   7.704  0.7408 -1.1876  0.5472
 7964SOL    HW235355   1.238   4.230   7.620 -0.6209  1.2675 -2.0713
 7965SOL     OW35356   3.027   2.123   4.965  0.1832  0.2507 -0.0509
 7965SOL    HW135357   3.028   2.039   5.010 -1.1021 -0.2001 -0.8635
 7965SOL    HW235358   3.060   2.178   5.037 -0.5182  0.1358  0.3568
 7966SOL     OW35359   2.697   4.365   8.013  0.4205  0.0683  0.1116
 7966SOL    HW135360   2.760   4.370   8.085 -0.4535  1.0739  0.7991
 7966SOL    HW235361   2.655   4.450   8.019  1.4109  0.6423 -1.0714
 7967SOL     OW35362   1.180   1.307  16.745  0.4057  0.1402 -0.0682
 7967SOL    HW135363   1.117   1.335  16.678 -0.6533  0.7674  1.1891
 7967SOL    HW235364   1.166   1.382  16.803 -2.5548  1.1428 -2.0397
 7968SOL     OW35365   3.151   3.082   1.216 -0.2704  0.0254 -0.0118
 7968SOL    HW135366   3.190   3.164   1.187 -0.1900 -0.9165 -2.5784
 7968SOL    HW235367   3.068   3.111   1.251 -0.4386  1.1159 -1.3170
 7969SOL     OW35368   3.277   0.906  12.382  0.1738 -0.2433 -0.0866
 7969SOL    HW135369   3.268   0.872  12.471  0.2095  1.1712  0.4578
 7969SOL    HW235370   3.187   0.927  12.358  0.5632 -0.7743 -2.0192
 7970SOL     OW35371   3.531   4.139   8.971  0.3723 -0.2028  0.2421
 7970SOL    HW135372   3.591   4.066   8.985  0.3647 -0.6381 -1.8680
 7970SOL    HW235373   3.449   4.103   9.002  0.5855  0.1977  1.2801
 7971SOL     OW35374   2.739   1.675   3.768  0.1717 -0.3726  0.8346
 7971SOL    HW135375   2.707   1.766   3.764 -0.2372 -0.6217 -2.2902
 7971SOL    HW235376   2.830   1.680   3.740  0.8089 -2.5062  2.5622
 7972SOL     OW35377   2.353   4.522   1.526  0.5575  0.7119 -0.4423
 7972SOL    HW135378   2.275   4.553   1.480 -0.3145  0.0798  0.6182
 7972SOL    HW235379   2.387   4.459   1.463  1.1738 -1.0118  1.6324
 7973SOL     OW35380   4.426   4.386  10.566  0.0828  0.4648 -0.0771
 7973SOL    HW135381   4.419   4.444  10.490  1.8630 -0.4102 -0.8964
 7973SOL    HW235382   4.357   4.423  10.622  0.5135  1.0102  0.0892
 7974SOL     OW35383   4.061   0.373   7.399 -0.2783  0.6039  0.0514
 7974SOL    HW135384   3.990   0.366   7.335 -0.3330  1.1569  0.0502
 7974SOL    HW235385   4.066   0.283   7.429 -1.7491  0.0562 -1.3621
 7975SOL     OW35386   2.657   2.901   4.450 -0.1275  0.2083  0.0998
 7975SOL    HW135387   2.708   2.899   4.370  0.7779  1.3642  0.6536
 7975SOL    HW235388   2.698   2.837   4.509 -1.8781 -0.5566  0.4906
 7976SOL     OW35389   2.598   4.206   9.222  0.3860 -0.4881  0.4216
 7976SOL    HW135390   2.659   4.267   9.263  0.2269  0.7179 -1.1315
 7976SOL    HW235391   2.645   4.188   9.140  2.3247 -3.2285  2.0988
 7977SOL     OW35392   2.010   0.955   1.259  0.4094 -0.3190 -0.2806
 7977SOL    HW135393   2.007   0.946   1.164 -1.2733  2.7898 -0.5094
 7977SOL    HW235394   2.002   1.050   1.271  0.9235  0.0130 -2.7288
 7978SOL     OW35395   0.541   1.124   2.576 -0.3051 -0.4108 -0.4298
 7978SOL    HW135396   0.599   1.112   2.651  1.8699 -0.0731 -2.0592
 7978SOL    HW235397   0.471   1.177   2.615  0.6288  1.3724 -1.2064
 7979SOL     OW35398   4.695   3.612  13.481 -0.4864  0.1974  0.2994
 7979SOL    HW135399   0.021   3.686  13.516  0.5049 -1.2375  1.9006
 7979SOL    HW235400   4.622   3.660  13.441  0.1372  1.3593  0.5439
 7980SOL     OW35401   1.510   2.872   2.227 -0.3891 -0.0442 -0.0038
 7980SOL    HW135402   1.424   2.851   2.191 -0.1773 -0.5219 -0.2326
 7980SOL    HW235403   1.560   2.880   2.145 -2.0534 -0.2091 -1.0400
 7981SOL     OW35404   4.614   1.814   5.511 -0.0703 -0.0041 -0.0339
 7981SOL    HW135405   4.608   1.719   5.518  0.0243  0.0257  0.4372
 7981SOL    HW235406   4.706   1.833   5.527 -0.1439 -0.4485  0.8775
 7982SOL     OW35407   4.024   0.015   3.056 -0.2850  0.1419 -0.3056
 7982SOL    HW135408   4.026   4.701   2.968  0.1521  1.9902 -1.0945
 7982SOL    HW235409   3.980   4.676   3.114 -1.8620  0.3150 -1.3265
 7983SOL     OW35410   2.492   0.271   8.953  0.4534 -0.3475  0.7108
 7983SOL    HW135411   2.422   0.226   9.001  0.0644 -1.0418 -0.5123
 7983SOL    HW235412   2.487   0.224   8.870  1.5383 -2.0252  1.5962
 7984SOL     OW35413   0.931   3.254   9.869  0.2646  0.0565 -0.4614
 7984SOL    HW135414   0.922   3.334   9.818  1.4982 -1.5135 -3.1576
 7984SOL    HW235415   0.941   3.187   9.802 -1.7407 -1.0416  0.3227
 7985SOL     OW35416   0.530   3.790   4.582  0.6295 -0.2211 -0.0560
 7985SOL    HW135417   0.611   3.777   4.632  0.7531  1.5904  0.2066
 7985SOL    HW235418   0.501   3.878   4.607 -2.9212 -0.5785 -2.8769
 7986SOL     OW35419   3.561   1.059  15.684  0.4833 -0.4511 -0.4715
 7986SOL    HW135420   3.513   1.135  15.649 -1.8792 -1.5079  0.4634
 7986SOL    HW235421   3.642   1.049  15.635  1.8055 -2.2724  2.0923
 7987SOL     OW35422   3.790   2.505   3.455 -0.5250 -0.1323 -0.0914
 7987SOL    HW135423   3.826   2.518   3.367 -1.1690 -0.5090 -0.4096
 7987SOL    HW235424   3.727   2.436   3.434  0.6834 -1.8882  1.9584
 7988SOL     OW35425   0.595   0.219   4.225 -0.3629  0.1281 -0.4263
 7988SOL    HW135426   0.555   0.140   4.189  2.3853 -1.0206 -0.9549
 7988SOL    HW235427   0.613   0.192   4.315  1.6425  1.2372 -0.5035
 7989SOL     OW35428   0.096   4.000   0.633  0.4227 -0.1790  0.3729
 7989SOL    HW135429   0.080   4.094   0.626  1.3455 -0.1963 -1.8070
 7989SOL    HW235430   0.025   3.977   0.693  0.4178 -0.8587  0.1142
 7990SOL     OW35431   0.728   3.190   8.077 -0.4951  0.7519  0.5505
 7990SOL    HW135432   0.672   3.162   8.004  2.2600 -3.3459  0.0368
 7990SOL    HW235433   0.717   3.120   8.141  0.1813  0.0669 -0.0919
 7991SOL     OW35434   4.231   4.676   6.141  0.2272  0.2108 -0.2600
 7991SOL    HW135435   4.139   4.664   6.116 -0.6010  1.6830  2.0842
 7991SOL    HW235436   4.269   0.012   6.076  1.8107 -2.8132 -2.1496
 7992SOL     OW35437   0.721   4.489   9.966 -0.4553 -0.2879  0.0628
 7992SOL    HW135438   0.712   4.582   9.945  0.2300 -0.2497 -0.0806
 7992SOL    HW235439   0.663   4.482  10.042 -1.8308 -1.9661 -1.1521
 7993SOL     OW35440   0.663   2.545   2.713  0.2569 -0.3585  0.2034
 7993SOL    HW135441   0.704   2.465   2.746 -0.4090 -0.1800  1.4536
 7993SOL    HW235442   0.607   2.511   2.643 -0.4546  1.0026  0.1257
 7994SOL     OW35443   4.584   1.921  17.168 -0.3084 -0.1019  0.4367
 7994SOL    HW135444   4.541   1.986  17.113 -1.0371  0.1999  1.3640
 7994SOL    HW235445   4.668   1.917  17.122 -0.8703 -0.3425 -0.5676
 7995SOL     OW35446   2.677   3.227  15.370 -0.3894 -0.2827  0.1679
 7995SOL    HW135447   2.754   3.269  15.333  0.7130 -1.8467  0.6673
 7995SOL    HW235448   2.688   3.229  15.465 -0.8110  2.9527  0.1287
 7996SOL     OW35449   3.608   4.103  15.917  0.0053  0.1459 -0.5484
 7996SOL    HW135450   3.649   4.127  15.999 -0.7210  2.0325 -0.7472
 7996SOL    HW235451   3.517   4.100  15.948  0.6876  0.0902  1.3789
 7997SOL     OW35452   3.823   0.880  15.109 -0.9085  0.7889  0.3486
 7997SOL    HW135453   3.742   0.829  15.107  0.8592 -2.0558  0.4141
 7997SOL    HW235454   3.784   0.954  15.063 -1.8091  0.3708  0.4420
 7998SOL     OW35455   2.539   2.385   1.629 -0.3973  0.6735 -0.1609
 7998SOL    HW135456   2.506   2.295   1.630  2.8524 -0.5092  1.0039
 7998SOL    HW235457   2.497   2.423   1.552 -0.9317 -2.0757 -1.2071
 7999SOL     OW35458   1.367   2.794  15.155  0.4749 -0.2011 -0.5487
 7999SOL    HW135459   1.303   2.726  15.134  0.1869  0.5300 -2.0254
 7999SOL    HW235460   1.315   2.851  15.212 -1.7393 -4.0142  1.2556
 8000SOL     OW35461   1.256   1.451   2.805  0.1121  0.2328  0.2629
 8000SOL    HW135462   1.224   1.456   2.895 -0.2455 -2.8674  0.3080
 8000SOL    HW235463   1.335   1.502   2.821  0.0757  0.1062  0.8636
 8001SOL     OW35464   1.444   3.698   4.036  0.0078  0.3510 -0.0713
 8001SOL    HW135465   1.520   3.738   3.993 -0.5857  0.9538 -0.5492
 8001SOL    HW235466   1.389   3.698   3.958 -2.0082 -0.5769  1.3501
 8002SOL     OW35467   0.200   0.954   1.540  0.0600  0.4144 -0.8379
 8002SOL    HW135468   0.220   1.026   1.481  1.3187 -2.2186 -3.6345
 8002SOL    HW235469   0.280   0.907   1.563 -2.1084 -2.1293  1.6593
 8003SOL     OW35470   0.168   2.248   0.983 -0.1507  0.2597 -0.1994
 8003SOL    HW135471   0.109   2.201   0.924  0.1544 -0.0390 -0.2672
 8003SOL    HW235472   0.142   2.339   0.970  1.6190  0.8549  0.4653
 8004SOL     OW35473   1.441   1.259   5.842  0.2729 -0.5072 -0.0379
 8004SOL    HW135474   1.424   1.204   5.766 -0.0089 -2.2341  1.2829
 8004SOL    HW235475   1.437   1.344   5.798 -1.4337  0.2826  1.6842
 8005SOL     OW35476   2.149   3.181  12.774  0.4252  0.3611  0.2804
 8005SOL    HW135477   2.213   3.119  12.739 -1.2141 -0.3618 -1.4912
 8005SOL    HW235478   2.090   3.116  12.812 -0.8589  1.4896  0.2048
 8006SOL     OW35479   1.653   0.658   4.555  0.0391  0.2861 -0.4427
 8006SOL    HW135480   1.585   0.722   4.536 -1.2205 -1.2013 -0.9609
 8006SOL    HW235481   1.722   0.717   4.585  0.6589 -0.4825 -0.3591
 8007SOL     OW35482   4.051   1.330   2.009  0.9454 -0.0977 -0.2367
 8007SOL    HW135483   3.979   1.270   2.025 -0.5656  1.9561  0.7091
 8007SOL    HW235484   4.003   1.405   2.045  0.5077  0.0646 -1.1464
 8008SOL     OW35485   0.890   3.944   6.434  0.5421  0.3784  0.3167
 8008SOL    HW135486   0.937   3.863   6.454  0.4282  0.1133 -0.5085
 8008SOL    HW235487   0.803   3.906   6.430  0.4243  0.4127  2.2766
 8009SOL     OW35488   0.689   0.761   2.506  0.0386 -0.0900 -0.1131
 8009SOL    HW135489   0.721   0.830   2.564 -0.8620  1.5921 -1.6127
 8009SOL    HW235490   0.722   0.678   2.539 -0.7527 -0.2170  0.3599
 8010SOL     OW35491   4.193   4.012   4.902 -0.5122 -0.1199  0.5529
 8010SOL    HW135492   4.191   4.054   4.815  2.6457 -1.9573 -0.3808
 8010SOL    HW235493   4.180   3.923   4.871 -0.1762  0.0392 -0.0601
 8011SOL     OW35494   3.412   4.189   6.122 -0.3954  0.0297  0.2590
 8011SOL    HW135495   3.389   4.116   6.064 -0.1330  0.9261 -0.9512
 8011SOL    HW235496   3.483   4.142   6.165  1.6933  1.1519 -1.9755
 8012SOL     OW35497   2.467   1.728  16.981  0.2907 -0.4734  0.0502
 8012SOL    HW135498   2.396   1.792  16.985 -0.3950 -1.1844 -0.7687
 8012SOL    HW235499   2.463   1.707  16.888 -1.3632  0.5714 -0.1037
 8013SOL     OW35500   1.096   1.668   1.199 -0.8984 -0.4616  0.1990
 8013SOL    HW135501   1.056   1.651   1.284 -1.0462  1.3235  0.4723
 8013SOL    HW235502   1.163   1.736   1.210  0.9277 -2.0751 -0.7853
 8014SOL     OW35503   0.067   4.621   1.262 -0.2920 -0.6145  0.2299
 8014SOL    HW135504   4.703   4.633   1.224 -0.0569 -2.7639 -1.0439
 8014SOL    HW235505   0.070   4.677   1.340  1.3314  1.1744 -1.1462
 8015SOL     OW35506   3.734   2.087   7.169 -0.3947 -0.5607 -0.1997
 8015SOL    HW135507   3.679   2.049   7.237 -0.6478 -0.3779 -0.3048
 8015SOL    HW235508   3.753   2.176   7.200 -2.2910  0.0974 -0.9346
 8016SOL     OW35509   1.871   0.303  15.018 -0.4140 -0.1978 -0.2312
 8016SOL    HW135510   1.790   0.312  15.068 -0.6705  0.9906 -0.8532
 8016SOL    HW235511   1.911   0.384  15.052 -1.1629 -1.0498  2.6748
 8017SOL     OW35512   2.296   2.706   4.532 -0.2724 -0.2283  0.2879
 8017SOL    HW135513   2.331   2.766   4.466  0.6704 -1.5961 -0.4737
 8017SOL    HW235514   2.227   2.656   4.489  1.0079 -0.6891 -1.2282
 8018SOL     OW35515   2.368   0.775   1.719 -0.3039 -0.0353  0.0739
 8018SOL    HW135516   2.351   0.737   1.632 -0.9861  0.0023  0.1958
 8018SOL    HW235517   2.282   0.792   1.757  0.6764  0.3727  2.1094
 8019SOL     OW35518   4.693   2.151   1.721  0.6987  0.7790  0.0161
 8019SOL    HW135519   4.613   2.191   1.686  0.0876 -0.0053  0.5202
 8019SOL    HW235520   0.022   2.166   1.643 -1.5977 -2.6908 -2.2674
 8020SOL     OW35521   2.125   3.323  16.849 -0.0892 -0.1077 -0.4710
 8020SOL    HW135522   2.043   3.307  16.895 -0.0569  1.0512 -0.0089
 8020SOL    HW235523   2.142   3.410  16.885  0.7258 -0.9663  1.1878
 8021SOL     OW35524   4.646   0.327  11.232  0.2639 -0.4103  0.5133
 8021SOL    HW135525   4.633   0.342  11.326 -0.0122  1.3914  0.1978
 8021SOL    HW235526   4.647   0.232  11.228  2.3081 -0.4385  1.5965
 8022SOL     OW35527   0.963   1.441   2.149  0.2161  0.0496  0.6677
 8022SOL    HW135528   0.952   1.347   2.164 -2.0218  0.1595 -0.4055
 8022SOL    HW235529   1.006   1.452   2.065  1.4770 -0.9191  1.1851
 8023SOL     OW35530   3.051   1.040   1.846 -0.2899 -0.2274  0.3365
 8023SOL    HW135531   2.960   1.042   1.815  0.0282 -2.7976 -0.8370
 8023SOL    HW235532   3.035   1.062   1.937 -0.8910  0.3098  0.1016
 8024SOL     OW35533   2.538   3.195   2.486  0.7686  0.0564 -0.2866
 8024SOL    HW135534   2.446   3.190   2.459  1.3726 -0.1496 -2.2886
 8024SOL    HW235535   2.530   3.273   2.541  0.1597  1.1123 -1.8659
 8025SOL     OW35536   4.278   2.421   6.263  0.1870  0.0237  0.8654
 8025SOL    HW135537   4.213   2.488   6.284 -0.3416 -0.3446  0.4017
 8025SOL    HW235538   4.259   2.364   6.338 -4.7410  0.9276  0.3254
 8026SOL     OW35539   1.364   0.233  12.429 -0.3465 -0.4873  0.1508
 8026SOL    HW135540   1.351   0.279  12.512 -0.0424 -1.7067  0.8739
 8026SOL    HW235541   1.329   0.303  12.375  0.7564 -0.3290 -0.3561
 8027SOL     OW35542   2.125   2.481   8.324  0.0189 -0.4850  1.0443
 8027SOL    HW135543   2.153   2.443   8.408  2.0145 -1.3571 -0.0188
 8027SOL    HW235544   2.211   2.513   8.296  0.4748 -1.1192  1.7250
 8028SOL     OW35545   3.148   3.102   1.963  0.1017  0.4072 -0.9035
 8028SOL    HW135546   3.170   3.009   1.974 -1.2717  0.2052  0.1572
 8028SOL    HW235547   3.217   3.140   2.018 -0.4292 -0.4052  0.3184
 8029SOL     OW35548   0.271   1.390   2.140  0.1625 -0.1850  0.5927
 8029SOL    HW135549   0.257   1.445   2.217  0.5809  0.9449 -0.1346
 8029SOL    HW235550   0.199   1.330   2.158 -1.1134  0.5481 -2.0003
 8030SOL     OW35551   3.004   2.393   3.917  0.1428  0.1429 -0.5794
 8030SOL    HW135552   3.077   2.434   3.872  1.1439 -1.4209 -0.3884
 8030SOL    HW235553   3.037   2.310   3.952 -1.9338 -0.4054  0.1369
 8031SOL     OW35554   3.755   3.186   2.767 -0.6192  0.6150  0.6727
 8031SOL    HW135555   3.676   3.232   2.740 -1.5614 -1.5283 -0.2832
 8031SOL    HW235556   3.730   3.183   2.859 -0.4397 -0.1060  0.6987
 8032SOL     OW35557   2.794   1.526   8.857 -0.2411 -0.2495  0.1556
 8032SOL    HW135558   2.753   1.598   8.808  1.6420  1.5161  1.1950
 8032SOL    HW235559   2.882   1.541   8.824 -0.7341 -1.8656 -1.8814
 8033SOL     OW35560   2.501   2.405   8.663 -0.1912  0.1737 -0.3203
 8033SOL    HW135561   2.415   2.418   8.703 -0.8349  1.6967 -2.2218
 8033SOL    HW235562   2.566   2.442   8.723 -0.8637 -1.0393  1.1565
 8034SOL     OW35563   3.595   0.629   6.946  0.1988 -0.1438 -0.1297
 8034SOL    HW135564   3.614   0.722   6.942 -2.2190  0.3741  0.5473
 8034SOL    HW235565   3.508   0.630   6.984 -0.0558 -0.3039 -0.7096
 8035SOL     OW35566   4.500   3.933   9.811  0.5567 -0.4917  0.5476
 8035SOL    HW135567   4.413   3.973   9.813  0.3786 -1.0178  2.6476
 8035SOL    HW235568   4.486   3.846   9.849  0.2497 -0.5472  0.3155
 8036SOL     OW35569   1.852   4.259   1.901 -0.0234 -0.0751 -0.0432
 8036SOL    HW135570   1.872   4.311   1.823 -2.3403  1.4399  0.3831
 8036SOL    HW235571   1.937   4.219   1.918  1.2509  2.6456 -0.1603
 8037SOL     OW35572   2.407   1.336   4.512 -0.5099  0.3021 -0.3164
 8037SOL    HW135573   2.494   1.374   4.520 -0.4414 -0.2216  1.7054
 8037SOL    HW235574   2.433   1.247   4.536  1.8464  1.0130 -0.2770
 8038SOL     OW35575   1.742   1.195  14.444  0.3482  0.3498 -0.5062
 8038SOL    HW135576   1.743   1.239  14.359 -1.8385 -0.3995 -0.9115
 8038SOL    HW235577   1.650   1.177  14.463  0.3062 -0.9435 -1.9250
 8039SOL     OW35578   3.855   1.941  13.244 -0.1831  0.4172  0.0155
 8039SOL    HW135579   3.923   1.897  13.194  0.2685  0.0110  1.0044
 8039SOL    HW235580   3.892   1.969  13.327 -1.2950  0.7454  0.4110
 8040SOL     OW35581   0.266   2.733   2.596 -0.3097  0.1262  0.4570
 8040SOL    HW135582   0.358   2.760   2.599 -0.3946  0.4131  0.5560
 8040SOL    HW235583   0.275   2.638   2.595 -0.9529  0.0924 -1.2176
 8041SOL     OW35584   0.515   0.937   5.418  0.1400  0.6378 -0.2363
 8041SOL    HW135585   0.555   0.996   5.355 -0.3909 -0.3842 -1.5213
 8041SOL    HW235586   0.426   0.965   5.439  0.0694 -0.4582  0.9409
 8042SOL     OW35587   3.762   1.195   6.287 -0.3963 -0.2703 -0.0026
 8042SOL    HW135588   3.713   1.222   6.210  1.0058 -0.3919 -0.9277
 8042SOL    HW235589   3.770   1.100   6.287 -0.8644 -0.3162  1.0117
 8043SOL     OW35590   1.807   3.028   5.992  0.3403  0.2455  0.2137
 8043SOL    HW135591   1.843   2.986   5.914  2.0933  1.3423  0.4336
 8043SOL    HW235592   1.759   3.102   5.955  2.4882  1.0384 -0.9736
 8044SOL     OW35593   1.721   1.383   9.342 -0.1134 -0.2960  0.4800
 8044SOL    HW135594   1.690   1.386   9.433 -0.0581  1.0926  0.4578
 8044SOL    HW235595   1.648   1.422   9.294 -0.1290 -1.1041 -0.1403
 8045SOL     OW35596   3.823   2.242  12.201  0.4316  0.1769  0.4991
 8045SOL    HW135597   3.883   2.313  12.223 -1.1910  1.1536  1.8273
 8045SOL    HW235598   3.747   2.293  12.172 -1.0423 -1.2243  1.8882
 8046SOL     OW35599   0.405   1.272  11.190  0.0946 -1.0240  0.2878
 8046SOL    HW135600   0.403   1.366  11.210 -0.3714 -1.2405  1.2624
 8046SOL    HW235601   0.334   1.260  11.126 -0.3463  0.6585  0.4657
 8047SOL     OW35602   0.776   1.363   8.368 -0.0187 -0.2658 -0.6156
 8047SOL    HW135603   0.835   1.351   8.442  1.0898  0.1245 -1.4358
 8047SOL    HW235604   0.722   1.285   8.377  0.4462 -0.5404 -0.2525
 8048SOL     OW35605   2.016   3.298   6.880  0.2477 -0.0809 -0.5420
 8048SOL    HW135606   2.038   3.383   6.918 -0.0887 -0.6736  0.9773
 8048SOL    HW235607   2.049   3.235   6.944 -0.4558  0.6522  0.5355
 8049SOL     OW35608   1.831   4.706   7.940 -0.2277  0.5758  0.3849
 8049SOL    HW135609   1.744   4.711   7.900  1.1235 -0.4632 -2.6333
 8049SOL    HW235610   1.882   4.678   7.864 -2.2399  2.5813 -1.6804
 8050SOL     OW35611   3.311   3.037   0.280  0.0287 -0.6391 -0.2163
 8050SOL    HW135612   3.296   3.131   0.280 -1.0530 -0.8136 -0.6714
 8050SOL    HW235613   3.401   3.035   0.312 -0.2926 -1.1285  0.6434
 8051SOL     OW35614   3.964   1.086   4.693 -0.7509  0.4465 -0.2672
 8051SOL    HW135615   4.035   1.148   4.710  0.0264 -0.6752  0.6219
 8051SOL    HW235616   3.950   1.048   4.780 -1.3453 -1.7216 -1.3097
 8052SOL     OW35617   3.554   0.342   2.993 -0.3961 -0.2238  0.1983
 8052SOL    HW135618   3.631   0.285   2.994 -0.8441 -0.8338  0.5240
 8052SOL    HW235619   3.490   0.274   2.971  0.1625  0.2532 -2.8411
 8053SOL     OW35620   2.538   0.298  12.094 -0.0681 -0.4721  0.1044
 8053SOL    HW135621   2.578   0.261  12.173 -2.1942  0.6576  1.7341
 8053SOL    HW235622   2.445   0.290  12.116 -0.2882  1.7591 -0.0701
 8054SOL     OW35623   3.753   4.660   4.952  0.9380  0.0606  0.1470
 8054SOL    HW135624   3.826   4.711   4.918  0.6471 -0.6076 -1.4831
 8054SOL    HW235625   3.770   4.572   4.919  2.7855  1.2484 -2.0419
 8055SOL     OW35626   2.617   0.509   8.049  0.6090 -0.3579  0.4172
 8055SOL    HW135627   2.627   0.521   8.144 -1.9089  0.1737  0.6203
 8055SOL    HW235628   2.667   0.428   8.043  0.0652 -0.4643 -2.2684
 8056SOL     OW35629   3.763   1.095   2.710  0.6973  0.2583  0.1894
 8056SOL    HW135630   3.754   1.017   2.654 -0.3636  0.0704  0.6112
 8056SOL    HW235631   3.676   1.136   2.707 -0.2601 -1.7530  0.0609
 8057SOL     OW35632   2.282   1.561   6.300  0.1903  0.2421  0.3003
 8057SOL    HW135633   2.288   1.627   6.369  0.9845 -0.8671  1.2755
 8057SOL    HW235634   2.358   1.513   6.331 -0.9186 -0.1265  2.4798
 8058SOL     OW35635   4.548   1.924   7.395  0.0116 -0.1330 -0.1731
 8058SOL    HW135636   4.575   1.839   7.431  1.7655 -0.3593 -1.9906
 8058SOL    HW235637   4.605   1.975   7.452 -1.8081  2.4190 -0.6304
 8059SOL     OW35638   3.030   1.550   7.286  0.3191  0.3031  0.1883
 8059SOL    HW135639   3.005   1.459   7.268  0.3691  0.5994 -1.3957
 8059SOL    HW235640   3.031   1.595   7.201  0.3191 -1.7097 -0.8816
 8060SOL     OW35641   1.835   3.363   7.873 -0.2133 -0.3450  0.0812
 8060SOL    HW135642   1.894   3.311   7.927 -0.0659  0.2042  0.4537
 8060SOL    HW235643   1.792   3.303   7.813  0.2676  0.0564 -0.6622
 8061SOL     OW35644   1.742   1.016   1.498 -0.4818 -0.4493  0.5439
 8061SOL    HW135645   1.753   0.986   1.588 -0.5342 -0.0773  0.6758
 8061SOL    HW235646   1.703   1.102   1.515  0.0721  0.4245 -2.5346
 8062SOL     OW35647   2.211   1.887  16.657  0.2059  0.3711 -0.3351
 8062SOL    HW135648   2.185   1.806  16.612  3.5971 -0.6392 -0.4973
 8062SOL    HW235649   2.127   1.933  16.657  0.0950  0.1741  0.0635
 8063SOL     OW35650   3.648   3.941  12.382 -0.6553 -0.4950 -0.0438
 8063SOL    HW135651   3.728   3.993  12.381  0.2423 -1.8107  2.1763
 8063SOL    HW235652   3.675   3.857  12.345  1.4144 -0.3262  1.0651
 8064SOL     OW35653   3.640   3.972   9.431 -1.3217 -0.5462  0.4043
 8064SOL    HW135654   3.576   4.042   9.419  1.2711  1.3043 -2.5663
 8064SOL    HW235655   3.632   3.924   9.349 -1.0981 -1.3501  0.8452
 8065SOL     OW35656   2.489   0.394  16.848 -0.4324 -0.5855 -0.0534
 8065SOL    HW135657   2.412   0.345  16.823 -1.5418  1.1454 -0.0182
 8065SOL    HW235658   2.499   0.345  16.930 -0.1877  0.1752  0.3770
 8066SOL     OW35659   4.187   2.340   2.702  0.5406  0.1438  0.5040
 8066SOL    HW135660   4.146   2.288   2.633 -0.1882  0.4802  0.6858
 8066SOL    HW235661   4.137   2.319   2.780 -0.9677 -0.8355 -0.7210
 8067SOL     OW35662   2.344   4.399  14.982 -0.1610 -0.2972  0.0771
 8067SOL    HW135663   2.349   4.423  14.889 -0.9435  2.5963  0.7659
 8067SOL    HW235664   2.309   4.312  14.966  0.4058 -0.5986  0.4832
 8068SOL     OW35665   2.981   0.147   0.784  0.1399  0.2832  0.5341
 8068SOL    HW135666   3.014   0.196   0.860  0.7504  1.5880 -0.5770
 8068SOL    HW235667   2.970   0.209   0.712 -0.9985  2.0983  2.2650
 8069SOL     OW35668   1.497   2.629   2.618 -0.1453  0.4569 -0.7029
 8069SOL    HW135669   1.495   2.540   2.582  1.0684  0.3379 -0.4789
 8069SOL    HW235670   1.530   2.681   2.545  0.1639 -0.5022 -1.2508
 8070SOL     OW35671   2.774   2.523   5.562 -0.4206  0.3499  0.3747
 8070SOL    HW135672   2.818   2.442   5.535  0.1907  1.0435 -0.7332
 8070SOL    HW235673   2.746   2.500   5.650 -0.9041 -1.0301 -0.1381
 8071SOL     OW35674   3.347   2.527   8.994  0.0525  0.1555 -0.7097
 8071SOL    HW135675   3.415   2.469   8.960 -1.2855 -0.5613 -2.1955
 8071SOL    HW235676   3.328   2.564   8.908  0.0349 -2.1752 -1.7044
 8072SOL     OW35677   2.463   3.078   8.956  0.0875 -0.6682 -0.0058
 8072SOL    HW135678   2.514   3.133   8.897 -1.2982  0.0985 -0.4914
 8072SOL    HW235679   2.521   3.082   9.033 -1.3868 -2.4536  1.1959
 8073SOL     OW35680   3.784   2.245  15.747 -0.6240 -0.3262 -0.0272
 8073SOL    HW135681   3.775   2.279  15.658 -2.5143  1.3326  0.8130
 8073SOL    HW235682   3.876   2.258  15.773 -0.5492 -0.4916 -0.2124
 8074SOL     OW35683   2.622   3.249   5.148  0.3261 -0.3881  0.4503
 8074SOL    HW135684   2.666   3.295   5.219 -0.5739  0.6962  0.3049
 8074SOL    HW235685   2.672   3.167   5.151  1.0278  0.0797  1.4662
 8075SOL     OW35686   0.832   3.548   7.405  0.1601 -0.6361 -0.2175
 8075SOL    HW135687   0.870   3.578   7.488 -0.0198 -1.3291  0.1118
 8075SOL    HW235688   0.829   3.455   7.427 -3.1899  0.1459  2.6543
 8076SOL     OW35689   3.740   2.681   6.318 -0.0092  0.0409 -0.4508
 8076SOL    HW135690   3.754   2.725   6.401  0.4000 -0.0388 -0.4775
 8076SOL    HW235691   3.798   2.725   6.257 -0.6526 -1.0364 -1.8546
 8077SOL     OW35692   2.587   2.797   0.536  0.2645  0.1592  0.2917
 8077SOL    HW135693   2.610   2.823   0.447  3.9962 -0.5222  1.0524
 8077SOL    HW235694   2.639   2.717   0.539 -0.0896  0.0046  2.0352
 8078SOL     OW35695   4.661   4.017   9.040 -0.3760  0.0458  0.4445
 8078SOL    HW135696   4.656   4.090   9.101 -0.8553 -1.5688  2.3360
 8078SOL    HW235697   0.011   3.969   9.078  0.0048  0.2969  0.0165
 8079SOL     OW35698   1.776   1.644   2.096  0.0138  0.5241 -0.0737
 8079SOL    HW135699   1.701   1.679   2.145 -0.2907 -1.9434  1.2458
 8079SOL    HW235700   1.723   1.593   2.035  0.3188  0.7556 -0.5227
 8080SOL     OW35701   3.355   1.267  12.825 -0.3216  0.0547 -0.1617
 8080SOL    HW135702   3.301   1.234  12.752 -0.0447 -1.3159  0.2549
 8080SOL    HW235703   3.310   1.245  12.906 -0.3883 -1.4538 -0.6078
 8081SOL     OW35704   1.922   0.413  11.869  0.4267 -0.0701  0.2636
 8081SOL    HW135705   1.860   0.440  11.935  0.6206  0.1180  0.3673
 8081SOL    HW235706   1.956   0.499  11.843  0.1820  0.7259  2.6295
 8082SOL     OW35707   2.851   2.638   3.861  0.2469  0.2587  0.0567
 8082SOL    HW135708   2.888   2.629   3.773 -0.2729 -0.4390 -0.0864
 8082SOL    HW235709   2.862   2.548   3.891 -2.8304  0.5481  2.0304
 8083SOL     OW35710   1.519   3.415   6.564 -0.1457 -0.0571  0.2325
 8083SOL    HW135711   1.487   3.472   6.493 -2.0667 -0.8886  0.4187
 8083SOL    HW235712   1.579   3.476   6.607  0.6196  0.6016 -1.7567
 8084SOL     OW35713   2.868   3.382   9.458  0.4843 -0.1032 -0.8741
 8084SOL    HW135714   2.926   3.370   9.534  0.5647 -1.4742 -1.1456
 8084SOL    HW235715   2.827   3.297   9.443  0.7339 -0.4598  0.4310
 8085SOL     OW35716   1.686   2.173   4.999  0.3825  0.0775 -0.3488
 8085SOL    HW135717   1.760   2.202   5.053  0.2622  0.9556 -0.6626
 8085SOL    HW235718   1.628   2.243   5.028  2.5483  1.3697  0.8118
 8086SOL     OW35719   0.383   0.727   2.784  0.6109 -0.3873 -0.6761
 8086SOL    HW135720   0.406   0.750   2.694 -0.5598 -2.7684 -1.5703
 8086SOL    HW235721   0.468   0.715   2.826  0.5210  1.1016 -0.0394
 8087SOL     OW35722   0.436   1.099   3.542 -0.0576 -0.6450 -0.4151
 8087SOL    HW135723   0.453   1.005   3.541 -0.4931 -0.7522  2.0982
 8087SOL    HW235724   0.503   1.132   3.601  0.7167  0.5867 -2.0001
 8088SOL     OW35725   3.656   1.526  12.940 -0.1414  0.5313  0.0713
 8088SOL    HW135726   3.655   1.613  12.980 -0.2719  0.5645 -0.0029
 8088SOL    HW235727   3.604   1.549  12.863  0.8099  0.7260 -0.5085
 8089SOL     OW35728   1.508   0.191   3.015 -0.0902  0.0841 -0.0106
 8089SOL    HW135729   1.566   0.251   2.968 -1.6920  0.8880 -0.9818
 8089SOL    HW235730   1.565   0.119   3.041  0.7789  0.0881 -1.9066
 8090SOL     OW35731   2.384   3.979   1.607  0.0818  0.3204  0.7266
 8090SOL    HW135732   2.339   4.050   1.562 -1.0869  0.2239  1.7488
 8090SOL    HW235733   2.422   4.015   1.687  0.9043 -0.1231  0.5330
 8091SOL     OW35734   1.309   1.112   4.514  0.1817 -0.1910 -0.1712
 8091SOL    HW135735   1.293   1.197   4.471  0.5038 -0.6418 -1.1879
 8091SOL    HW235736   1.253   1.125   4.591 -1.0181 -1.0560 -0.8966
 8092SOL     OW35737   3.057   1.148   4.745  0.4372  0.3919  0.2154
 8092SOL    HW135738   3.047   1.096   4.666  1.2135 -0.2050  0.5081
 8092SOL    HW235739   3.087   1.227   4.702  1.1669 -0.5867 -1.0873
 8093SOL     OW35740   0.278   1.919   6.583 -0.2420  0.1134  0.3675
 8093SOL    HW135741   0.295   1.939   6.676  1.7717 -0.3137  0.0896
 8093SOL    HW235742   0.250   1.828   6.577  0.2148  0.0442 -0.6530
 8094SOL     OW35743   4.517   3.641   7.069 -0.6817  0.3161  0.0941
 8094SOL    HW135744   4.556   3.576   7.011  1.4861  1.4990  0.2079
 8094SOL    HW235745   4.552   3.725   7.036  1.5613 -0.7127 -0.1689
 8095SOL     OW35746   4.468   2.999   7.099 -0.1256 -0.7701 -0.1670
 8095SOL    HW135747   4.383   3.035   7.126  1.6463  3.2208  0.1534
 8095SOL    HW235748   4.486   2.930   7.164  2.9224 -0.3066 -0.5056
 8096SOL     OW35749   4.429   1.576   7.331 -0.0530 -0.3042 -0.4455
 8096SOL    HW135750   4.479   1.495   7.339  2.0706  1.1182  0.6682
 8096SOL    HW235751   4.455   1.587   7.240  0.8837 -1.2196 -0.2825
 8097SOL     OW35752   1.667   3.172   8.129 -0.1409  0.4480 -0.4054
 8097SOL    HW135753   1.591   3.199   8.078 -1.7322  0.8046  2.1414
 8097SOL    HW235754   1.697   3.098   8.076  0.8957  1.2098 -0.8743
 8098SOL     OW35755   1.859   0.303   8.347  0.1893 -0.6375  0.2279
 8098SOL    HW135756   1.925   0.234   8.355  1.2782  0.1491 -2.0371
 8098SOL    HW235757   1.816   0.273   8.267 -0.7214 -1.0981  0.8895
 8099SOL     OW35758   3.416   3.522   4.188  0.4444 -0.0130  0.0486
 8099SOL    HW135759   3.468   3.547   4.112 -0.4426 -3.2376 -1.6355
 8099SOL    HW235760   3.448   3.433   4.199 -0.4789 -0.3222  0.2494
 8100SOL     OW35761   0.959   2.274   5.468 -0.5570  0.0825 -0.0515
 8100SOL    HW135762   1.015   2.217   5.415  0.2493  0.6791  0.1463
 8100SOL    HW235763   1.007   2.273   5.551 -0.0685  0.4236 -0.3306
 8101SOL     OW35764   3.646   3.740   4.677 -0.2107 -0.2405 -0.1224
 8101SOL    HW135765   3.602   3.729   4.592  0.3366  0.8075 -0.5507
 8101SOL    HW235766   3.719   3.679   4.671  0.3375  0.5169 -1.3223
 8102SOL     OW35767   1.552   3.555  16.544  0.1097 -0.2496 -0.1690
 8102SOL    HW135768   1.575   3.520  16.629 -0.8055  0.3597  0.3311
 8102SOL    HW235769   1.456   3.559  16.545  0.0405 -0.8714 -2.9650
 8103SOL     OW35770   2.098   3.586   5.863 -0.2055 -0.2945  0.0667
 8103SOL    HW135771   2.097   3.494   5.887 -0.5335  0.2115  1.9507
 8103SOL    HW235772   2.192   3.598   5.851 -0.2265  0.7075  0.9003
 8104SOL     OW35773   1.301   2.159  16.849  0.5519 -0.2456 -0.1843
 8104SOL    HW135774   1.249   2.173  16.770  0.8304 -0.6043 -0.4275
 8104SOL    HW235775   1.319   2.245  16.886 -1.8533  0.9600 -1.8697
 8105SOL     OW35776   0.287   1.200   5.249 -0.8024 -0.3996  0.0767
 8105SOL    HW135777   0.254   1.203   5.339  2.6186  1.4113  1.2873
 8105SOL    HW235778   0.254   1.286   5.223  4.1184  1.2344 -0.6924
 8106SOL     OW35779   1.907   4.030   4.059  0.0804  0.3172 -0.0675
 8106SOL    HW135780   1.991   4.020   4.014  0.9952 -0.0298  1.7213
 8106SOL    HW235781   1.932   4.007   4.148  0.4860  2.4378  0.3639
 8107SOL     OW35782   2.163   2.130   2.768  0.0907  0.5872 -0.0688
 8107SOL    HW135783   2.138   2.111   2.858  0.3177 -2.7096 -0.6972
 8107SOL    HW235784   2.228   2.064   2.744 -0.2774  0.3072 -0.3067
 8108SOL     OW35785   2.465   3.779  11.251  0.0083  0.3944 -0.5547
 8108SOL    HW135786   2.420   3.796  11.334  1.3477 -3.5614  0.9549
 8108SOL    HW235787   2.502   3.696  11.282  2.6431  1.8520  0.1559
 8109SOL     OW35788   2.876   3.508   2.816 -0.0887 -0.2759  0.1322
 8109SOL    HW135789   2.845   3.469   2.734 -1.1813  0.4192  0.2074
 8109SOL    HW235790   2.818   3.452   2.868  0.3594 -0.9397 -0.0847
 8110SOL     OW35791   0.498   3.751   0.910 -0.1843  0.3846 -0.1209
 8110SOL    HW135792   0.547   3.699   0.846  1.7701  1.8879  0.1711
 8110SOL    HW235793   0.484   3.833   0.861 -1.0908  1.2558  1.6094
 8111SOL     OW35794   1.003   2.226   6.531  0.1177  0.0922 -0.0350
 8111SOL    HW135795   1.070   2.204   6.467  2.1792  3.4989  0.9455
 8111SOL    HW235796   0.944   2.153   6.515  0.5703 -0.0049 -1.2104
 8112SOL     OW35797   2.340   2.487   1.426  0.7263  0.1526 -0.5972
 8112SOL    HW135798   2.334   2.568   1.375  0.9328 -0.0808 -0.9940
 8112SOL    HW235799   2.282   2.427   1.379 -1.1652 -0.3715  2.4171
 8113SOL     OW35800   2.326   1.049   2.209 -0.4298  0.4663 -0.6499
 8113SOL    HW135801   2.318   1.074   2.117  0.8615  0.4107 -0.7713
 8113SOL    HW235802   2.291   1.128   2.251  0.6237  1.0846 -0.9363
 8114SOL     OW35803   2.119   0.150   1.779  0.1739  0.2868  0.0869
 8114SOL    HW135804   2.174   0.148   1.700 -0.9693 -0.8470 -0.6723
 8114SOL    HW235805   2.125   0.244   1.798 -1.1699  0.1050  1.3512
 8115SOL     OW35806   0.517   2.002   3.688  0.4458  0.5333  0.1425
 8115SOL    HW135807   0.500   1.953   3.607  0.8843  2.2829 -1.0089
 8115SOL    HW235808   0.533   1.929   3.748 -0.5058  0.1055 -0.1257
 8116SOL     OW35809   0.115   1.652  13.794  0.1775  0.2162  0.0216
 8116SOL    HW135810   0.083   1.575  13.749 -0.6877 -0.4641  1.8090
 8116SOL    HW235811   0.198   1.625  13.834  0.2613  0.1716 -0.1813
 8117SOL     OW35812   1.294   1.852   8.096  0.3329  0.0808  0.0558
 8117SOL    HW135813   1.298   1.930   8.151 -1.1222 -0.0741  0.3920
 8117SOL    HW235814   1.340   1.785   8.145 -0.1442  1.1973  2.0327
 8118SOL     OW35815   4.534   2.363  15.969  0.6326 -0.1030  0.3820
 8118SOL    HW135816   4.440   2.360  15.982  0.5888  1.9012  0.5163
 8118SOL    HW235817   4.544   2.449  15.927  2.1736  0.6031  2.2194
 8119SOL     OW35818   0.113   1.390   3.623  0.3609  0.6032  0.0845
 8119SOL    HW135819   0.062   1.411   3.544  0.1896 -0.3772 -0.0670
 8119SOL    HW235820   0.071   1.308   3.649 -0.2538  1.5127  1.9185
 8120SOL     OW35821   4.378   2.902   1.637 -0.4683 -0.4746  0.4831
 8120SOL    HW135822   4.471   2.882   1.626 -0.7082 -0.9024 -0.8010
 8120SOL    HW235823   4.338   2.822   1.603 -3.6553  0.5179  1.9717
 8121SOL     OW35824   1.684   2.087  14.385  0.2293 -0.9572 -0.0980
 8121SOL    HW135825   1.602   2.116  14.346  0.2782  0.0009  0.5034
 8121SOL    HW235826   1.757   2.138  14.350  1.2215 -1.2194  1.5737
 8122SOL     OW35827   3.881   1.245   8.451 -0.3622 -0.3115  0.4791
 8122SOL    HW135828   3.955   1.305   8.452 -1.1533  0.6862 -0.3935
 8122SOL    HW235829   3.842   1.262   8.365 -0.7015 -1.5504  0.3805
 8123SOL     OW35830   3.228   4.407   2.786 -0.0391  0.8561 -0.1777
 8123SOL    HW135831   3.155   4.469   2.793  0.2838  1.1578  0.4591
 8123SOL    HW235832   3.252   4.388   2.877  1.2384 -0.5409 -0.8138
 8124SOL     OW35833   0.143   2.672  14.727  0.4252  0.1747 -0.1094
 8124SOL    HW135834   0.153   2.657  14.632  2.2518 -2.6487  0.4948
 8124SOL    HW235835   0.214   2.617  14.761 -0.9381 -0.3620  1.8517
 8125SOL     OW35836   0.011   0.125   7.918 -0.0349 -0.1561  0.0534
 8125SOL    HW135837   0.021   0.218   7.897 -1.2640  0.1030  0.5989
 8125SOL    HW235838   0.063   0.082   7.850 -0.3767 -0.1086 -0.2345
 8126SOL     OW35839   4.502   2.371   5.059  0.6100  0.9291  0.1864
 8126SOL    HW135840   4.410   2.345   5.058 -0.0653  3.0968  2.1618
 8126SOL    HW235841   4.514   2.374   4.965  3.1575 -2.0413  0.4561
 8127SOL     OW35842   1.157   1.087  14.592  0.2443 -0.1805 -0.3783
 8127SOL    HW135843   1.085   1.030  14.617  0.3440  0.1276  0.5984
 8127SOL    HW235844   1.191   1.038  14.518 -0.1024  0.5360 -1.0197
 8128SOL     OW35845   1.508   0.610  11.510  0.4411  0.3593  0.2447
 8128SOL    HW135846   1.444   0.609  11.438  0.0675  2.0817  0.5626
 8128SOL    HW235847   1.528   0.519  11.532 -1.0774  0.2640  1.2604
 8129SOL     OW35848   4.092   0.892   4.920 -0.3795 -0.1677 -0.1205
 8129SOL    HW135849   4.126   0.954   4.984 -0.9693  0.8469 -0.7809
 8129SOL    HW235850   3.997   0.904   4.930 -0.4924 -0.0961 -1.2338
 8130SOL     OW35851   1.696   3.602  12.901  0.4485 -0.9370  0.0578
 8130SOL    HW135852   1.761   3.569  12.963 -0.7009 -2.1899  0.6007
 8130SOL    HW235853   1.750   3.671  12.862  1.8844 -1.9066  0.3182
 8131SOL     OW35854   2.455   4.340  10.432 -0.3581  0.6056 -0.2209
 8131SOL    HW135855   2.491   4.425  10.405  0.6055  0.4831  0.6648
 8131SOL    HW235856   2.410   4.353  10.516  1.7238  2.3641  0.6153
 8132SOL     OW35857   3.069   2.874   3.569  0.0894  0.0078 -0.4760
 8132SOL    HW135858   3.040   2.784   3.581 -0.2479  0.1799 -0.0172
 8132SOL    HW235859   3.003   2.923   3.618  1.2322 -0.1135  1.1943
 8133SOL     OW35860   3.913   3.374   9.390  0.3290 -0.0103  0.3988
 8133SOL    HW135861   3.971   3.391   9.465  1.7152 -2.4943 -0.1057
 8133SOL    HW235862   3.842   3.435   9.412 -0.9869 -0.9470 -1.2752
 8134SOL     OW35863   3.459   0.003  12.135  0.3954  0.3991  0.6204
 8134SOL    HW135864   3.369   4.707  12.111 -0.3130  2.1439  1.8378
 8134SOL    HW235865   3.499   4.666  12.072  1.6993  1.1442  0.7389
 8135SOL     OW35866   2.170   2.846   4.238  0.0959  0.1982 -0.0992
 8135SOL    HW135867   2.152   2.931   4.277  2.0977 -0.3556  2.0345
 8135SOL    HW235868   2.256   2.819   4.271  0.9940  2.0264 -0.9868
 8136SOL     OW35869   0.390   3.233   1.438  0.4367  0.2312 -0.2201
 8136SOL    HW135870   0.313   3.205   1.487  0.6237  1.0026  0.5091
 8136SOL    HW235871   0.454   3.163   1.453  1.8476  1.5730  0.0497
 8137SOL     OW35872   0.465   4.615   9.116  0.3528  0.4597  0.4193
 8137SOL    HW135873   0.481   4.703   9.083  3.0231  0.2709  1.2348
 8137SOL    HW235874   0.417   4.579   9.042 -0.1701  1.5860  0.2113
 8138SOL     OW35875   0.729   3.284  11.436  0.1580  0.1360  0.5298
 8138SOL    HW135876   0.723   3.350  11.366  0.4287  0.1823  0.5537
 8138SOL    HW235877   0.676   3.331  11.500 -1.6198  2.2985 -2.4802
 8139SOL     OW35878   3.013   3.332   9.668 -0.7741  0.7010 -0.1740
 8139SOL    HW135879   3.095   3.282   9.674 -0.9639  0.4541  0.3304
 8139SOL    HW235880   3.025   3.389   9.744 -0.4469 -0.0088  0.3086
 8140SOL     OW35881   1.096   0.196   3.851 -0.0531 -0.1837 -0.3411
 8140SOL    HW135882   1.099   0.109   3.811  0.5685  0.0853 -0.8726
 8140SOL    HW235883   1.182   0.228   3.823  0.4477 -0.0015  1.3841
 8141SOL     OW35884   1.446   4.116  10.896  0.0631  0.0709  0.0407
 8141SOL    HW135885   1.402   4.196  10.927 -0.5578  0.2020 -1.1902
 8141SOL    HW235886   1.536   4.131  10.927  0.4055  0.3917 -1.1032
 8142SOL     OW35887   1.069   2.091   3.159 -0.8364 -0.0082  0.3235
 8142SOL    HW135888   1.147   2.097   3.104 -1.7697 -0.8065 -1.0924
 8142SOL    HW235889   1.057   2.175   3.202  1.0963  0.5737 -0.2816
 8143SOL     OW35890   3.054   2.804  12.079 -0.6802  0.3670  0.4519
 8143SOL    HW135891   3.145   2.807  12.047 -0.6307 -1.5942  0.4092
 8143SOL    HW235892   3.029   2.737  12.015  1.0181  1.7879 -1.7180
 8144SOL     OW35893   3.516   0.200  12.306 -0.0213  0.0211  0.3285
 8144SOL    HW135894   3.488   0.160  12.388  1.3699 -0.2842  0.6585
 8144SOL    HW235895   3.488   0.138  12.238 -1.9970  1.8469 -0.5194
 8145SOL     OW35896   0.692   2.945   2.427  0.0957  0.1722 -0.3080
 8145SOL    HW135897   0.700   2.944   2.332  2.7010  1.3711 -0.0998
 8145SOL    HW235898   0.780   2.933   2.462  1.4549  2.6933 -2.9535
 8146SOL     OW35899   4.216   2.901   7.405 -0.1148  0.3974  0.3074
 8146SOL    HW135900   4.242   2.850   7.482 -0.6064 -0.6983 -0.2625
 8146SOL    HW235901   4.152   2.959   7.448  1.4565  1.0469  1.7733
 8147SOL     OW35902   2.034   0.620   3.000  0.0137  0.6205 -0.3451
 8147SOL    HW135903   2.045   0.574   3.083 -0.0194  2.4340  0.6749
 8147SOL    HW235904   1.940   0.607   2.991  0.4578 -1.6688 -1.5121
 8148SOL     OW35905   4.048   1.467   3.844 -0.1547 -0.1447 -0.0859
 8148SOL    HW135906   4.046   1.405   3.917 -1.6962  0.1137  0.0927
 8148SOL    HW235907   4.113   1.531   3.873 -2.7435  1.3313  2.5466
 8149SOL     OW35908   0.620   0.418   5.270  0.1453  0.1590 -0.5233
 8149SOL    HW135909   0.660   0.385   5.351  0.1836  1.5686  0.0190
 8149SOL    HW235910   0.548   0.477   5.289 -0.4745 -0.6429 -0.3652
 8150SOL     OW35911   1.694   4.715   4.098 -0.1130  0.4304  0.2935
 8150SOL    HW135912   1.680   4.634   4.048 -0.0746  1.8181 -1.9461
 8150SOL    HW235913   1.775   0.020   4.055  1.2600 -1.5122  1.5682
 8151SOL     OW35914   2.777   4.515  15.135  0.1529  0.0623  0.4624
 8151SOL    HW135915   2.724   4.437  15.123  0.9285 -0.8329  2.9596
 8151SOL    HW235916   2.866   4.482  15.125  1.6857  3.8691  1.5729
 8152SOL     OW35917   2.609   1.171   7.465  0.4731  0.0170 -0.5593
 8152SOL    HW135918   2.670   1.182   7.538 -2.5950 -1.8922  2.2996
 8152SOL    HW235919   2.556   1.099   7.499 -2.3294  1.8586 -1.0362
 8153SOL     OW35920   0.740   2.519   8.108  0.2828  0.1581 -0.1183
 8153SOL    HW135921   0.685   2.485   8.037 -0.5374 -0.1544  0.6704
 8153SOL    HW235922   0.767   2.439   8.154 -1.4134 -0.0648  0.4920
 8154SOL     OW35923   1.870   2.592  16.513 -0.1629 -0.3236 -0.5890
 8154SOL    HW135924   1.843   2.550  16.595  0.0494  0.1579 -0.2771
 8154SOL    HW235925   1.825   2.676  16.511 -3.0490 -1.8482 -0.8207
 8155SOL     OW35926   1.323   2.591  11.518  0.0828  0.7614 -0.1936
 8155SOL    HW135927   1.243   2.542  11.537 -0.2716  1.1723 -0.6135
 8155SOL    HW235928   1.304   2.677  11.556  1.8776  0.9330  0.2887
 8156SOL     OW35929   3.865   3.552   4.660  0.6767 -0.4406 -0.1592
 8156SOL    HW135930   3.885   3.505   4.579 -0.5824  1.5451 -1.6339
 8156SOL    HW235931   3.922   3.510   4.725  1.5658  2.9043  1.2078
 8157SOL     OW35932   0.620   0.388  16.671 -0.0992  0.1964 -0.5770
 8157SOL    HW135933   0.579   0.470  16.699 -2.1790 -1.2138  0.4585
 8157SOL    HW235934   0.712   0.410  16.689  0.0924 -2.3196  1.3638
 8158SOL     OW35935   4.187   4.284   8.629  0.1759 -0.0594  0.2232
 8158SOL    HW135936   4.229   4.345   8.569 -1.6701 -0.6312 -1.6533
 8158SOL    HW235937   4.258   4.222   8.643  1.2686  1.0118 -0.5266
 8159SOL     OW35938   1.940   3.123   6.684 -0.4049  0.0624 -0.7114
 8159SOL    HW135939   1.887   3.077   6.748 -0.3026  1.1548  0.1665
 8159SOL    HW235940   1.972   3.196   6.737 -0.3814 -0.4487 -0.0243
 8160SOL     OW35941   3.457   1.105  14.309 -0.3908  0.2560 -0.0039
 8160SOL    HW135942   3.477   1.189  14.268 -0.1001  1.4246  2.5314
 8160SOL    HW235943   3.496   1.114  14.396  2.4732 -1.6587 -1.0653
 8161SOL     OW35944   2.812   2.693   8.945 -0.2023  0.7503 -0.0871
 8161SOL    HW135945   2.779   2.737   9.023  0.5392  2.7106 -0.8815
 8161SOL    HW235946   2.906   2.705   8.950  0.0053 -0.9361 -0.1857
 8162SOL     OW35947   1.570   1.753   2.208 -0.1952  0.3380 -0.4500
 8162SOL    HW135948   1.504   1.739   2.139 -0.8520  1.0924  0.0209
 8162SOL    HW235949   1.542   1.836   2.246  0.0685 -1.1582  3.0351
 8163SOL     OW35950   0.376   0.735   5.165  0.0791  0.4106  0.2017
 8163SOL    HW135951   0.427   0.790   5.105  0.2349  0.7740  0.6715
 8163SOL    HW235952   0.438   0.715   5.235  0.2831  0.7323  0.1130
 8164SOL     OW35953   4.051   1.830   1.211  0.3312 -0.3218 -0.0818
 8164SOL    HW135954   4.098   1.846   1.128  0.0776  0.1225 -0.1397
 8164SOL    HW235955   4.131   1.814   1.261  0.3305 -0.1644 -0.0305
 8165SOL     OW35956   0.011   0.371  11.988  0.3003  0.1672  0.0443
 8165SOL    HW135957   4.687   0.302  12.034 -1.1331  2.0058  1.3842
 8165SOL    HW235958   0.084   0.378  12.050  1.5879 -0.5616 -1.4136
 8166SOL     OW35959   3.344   1.168  13.882 -0.1247  0.1857  0.1215
 8166SOL    HW135960   3.404   1.135  13.949  0.2883 -1.2557 -0.9721
 8166SOL    HW235961   3.406   1.173  13.809  0.4458 -0.7889  0.5346
 8167SOL     OW35962   0.115   1.514   8.331 -0.1769  0.2281  0.0474
 8167SOL    HW135963   0.056   1.504   8.405  0.0182  0.5716  0.2499
 8167SOL    HW235964   0.190   1.463   8.361  0.0414  0.9535  0.7503
 8168SOL     OW35965   0.536   0.218  17.593  0.3388 -0.2769 -0.4266
 8168SOL    HW135966   0.451   0.189  17.560 -0.5261  1.1703  0.5072
 8168SOL    HW235967   0.512   0.296  17.644  0.5110 -0.2258 -0.4212
 8169SOL     OW35968   0.915   4.255   8.119 -0.3022 -0.3603  0.3192
 8169SOL    HW135969   0.823   4.230   8.107 -0.2348 -0.7527  0.6380
 8169SOL    HW235970   0.946   4.228   8.033  2.2423  0.4197  0.9938
 8170SOL     OW35971   1.633   0.299   2.658 -0.1957  0.0689 -0.0790
 8170SOL    HW135972   1.691   0.345   2.719 -0.4156  0.7562 -0.3901
 8170SOL    HW235973   1.672   0.213   2.646 -1.0395 -0.4691  1.0451
 8171SOL     OW35974   1.661   3.285   2.545 -0.8269  0.0324  0.9449
 8171SOL    HW135975   1.573   3.318   2.566 -1.1399  0.4461 -1.0100
 8171SOL    HW235976   1.635   3.210   2.492 -0.3828  0.8882 -0.4830
 8172SOL     OW35977   2.718   4.694  14.919 -0.2148  0.4238 -0.2491
 8172SOL    HW135978   2.808   4.682  14.948  0.0210  0.8047 -0.8164
 8172SOL    HW235979   2.734   4.693  14.825 -2.3521  0.2014 -0.6172
 8173SOL     OW35980   1.759   0.340   2.998  0.0653  0.2026 -0.3557
 8173SOL    HW135981   1.747   0.431   2.971 -2.8354 -0.4433 -1.2501
 8173SOL    HW235982   1.800   0.297   2.923  0.3611 -2.2938  1.2332
 8174SOL     OW35983   2.329   2.961   9.234 -0.0042 -0.5693 -0.0448
 8174SOL    HW135984   2.375   3.044   9.247 -0.1546 -0.4755 -0.1298
 8174SOL    HW235985   2.363   2.907   9.306 -0.5519 -0.1308  0.5463
 8175SOL     OW35986   3.270   1.922   7.140  0.4212  0.2311  0.2247
 8175SOL    HW135987   3.338   1.988   7.126  2.3135 -1.3377  2.0587
 8175SOL    HW235988   3.266   1.875   7.057  1.3316  1.8655 -0.7392
 8176SOL     OW35989   3.356   4.633   8.863 -0.2697 -0.1635 -0.3417
 8176SOL    HW135990   3.439   4.636   8.816  1.0049  1.1521  2.0050
 8176SOL    HW235991   3.307   4.700   8.816  2.7263  2.6167  0.4970
 8177SOL     OW35992   4.714   1.986   1.377 -0.0945  0.0656 -0.3650
 8177SOL    HW135993   0.007   1.900   1.416  0.9845  0.3931 -0.0774
 8177SOL    HW235994   0.038   1.979   1.294 -0.1493 -3.3245 -0.0905
 8178SOL     OW35995   1.026   1.399   0.374  0.4656 -0.0229  0.1285
 8178SOL    HW135996   0.994   1.481   0.412  1.0416  0.3350 -0.1514
 8178SOL    HW235997   1.058   1.362   0.456 -0.1267  1.3199  0.9581
 8179SOL     OW35998   3.680   2.906   8.641  0.4661  0.1226 -0.1157
 8179SOL    HW135999   3.741   2.896   8.568  1.5192  0.9190  0.6466
 8179SOL    HW236000   3.724   2.976   8.691 -0.3359  0.1114  0.6024
 8180SOL     OW36001   2.934   3.641   0.133  0.0095 -0.0332  0.0740
 8180SOL    HW136002   2.863   3.581   0.157 -0.5921  0.8555  0.5395
 8180SOL    HW236003   3.012   3.600   0.170  0.5208 -0.3776 -1.3873
 8181SOL     OW36004   0.878   4.456   6.403  0.0490  0.6524 -0.1066
 8181SOL    HW136005   0.834   4.371   6.397  0.9930  0.2173 -0.8752
 8181SOL    HW236006   0.818   4.508   6.457 -0.0314  0.2970  0.1451
 8182SOL     OW36007   3.467   1.512   7.076  0.2417  0.0644 -0.0229
 8182SOL    HW136008   3.532   1.568   7.118 -1.1399  1.8118 -0.1518
 8182SOL    HW236009   3.408   1.510   7.151  1.0256  2.7264  0.6683
 8183SOL     OW36010   2.183   4.571   3.647 -0.1696  0.1694 -0.0994
 8183SOL    HW136011   2.144   4.490   3.681 -1.1579  0.3864 -0.7215
 8183SOL    HW236012   2.267   4.573   3.692 -0.7439 -0.1178  0.9890
 8184SOL     OW36013   4.471   4.544   2.475  0.6699 -0.6711  0.5466
 8184SOL    HW136014   4.472   4.617   2.536  0.5030 -0.7918  0.6922
 8184SOL    HW236015   4.508   4.574   2.391  0.7966  1.1018  1.2485
 8185SOL     OW36016   2.035   1.832   0.557 -0.0177  0.1502 -0.4131
 8185SOL    HW136017   2.059   1.894   0.488 -0.7584  1.3325  0.3853
 8185SOL    HW236018   2.111   1.826   0.615  0.6585  0.4221 -1.2659
 8186SOL     OW36019   3.576   4.377   4.724 -0.0887 -0.3388 -0.0464
 8186SOL    HW136020   3.653   4.435   4.719  1.6883 -2.6639  0.4034
 8186SOL    HW236021   3.614   4.290   4.733 -1.1733 -0.9057 -1.1333
 8187SOL     OW36022   3.032   0.562   8.140 -0.6747  0.3265 -0.7188
 8187SOL    HW136023   2.997   0.640   8.098 -0.0632  0.6272 -0.6631
 8187SOL    HW236024   3.124   0.570   8.116 -0.9059 -2.4220 -2.5701
 8188SOL     OW36025   1.753   0.211   5.863 -0.1909  0.1182  0.1562
 8188SOL    HW136026   1.842   0.245   5.862  0.1629 -0.7562  1.6938
 8188SOL    HW236027   1.778   0.137   5.919 -2.2341 -0.2740  0.5598
 8189SOL     OW36028   1.107   1.339   1.924 -0.3396  0.0568  0.2367
 8189SOL    HW136029   1.039   1.273   1.916  0.7475 -1.2143  1.6360
 8189SOL    HW236030   1.135   1.342   1.832  0.8860 -1.3789  0.5701
 8190SOL     OW36031   0.557   2.254  15.789 -0.1701 -0.2346 -0.0221
 8190SOL    HW136032   0.529   2.345  15.781 -0.9824 -0.5628 -1.0416
 8190SOL    HW236033   0.589   2.232  15.701  1.7740 -0.0419  0.6569
 8191SOL     OW36034   2.744   2.630  16.650 -0.2959 -0.4760  0.0502
 8191SOL    HW136035   2.766   2.562  16.586 -1.5379 -0.4007 -0.4572
 8191SOL    HW236036   2.832   2.649  16.682 -0.4333  0.6036 -0.1973
 8192SOL     OW36037   3.489   3.642   6.882 -0.2419  0.1315  0.3754
 8192SOL    HW136038   3.576   3.651   6.920 -0.7430 -0.1339  1.5973
 8192SOL    HW236039   3.458   3.560   6.922  0.8182 -0.3175  0.2681
 8193SOL     OW36040   3.406   1.551   8.250  0.5483  0.4614  0.2395
 8193SOL    HW136041   3.484   1.551   8.193 -1.8487 -0.0551 -3.0695
 8193SOL    HW236042   3.441   1.608   8.318 -1.3906  0.9492  0.8148
 8194SOL     OW36043   4.178   1.042   6.804  0.3961  0.1498  0.1204
 8194SOL    HW136044   4.197   0.963   6.753  1.1867  0.4909 -0.0988
 8194SOL    HW236045   4.152   1.107   6.739 -0.3493 -1.7609 -1.4897
 8195SOL     OW36046   2.728   4.175  10.636  0.3061  0.1086  0.0644
 8195SOL    HW136047   2.740   4.154  10.543  0.2605  0.1867  0.0404
 8195SOL    HW236048   2.700   4.267  10.631  2.0280  0.6141 -0.1848
 8196SOL     OW36049   3.199   2.507   3.755 -0.4326  0.0826  0.3312
 8196SOL    HW136050   3.253   2.581   3.726  0.9831 -0.6757  1.0259
 8196SOL    HW236051   3.256   2.440   3.716  0.2587  0.3973  0.8057
 8197SOL     OW36052   1.503   0.845   8.021 -0.4491 -0.9299  0.3416
 8197SOL    HW136053   1.541   0.928   7.992 -0.7119 -0.5301  1.1376
 8197SOL    HW236054   1.581   0.794   8.042 -0.3009 -0.4472  0.9778
 8198SOL     OW36055   0.662   4.224  13.963 -0.1570  0.5391  0.4890
 8198SOL    HW136056   0.592   4.282  13.935 -0.9906 -0.8953 -0.3733
 8198SOL    HW236057   0.650   4.239  14.057 -0.6985  0.7588  0.3852
 8199SOL     OW36058   2.303   1.664   2.363  0.4096  0.1141  0.6909
 8199SOL    HW136059   2.344   1.722   2.299 -1.9289 -0.5045 -1.3863
 8199SOL    HW236060   2.355   1.584   2.350  0.0995  0.0660 -0.2151
 8200SOL     OW36061   1.189   1.571   7.032 -0.0228  0.0174  0.2942
 8200SOL    HW136062   1.117   1.539   6.977 -0.9813  1.2835  0.7968
 8200SOL    HW236063   1.128   1.590   7.104 -1.4603 -1.4872 -0.5018
 8201SOL     OW36064   0.041   3.980  15.999  1.0033  0.0660  0.3178
 8201SOL    HW136065   0.103   3.909  16.017  1.2413  0.5299  1.3342
 8201SOL    HW236066   4.692   3.928  16.032  2.1240 -1.6891  0.0238
 8202SOL     OW36067   3.997   3.761  12.328 -0.6593  0.4868  0.0294
 8202SOL    HW136068   4.087   3.754  12.297 -1.1503 -1.1940 -1.0111
 8202SOL    HW236069   4.002   3.842  12.378  0.1958  0.1336  0.5219
 8203SOL     OW36070   3.391   0.307   4.452  0.1555 -0.1773  0.2812
 8203SOL    HW136071   3.309   0.345   4.420 -0.6916 -0.6662  1.9034
 8203SOL    HW236072   3.442   0.312   4.372 -0.4672 -1.0491 -0.1646
 8204SOL     OW36073   2.460   2.325   2.913 -0.2532 -0.0428 -0.1862
 8204SOL    HW136074   2.435   2.265   2.843  0.9498 -0.5269 -0.2025
 8204SOL    HW236075   2.524   2.273   2.962 -0.7091 -0.5764 -0.1544
 8205SOL     OW36076   1.117   3.409   6.129  0.6139  0.3150  0.1606
 8205SOL    HW136077   1.175   3.382   6.201 -0.8121 -0.1422  1.1272
 8205SOL    HW236078   1.047   3.344   6.129  0.9567 -0.0519  1.0578
 8206SOL     OW36079   4.388   1.497   9.152 -0.1958  0.2422 -0.2929
 8206SOL    HW136080   4.297   1.468   9.147  0.1028 -0.7289 -0.1952
 8206SOL    HW236081   4.378   1.585   9.187  0.8363  1.1914 -2.4233
 8207SOL     OW36082   4.555   0.026   5.727  0.7471  0.1477 -0.0488
 8207SOL    HW136083   4.499   0.036   5.650  0.2479 -0.5593  0.2277
 8207SOL    HW236084   4.644   0.045   5.696  0.9232  2.1188  1.6575
 8208SOL     OW36085   4.368   3.473   1.949 -0.0824  0.2751  0.1779
 8208SOL    HW136086   4.273   3.469   1.964 -0.0746  0.8445  0.3752
 8208SOL    HW236087   4.369   3.418   1.871 -1.3275 -1.0815  1.1256
 8209SOL     OW36088   2.443   1.614   9.787  0.7236 -0.3422  0.5613
 8209SOL    HW136089   2.422   1.667   9.710  0.0854 -0.3410  0.7417
 8209SOL    HW236090   2.413   1.526   9.763  2.4091 -0.5359 -0.8332
 8210SOL     OW36091   0.535   1.460   5.320  0.4126 -0.1411  0.4065
 8210SOL    HW136092   0.538   1.436   5.227 -1.2461  2.1008 -0.2333
 8210SOL    HW236093   0.498   1.548   5.308 -0.8376 -0.6730  0.4436
 8211SOL     OW36094   2.855   2.885   1.619  0.3601 -0.0873 -0.2161
 8211SOL    HW136095   2.913   2.952   1.585 -0.5528 -0.7903 -3.1928
 8211SOL    HW236096   2.865   2.903   1.712  0.4904  0.7192 -0.3855
 8212SOL     OW36097   1.875   3.622   7.958 -0.5430 -0.7742 -0.0428
 8212SOL    HW136098   1.828   3.558   7.905  0.1483 -0.1885 -1.3798
 8212SOL    HW236099   1.958   3.575   7.968 -0.5871 -1.0688 -1.0450
 8213SOL     OW36100   1.500   2.301   8.561  0.0002 -0.0570  0.1542
 8213SOL    HW136101   1.588   2.291   8.524 -0.5249  0.3164 -1.1938
 8213SOL    HW236102   1.503   2.244   8.638  1.6874 -1.1146 -0.6879
 8214SOL     OW36103   0.006   0.145   6.550  0.0577  0.1287  0.2055
 8214SOL    HW136104   4.714   0.099   6.468 -0.6386 -1.3548  1.1702
 8214SOL    HW236105   0.001   0.066   6.604  1.9339 -0.2030 -0.1118
 8215SOL     OW36106   3.997   1.729   8.446  0.3214  0.3529 -0.0478
 8215SOL    HW136107   4.051   1.788   8.393 -1.6542 -0.0431 -2.4929
 8215SOL    HW236108   3.921   1.787   8.447 -0.0723 -0.1746  0.9772
 8216SOL     OW36109   1.957   2.987   4.501 -0.4811 -0.1360  0.6823
 8216SOL    HW136110   1.870   2.996   4.464  0.1074  0.7638 -0.4512
 8216SOL    HW236111   1.933   2.981   4.594 -1.7152  0.2530  0.3852
 8217SOL     OW36112   1.179   2.971   5.393  0.2611 -0.3535  0.0016
 8217SOL    HW136113   1.137   2.896   5.435  0.4179 -0.9675 -0.9453
 8217SOL    HW236114   1.232   2.935   5.322 -0.9195 -1.8449 -0.1115
 8218SOL     OW36115   3.594   2.683   7.260  0.1242 -0.2017  1.1135
 8218SOL    HW136116   3.674   2.678   7.313 -0.3944 -4.2159  1.5397
 8218SOL    HW236117   3.538   2.638   7.323  1.8748  1.2950  3.7434
 8219SOL     OW36118   2.769   2.887   3.675 -0.3045  0.5257 -0.2422
 8219SOL    HW136119   2.750   2.981   3.673  0.5640  0.6680 -2.2586
 8219SOL    HW236120   2.801   2.890   3.765  2.2832  0.8623 -1.1577
 8220SOL     OW36121   1.115   1.543   3.561 -0.3093 -0.2284  0.2491
 8220SOL    HW136122   1.025   1.572   3.543 -0.2341  0.1739  0.5127
 8220SOL    HW236123   1.151   1.614   3.614  2.1279 -0.1637 -1.5109
 8221SOL     OW36124   1.599   3.352  15.409 -0.0890  0.3437  0.4952
 8221SOL    HW136125   1.664   3.422  15.423  1.1227 -0.7893  0.5781
 8221SOL    HW236126   1.651   3.292  15.356  1.1293  1.1488  0.7615
 8222SOL     OW36127   4.360   3.085   1.854  0.1563 -0.3029 -0.6256
 8222SOL    HW136128   4.386   3.028   1.782  2.5602  1.0768 -0.8483
 8222SOL    HW236129   4.268   3.083   1.829 -0.1905 -2.2349  0.8042
 8223SOL     OW36130   0.242   4.259   2.282 -0.2067  0.0264  0.1506
 8223SOL    HW136131   0.255   4.322   2.211  0.4450 -0.5299 -0.2254
 8223SOL    HW236132   0.185   4.304   2.345 -0.5106  0.4718 -0.4536
 8224SOL     OW36133   4.462   0.250   4.716 -0.3278 -0.0726 -0.5325
 8224SOL    HW136134   4.415   0.180   4.671  1.3328 -1.7015  0.2626
 8224SOL    HW236135   4.428   0.331   4.678 -0.3585  0.4686  0.6509
 8225SOL     OW36136   1.397   4.078   9.470 -0.5872  0.6848 -0.4376
 8225SOL    HW136137   1.352   4.004   9.429 -2.1572  0.9484  0.8082
 8225SOL    HW236138   1.442   4.117   9.395  1.1390  0.1325  0.3211
 8226SOL     OW36139   4.247   1.780   8.221  0.2680 -0.1302  0.0315
 8226SOL    HW136140   4.314   1.724   8.260  0.3725 -0.0304 -0.0050
 8226SOL    HW236141   4.200   1.706   8.182 -0.1667  0.4030 -0.4781
 8227SOL     OW36142   1.465   4.086   9.731 -0.0199 -0.2524 -0.2456
 8227SOL    HW136143   1.454   4.082   9.636 -0.4729 -0.9750 -0.1621
 8227SOL    HW236144   1.377   4.121   9.742 -0.4255 -0.6241 -2.1961
 8228SOL     OW36145   4.397   4.436   2.835  0.6535  0.3621  0.1555
 8228SOL    HW136146   4.360   4.498   2.899 -1.5818  0.6282 -1.3663
 8228SOL    HW236147   4.318   4.382   2.839  1.9709 -1.4906  0.9460
 8229SOL     OW36148   4.137   3.778   4.742  0.3012 -0.1672 -0.3916
 8229SOL    HW136149   4.095   3.694   4.758 -2.7721  1.4244 -0.0830
 8229SOL    HW236150   4.228   3.749   4.747  0.5006 -0.1157 -3.8880
 8230SOL     OW36151   2.866   1.532   9.551  0.3029 -0.0228 -0.0654
 8230SOL    HW136152   2.796   1.487   9.504 -0.4613  0.8117  0.2916
 8230SOL    HW236153   2.946   1.499   9.510  0.6315  2.1680 -1.1647
 8231SOL     OW36154   0.428   3.522   1.548  1.0454 -0.5359 -0.6604
 8231SOL    HW136155   0.427   3.480   1.462 -0.7506  1.3210 -1.5616
 8231SOL    HW236156   0.515   3.503   1.583  0.9952  1.3105  0.4582
 8232SOL     OW36157   1.983   3.575   3.464 -0.2358  0.0333 -0.4671
 8232SOL    HW136158   2.000   3.555   3.372 -1.9995 -0.2346 -0.7487
 8232SOL    HW236159   2.060   3.629   3.476 -1.0124  1.1047 -0.3468
 8233SOL     OW36160   1.449   0.539  15.637  0.2406  0.4277 -0.1963
 8233SOL    HW136161   1.422   0.523  15.547  0.1911 -2.0194  0.2581
 8233SOL    HW236162   1.366   0.541  15.685  1.2766  2.3131  1.5133
 8234SOL     OW36163   1.171   4.164   2.979 -0.3315 -0.0751 -0.2937
 8234SOL    HW136164   1.104   4.124   2.924 -0.5186  0.9811 -0.8307
 8234SOL    HW236165   1.179   4.254   2.949  2.4017  0.2230  1.3278
 8235SOL     OW36166   2.034   1.304   2.491 -0.7149  0.1329 -0.3451
 8235SOL    HW136167   1.973   1.365   2.532 -0.0811  1.5382 -1.4786
 8235SOL    HW236168   1.966   1.237   2.485  0.3476 -0.8720 -1.0920
 8236SOL     OW36169   3.238   3.505   4.952 -0.1395  0.0377  0.1560
 8236SOL    HW136170   3.229   3.596   4.925  2.8666  0.8368  1.8180
 8236SOL    HW236171   3.172   3.495   5.020  0.7697  1.9270  1.3235
 8237SOL     OW36172   1.860   1.525  14.206 -0.5722  0.1356  0.4030
 8237SOL    HW136173   1.949   1.519  14.242 -0.8907 -1.4575  0.9197
 8237SOL    HW236174   1.873   1.476  14.125  2.1663 -0.4661  1.1973
 8238SOL     OW36175   2.107   2.843   4.730  0.1474  0.1607 -0.8938
 8238SOL    HW136176   2.164   2.909   4.690  0.0295 -1.3062 -3.4771
 8238SOL    HW236177   2.178   2.804   4.781  1.8201  0.2534 -3.1370
 8239SOL     OW36178   0.540   3.972   1.196  0.5878  0.0649 -0.1450
 8239SOL    HW136179   0.476   4.044   1.195 -0.7193 -1.0903  1.5860
 8239SOL    HW236180   0.499   3.890   1.169  0.0511 -0.2717  1.6622
 8240SOL     OW36181   1.443   3.808   8.213  0.7911 -0.2145  0.1129
 8240SOL    HW136182   1.447   3.895   8.251 -1.2213 -0.1474  0.1838
 8240SOL    HW236183   1.359   3.769   8.240  0.1887  1.6462  0.9199
 8241SOL     OW36184   2.287   1.953  14.722 -0.5432  0.1491 -0.5522
 8241SOL    HW136185   2.243   2.016  14.778  0.6754 -0.0467  0.6434
 8241SOL    HW236186   2.371   1.939  14.767 -0.9998 -1.1089 -0.0830
 8242SOL     OW36187   3.554   1.025   6.404  0.1210 -0.2145  0.0721
 8242SOL    HW136188   3.516   1.031   6.492  0.0873  2.7028 -0.1570
 8242SOL    HW236189   3.636   0.978   6.421  1.0299  0.7031 -1.8055
 8243SOL     OW36190   2.543   0.416  13.955 -0.3342  0.9100  0.0896
 8243SOL    HW136191   2.497   0.436  13.873 -1.0078 -1.0601 -0.0127
 8243SOL    HW236192   2.612   0.482  13.959 -0.4396  1.0423 -0.2251
 8244SOL     OW36193   4.090   0.276   6.701  0.2262 -0.4487  0.2183
 8244SOL    HW136194   4.131   0.270   6.788 -1.9103 -1.6826  1.1225
 8244SOL    HW236195   4.143   0.343   6.656  0.9105 -1.2932 -0.2294
 8245SOL     OW36196   0.660   0.608   4.502  0.5936  0.3175  0.5815
 8245SOL    HW136197   0.680   0.516   4.522  0.2943  0.2908  0.7546
 8245SOL    HW236198   0.650   0.605   4.407  2.3765  0.8435  0.3856
 8246SOL     OW36199   2.453   4.639  10.066 -0.6900 -0.1159  0.4357
 8246SOL    HW136200   2.545   4.615  10.055 -0.9909 -0.9583 -0.2893
 8246SOL    HW236201   2.441   4.618  10.159  1.7516 -0.4214  0.6650
 8247SOL     OW36202   3.566   0.215   2.633  0.3987  0.2283  0.8889
 8247SOL    HW136203   3.545   0.231   2.541 -1.4883 -1.0912  1.1083
 8247SOL    HW236204   3.547   0.301   2.672  0.4212 -0.5147  2.5283
 8248SOL     OW36205   1.445   0.653   4.817 -0.2293 -0.2242 -0.1652
 8248SOL    HW136206   1.498   0.716   4.766 -0.5327  0.3391  0.2235
 8248SOL    HW236207   1.359   0.659   4.775  0.7001 -0.0220 -2.0863
 8249SOL     OW36208   3.458   2.739   4.181  0.1016 -0.1512  0.2250
 8249SOL    HW136209   3.410   2.688   4.246 -1.8234 -0.3737 -1.3834
 8249SOL    HW236210   3.502   2.671   4.130  2.2942  0.3563  1.4660
 8250SOL     OW36211   4.645   2.599  10.781 -0.6530 -0.2328  0.6033
 8250SOL    HW136212   4.681   2.671  10.730 -1.4413 -1.3679 -1.5586
 8250SOL    HW236213   4.718   2.590  10.841 -0.8506 -1.6754  0.6128
 8251SOL     OW36214   3.830   2.079   1.243  0.3062 -0.2390 -0.0320
 8251SOL    HW136215   3.844   2.170   1.217 -1.0840 -0.1424 -0.4697
 8251SOL    HW236216   3.759   2.060   1.181  1.0059  0.4523 -1.0404
 8252SOL     OW36217   4.689   1.615   6.567  0.0690 -0.5202 -0.4711
 8252SOL    HW136218   4.722   1.532   6.601  2.3852  0.5408 -0.1430
 8252SOL    HW236219   4.701   1.670   6.644 -2.2635 -1.2807  0.4419
 8253SOL     OW36220   1.901   0.857  15.022 -0.0980 -0.1295 -0.3476
 8253SOL    HW136221   1.952   0.917  15.076  0.8464 -0.1442 -1.2311
 8253SOL    HW236222   1.967   0.789  15.004 -1.0918 -0.8533 -1.3443
 8254SOL     OW36223   1.411   3.014   4.057  0.1140  0.2221 -0.2454
 8254SOL    HW136224   1.382   3.089   4.005 -1.8563 -1.8283 -2.0976
 8254SOL    HW236225   1.505   3.001   4.051  0.0351 -1.4549  2.1381
 8255SOL     OW36226   1.375   1.743   7.194 -0.0067  0.0314  0.5545
 8255SOL    HW136227   1.329   1.688   7.131 -0.3831 -1.3933  2.0574
 8255SOL    HW236228   1.388   1.819   7.138  0.2369 -0.4751 -0.0657
 8256SOL     OW36229   3.715   2.407   2.832  0.3028 -0.6767 -0.2675
 8256SOL    HW136230   3.783   2.409   2.765  1.8541 -0.0105  1.3060
 8256SOL    HW236231   3.644   2.457   2.793  0.1214 -1.2416 -0.6562
 8257SOL     OW36232   2.918   1.867   5.060 -0.0995  0.8203  0.6452
 8257SOL    HW136233   2.861   1.907   5.126 -0.2242  2.8590 -0.6878
 8257SOL    HW236234   2.854   1.866   4.989  1.5350  1.1292 -0.8333
 8258SOL     OW36235   2.718   1.346  16.836  0.5402  0.2677 -0.0827
 8258SOL    HW136236   2.670   1.335  16.918 -0.0530  0.8633 -0.3439
 8258SOL    HW236237   2.747   1.259  16.809 -0.2236 -0.0699  0.1825
 8259SOL     OW36238   2.418   4.234   7.986  0.4916  0.1896 -0.6067
 8259SOL    HW136239   2.424   4.215   7.893  1.7831  0.3781 -0.5675
 8259SOL    HW236240   2.511   4.253   8.001  0.5448 -1.4103  1.1231
 8260SOL     OW36241   0.612   4.361   6.539  0.2798 -0.1388 -0.3275
 8260SOL    HW136242   0.607   4.328   6.449  2.0934  1.5761 -1.0498
 8260SOL    HW236243   0.585   4.280   6.583 -0.0951  1.0984  1.7481
 8261SOL     OW36244   0.522   3.000   4.020  0.0210  0.0354  0.6718
 8261SOL    HW136245   0.541   2.921   4.069 -0.1519  0.5518  1.5654
 8261SOL    HW236246   0.427   2.997   4.019  0.0573 -1.3899  2.9559
 8262SOL     OW36247   1.897   3.171   4.742 -0.2324 -0.7847 -0.2500
 8262SOL    HW136248   1.896   3.242   4.678  0.5916  0.8350  1.5702
 8262SOL    HW236249   1.815   3.195   4.786  0.2894  1.4072 -0.4863
 8263SOL     OW36250   4.111   2.274   8.159 -0.2933  0.1455  0.2346
 8263SOL    HW136251   4.134   2.220   8.235  0.2189  2.4905  1.7342
 8263SOL    HW236252   4.143   2.361   8.181 -0.6009  0.0575  1.0101
 8264SOL     OW36253   3.962   1.785   4.016  0.4910  0.2032 -0.3660
 8264SOL    HW136254   3.899   1.713   4.021  1.2610 -0.2660  2.6734
 8264SOL    HW236255   3.903   1.858   4.033  0.3696 -0.6119  2.7235
 8265SOL     OW36256   0.548   2.437   4.143 -0.0072  0.1683  0.3641
 8265SOL    HW136257   0.581   2.409   4.057  1.5215 -0.7837  1.2568
 8265SOL    HW236258   0.620   2.469   4.198  0.1792 -0.0951  0.2732
 8266SOL     OW36259   3.795   0.541   1.374  1.3634 -0.8058  0.1785
 8266SOL    HW136260   3.752   0.473   1.322 -1.5017  1.3792 -0.2666
 8266SOL    HW236261   3.860   0.562   1.307 -0.3984  1.2217 -0.8994
 8267SOL     OW36262   0.820   3.579   9.945  0.1134  0.2897  0.3061
 8267SOL    HW136263   0.754   3.569  10.013  0.6976  2.5140  1.2009
 8267SOL    HW236264   0.877   3.648   9.978 -0.5315  1.9799 -2.0654
 8268SOL     OW36265   3.876   4.495   8.242 -0.3868  0.3001  0.1175
 8268SOL    HW136266   3.927   4.428   8.287  3.3182  1.3897 -2.4184
 8268SOL    HW236267   3.819   4.440   8.188 -0.2062 -0.4586  0.7045
 8269SOL     OW36268   1.974   4.679   5.380  0.3455 -0.3760  0.2425
 8269SOL    HW136269   1.956   0.027   5.320  1.8742 -1.5540 -1.6358
 8269SOL    HW236270   1.935   4.717   5.459  1.3938 -1.0269  1.0655
 8270SOL     OW36271   1.249   1.301   3.772  0.4952  1.0005 -0.7608
 8270SOL    HW136272   1.184   1.290   3.842 -1.0310 -3.3141 -2.8823
 8270SOL    HW236273   1.283   1.387   3.799  2.0106  0.1249  0.0662
 8271SOL     OW36274   3.927   4.190   0.114 -0.2942 -0.1734 -0.4501
 8271SOL    HW136275   3.835   4.193   0.089 -0.9231 -2.3047  1.6922
 8271SOL    HW236276   3.925   4.230   0.201  0.7611  0.2331 -0.6047
 8272SOL     OW36277   3.290   1.205  15.875  0.2195 -0.0691  0.6050
 8272SOL    HW136278   3.235   1.180  15.950 -0.2979 -1.7284 -0.3458
 8272SOL    HW236279   3.325   1.126  15.835  3.1233  1.0241  1.0007
 8273SOL     OW36280   1.098   1.870   7.901 -0.1164  0.1032 -0.1725
 8273SOL    HW136281   1.171   1.887   7.960  1.3227 -4.2391 -0.6286
 8273SOL    HW236282   1.131   1.906   7.818 -1.7699 -0.6134 -1.1467
 8274SOL     OW36283   1.367   0.742   7.200 -0.2160 -0.0538 -0.2989
 8274SOL    HW136284   1.333   0.667   7.249 -0.2144 -1.1995 -2.0375
 8274SOL    HW236285   1.290   0.783   7.159 -0.1768 -1.4576 -1.7592
 8275SOL     OW36286   1.785   4.359  13.843 -0.4504  0.0950 -0.0713
 8275SOL    HW136287   1.834   4.298  13.898  0.3187 -0.3477 -1.2373
 8275SOL    HW236288   1.705   4.356  13.895  0.2006  0.5685  0.9493
 8276SOL     OW36289   3.674   2.074   8.082 -0.2583  0.0275 -0.0498
 8276SOL    HW136290   3.709   1.987   8.100  0.3771  0.5452  1.2338
 8276SOL    HW236291   3.654   2.075   7.989  0.7996 -2.7461 -0.3036
 8277SOL     OW36292   3.886   2.251  14.708 -0.1421 -0.0199 -0.2535
 8277SOL    HW136293   3.902   2.182  14.771  0.4575  1.7854  1.5781
 8277SOL    HW236294   3.804   2.228  14.663 -1.1603 -0.9627  2.0983
 8278SOL     OW36295   3.589   2.163   2.917  0.4072  0.6124  0.1181
 8278SOL    HW136296   3.605   2.251   2.882 -0.7712 -0.5021 -3.2615
 8278SOL    HW236297   3.651   2.165   2.990  1.4610 -1.1034 -0.7191
 8279SOL     OW36298   2.514   3.165   3.956  0.2226 -0.2162 -0.5591
 8279SOL    HW136299   2.497   3.071   3.959  0.7584 -0.3483 -1.7999
 8279SOL    HW236300   2.442   3.199   4.009  0.4874 -1.1529  0.4115
 8280SOL     OW36301   2.086   1.629   5.856  0.3021  0.4578 -0.0456
 8280SOL    HW136302   2.165   1.624   5.909 -0.9603  1.3654  1.9309
 8280SOL    HW236303   2.042   1.706   5.892 -0.2949 -0.0302  0.2808
 8281SOL     OW36304   4.308   2.990   6.491  0.1455 -0.0537  0.4876
 8281SOL    HW136305   4.285   3.072   6.534  0.4642  0.4100 -0.2249
 8281SOL    HW236306   4.364   3.019   6.420 -0.3725 -0.7704 -0.2101
 8282SOL     OW36307   3.951   1.303   1.638  0.2655  0.9387 -0.3265
 8282SOL    HW136308   3.918   1.324   1.551  2.5245 -0.4657 -1.5356
 8282SOL    HW236309   4.014   1.373   1.655  0.0560  1.0389  0.0296
 8283SOL     OW36310   4.493   0.937   7.260  0.0159  0.6736 -0.2297
 8283SOL    HW136311   4.436   0.896   7.194  0.6281  1.1129 -1.0344
 8283SOL    HW236312   4.453   1.024   7.267 -0.2520  0.4523  1.0201
 8284SOL     OW36313   1.549   2.333  15.946 -0.7142  0.2686 -0.1610
 8284SOL    HW136314   1.499   2.412  15.969  0.2456  1.1342 -1.0680
 8284SOL    HW236315   1.501   2.316  15.866  0.3851 -2.0886 -0.3161
 8285SOL     OW36316   1.034   3.523   3.089 -0.5868  0.0565 -0.4211
 8285SOL    HW136317   0.957   3.490   3.134 -0.6409  1.8780  0.8531
 8285SOL    HW236318   1.002   3.601   3.042 -2.2576 -1.5730 -1.9583
 8286SOL     OW36319   2.608   0.253  15.094  0.3536  0.2795  0.1119
 8286SOL    HW136320   2.587   0.346  15.083  0.4664  0.1595 -1.1946
 8286SOL    HW236321   2.654   0.255  15.177 -0.3809 -0.8720  0.5477
 8287SOL     OW36322   1.911   1.480   7.396 -0.2471 -0.2765  0.0399
 8287SOL    HW136323   1.941   1.521   7.477 -2.5096  1.3399  0.0680
 8287SOL    HW236324   1.956   1.395   7.395  0.7520  0.2659 -0.9742
 8288SOL     OW36325   0.173   1.088  12.146  0.4614  0.4618  0.6500
 8288SOL    HW136326   0.083   1.082  12.114  1.0580  1.0302 -1.1562
 8288SOL    HW236327   0.221   1.059  12.069  1.3670 -0.3171  1.5086
 8289SOL     OW36328   1.892   2.528   8.451 -0.1345  0.5674  0.2687
 8289SOL    HW136329   1.973   2.511   8.402 -1.9362  1.5207 -3.0503
 8289SOL    HW236330   1.933   2.546   8.536  0.0663  1.0955  0.0601
 8290SOL     OW36331   4.651   1.291  12.382  0.3730 -0.0988  0.0083
 8290SOL    HW136332   4.563   1.323  12.358  0.1810 -1.5740 -1.2659
 8290SOL    HW236333   4.697   1.291  12.298  0.6100 -2.3328  0.1385
 8291SOL     OW36334   3.841   0.048  10.191  0.1569 -0.2169 -0.2733
 8291SOL    HW136335   3.842   0.111  10.264  0.7498  0.9418 -1.2959
 8291SOL    HW236336   3.835   4.695  10.248  0.5415  1.0394  1.4623
 8292SOL     OW36337   2.486   0.244   4.627  0.6686  0.5457  0.8569
 8292SOL    HW136338   2.559   0.261   4.567 -0.2551 -2.4207 -1.1146
 8292SOL    HW236339   2.511   0.160   4.666  0.4134 -0.1774 -0.4951
 8293SOL     OW36340   0.324   4.061  13.135  0.4670  0.2989 -0.3604
 8293SOL    HW136341   0.316   3.973  13.173  2.6436  0.7246  1.0721
 8293SOL    HW236342   0.414   4.088  13.154 -0.1966  0.9159  1.8594
 8294SOL     OW36343   2.240   1.820   4.585  0.2123 -0.1020  0.2903
 8294SOL    HW136344   2.202   1.891   4.532 -2.4279 -1.1052  0.8364
 8294SOL    HW236345   2.169   1.817   4.649 -0.2654  0.5568 -0.2058
 8295SOL     OW36346   4.546   2.597  13.692  0.0650 -0.8223  0.8160
 8295SOL    HW136347   4.542   2.691  13.673 -2.3349 -1.0224  0.3781
 8295SOL    HW236348   4.489   2.553  13.630  0.3391 -1.4699  1.0227
 8296SOL     OW36349   1.514   1.118   5.605  0.3486  0.4711 -0.1142
 8296SOL    HW136350   1.462   1.159   5.536  0.5006  0.6946 -0.0953
 8296SOL    HW236351   1.603   1.147   5.587  0.1082  1.9552  1.0617
 8297SOL     OW36352   3.990   0.703  13.918 -0.4028  0.6160  0.2500
 8297SOL    HW136353   3.915   0.752  13.884 -0.9278 -0.0992  0.3938
 8297SOL    HW236354   4.070   0.721  13.867 -1.0154 -1.7676 -1.4931
 8298SOL     OW36355   2.912   0.900   6.354 -0.4589  0.0248 -0.5156
 8298SOL    HW136356   2.954   0.884   6.439  0.0802  2.0160 -0.3993
 8298SOL    HW236357   2.822   0.891   6.383 -0.4066 -2.6910 -1.1966
 8299SOL     OW36358   2.527   0.986   7.637  0.4342  0.2710 -0.1369
 8299SOL    HW136359   2.564   0.901   7.659  1.4558  0.9679  0.8169
 8299SOL    HW236360   2.590   1.045   7.679 -0.0797 -0.8568  2.2030
 8300SOL     OW36361   2.456   4.226  12.742  0.4943  0.7849  0.0629
 8300SOL    HW136362   2.402   4.238  12.821  0.3085 -0.0337  0.0583
 8300SOL    HW236363   2.449   4.310  12.697 -1.3574  1.7819  2.2026
 8301SOL     OW36364   1.281   3.718  13.469  0.2130  0.1416  0.2289
 8301SOL    HW136365   1.308   3.722  13.561 -1.0791 -0.4303  0.6237
 8301SOL    HW236366   1.288   3.809  13.441  0.3306  0.1407  0.2537
 8302SOL     OW36367   2.504   0.107   3.277  0.3131 -0.3896 -0.0561
 8302SOL    HW136368   2.441   0.071   3.214  1.1741 -0.5852 -0.8050
 8302SOL    HW236369   2.523   0.036   3.339 -0.4703 -0.4284  0.1440
 8303SOL     OW36370   3.524   2.270   4.522 -0.0036  0.2906 -0.5207
 8303SOL    HW136371   3.503   2.227   4.605  1.3537  0.0201 -0.3164
 8303SOL    HW236372   3.523   2.359   4.558  1.0011 -0.4303  1.3188
 8304SOL     OW36373   4.319   2.908   5.963 -0.3371 -0.5753  0.9092
 8304SOL    HW136374   4.410   2.933   5.949 -0.7201 -0.2070 -0.9375
 8304SOL    HW236375   4.297   2.942   6.050 -2.1635 -1.7896  0.9205
 8305SOL     OW36376   0.823   1.112   5.836  0.2741  0.2477 -0.5045
 8305SOL    HW136377   0.749   1.103   5.776 -1.3717  3.9842  0.9450
 8305SOL    HW236378   0.837   1.207   5.831  2.4102  0.0229  1.2899
 8306SOL     OW36379   1.633   3.799  10.957  0.3202  0.2570 -0.1065
 8306SOL    HW136380   1.637   3.848  10.874 -2.9610 -0.4646 -0.6919
 8306SOL    HW236381   1.711   3.745  10.945 -0.2595 -1.1123  2.4018
 8307SOL     OW36382   1.848   3.194   8.934  0.1408  0.2893 -0.2638
 8307SOL    HW136383   1.819   3.103   8.937 -1.9024  0.9734  0.2502
 8307SOL    HW236384   1.776   3.238   8.978  0.7361  1.1764 -0.1613
 8308SOL     OW36385   1.945   2.841   2.111 -0.0777 -0.6868  0.3010
 8308SOL    HW136386   1.969   2.804   2.197 -2.7572 -1.2831  0.8188
 8308SOL    HW236387   1.996   2.775   2.064 -0.1975 -0.0378 -0.7255
 8309SOL     OW36388   4.064   4.232  10.721 -0.0714 -0.0030  0.5892
 8309SOL    HW136389   4.001   4.161  10.707 -1.2239  1.3360 -0.9792
 8309SOL    HW236390   4.061   4.284  10.641 -0.4704  0.0726  0.6549
 8310SOL     OW36391   3.903   2.506   1.570 -0.1990  0.1485 -0.3416
 8310SOL    HW136392   3.919   2.552   1.652  0.0357  0.5927 -0.6427
 8310SOL    HW236393   3.828   2.557   1.540  0.3396  0.4817 -1.1045
 8311SOL     OW36394   3.789   2.330   7.256  0.8204  0.3398  0.4796
 8311SOL    HW136395   3.733   2.372   7.320  0.3186 -1.2255  1.0631
 8311SOL    HW236396   3.865   2.387   7.262  0.1649  1.5254 -2.2510
 8312SOL     OW36397   0.284   1.831   4.140 -0.3128  0.3632 -0.3660
 8312SOL    HW136398   0.284   1.751   4.192 -1.3736  1.0815  0.7561
 8312SOL    HW236399   0.234   1.796   4.066 -2.0102 -0.1674  1.0172
 8313SOL     OW36400   2.131   0.520   4.417  0.2869  0.2546 -0.6003
 8313SOL    HW136401   2.188   0.444   4.428  1.2986  0.9434 -1.1044
 8313SOL    HW236402   2.198   0.572   4.372  2.3980 -1.5670  0.4513
 8314SOL     OW36403   1.073   1.346  14.575 -0.0678  0.3615 -0.3459
 8314SOL    HW136404   1.126   1.271  14.600  1.1755  1.4064  0.1486
 8314SOL    HW236405   1.004   1.295  14.532  1.0904 -0.7050 -0.9196
 8315SOL     OW36406   4.239   2.647   9.530  0.6206 -0.0473  0.5012
 8315SOL    HW136407   4.309   2.601   9.483 -0.5483 -2.2620  0.9305
 8315SOL    HW236408   4.248   2.729   9.482 -1.6244 -0.2618 -0.2789
 8316SOL     OW36409   0.634   3.394   9.048  0.4028 -0.3201  0.0359
 8316SOL    HW136410   0.631   3.299   9.058  1.9124 -0.4444 -0.7009
 8316SOL    HW236411   0.610   3.412   8.956  2.1062  1.7976  0.0094
 8317SOL     OW36412   3.120   1.768  11.483  0.3732 -0.1286 -0.6905
 8317SOL    HW136413   3.192   1.825  11.513 -0.1041  0.0119  0.1979
 8317SOL    HW236414   3.065   1.775  11.561 -1.0224 -0.2116 -1.6850
 8318SOL     OW36415   0.032   4.019   7.417  0.5900  0.2743 -0.4969
 8318SOL    HW136416   0.039   4.036   7.511  0.7572  0.7965 -0.6070
 8318SOL    HW236417   0.001   3.928   7.416 -0.0775  0.4726  1.5506
 8319SOL     OW36418   2.564   0.786   7.952 -0.2236  0.0488 -0.0540
 8319SOL    HW136419   2.490   0.752   8.003 -0.2721  0.0166 -0.1444
 8319SOL    HW236420   2.562   0.879   7.975  0.1226  0.1432 -0.4009
 8320SOL     OW36421   2.457   3.346   7.899 -0.0996 -0.1773 -0.3242
 8320SOL    HW136422   2.449   3.428   7.948 -2.2303 -1.0422  0.7682
 8320SOL    HW236423   2.548   3.316   7.907 -0.4924 -1.9358 -2.3361
 8321SOL     OW36424   2.935   0.206  12.379  0.0385 -0.3524 -0.0003
 8321SOL    HW136425   2.942   0.264  12.303  1.9184 -2.8323 -1.7401
 8321SOL    HW236426   2.983   0.245  12.452  0.5635  0.9107 -1.0288
 8322SOL     OW36427   0.138   3.303   9.318 -0.0694 -0.4540 -0.1021
 8322SOL    HW136428   0.212   3.308   9.258 -0.4164  3.4106 -0.2100
 8322SOL    HW236429   0.076   3.363   9.275 -0.6232  0.0823  1.4360
 8323SOL     OW36430   1.296   4.094   1.133  0.1993  0.3472 -0.2675
 8323SOL    HW136431   1.302   4.185   1.104  0.8483  0.7581  1.1608
 8323SOL    HW236432   1.391   4.080   1.124  0.2260 -0.5305  1.2574
 8324SOL     OW36433   2.268   0.450   5.526 -1.0118  0.1591 -0.1767
 8324SOL    HW136434   2.212   0.513   5.481 -0.8738  0.1479 -0.3630
 8324SOL    HW236435   2.201   0.393   5.564  0.9574 -1.6302  0.6169
 8325SOL     OW36436   2.787   1.343   9.772 -0.1030  0.1226  0.0956
 8325SOL    HW136437   2.693   1.347   9.787 -0.3527 -0.3652 -1.3314
 8325SOL    HW236438   2.793   1.358   9.678  1.2176  1.3551  0.3820
 8326SOL     OW36439   0.028   0.055   3.579  0.2788  0.5434 -0.0025
 8326SOL    HW136440   0.034   0.141   3.537 -0.1599  0.3047 -0.5562
 8326SOL    HW236441   0.095   0.016   3.523  1.8703 -0.1937  2.4161
 8327SOL     OW36442   2.725   4.350  11.511 -0.3781  0.1548  0.3379
 8327SOL    HW136443   2.706   4.328  11.420 -0.2689  1.9034 -0.1159
 8327SOL    HW236444   2.758   4.264  11.537  0.0768 -0.7761 -3.3550
 8328SOL     OW36445   4.418   1.200   7.151 -0.2833 -0.8029  0.5778
 8328SOL    HW136446   4.461   1.217   7.067 -2.1500  1.5866  0.0919
 8328SOL    HW236447   4.326   1.220   7.137 -0.1823  0.6407  1.9395
 8329SOL     OW36448   0.145   0.900   5.334  0.1342  0.4280 -0.2150
 8329SOL    HW136449   0.220   0.912   5.392  0.6899 -1.2730 -0.5841
 8329SOL    HW236450   0.184   0.936   5.254 -0.2846 -0.1492 -0.6834
 8330SOL     OW36451   1.828   3.765   6.538 -0.7937  0.3502 -0.6297
 8330SOL    HW136452   1.824   3.830   6.468 -0.3266  0.6198 -0.4106
 8330SOL    HW236453   1.879   3.694   6.499 -0.5230 -0.9901  2.1815
 8331SOL     OW36454   3.485   4.326   7.622  0.5594  0.4512  0.1543
 8331SOL    HW136455   3.402   4.286   7.597 -0.2681  2.3395 -0.1175
 8331SOL    HW236456   3.480   4.389   7.550  2.3989  0.4728  0.0239
 8332SOL     OW36457   1.836   1.583   9.902  0.2069  0.1861  0.1525
 8332SOL    HW136458   1.754   1.632   9.912 -0.5023 -0.9479  0.0329
 8332SOL    HW236459   1.849   1.556   9.993  3.3642  1.3495  0.0186
 8333SOL     OW36460   4.651   0.364   7.812 -0.1150  0.5256 -0.0753
 8333SOL    HW136461   4.593   0.394   7.742 -0.5639 -1.9610 -0.7461
 8333SOL    HW236462   4.682   0.452   7.836 -0.4276  0.2532  1.3174
 8334SOL     OW36463   3.844   2.051   9.257 -0.1566 -0.6880  0.4430
 8334SOL    HW136464   3.924   2.103   9.268 -0.6997  0.5224 -1.4082
 8334SOL    HW236465   3.815   2.089   9.175 -1.1374 -0.4874  0.8829
 8335SOL     OW36466   0.305   0.799   7.855  0.0358 -0.0456 -0.1984
 8335SOL    HW136467   0.320   0.705   7.853 -1.7066 -0.2235 -3.5689
 8335SOL    HW236468   0.291   0.813   7.949  1.8983  0.5345 -0.0172
 8336SOL     OW36469   1.136   2.285  12.827 -0.0859  0.0735  0.1672
 8336SOL    HW136470   1.086   2.365  12.841 -0.3723 -0.2575  1.0846
 8336SOL    HW236471   1.190   2.286  12.907 -1.3377 -1.9558  1.0201
 8337SOL     OW36472   0.081   2.463   6.468 -0.0953 -0.0700  0.4353
 8337SOL    HW136473   0.017   2.407   6.513  1.1914 -0.2632  2.0089
 8337SOL    HW236474   0.112   2.514   6.543  2.0910  0.3231 -0.7535
 8338SOL     OW36475   3.669   3.808   0.464  0.3110  0.2242 -0.6723
 8338SOL    HW136476   3.671   3.869   0.390  0.8538  0.6914 -0.2689
 8338SOL    HW236477   3.714   3.732   0.427  0.0576 -0.5274  0.5406
 8339SOL     OW36478   2.168   4.640  15.027 -0.3484 -0.6642 -0.1567
 8339SOL    HW136479   2.240   4.595  14.983  0.5716  2.3990 -1.8051
 8339SOL    HW236480   2.115   4.673  14.953 -1.8187 -0.5152  0.9610
 8340SOL     OW36481   2.513   3.636   4.557 -0.0927  0.2410 -0.3198
 8340SOL    HW136482   2.438   3.630   4.497  0.8282  2.1395 -1.6581
 8340SOL    HW236483   2.519   3.548   4.594  0.4487  1.7741  3.1364
 8341SOL     OW36484   3.094   4.115   3.288  0.0184 -0.3732 -0.0032
 8341SOL    HW136485   3.006   4.114   3.250 -1.0987  2.9416  2.5390
 8341SOL    HW236486   3.108   4.022   3.300  1.9439  0.0721  1.2225
 8342SOL     OW36487   3.360   0.578  12.630 -0.2544 -0.6409 -0.2878
 8342SOL    HW136488   3.372   0.572  12.535  1.4279 -2.1580  0.0050
 8342SOL    HW236489   3.429   0.638  12.658 -1.0996 -1.2018  2.9982
 8343SOL     OW36490   1.049   3.723   4.634  0.6107  0.0764  0.5766
 8343SOL    HW136491   1.075   3.675   4.556 -1.1933  1.8978 -1.1251
 8343SOL    HW236492   0.987   3.661   4.673 -0.5887  0.6400 -0.4395
 8344SOL     OW36493   3.856   1.138   7.769 -0.9472  0.1417 -0.0217
 8344SOL    HW136494   3.867   1.043   7.766  1.4900  0.4584 -0.5298
 8344SOL    HW236495   3.896   1.148   7.855  0.4522  2.0516 -0.9154
 8345SOL     OW36496   0.546   1.808   7.855 -0.4894  0.0542 -0.0043
 8345SOL    HW136497   0.601   1.735   7.884 -0.1053  0.6031  0.6557
 8345SOL    HW236498   0.462   1.792   7.898 -0.8789 -1.9838 -1.5443
 8346SOL     OW36499   3.040   1.276   4.134 -0.4263 -0.4764 -0.0474
 8346SOL    HW136500   2.957   1.228   4.137 -0.2610 -0.9028 -3.1473
 8346SOL    HW236501   3.016   1.360   4.095 -1.2647 -1.1360 -0.9401
 8347SOL     OW36502   1.462   3.174   5.120 -0.3787 -0.1457 -0.4555
 8347SOL    HW136503   1.382   3.200   5.166 -1.7156 -0.5687 -2.5762
 8347SOL    HW236504   1.532   3.216   5.172 -0.4360 -0.7718  0.1267
 8348SOL     OW36505   3.542   2.285   6.818 -0.2740  0.0285 -0.3551
 8348SOL    HW136506   3.452   2.307   6.841 -0.6169 -0.2374 -1.4601
 8348SOL    HW236507   3.566   2.357   6.760  0.7828  0.4384  0.5832
 8349SOL     OW36508   3.079   2.656   8.209  0.3258  0.5484  0.6454
 8349SOL    HW136509   3.048   2.625   8.294  0.5400  1.9771  1.2292
 8349SOL    HW236510   3.078   2.571   8.163 -1.1629  1.1937 -0.4917
 8350SOL     OW36511   2.479   4.501  14.605 -0.6276 -0.0592 -0.1969
 8350SOL    HW136512   2.444   4.572  14.659  2.2557 -0.1627  1.8019
 8350SOL    HW236513   2.534   4.465  14.675 -0.3282 -0.6093 -0.7134
 8351SOL     OW36514   0.019   0.078   0.291 -0.3666 -0.5730 -0.0834
 8351SOL    HW136515   0.073   0.000   0.283 -0.8662 -0.5881 -3.1168
 8351SOL    HW236516   0.080   0.151   0.307 -1.4878  0.5219 -0.8337
 8352SOL     OW36517   1.664   1.140   4.105 -0.3841  0.0332 -0.0782
 8352SOL    HW136518   1.708   1.102   4.181 -0.8175  0.1512  0.2271
 8352SOL    HW236519   1.574   1.110   4.115 -1.0275  1.9351 -0.1090
 8353SOL     OW36520   0.601   3.458   6.664 -0.5360 -0.0210 -0.1257
 8353SOL    HW136521   0.649   3.498   6.591 -3.0731  2.4859 -0.4278
 8353SOL    HW236522   0.542   3.525   6.699 -0.2686  0.3473 -0.3759
 8354SOL     OW36523   1.277   3.535   9.774 -0.2557 -0.3966  0.3815
 8354SOL    HW136524   1.334   3.509   9.845  1.0559  1.8651  0.1708
 8354SOL    HW236525   1.292   3.467   9.709 -1.6626  1.2850 -1.7355
 8355SOL     OW36526   0.958   1.347   4.896  0.2920 -0.0805  0.1631
 8355SOL    HW136527   0.972   1.438   4.871  2.4074 -0.3590  0.2926
 8355SOL    HW236528   1.036   1.332   4.949 -0.6412 -1.7229  1.0768
 8356SOL     OW36529   4.724   3.201   8.418  0.5881  0.3380 -0.5384
 8356SOL    HW136530   4.678   3.118   8.405  0.0902  0.2348  1.7739
 8356SOL    HW236531   0.088   3.178   8.391  0.6231 -1.0921  0.7414
 8357SOL     OW36532   2.196   3.723   4.658  0.0258 -0.2810 -0.2266
 8357SOL    HW136533   2.259   3.781   4.701  1.7790  0.5476 -3.9340
 8357SOL    HW236534   2.220   3.639   4.697  1.4539  0.1750 -0.1010
 8358SOL     OW36535   4.574   3.008   0.953  0.0346  0.3880 -0.3040
 8358SOL    HW136536   4.567   3.100   0.925  1.6332  0.9567  1.1548
 8358SOL    HW236537   4.535   2.966   0.877  1.8286 -1.6755 -0.0664
 8359SOL     OW36538   3.281   1.212   6.840 -0.0581  0.2082 -0.5307
 8359SOL    HW136539   3.267   1.275   6.911 -0.6579  0.5603 -0.9573
 8359SOL    HW236540   3.361   1.251   6.805  0.0383 -0.3701 -0.9567
 8360SOL     OW36541   0.071   0.813   2.460 -0.3711  0.1880 -0.7600
 8360SOL    HW136542   0.153   0.829   2.507 -1.5356 -1.2881  1.7490
 8360SOL    HW236543   0.079   0.864   2.379  2.0285 -0.0382 -0.6744
 8361SOL     OW36544   3.509   0.232   2.359  0.3487  0.3376  0.4652
 8361SOL    HW136545   3.543   0.303   2.304  1.3933 -1.1213 -0.7602
 8361SOL    HW236546   3.442   0.194   2.303 -0.3822  3.7104 -0.9190
 8362SOL     OW36547   1.029   0.366  11.956 -0.0922  0.4390  0.2025
 8362SOL    HW136548   0.973   0.396  11.885 -0.7076 -0.3716  0.3555
 8362SOL    HW236549   0.999   0.276  11.969  3.0872 -0.7762 -0.9180
 8363SOL     OW36550   1.155   1.383   5.287 -0.0814 -0.5402  0.1270
 8363SOL    HW136551   1.089   1.397   5.355  0.7482  1.0317  0.5904
 8363SOL    HW236552   1.204   1.464   5.272  0.0315 -0.3629  1.5262
 8364SOL     OW36553   4.121   3.915   2.842  0.4275  0.4415 -0.5369
 8364SOL    HW136554   4.100   3.941   2.753  1.2526  1.7577 -0.3531
 8364SOL    HW236555   4.034   3.888   2.869  0.1871  1.8684  0.1344
 8365SOL     OW36556   1.825   2.257   6.878 -0.1633  0.2480  0.5342
 8365SOL    HW136557   1.766   2.283   6.807 -0.3754 -0.0117  0.6139
 8365SOL    HW236558   1.873   2.179   6.850  0.5112 -0.0424  2.5046
 8366SOL     OW36559   0.343   0.690   4.603  0.1799  0.5299 -0.0021
 8366SOL    HW136560   0.383   0.605   4.582  0.1276 -0.2519  3.1113
 8366SOL    HW236561   0.268   0.674   4.659  0.3097  0.3457  0.1202
 8367SOL     OW36562   3.072   1.645   5.109 -0.1387  0.1229  0.1063
 8367SOL    HW136563   3.014   1.714   5.075  0.4751  1.0578  0.9347
 8367SOL    HW236564   3.112   1.616   5.027 -0.4040 -1.5520  0.5699
 8368SOL     OW36565   0.299   0.229  11.287  0.3427  0.5054  0.0061
 8368SOL    HW136566   0.374   0.181  11.252 -0.0812  0.2317 -0.5239
 8368SOL    HW236567   0.236   0.157  11.297  0.0409  0.6257 -1.0191
 8369SOL     OW36568   0.198   3.281   2.532  1.0571  0.0971  0.2095
 8369SOL    HW136569   0.272   3.275   2.591  0.0124 -2.4469  1.2691
 8369SOL    HW236570   0.145   3.337   2.588  0.5957 -0.3242  0.2054
 8370SOL     OW36571   3.091   1.215   0.018 -0.3838  0.1969  0.1735
 8370SOL    HW136572   3.184   1.229   0.000 -0.3898 -0.1400 -0.1213
 8370SOL    HW236573   3.051   1.195  17.631  0.3793 -0.2663 -0.0861
 8371SOL     OW36574   3.997   3.296  10.409  0.0477 -0.0101  0.3572
 8371SOL    HW136575   3.984   3.291  10.504  1.4790 -0.9859  0.4959
 8371SOL    HW236576   3.907   3.297  10.378 -1.1095  1.5043  3.6929
 8372SOL     OW36577   4.165   2.978   3.209  0.1816 -0.5206 -0.3264
 8372SOL    HW136578   4.165   2.992   3.114 -1.7770  2.0074  0.0258
 8372SOL    HW236579   4.215   2.897   3.221 -1.0761 -1.5583 -2.0759
 8373SOL     OW36580   2.266   1.781   7.337 -0.4603 -0.0478  0.0053
 8373SOL    HW136581   2.353   1.772   7.376 -0.3832  0.7674  0.0170
 8373SOL    HW236582   2.249   1.691   7.308 -1.0613  0.1591 -0.2739
 8374SOL     OW36583   2.879   4.319   5.828 -0.0605  0.0744  0.2125
 8374SOL    HW136584   2.898   4.378   5.901  0.0680 -0.1912  0.3981
 8374SOL    HW236585   2.958   4.265   5.836  0.0212 -0.0195 -1.2561
 8375SOL     OW36586   2.084   4.171   5.827 -0.3261  0.0687  0.1418
 8375SOL    HW136587   2.116   4.192   5.740 -0.7113 -0.0302 -0.0218
 8375SOL    HW236588   2.110   4.079   5.831  1.9991  0.7565  0.8185
 8376SOL     OW36589   4.276   2.348   9.272 -0.0360 -0.3094  0.3365
 8376SOL    HW136590   4.343   2.304   9.324  0.4695  0.9256  0.7429
 8376SOL    HW236591   4.304   2.440   9.273 -1.6509  0.2078 -1.4087
 8377SOL     OW36592   1.789   1.636   3.882 -0.1981 -0.5092  0.0543
 8377SOL    HW136593   1.705   1.681   3.880  0.9046  1.5982  1.3545
 8377SOL    HW236594   1.776   1.553   3.928 -1.8177 -1.0725 -1.4439
 8378SOL     OW36595   4.484   3.857   3.955 -0.1361  0.3660  0.2965
 8378SOL    HW136596   4.390   3.875   3.963 -0.4683 -2.1662  2.0641
 8378SOL    HW236597   4.499   3.886   3.865 -1.0078 -2.3841 -0.7521
 8379SOL     OW36598   1.101   4.455   6.566 -0.2567 -0.5719 -0.3354
 8379SOL    HW136599   1.027   4.447   6.505  1.3278  1.5970 -2.5278
 8379SOL    HW236600   1.095   4.544   6.600  0.8109  0.2048 -2.1725
 8380SOL     OW36601   4.077   1.216  14.966  0.1079 -0.2782 -0.0566
 8380SOL    HW136602   4.097   1.131  15.005 -0.1842 -0.4181 -0.2111
 8380SOL    HW236603   4.162   1.260  14.962 -0.0588  0.0046 -0.5470
 8381SOL     OW36604   1.740   2.349  11.573  0.3239 -0.3678  0.3023
 8381SOL    HW136605   1.692   2.267  11.582  0.7547 -0.8630 -1.9696
 8381SOL    HW236606   1.793   2.336  11.652 -0.1420 -2.5128  0.2541
 8382SOL     OW36607   3.322   3.658   0.866  0.5907 -0.5710 -0.1449
 8382SOL    HW136608   3.324   3.578   0.918  2.9208  0.5201  1.4702
 8382SOL    HW236609   3.340   3.623   0.778 -2.6486 -1.2935 -0.4900
 8383SOL     OW36610   1.000   1.186   3.728  0.2113 -0.3440 -0.4264
 8383SOL    HW136611   1.079   1.136   3.710  1.5171  1.9214 -1.0300
 8383SOL    HW236612   0.958   1.200   3.643  1.8425 -0.3217 -1.2207
 8384SOL     OW36613   3.081   1.818   7.813  0.0645 -0.3085  0.0309
 8384SOL    HW136614   3.059   1.730   7.844 -1.4802  0.7519  1.9525
 8384SOL    HW236615   3.164   1.834   7.857 -0.4445  0.7227  0.6220
 8385SOL     OW36616   3.305   1.801   7.626 -0.1860 -0.3192 -0.4992
 8385SOL    HW136617   3.387   1.767   7.659 -0.0546  1.5996  1.1567
 8385SOL    HW236618   3.321   1.801   7.531  0.6392  1.1239 -0.3681
 8386SOL     OW36619   0.010   2.331   2.822 -0.0042  0.0765 -0.7820
 8386SOL    HW136620   0.093   2.368   2.793 -0.4230  0.8114 -1.0698
 8386SOL    HW236621   4.717   2.397   2.890  1.7096  1.0834 -1.3244
 8387SOL     OW36622   4.219   0.058  15.031  0.1855 -0.2419 -0.1314
 8387SOL    HW136623   4.295   0.014  15.069  0.9004  1.6057  0.5870
 8387SOL    HW236624   4.147   4.722  15.051  0.9973 -0.0641  3.2830
 8388SOL     OW36625   0.441   0.257  17.290 -0.2277 -0.0764 -0.4052
 8388SOL    HW136626   0.499   0.266  17.215 -1.7139  0.8155 -1.4455
 8388SOL    HW236627   0.417   0.164  17.286  0.2032 -0.0663 -3.5070
 8389SOL     OW36628   2.762   3.424   0.189 -0.3948  0.3463  0.0729
 8389SOL    HW136629   2.683   3.441   0.138 -0.3323  1.1124  0.2234
 8389SOL    HW236630   2.738   3.365   0.260 -0.4025 -2.8660 -2.5992
 8390SOL     OW36631   0.567   2.911   8.943  0.0289 -0.0111  0.1790
 8390SOL    HW136632   0.638   2.973   8.962 -1.2244  0.6995  2.5088
 8390SOL    HW236633   0.539   2.893   9.033  0.6916 -0.5997  0.2704
 8391SOL     OW36634   1.961   3.771   2.249  0.1773 -0.4977 -0.1952
 8391SOL    HW136635   2.004   3.688   2.224  2.1345  0.4752 -0.0852
 8391SOL    HW236636   1.910   3.743   2.325  1.0146 -1.5962 -0.0291
 8392SOL     OW36637   2.107   0.235   5.581  0.5274 -0.3169 -0.1409
 8392SOL    HW136638   2.022   0.198   5.605 -0.7178  1.3197 -1.9897
 8392SOL    HW236639   2.164   0.163   5.554 -0.8821 -1.7686  0.7366
 8393SOL     OW36640   0.555   1.344   3.810  0.2317 -0.3031 -0.5113
 8393SOL    HW136641   0.615   1.306   3.746  0.4122 -0.3447 -0.3165
 8393SOL    HW236642   0.564   1.272   3.872  0.1530  0.7236  0.6747
 8394SOL     OW36643   1.265   1.906   2.581  0.3500 -0.0065  0.1958
 8394SOL    HW136644   1.177   1.929   2.554  0.4424 -3.1327 -2.7467
 8394SOL    HW236645   1.251   1.926   2.674  0.6871 -2.7123  0.8436
 8395SOL     OW36646   2.122   0.535   1.977 -0.3904  0.0089 -0.1388
 8395SOL    HW136647   2.146   0.550   2.069 -1.2052  0.6967 -0.0280
 8395SOL    HW236648   2.125   0.624   1.942 -1.7422  0.2313  0.2927
 8396SOL     OW36649   0.794   3.048   1.731 -0.3193  0.2161  0.2642
 8396SOL    HW136650   0.774   2.956   1.746  2.2938 -0.0674  2.1575
 8396SOL    HW236651   0.833   3.044   1.644  0.5843 -0.4101  0.6965
 8397SOL     OW36652   2.051   2.123  13.104  0.1847 -0.2711  0.2113
 8397SOL    HW136653   1.962   2.156  13.094  0.2361  0.3887  2.0614
 8397SOL    HW236654   2.033   2.032  13.128  0.4096 -0.5842 -0.7762
 8398SOL     OW36655   4.553   3.477  13.137 -0.2945  0.2078 -0.1920
 8398SOL    HW136656   4.517   3.553  13.091  1.0062  0.3101 -1.0600
 8398SOL    HW236657   4.539   3.411  13.069 -2.5620  1.0416 -0.5136
 8399SOL     OW36658   2.189   0.327  16.074 -0.5054 -0.5608  0.8600
 8399SOL    HW136659   2.166   0.418  16.092  1.0169 -0.1006  0.4715
 8399SOL    HW236660   2.109   0.292  16.034  1.2783 -0.6987 -2.6135
 8400SOL     OW36661   4.637   3.031   6.724 -0.0565  0.0093  0.0628
 8400SOL    HW136662   4.718   3.007   6.769  1.1891  2.4952 -0.8793
 8400SOL    HW236663   4.615   2.951   6.676 -4.0058  0.8906  0.4381
 8401SOL     OW36664   2.775   1.927   2.775  0.1749 -0.0342 -0.2296
 8401SOL    HW136665   2.847   1.962   2.723  1.2385 -2.0049 -0.0778
 8401SOL    HW236666   2.724   1.886   2.705 -2.6392  0.8765  1.2534
 8402SOL     OW36667   0.621   3.511   4.668  0.7849 -0.1835 -0.2053
 8402SOL    HW136668   0.647   3.458   4.592  1.9612 -1.4752  1.1098
 8402SOL    HW236669   0.580   3.589   4.630 -0.1657 -0.2292  0.7071
 8403SOL     OW36670   4.647   0.123   9.969  0.9129  0.5287  0.2322
 8403SOL    HW136671   4.630   0.032   9.994 -0.7627  0.2342 -2.0108
 8403SOL    HW236672   4.716   0.142  10.033  1.7040  0.6813 -0.6559
 8404SOL     OW36673   1.573   1.839  14.329  0.1776  0.1377  0.1089
 8404SOL    HW136674   1.626   1.915  14.349  1.0710 -0.0132 -1.6876
 8404SOL    HW236675   1.608   1.772  14.389 -2.5148 -0.2022  1.3246
 8405SOL     OW36676   2.746   3.509   6.176  0.2412  0.0328 -0.4880
 8405SOL    HW136677   2.796   3.576   6.130 -0.9053 -0.1483 -1.9884
 8405SOL    HW236678   2.759   3.548   6.263 -1.4850  0.6116 -0.4905
 8406SOL     OW36679   0.668   3.705   4.087 -0.5610 -0.7403 -0.2322
 8406SOL    HW136680   0.603   3.693   4.156 -1.1157  1.2667 -0.4180
 8406SOL    HW236681   0.646   3.793   4.057 -0.8266 -1.3917 -1.9787
 8407SOL     OW36682   1.156   3.212   6.927 -0.3347 -0.4730 -0.3806
 8407SOL    HW136683   1.219   3.273   6.965  0.0075 -1.8230  1.2344
 8407SOL    HW236684   1.164   3.228   6.833 -1.8677 -1.3600 -0.6657
 8408SOL     OW36685   1.124   3.551  11.809 -0.2137 -0.0681  0.1596
 8408SOL    HW136686   1.096   3.461  11.795 -0.1359  0.1076 -1.1778
 8408SOL    HW236687   1.170   3.543  11.892 -0.0358 -1.1782 -0.0405
 8409SOL     OW36688   0.395   3.641   9.933  0.8803 -0.3212 -0.0805
 8409SOL    HW136689   0.380   3.625  10.026 -1.1188  2.1701 -0.0068
 8409SOL    HW236690   0.393   3.736   9.929  2.6870 -0.2283  1.2531
 8410SOL     OW36691   2.030   4.151   2.751 -0.0304 -0.1964  0.0859
 8410SOL    HW136692   2.035   4.075   2.808  1.7294 -1.3853 -1.6449
 8410SOL    HW236693   1.976   4.117   2.679 -0.9546 -0.0104  0.6939
 8411SOL     OW36694   3.624   0.708  11.418 -0.2546 -0.3174 -0.0547
 8411SOL    HW136695   3.685   0.695  11.346  1.0235  3.2510  0.3447
 8411SOL    HW236696   3.580   0.625  11.434  0.3570 -0.7668 -0.7418
 8412SOL     OW36697   0.414   2.405   4.806  0.2319 -0.4096 -0.4663
 8412SOL    HW136698   0.444   2.454   4.730 -1.3442 -2.0453 -2.1382
 8412SOL    HW236699   0.470   2.328   4.803  0.6497 -0.1736  1.2152
 8413SOL     OW36700   3.900   4.571   9.301  0.1672  0.3675 -0.2364
 8413SOL    HW136701   3.902   4.490   9.250  0.0690  0.8068 -0.9339
 8413SOL    HW236702   3.958   4.555   9.376  1.2924  0.9142 -0.9981
 8414SOL     OW36703   0.517   1.361  16.054 -0.4154  0.7459 -0.0312
 8414SOL    HW136704   0.525   1.448  16.014  2.6302  0.8457  0.7831
 8414SOL    HW236705   0.473   1.387  16.135 -1.8721 -2.3534  0.1355
 8415SOL     OW36706   3.635   4.285   8.765  0.0244  0.2312  0.1710
 8415SOL    HW136707   3.602   4.213   8.710  1.4580 -0.2126 -0.1009
 8415SOL    HW236708   3.630   4.229   8.843 -1.5870 -0.0488 -0.1289
 8416SOL     OW36709   2.735   4.470   4.670 -0.1274 -0.4074  0.4539
 8416SOL    HW136710   2.693   4.388   4.695  1.7003 -1.7585 -0.9534
 8416SOL    HW236711   2.804   4.445   4.608 -2.0369  0.8600 -2.1639
 8417SOL     OW36712   2.152   0.157  12.949 -0.4828 -0.0120  0.2287
 8417SOL    HW136713   2.197   0.074  12.933  0.2921  0.5933 -0.6948
 8417SOL    HW236714   2.121   0.142  13.039 -1.5100 -0.4089 -0.1996
 8418SOL     OW36715   0.677   3.185   1.999 -0.4080  0.4200 -0.6172
 8418SOL    HW136716   0.601   3.236   1.970 -0.5285 -0.5106 -1.9480
 8418SOL    HW236717   0.707   3.168   1.910  0.8999  2.0228 -0.4769
 8419SOL     OW36718   2.420   2.537  13.549 -0.9130 -0.0357 -0.4382
 8419SOL    HW136719   2.376   2.594  13.614  0.7738  1.0746 -0.2801
 8419SOL    HW236720   2.358   2.530  13.476 -2.7225  0.9014  0.9991
 8420SOL     OW36721   4.719   0.435  13.259  0.5126 -0.2310  0.2977
 8420SOL    HW136722   4.659   0.476  13.321 -1.8959 -0.4825 -1.8853
 8420SOL    HW236723   4.662   0.423  13.183  0.4071 -3.2030  0.8471
 8421SOL     OW36724   2.874   0.388  10.429  0.0156 -0.2835  0.2784
 8421SOL    HW136725   2.918   0.319  10.380 -0.2149 -1.0451  1.1458
 8421SOL    HW236726   2.865   0.341  10.511 -0.4219  1.5398  1.2844
 8422SOL     OW36727   1.170   4.586   0.057 -0.1291 -0.3979  0.1289
 8422SOL    HW136728   1.123   4.667   0.038  0.3142  0.4208  2.6076
 8422SOL    HW236729   1.156   4.539  17.671  1.0596  2.2593 -1.6106
 8423SOL     OW36730   4.317   0.532  10.701 -0.7604 -0.3777 -0.3344
 8423SOL    HW136731   4.368   0.600  10.746 -0.2772 -1.0130  0.0888
 8423SOL    HW236732   4.269   0.586  10.639 -0.0846  0.6146 -0.0034
 8424SOL     OW36733   1.002   0.301  11.661  0.5056 -0.0663  0.5351
 8424SOL    HW136734   0.919   0.299  11.708 -0.1359  1.8109 -0.4997
 8424SOL    HW236735   0.994   0.244  11.585 -1.3435  1.5341 -0.4658
 8425SOL     OW36736   4.283   3.103   4.881  0.6138  0.2760 -0.3371
 8425SOL    HW136737   4.286   3.023   4.828  2.1418  0.1099  0.0139
 8425SOL    HW236738   4.255   3.166   4.814 -1.6847  0.7350  1.0574
 8426SOL     OW36739   1.053   1.673   0.494  0.4235 -0.5446 -0.5675
 8426SOL    HW136740   0.975   1.717   0.462 -0.3366 -0.8421  0.8943
 8426SOL    HW236741   1.119   1.708   0.433 -0.5387  1.1079 -0.6706
 8427SOL     OW36742   2.354   4.304   6.943 -0.3437 -0.2400  0.1613
 8427SOL    HW136743   2.427   4.261   6.988 -1.0140 -0.7471  0.7514
 8427SOL    HW236744   2.367   4.395   6.970  0.9031 -0.4461  0.2794
 8428SOL     OW36745   4.152   1.124   5.052 -0.1380  0.6548  0.1778
 8428SOL    HW136746   4.175   1.138   5.144  0.2689 -0.2628  0.2098
 8428SOL    HW236747   4.112   1.211   5.042 -0.7756  0.4554  0.9471
 8429SOL     OW36748   0.984   4.593   7.129 -0.6346  0.2282  0.1492
 8429SOL    HW136749   0.937   4.524   7.176 -0.5701  0.2909  0.3048
 8429SOL    HW236750   0.941   4.674   7.156  0.9010  0.7755  0.9559
 8430SOL     OW36751   3.208   3.669  16.062  0.8022  0.8043 -0.4960
 8430SOL    HW136752   3.217   3.621  16.145 -1.8623  0.3877 -0.4699
 8430SOL    HW236753   3.287   3.658  16.008  0.2954  2.0118 -1.4757
 8431SOL     OW36754   4.275   3.173   1.072  0.3000  0.2136 -0.2125
 8431SOL    HW136755   4.253   3.117   1.146 -0.6712  0.9146  0.0341
 8431SOL    HW236756   4.285   3.101   1.010 -1.0268 -0.9324  0.9085
 8432SOL     OW36757   3.870   0.234   8.946  0.2176  0.2001  0.9601
 8432SOL    HW136758   3.818   0.247   9.025 -1.4476  1.5863 -0.3638
 8432SOL    HW236759   3.799   0.267   8.891  0.7390 -2.9883 -1.5922
 8433SOL     OW36760   2.093   1.244  11.373  0.3632  0.4798 -0.0691
 8433SOL    HW136761   2.143   1.304  11.428  1.1929  0.5310 -0.8691
 8433SOL    HW236762   2.024   1.304  11.346 -0.0414 -0.0605 -0.2338
 8434SOL     OW36763   0.944   1.459  11.951 -0.2865  0.0679  0.3595
 8434SOL    HW136764   1.029   1.421  11.928  0.7714  0.9732  2.7764
 8434SOL    HW236765   0.936   1.413  12.034 -1.4456 -0.1416  0.1339
 8435SOL     OW36766   4.217   1.969   8.610  0.1376 -0.2998  0.4988
 8435SOL    HW136767   4.220   1.882   8.651  0.5229 -0.9219 -0.8252
 8435SOL    HW236768   4.297   2.012   8.641  0.6755 -0.1299 -1.1367
 8436SOL     OW36769   4.357   0.260   9.353  0.2299 -0.0503 -0.2886
 8436SOL    HW136770   4.427   0.273   9.418  1.4152  1.5276 -1.8602
 8436SOL    HW236771   4.403   0.225   9.277  0.7144  1.6325 -0.7734
 8437SOL     OW36772   2.139   0.817   1.882  0.3184  0.0173 -0.4305
 8437SOL    HW136773   2.096   0.895   1.846 -1.7508 -1.9487 -2.2194
 8437SOL    HW236774   2.173   0.861   1.960 -0.8841 -2.0620  1.2953
 8438SOL     OW36775   4.344   2.071   3.638 -0.5620 -0.1745  0.1333
 8438SOL    HW136776   4.436   2.079   3.612 -0.2976  0.0863  1.1476
 8438SOL    HW236777   4.310   2.028   3.559 -1.3475  0.4506  0.1377
 8439SOL     OW36778   2.497   3.307   1.611 -0.2338 -0.1042  0.2992
 8439SOL    HW136779   2.521   3.394   1.643 -1.0700  0.0564  0.4784
 8439SOL    HW236780   2.576   3.305   1.558 -0.0623 -0.3476  0.5638
 8440SOL     OW36781   3.389   2.912   9.611 -0.1791  0.2008 -0.0158
 8440SOL    HW136782   3.474   2.872   9.590 -0.6764 -0.5743 -0.5497
 8440SOL    HW236783   3.340   2.905   9.529 -1.1721 -3.0576  0.8431
 8441SOL     OW36784   1.894   0.037   4.486  0.0257 -0.8100 -0.2031
 8441SOL    HW136785   1.862   4.699   4.420 -2.2304 -0.5237  0.6248
 8441SOL    HW236786   1.966   0.078   4.437 -1.3942  1.0117 -0.7395
 8442SOL     OW36787   2.296   0.420   6.970 -0.0365 -0.0709  0.2406
 8442SOL    HW136788   2.382   0.380   6.984  1.4541  2.8822 -0.6660
 8442SOL    HW236789   2.243   0.381   7.040 -0.1406 -0.6581 -0.1660
 8443SOL     OW36790   0.656   2.194   6.715  0.0617  0.3975 -0.6680
 8443SOL    HW136791   0.636   2.277   6.672  0.7648  0.2153 -1.3603
 8443SOL    HW236792   0.716   2.231   6.781 -0.0464 -0.9549  0.1748
 8444SOL     OW36793   0.505   2.703  11.727 -0.3935  0.2096 -0.5116
 8444SOL    HW136794   0.491   2.734  11.816 -0.0833  0.4290 -0.5411
 8444SOL    HW236795   0.422   2.700  11.679 -0.0391  0.7187 -1.1568
 8445SOL     OW36796   4.542   0.328   8.774 -0.1677 -0.4833 -0.3412
 8445SOL    HW136797   4.459   0.285   8.754 -1.5080  1.1097  1.7312
 8445SOL    HW236798   4.587   0.312   8.691  1.3211  1.2037  0.1423
 8446SOL     OW36799   4.540   2.731   4.785 -0.0627  0.1846  0.3140
 8446SOL    HW136800   4.603   2.663   4.811 -1.9540 -1.6666  0.0305
 8446SOL    HW236801   4.526   2.782   4.864 -0.5927 -2.7559  2.1255
 8447SOL     OW36802   4.362   3.661   6.514  0.0526 -0.0901  0.7620
 8447SOL    HW136803   4.295   3.594   6.503 -0.3412  0.3939  0.2433
 8447SOL    HW236804   4.431   3.610   6.556  0.5300  2.3540  2.9657
 8448SOL     OW36805   3.045   2.390   9.823  0.0478  0.6126 -0.1908
 8448SOL    HW136806   2.952   2.374   9.808  0.1964 -0.3402 -0.0423
 8448SOL    HW236807   3.054   2.332   9.898  2.9776  0.1873 -0.8884
 8449SOL     OW36808   0.260   0.338   5.486  0.3131 -0.1374  0.4307
 8449SOL    HW136809   0.220   0.292   5.412  2.1150 -0.8654 -0.0709
 8449SOL    HW236810   0.250   0.426   5.449 -0.3920  0.1514  1.3068
 8450SOL     OW36811   0.950   1.209   4.000 -0.3845  0.4343  0.1361
 8450SOL    HW136812   0.951   1.210   3.904  2.9173 -0.7462  0.1620
 8450SOL    HW236813   0.942   1.116   4.018  1.9901  0.2339  0.0934
 8451SOL     OW36814   3.182   0.206   2.754  0.1023  0.0910 -0.3856
 8451SOL    HW136815   3.107   0.203   2.695  1.4631 -0.5147 -2.0892
 8451SOL    HW236816   3.195   0.300   2.771 -0.7265  0.2761 -0.7865
 8452SOL     OW36817   3.132   4.507  14.495  0.3423  0.2436 -0.3778
 8452SOL    HW136818   3.041   4.494  14.521 -0.2837  0.1479 -2.5985
 8452SOL    HW236819   3.168   4.565  14.562 -2.3093  1.4196  0.0417
 8453SOL     OW36820   2.770   4.148   1.425 -1.0251  0.2004 -0.1137
 8453SOL    HW136821   2.718   4.226   1.403 -1.1639  0.0754 -0.2297
 8453SOL    HW236822   2.806   4.157   1.513  0.6220 -0.8718 -0.6851
 8454SOL     OW36823   4.716   4.317  15.327 -0.4600 -0.2267  0.4197
 8454SOL    HW136824   4.701   4.381  15.258  2.4470  0.1322  0.1392
 8454SOL    HW236825   4.698   4.372  15.404 -0.0545 -0.1112  0.4307
 8455SOL     OW36826   2.041   2.787   1.620 -0.4624  0.1938  0.0483
 8455SOL    HW136827   1.947   2.775   1.611 -0.2845 -0.2069 -1.3358
 8455SOL    HW236828   2.071   2.709   1.667  1.1983  0.6307 -0.2890
 8456SOL     OW36829   0.255   4.520   7.058 -0.0514 -0.5656  0.0861
 8456SOL    HW136830   0.270   4.548   6.967 -2.3754 -2.0088 -0.7332
 8456SOL    HW236831   0.292   4.432   7.065 -2.7615 -1.7758 -0.8307
 8457SOL     OW36832   0.429   3.666  14.902  0.4762 -0.0904  0.3317
 8457SOL    HW136833   0.509   3.700  14.942  0.3810  0.3544  0.1480
 8457SOL    HW236834   0.364   3.691  14.967  1.9996 -0.5409  2.0073
 8458SOL     OW36835   1.941   1.331   4.157 -0.3699  0.1609 -0.0214
 8458SOL    HW136836   2.000   1.407   4.152  0.6154 -0.6238 -0.2221
 8458SOL    HW236837   1.964   1.288   4.075  0.4399 -1.2121  0.9380
 8459SOL     OW36838   2.372   1.271   8.021  0.4470 -0.3312  0.5050
 8459SOL    HW136839   2.354   1.182   8.050  0.0579 -0.5967 -0.5602
 8459SOL    HW236840   2.391   1.307   8.108  1.1139  0.5677 -0.0191
 8460SOL     OW36841   1.944   3.914   0.192 -0.1627  0.4264  0.1791
 8460SOL    HW136842   1.958   3.918   0.097 -1.0745 -0.9917 -0.0136
 8460SOL    HW236843   1.929   3.820   0.203 -2.3013  0.4312 -2.5929
 8461SOL     OW36844   1.818   2.057   0.491  0.3455 -0.0321 -0.0713
 8461SOL    HW136845   1.765   2.017   0.422 -0.3515  1.0235 -0.1576
 8461SOL    HW236846   1.881   1.991   0.518  0.4242 -0.0181 -0.2203
 8462SOL     OW36847   0.673   4.186   7.580  0.5998 -0.6004  0.1947
 8462SOL    HW136848   0.648   4.277   7.564  0.6722 -0.4011  1.2199
 8462SOL    HW236849   0.761   4.191   7.545  0.6434 -1.0949  0.2443
 8463SOL     OW36850   1.508   3.760   7.051 -0.1108 -0.3812 -0.5908
 8463SOL    HW136851   1.599   3.746   7.024  0.1532  2.4802 -1.1957
 8463SOL    HW236852   1.511   3.735   7.143  0.5961 -1.0775 -0.8037
 8464SOL     OW36853   1.951   0.884   2.791 -0.4566  0.5616 -0.5319
 8464SOL    HW136854   1.969   0.952   2.857  1.8586  1.2596 -1.9046
 8464SOL    HW236855   2.021   0.822   2.807 -1.0750  0.2587  1.1020
 8465SOL     OW36856   4.601   3.805   1.575 -0.1769  0.0445  0.2764
 8465SOL    HW136857   4.594   3.762   1.490  0.6040 -3.0884  1.7954
 8465SOL    HW236858   4.531   3.753   1.616 -0.2714 -0.6056 -0.7202
 8466SOL     OW36859   4.240   3.621  15.874 -0.1522 -0.0208  0.3399
 8466SOL    HW136860   4.321   3.662  15.843  0.5844 -0.0016  2.2775
 8466SOL    HW236861   4.186   3.700  15.875  0.6368  0.5353 -1.9410
 8467SOL     OW36862   2.623   1.814   2.572  0.0874 -0.0534 -0.6191
 8467SOL    HW136863   2.628   1.848   2.483 -2.9054  1.6394 -0.1283
 8467SOL    HW236864   2.673   1.734   2.554  1.1339  0.6905 -1.0707
 8468SOL     OW36865   0.029   0.545   3.428  0.2618 -0.4624  0.0736
 8468SOL    HW136866   4.662   0.571   3.444  0.2391 -0.8048  0.5072
 8468SOL    HW236867   0.041   0.552   3.333 -3.7446 -0.3676 -0.4447
 8469SOL     OW36868   1.649   3.089   2.906 -0.0326  0.4503  0.3283
 8469SOL    HW136869   1.634   2.994   2.910  2.0243  0.1392  0.5775
 8469SOL    HW236870   1.563   3.111   2.871 -0.7338 -0.7045  1.3095
 8470SOL     OW36871   2.484   3.747   6.697 -0.6356  0.0721 -0.1488
 8470SOL    HW136872   2.457   3.661   6.728 -0.4665  0.3677  0.8287
 8470SOL    HW236873   2.416   3.766   6.632  0.9662 -0.8749 -2.0768
 8471SOL     OW36874   3.448   0.961   1.016 -0.4980 -0.6446 -0.1949
 8471SOL    HW136875   3.537   0.965   1.049 -0.6818  1.7622  0.0418
 8471SOL    HW236876   3.413   0.886   1.065 -0.9319 -0.2671  0.0778
 8472SOL     OW36877   2.994   3.492   9.205  0.2908 -0.2555  0.6602
 8472SOL    HW136878   2.937   3.534   9.270  0.2891  0.4208  0.2189
 8472SOL    HW236879   2.938   3.476   9.129  0.5723  0.6201  0.2694
 8473SOL     OW36880   0.286   0.511   5.012  0.3038 -0.4851 -0.0217
 8473SOL    HW136881   0.325   0.564   5.082  1.7180  0.7206 -1.7217
 8473SOL    HW236882   0.192   0.517   5.028  0.4378  1.0392  0.1903
 8474SOL     OW36883   1.549   0.482   3.195 -0.1310  0.2467 -0.1477
 8474SOL    HW136884   1.630   0.490   3.145  0.3107  0.1862  0.5515
 8474SOL    HW236885   1.522   0.573   3.180 -1.9870 -0.2079  0.4014
 8475SOL     OW36886   1.223   2.691   2.111  0.5895  0.2196  0.5718
 8475SOL    HW136887   1.190   2.604   2.089  2.3081 -0.6031  1.2334
 8475SOL    HW236888   1.216   2.736   2.027 -0.1042 -1.1630 -0.0980
 8476SOL     OW36889   0.317   3.421   3.108  0.3953 -0.9895  0.0001
 8476SOL    HW136890   0.287   3.488   3.047 -1.2495 -1.0862  0.7055
 8476SOL    HW236891   0.233   3.402   3.150  0.7125  0.6048  1.3566
 8477SOL     OW36892   4.103   3.412   3.467  0.2897  0.7778 -0.6074
 8477SOL    HW136893   4.027   3.357   3.449 -0.8215  1.9677  0.3439
 8477SOL    HW236894   4.174   3.354   3.441 -0.6698  0.1075 -1.7251
 8478SOL     OW36895   0.417   4.183   2.787 -0.2207  0.3987  0.3066
 8478SOL    HW136896   0.472   4.126   2.842  0.3735  0.7916  0.1148
 8478SOL    HW236897   0.386   4.253   2.844  1.3922  1.7448 -0.5054
 8479SOL     OW36898   0.162   1.434   2.397 -0.2570 -0.5037  0.3906
 8479SOL    HW136899   0.110   1.372   2.447 -1.8851 -0.2974 -1.0506
 8479SOL    HW236900   0.110   1.513   2.405 -1.9604 -1.3367 -2.5861
 8480SOL     OW36901   3.275   4.362  15.208  0.2694 -0.1954 -0.3044
 8480SOL    HW136902   3.308   4.291  15.261 -1.0582  0.0211  0.8198
 8480SOL    HW236903   3.343   4.362  15.141  0.2842 -0.3792 -0.2885
 8481SOL     OW36904   1.076   2.500  11.524  0.0070 -0.2810 -0.5731
 8481SOL    HW136905   1.023   2.543  11.458 -1.2252  0.1744  0.7168
 8481SOL    HW236906   1.002   2.464  11.571  1.3942 -2.5977 -0.1423
 8482SOL     OW36907   3.728   2.558  14.599  0.3223  0.2379 -0.1847
 8482SOL    HW136908   3.705   2.539  14.690 -2.4573 -1.6367 -1.2651
 8482SOL    HW236909   3.811   2.606  14.603  1.0581 -1.0011 -0.6869
 8483SOL     OW36910   0.699   0.027   6.483  0.6034  0.2940 -0.2833
 8483SOL    HW136911   0.711   0.017   6.388  0.1952 -1.6660 -0.1355
 8483SOL    HW236912   0.696   0.122   6.487  1.3233  0.3265 -0.5429
 8484SOL     OW36913   2.467   1.218   1.570 -0.0049  0.5941 -0.2464
 8484SOL    HW136914   2.405   1.272   1.620  3.3082  1.8321  2.5099
 8484SOL    HW236915   2.410   1.196   1.496 -0.4769  1.7077 -0.2027
 8485SOL     OW36916   2.876   3.894   3.909  0.3525  0.5397 -0.7138
 8485SOL    HW136917   2.866   3.971   3.854  0.9214  0.1854 -1.3062
 8485SOL    HW236918   2.789   3.856   3.903  0.0484  1.2055 -0.5367
 8486SOL     OW36919   3.680   3.129   1.989  0.2620 -0.1096 -0.5692
 8486SOL    HW136920   3.625   3.188   2.041 -0.1603 -1.8547  0.9690
 8486SOL    HW236921   3.766   3.130   2.031  0.1197 -0.6996 -0.2633
 8487SOL     OW36922   4.663   2.867   6.368  0.1035  0.0458  0.4247
 8487SOL    HW136923   4.652   2.930   6.297 -1.9591 -0.0658  0.6564
 8487SOL    HW236924   0.020   2.897   6.410 -0.0568  1.9032 -0.5967
 8488SOL     OW36925   0.628   0.834  10.180 -0.0407 -0.4047 -0.7297
 8488SOL    HW136926   0.692   0.762  10.181  1.3782  0.8707  0.4621
 8488SOL    HW236927   0.546   0.787  10.191 -0.0971  0.0761  0.9000
 8489SOL     OW36928   0.298   4.173   4.520  0.0726  0.1288  0.4981
 8489SOL    HW136929   0.223   4.119   4.544  0.9381 -0.6899  1.3702
 8489SOL    HW236930   0.360   4.126   4.576  1.0022 -1.2275 -1.6680
 8490SOL     OW36931   1.305   1.757  11.765  0.2392 -0.0737  0.0837
 8490SOL    HW136932   1.305   1.723  11.854  2.8843 -0.2987 -0.0098
 8490SOL    HW236933   1.397   1.768  11.745  0.3346 -2.1676 -0.6157
 8491SOL     OW36934   3.565   3.653  10.847 -0.0645 -0.4451 -0.2923
 8491SOL    HW136935   3.583   3.746  10.863  0.9075 -1.0217  1.9178
 8491SOL    HW236936   3.559   3.622  10.937  2.2008 -2.4759 -0.8449
 8492SOL     OW36937   4.035   3.830   4.171  0.1657  0.3518 -0.3089
 8492SOL    HW136938   4.029   3.907   4.227  0.8776 -0.3054  0.6964
 8492SOL    HW236939   4.093   3.868   4.106  0.1328 -0.2012 -0.6659
 8493SOL     OW36940   2.361   0.818   8.876 -0.2895  0.1505 -0.2288
 8493SOL    HW136941   2.422   0.751   8.906 -0.8229 -0.7216 -1.0901
 8493SOL    HW236942   2.284   0.763   8.889 -0.3771  0.2924 -0.1428
 8494SOL     OW36943   2.496   0.770   6.736  0.0283  0.1589  0.6482
 8494SOL    HW136944   2.423   0.718   6.770  0.1060 -0.2749  0.1644
 8494SOL    HW236945   2.462   0.858   6.750 -1.7797 -0.2437 -1.2067
 8495SOL     OW36946   2.104   3.985   7.461  0.1356 -0.4270 -0.4657
 8495SOL    HW136947   2.138   3.991   7.550  0.7338  0.1129 -0.7311
 8495SOL    HW236948   2.029   3.927   7.475  1.5908 -2.0533  0.6079
 8496SOL     OW36949   4.209   2.639   5.357 -0.1901 -0.6451 -0.3841
 8496SOL    HW136950   4.167   2.586   5.288 -0.8563  0.0071 -0.4696
 8496SOL    HW236951   4.138   2.692   5.393 -0.8805 -1.5440 -0.4150
 8497SOL     OW36952   3.175   1.118   0.992  0.0743  0.3633  0.9386
 8497SOL    HW136953   3.120   1.078   0.925 -0.5428  0.1529  1.5715
 8497SOL    HW236954   3.238   1.047   1.004 -0.4088 -0.3208 -0.5666
 8498SOL     OW36955   3.312   4.706   7.584 -0.3288  0.6977 -0.4846
 8498SOL    HW136956   3.225   4.666   7.590 -0.2896  0.2785 -2.7626
 8498SOL    HW236957   3.363   4.647   7.529 -1.2980 -1.4129  0.8841
 8499SOL     OW36958   4.032   1.635   8.712  0.4359 -0.5324 -0.2364
 8499SOL    HW136959   4.023   1.664   8.621  1.0888 -0.6810 -0.3487
 8499SOL    HW236960   4.067   1.711   8.758  0.8807 -2.1364  2.0925
 8500SOL     OW36961   3.767   1.491   4.945 -0.6941  0.1232 -0.2725
 8500SOL    HW136962   3.737   1.482   5.036 -1.7643 -1.7963 -0.8215
 8500SOL    HW236963   3.732   1.578   4.925  0.3651 -0.0187 -2.7458
 8501SOL     OW36964   3.210   1.025  10.474 -0.5176 -0.1919 -0.4868
 8501SOL    HW136965   3.176   1.030  10.564 -0.9628  0.1178 -0.6753
 8501SOL    HW236966   3.203   0.931  10.456 -1.9273 -0.3544  0.8959
 8502SOL     OW36967   3.045   0.812   9.126 -0.4318 -0.0645  0.2571
 8502SOL    HW136968   3.110   0.863   9.078 -0.9777 -0.6885 -1.1482
 8502SOL    HW236969   3.076   0.818   9.216 -1.4025 -0.9986  0.6620
 8503SOL     OW36970   4.153   4.663   3.536  0.6965  0.2386  0.0866
 8503SOL    HW136971   4.061   4.679   3.560  0.7502  0.8742 -0.1239
 8503SOL    HW236972   4.179   4.595   3.597  0.8231 -1.4646 -1.8583
 8504SOL     OW36973   4.145   1.307   1.275 -0.3991  0.3112 -0.2527
 8504SOL    HW136974   4.098   1.376   1.229 -2.2954 -1.5737 -1.1210
 8504SOL    HW236975   4.090   1.317   1.353  3.2105  1.1991  2.1501
 8505SOL     OW36976   0.793   0.110   3.565 -0.1560 -0.0656  0.0399
 8505SOL    HW136977   0.868   0.097   3.507 -0.3354 -2.3968  0.3290
 8505SOL    HW236978   0.732   0.061   3.509 -1.3250  3.8083 -2.0803
 8506SOL     OW36979   3.464   4.521  16.879  0.0923 -0.8206  0.6104
 8506SOL    HW136980   3.394   4.518  16.945  0.2618 -1.8128  0.7348
 8506SOL    HW236981   3.524   4.585  16.917 -0.3666 -0.6262  1.0082
 8507SOL     OW36982   1.517   2.947   6.428 -0.5731  0.2228 -0.5152
 8507SOL    HW136983   1.588   2.894   6.464  0.1952 -1.0816 -4.0219
 8507SOL    HW236984   1.569   3.015   6.385  0.1613 -0.3919 -0.6038
 8508SOL     OW36985   3.558   1.835  17.398  0.1063 -0.1656 -0.4051
 8508SOL    HW136986   3.559   1.795  17.485  2.2076  0.0201 -0.3423
 8508SOL    HW236987   3.647   1.822  17.367 -0.5419 -2.7083 -1.2497
 8509SOL     OW36988   1.766   3.209   8.680  0.1348  0.5183  0.0273
 8509SOL    HW136989   1.803   3.200   8.768 -0.3098  0.5535  0.2177
 8509SOL    HW236990   1.805   3.293   8.658 -0.1542 -0.2671 -3.4677
 8510SOL     OW36991   0.761   1.548   6.150  0.1301 -0.0529  0.4097
 8510SOL    HW136992   0.826   1.549   6.220  2.3213  1.1439 -1.6237
 8510SOL    HW236993   0.810   1.568   6.070  0.1741 -0.4515  0.3367
 8511SOL     OW36994   1.798   2.635   6.206  0.4169 -0.0538  0.0682
 8511SOL    HW136995   1.859   2.709   6.210 -0.9024  0.8549  3.2145
 8511SOL    HW236996   1.846   2.553   6.219 -0.0268 -0.6396 -1.9786
 8512SOL     OW36997   1.324   1.632  12.008  0.4345 -0.0723 -0.0751
 8512SOL    HW136998   1.384   1.593  12.071  0.8183  0.9060  0.1695
 8512SOL    HW236999   1.292   1.555  11.961  0.3099  0.1761 -0.3946
 8513SOL     OW37000   4.536   1.130  12.756  0.8573  0.2396  0.2340
 8513SOL    HW137001   4.541   1.103  12.664  1.7570  1.6191 -0.1109
 8513SOL    HW237002   4.583   1.062  12.805 -1.5863 -1.5854  0.0428
 8514SOL     OW37003   4.505   0.680  11.479  0.0634 -0.4619  0.1789
 8514SOL    HW137004   4.584   0.708  11.433 -1.4884 -0.3919 -2.4006
 8514SOL    HW237005   4.516   0.698  11.573  1.1054 -1.3984  0.2290
 8515SOL     OW37006   4.084   1.511  14.042 -0.1138  0.1494 -0.2224
 8515SOL    HW137007   4.083   1.521  13.947  1.2661 -2.9294 -0.5695
 8515SOL    HW237008   4.170   1.475  14.065  0.0979  0.9541  0.2732
 8516SOL     OW37009   1.387   3.845   7.457  0.0472 -0.1750  0.5784
 8516SOL    HW137010   1.414   3.821   7.368 -1.1766  0.4329  0.0439
 8516SOL    HW237011   1.390   3.767   7.511 -1.3962 -0.5172  0.1454
 8517SOL     OW37012   0.723   0.029  17.642  0.2331 -0.6322  0.2113
 8517SOL    HW137013   0.699   0.005  17.553 -0.6496  2.3721 -0.3479
 8517SOL    HW237014   0.672   0.110  17.643  1.5477  0.2002  0.0886
 8518SOL     OW37015   3.119   0.996   6.584 -0.6909  0.3348  0.4772
 8518SOL    HW137016   3.162   0.918   6.549 -2.4799  0.4329 -1.9538
 8518SOL    HW237017   3.165   1.070   6.546 -1.2320 -0.1431 -1.1087
 8519SOL     OW37018   3.183   2.169   5.619  0.0982 -0.2720  0.3475
 8519SOL    HW137019   3.142   2.092   5.580 -2.2726  0.9616  0.4048
 8519SOL    HW237020   3.129   2.176   5.697 -0.5016 -0.4011 -0.0612
 8520SOL     OW37021   2.212   0.995   4.714 -0.0245  0.0948  0.2211
 8520SOL    HW137022   2.247   1.068   4.765 -0.0688 -0.4061  0.9571
 8520SOL    HW237023   2.200   0.926   4.779 -0.7566 -0.3298 -0.3603
 8521SOL     OW37024   2.753   1.017   8.834  0.1274  0.4895  0.1134
 8521SOL    HW137025   2.766   0.985   8.745  0.1659  0.9469 -0.0450
 8521SOL    HW237026   2.783   0.943   8.886 -1.9510 -1.4915 -1.5257
 8522SOL     OW37027   4.616   1.631   3.122  0.1303  0.1411  0.8321
 8522SOL    HW137028   4.665   1.570   3.176  0.7246 -0.3482 -0.2586
 8522SOL    HW237029   4.531   1.587   3.111  0.5350 -0.0897 -1.3502
 8523SOL     OW37030   1.192   2.676   7.463 -0.1895  0.3495  0.4491
 8523SOL    HW137031   1.137   2.639   7.532  2.3884 -2.1733  1.1549
 8523SOL    HW237032   1.272   2.624   7.469 -0.8699 -0.3260  3.5903
 8524SOL     OW37033   2.225   3.585   8.537  0.2610 -0.2719 -0.8072
 8524SOL    HW137034   2.137   3.563   8.568  0.6276  2.5607  2.2579
 8524SOL    HW237035   2.223   3.678   8.556 -1.0732  0.2264 -3.4267
 8525SOL     OW37036   2.644   1.894   9.712 -0.0113  0.1581  0.2156
 8525SOL    HW137037   2.726   1.938   9.688 -0.7887  1.1681 -0.6053
 8525SOL    HW237038   2.661   1.807   9.747 -1.0510  0.5102  1.5870
 8526SOL     OW37039   0.974   0.787   6.803  0.0962 -0.1103 -0.3001
 8526SOL    HW137040   1.011   0.808   6.717  1.7279 -0.8424  0.2061
 8526SOL    HW237041   0.982   0.874   6.842 -1.1505 -0.7638  1.3919
 8527SOL     OW37042   0.960   2.323   4.986 -0.2822  0.6641 -0.1792
 8527SOL    HW137043   0.906   2.391   4.947 -0.7439 -0.3288 -1.2829
 8527SOL    HW237044   0.913   2.306   5.068  1.0471  0.8440  0.6107
 8528SOL     OW37045   4.540   1.531   8.011 -0.0621  0.6896 -0.0310
 8528SOL    HW137046   4.568   1.504   8.099  0.1864  1.4535  0.1267
 8528SOL    HW237047   4.566   1.449   7.970 -1.2890 -0.4055  1.3694
 8529SOL     OW37048   3.976   4.532   4.601 -0.5040 -0.2671 -0.3123
 8529SOL    HW137049   3.989   4.626   4.613  1.0139 -0.3718 -1.1762
 8529SOL    HW237050   4.050   4.501   4.653 -0.3703  0.4644 -0.0732
 8530SOL     OW37051   2.920   4.065   5.416  0.2165  0.0423  0.5235
 8530SOL    HW137052   2.853   4.123   5.452 -1.4078 -2.0116  0.7858
 8530SOL    HW237053   2.898   4.058   5.323  1.3026 -0.7814  0.3258
 8531SOL     OW37054   4.609   3.983  15.728 -0.3615 -0.5286  0.2207
 8531SOL    HW137055   4.525   4.028  15.726 -0.5973 -0.9778  0.0085
 8531SOL    HW237056   4.658   4.018  15.802  0.7095 -1.9259  0.1714
 8532SOL     OW37057   0.980   0.999   7.565  0.4482  0.0015 -0.1230
 8532SOL    HW137058   0.925   0.947   7.506  1.7688 -1.4112 -0.0965
 8532SOL    HW237059   0.912   1.036   7.622 -1.0827 -1.6516 -0.8680
 8533SOL     OW37060   3.410   0.273   5.058  0.1471 -0.7723 -0.0485
 8533SOL    HW137061   3.469   0.226   5.117 -2.1555 -3.3196  0.2263
 8533SOL    HW237062   3.328   0.258   5.104  0.4258 -0.7087  0.4751
 8534SOL     OW37063   4.023   0.996   8.700 -0.0680  0.1529  0.2478
 8534SOL    HW137064   3.960   0.978   8.630  0.8850 -2.6102  0.1191
 8534SOL    HW237065   3.968   1.016   8.776 -0.5928 -0.1496 -0.0554
 8535SOL     OW37066   3.076   4.561   3.511 -0.4030 -0.4753  0.3818
 8535SOL    HW137067   3.088   4.617   3.434 -0.0211 -1.0765 -0.0019
 8535SOL    HW237068   3.138   4.489   3.496  0.7974  0.9168 -1.3545
 8536SOL     OW37069   2.306   3.683  12.263 -0.3989 -0.3327  0.3435
 8536SOL    HW137070   2.216   3.683  12.295 -0.1229  1.2377  1.1431
 8536SOL    HW237071   2.354   3.634  12.331  1.2306 -1.2525 -1.4695
 8537SOL     OW37072   1.546   0.697   1.803 -0.0379 -0.3286 -0.1780
 8537SOL    HW137073   1.594   0.648   1.870 -0.9163  0.7634  1.2490
 8537SOL    HW237074   1.461   0.677   1.842 -0.8618 -0.4363 -2.0588
 8538SOL     OW37075   0.188   2.544   4.649 -0.2456  0.1965 -0.3024
 8538SOL    HW137076   0.267   2.519   4.600 -0.1527  1.2145 -0.6592
 8538SOL    HW237077   0.228   2.616   4.698 -0.5275  0.1804 -0.0550
 8539SOL     OW37078   0.412   0.167  15.708  0.1767 -0.4394  0.8328
 8539SOL    HW137079   0.424   0.138  15.799  0.3341 -1.4957  0.4770
 8539SOL    HW237080   0.502   0.175  15.677  0.3044 -1.1228  1.0275
 8540SOL     OW37081   2.342   3.245   4.154 -0.1005  0.0948 -0.1256
 8540SOL    HW137082   2.297   3.189   4.216  1.4489 -0.0699  0.8316
 8540SOL    HW237083   2.422   3.272   4.198 -0.4517  2.0132 -0.6144
 8541SOL     OW37084   0.832   1.993   4.318 -0.0256 -0.1570  0.4518
 8541SOL    HW137085   0.765   1.930   4.347  1.6428 -1.3469  1.7191
 8541SOL    HW237086   0.866   1.963   4.234 -0.9534  0.8490 -0.2779
 8542SOL     OW37087   3.037   1.716   7.546 -0.1064 -0.0392 -0.6903
 8542SOL    HW137088   3.070   1.630   7.569  0.7306  0.9841  1.8269
 8542SOL    HW237089   3.065   1.757   7.627 -2.0696 -1.6149  0.7751
 8543SOL     OW37090   1.170   4.117  11.461 -0.5987  0.3507 -0.4309
 8543SOL    HW137091   1.078   4.122  11.434 -1.1389 -0.2228  1.3106
 8543SOL    HW237092   1.150   4.109  11.554 -0.4131  1.7681 -0.2743
 8544SOL     OW37093   1.117   3.568  12.273  0.2525  0.0671  0.2159
 8544SOL    HW137094   1.132   3.549  12.180 -0.3885  0.2180  0.0831
 8544SOL    HW237095   1.024   3.590  12.275  0.6242  1.6802 -0.3142
 8545SOL     OW37096   2.159   2.198  14.809 -0.1490  0.0131 -0.3635
 8545SOL    HW137097   2.236   2.220  14.863  0.1467 -0.2943 -0.6578
 8545SOL    HW237098   2.173   2.262  14.739  1.3998 -0.2115 -0.2626
 8546SOL     OW37099   0.584   4.003  15.016 -0.0065  0.5593 -0.4483
 8546SOL    HW137100   0.600   3.914  15.049  1.6046  0.8704 -0.3807
 8546SOL    HW237101   0.675   4.024  14.993  0.8888 -2.4867  0.2873
 8547SOL     OW37102   4.061   3.115   0.486  0.2155  0.1071  0.1346
 8547SOL    HW137103   4.123   3.130   0.557 -0.4713  1.3677  0.4726
 8547SOL    HW237104   4.074   3.025   0.456 -2.9775 -0.0435 -0.8828
 8548SOL     OW37105   1.535   3.640  15.134 -0.4067  0.6170  0.0863
 8548SOL    HW137106   1.547   3.732  15.159 -0.8017  0.9056 -0.7811
 8548SOL    HW237107   1.609   3.618  15.078 -0.2546  0.7270  0.2461
 8549SOL     OW37108   2.111   2.196   5.702  0.0020 -0.0213 -0.8411
 8549SOL    HW137109   2.170   2.263   5.738 -0.4728 -1.0765  1.9345
 8549SOL    HW237110   2.106   2.238   5.616  2.6309  2.2103  0.0843
 8550SOL     OW37111   0.258   3.095   9.060  0.2998 -0.6030  0.6761
 8550SOL    HW137112   0.279   3.179   9.020  2.9867 -0.3241  2.6561
 8550SOL    HW237113   0.230   3.041   8.986  1.9687 -1.0736  0.3917
 8551SOL     OW37114   4.608   0.242   6.178  0.7962  0.5169 -0.4832
 8551SOL    HW137115   4.574   0.296   6.106  0.9219  2.1608  0.6989
 8551SOL    HW237116   4.522   0.206   6.198  1.3905 -1.4361 -1.4290
 8552SOL     OW37117   0.112   3.708   2.406  0.2902 -0.2090  0.1164
 8552SOL    HW137118   0.073   3.795   2.391 -0.2813 -0.5089 -0.1314
 8552SOL    HW237119   0.045   3.663   2.457  0.6510 -3.0429 -1.9526
 8553SOL     OW37120   1.267   0.809  15.578 -0.3027 -0.3599 -0.1949
 8553SOL    HW137121   1.186   0.860  15.585 -0.4166 -0.6192  0.3534
 8553SOL    HW237122   1.319   0.849  15.648  0.0368 -1.0378 -0.0615
 8554SOL     OW37123   3.295   1.430   5.343  0.4493  0.0567 -0.3984
 8554SOL    HW137124   3.388   1.436   5.362  0.9291 -1.3411 -2.3123
 8554SOL    HW237125   3.296   1.474   5.258 -1.0995  0.9856  0.0597
 8555SOL     OW37126   1.627   0.608   9.254 -0.2254 -0.3288 -0.0109
 8555SOL    HW137127   1.693   0.542   9.274 -0.7088 -0.4892  1.0890
 8555SOL    HW237128   1.679   0.673   9.208 -0.1171 -1.1348 -1.0223
 8556SOL     OW37129   1.674   1.414   7.242  0.7393 -0.4546 -0.5956
 8556SOL    HW137130   1.666   1.503   7.208 -3.1560  0.1547  1.9169
 8556SOL    HW237131   1.765   1.422   7.270 -0.2003  0.0567  2.3756
 8557SOL     OW37132   1.364   2.244   5.914  0.9426  0.0355  0.8160
 8557SOL    HW137133   1.333   2.334   5.919 -1.5579 -0.7914  0.4229
 8557SOL    HW237134   1.455   2.256   5.887  0.4704  1.7390 -0.0362
 8558SOL     OW37135   4.221   4.649   8.768  0.5777 -0.6710 -0.1661
 8558SOL    HW137136   4.129   4.655   8.794  0.4829 -0.7287 -0.4826
 8558SOL    HW237137   4.253   4.564   8.799  2.9142 -0.2071 -1.2579
 8559SOL     OW37138   0.792   0.391  11.794  0.0139 -0.1039  0.1405
 8559SOL    HW137139   0.729   0.331  11.756  0.9624  1.0569 -3.3039
 8559SOL    HW237140   0.777   0.467  11.738 -1.1930 -2.2414 -2.3782
 8560SOL     OW37141   2.243   4.290   6.025  0.2805 -0.0121 -0.3065
 8560SOL    HW137142   2.174   4.244   5.977  0.6212  0.4447 -1.2423
 8560SOL    HW237143   2.211   4.265   6.112  0.2068  1.7491  0.1941
 8561SOL     OW37144   3.393   1.317   5.770  0.6567  0.3247 -0.3018
 8561SOL    HW137145   3.489   1.314   5.777  0.4616 -1.5147  1.8248
 8561SOL    HW237146   3.367   1.309   5.862 -0.5883  1.1435 -0.5903
 8562SOL     OW37147   4.475   2.294  15.573 -0.4206  0.4410 -0.0138
 8562SOL    HW137148   4.537   2.272  15.642 -2.3713 -1.7342  1.0509
 8562SOL    HW237149   4.460   2.388  15.581 -0.3574  0.2702  2.0424
 8563SOL     OW37150   1.193   2.115   9.055 -0.4525  0.1356  0.5057
 8563SOL    HW137151   1.150   2.187   9.102  2.1336  0.8065  1.8547
 8563SOL    HW237152   1.185   2.052   9.127 -1.4436  1.1712  1.3144
 8564SOL     OW37153   1.513   0.725   3.609  0.0043 -0.0359  0.2336
 8564SOL    HW137154   1.422   0.698   3.596 -0.0341 -0.0243  0.4652
 8564SOL    HW237155   1.534   0.641   3.651 -1.4665 -0.8769 -0.7216
 8565SOL     OW37156   1.391   1.579  10.917 -0.0249  0.2137  0.0354
 8565SOL    HW137157   1.337   1.657  10.902 -0.7990 -0.0409  1.4963
 8565SOL    HW237158   1.321   1.527  10.956 -1.3543  0.5824 -1.8191
 8566SOL     OW37159   0.884   3.869   0.970 -0.2181 -0.3783  0.0872
 8566SOL    HW137160   0.848   3.784   0.994  3.5808 -2.0583 -0.1953
 8566SOL    HW237161   0.957   3.886   1.030 -0.8776  1.3532  0.3845
 8567SOL     OW37162   2.975   0.305  16.388 -1.0368 -0.5030  0.8380
 8567SOL    HW137163   2.924   0.224  16.395  0.1084 -1.1735  1.3746
 8567SOL    HW237164   2.922   0.366  16.438  0.1159  0.6957  0.5924
 8568SOL     OW37165   4.353   2.571   6.548 -0.0822 -0.1142  0.5562
 8568SOL    HW137166   4.396   2.575   6.463  0.1262  3.6691  0.8373
 8568SOL    HW237167   4.270   2.615   6.531  0.3100  0.2476 -0.3882
 8569SOL     OW37168   4.185   4.133   0.267 -0.1033 -0.0985 -0.5765
 8569SOL    HW137169   4.226   4.047   0.263  2.2018  0.9507  0.3254
 8569SOL    HW237170   4.108   4.103   0.315 -0.5893 -0.7609 -1.7700
 8570SOL     OW37171   3.157   1.286   1.473 -0.1687 -0.3001 -0.2827
 8570SOL    HW137172   3.188   1.220   1.411 -0.8169 -1.2536  0.4016
 8570SOL    HW237173   3.084   1.253   1.525 -0.7214  1.3536 -0.0084
 8571SOL     OW37174   0.782   2.531   4.268  0.4314 -0.4497 -0.7636
 8571SOL    HW137175   0.872   2.498   4.271  0.8954  0.9691  0.8374
 8571SOL    HW237176   0.793   2.614   4.222 -2.2224  1.0121  1.1843
 8572SOL     OW37177   3.248   0.877   6.233 -0.4303 -0.2333 -0.4248
 8572SOL    HW137178   3.334   0.899   6.197 -0.1093 -0.4420  0.2163
 8572SOL    HW237179   3.274   0.820   6.305 -1.5086  0.0687  0.2081
 8573SOL     OW37180   4.180   4.070   3.384 -0.4296  0.3754 -0.4167
 8573SOL    HW137181   4.175   4.010   3.310  0.8234 -1.1952  0.7771
 8573SOL    HW237182   4.195   4.151   3.335 -2.4027 -0.7585 -2.8220
 8574SOL     OW37183   3.945   4.027   9.094  0.1858  0.6431 -0.2525
 8574SOL    HW137184   4.006   4.101   9.097 -0.7430  1.3652  0.6314
 8574SOL    HW237185   3.896   4.044   9.174  0.3543 -0.6409  0.1121
 8575SOL     OW37186   1.553   4.390   1.042 -0.0305  0.6233  0.7624
 8575SOL    HW137187   1.568   4.309   1.091 -1.2125  0.8308  1.4766
 8575SOL    HW237188   1.458   4.384   1.035 -0.0661  0.7851  1.1350
 8576SOL     OW37189   4.503   2.909  10.893 -0.3163 -0.2390 -0.6163
 8576SOL    HW137190   4.455   2.985  10.861  0.9165  0.7042 -0.2425
 8576SOL    HW237191   4.440   2.845  10.860 -1.4468  0.4573  0.1943
 8577SOL     OW37192   0.466   3.509   2.112 -0.4565  0.1391  0.3925
 8577SOL    HW137193   0.480   3.479   2.022  1.5699 -1.1012  1.1129
 8577SOL    HW237194   0.453   3.427   2.160  3.1452 -0.3308  0.6261
 8578SOL     OW37195   4.244   2.627  17.274  0.6733  0.6794 -0.0043
 8578SOL    HW137196   4.217   2.668  17.192  1.2424  3.2560  1.0715
 8578SOL    HW237197   4.280   2.704  17.318  1.6814  0.5122 -0.5419
 8579SOL     OW37198   3.519   2.372   4.805  0.2108 -0.0324  0.3211
 8579SOL    HW137199   3.614   2.372   4.796  0.4087 -2.1619  2.4835
 8579SOL    HW237200   3.490   2.459   4.778  0.5369  0.6382  2.1611
 8580SOL     OW37201   4.662   1.752   3.850 -0.8800 -0.1114  0.5439
 8580SOL    HW137202   4.573   1.748   3.815 -0.6101 -0.9888 -0.0502
 8580SOL    HW237203   4.670   1.659   3.869  0.8557  0.1263  0.9879
 8581SOL     OW37204   2.486   4.578   8.855  0.0535 -0.3575 -0.7517
 8581SOL    HW137205   2.455   4.502   8.806  0.8302 -2.4864  2.0758
 8581SOL    HW237206   2.479   4.537   8.941  1.2996 -0.9284 -0.9281
 8582SOL     OW37207   2.158   0.925  10.302 -0.0580 -0.5649  0.4353
 8582SOL    HW137208   2.217   0.949  10.373  0.2808 -0.7013  0.1985
 8582SOL    HW237209   2.127   0.841  10.337 -1.0593 -0.8951 -1.2562
 8583SOL     OW37210   2.022   2.816  14.415 -0.5247 -0.1195  0.0888
 8583SOL    HW137211   1.993   2.746  14.356 -1.3569 -0.0665  0.4479
 8583SOL    HW237212   1.965   2.807  14.491  1.2601 -1.4213  1.2755
 8584SOL     OW37213   4.319   0.482   1.763 -0.3701  0.0880 -0.1452
 8584SOL    HW137214   4.289   0.550   1.824 -2.4205 -0.6044 -0.3709
 8584SOL    HW237215   4.261   0.508   1.691 -0.0089 -0.0324 -0.4802
 8585SOL     OW37216   2.293   2.065   4.100  0.0218 -0.3797  0.3186
 8585SOL    HW137217   2.309   2.069   4.006  0.6475 -4.2564  0.2636
 8585SOL    HW237218   2.379   2.084   4.137 -0.1907  1.2985 -0.0602
 8586SOL     OW37219   0.811   3.158   6.370  0.4684 -0.2448  0.1291
 8586SOL    HW137220   0.754   3.144   6.294 -0.0134 -1.3092  0.6939
 8586SOL    HW237221   0.897   3.181   6.335  1.2874 -0.7882  1.8141
 8587SOL     OW37222   4.715   2.509   6.918 -0.2179 -0.0276 -0.2775
 8587SOL    HW137223   4.691   2.445   6.850 -2.9496  0.6102  0.0760
 8587SOL    HW237224   4.662   2.474   6.989  1.1408  0.0145  0.7338
 8588SOL     OW37225   2.748   0.839  10.499  0.9529 -0.5682 -0.9725
 8588SOL    HW137226   2.691   0.908  10.465  1.0270  1.4937  3.1391
 8588SOL    HW237227   2.778   0.880  10.580 -1.9680  1.1188 -0.7559
 8589SOL     OW37228   2.681   2.933   8.348  0.4897 -0.0889  0.3274
 8589SOL    HW137229   2.646   2.920   8.437 -0.9764  1.6152  0.0120
 8589SOL    HW237230   2.609   2.900   8.295  0.9227  0.0197 -0.3151
 8590SOL     OW37231   0.172   1.523  16.821 -0.1208  0.1994  0.1262
 8590SOL    HW137232   0.080   1.499  16.835  0.7166 -2.2212  1.4580
 8590SOL    HW237233   0.199   1.458  16.757  0.6789  0.5237  0.1340
 8591SOL     OW37234   0.377   1.897  14.960 -0.3076 -0.2756 -0.6426
 8591SOL    HW137235   0.309   1.880  14.896  0.2282 -0.6424 -1.1090
 8591SOL    HW237236   0.451   1.852  14.918  1.2666  1.3081  0.4072
 8592SOL     OW37237   2.083   2.791  11.992 -1.0257  0.2823 -0.4534
 8592SOL    HW137238   2.126   2.876  11.997  2.2149 -1.2944 -1.9571
 8592SOL    HW237239   2.139   2.755  11.923  0.3951  1.1858  0.2431
 8593SOL     OW37240   1.038   4.622   7.978  0.2964 -0.2217 -0.1786
 8593SOL    HW137241   1.038   4.692   7.913  0.3752 -0.0003  0.0617
 8593SOL    HW237242   1.120   4.576   7.959  0.4492  1.6727 -4.2149
 8594SOL     OW37243   4.365   1.826   4.326 -0.2279 -0.8471 -0.7682
 8594SOL    HW137244   4.385   1.867   4.242  0.2048  3.1422  1.2941
 8594SOL    HW237245   4.456   1.803   4.345 -0.6422  1.8017  4.4327
 8595SOL     OW37246   2.987   4.608   8.412 -0.6073 -0.0152  0.1432
 8595SOL    HW137247   3.019   4.559   8.336 -1.2789 -0.4156  0.1167
 8595SOL    HW237248   2.933   4.664   8.357  0.9719 -0.6994 -2.1150
 8596SOL     OW37249   0.448   0.572   7.786 -0.1505  0.5163 -0.2226
 8596SOL    HW137250   0.435   0.503   7.851  0.0785 -0.6050 -1.3750
 8596SOL    HW237251   0.402   0.520   7.720 -1.8193 -0.3149  1.5818
 8597SOL     OW37252   1.163   3.763   8.316  0.3671 -0.2733 -0.0002
 8597SOL    HW137253   1.118   3.679   8.322  0.8079 -0.5181 -0.0963
 8597SOL    HW237254   1.090   3.823   8.307  0.4559 -0.1000  0.4333
 8598SOL     OW37255   2.156   3.340   8.774 -0.0458  0.1542  0.0822
 8598SOL    HW137256   2.095   3.402   8.733 -0.4661 -0.1252  0.2927
 8598SOL    HW237257   2.132   3.346   8.866  1.1581  1.5460  0.3087
 8599SOL     OW37258   2.762   0.103  10.593  0.3395 -0.5610 -0.0101
 8599SOL    HW137259   2.771   0.031  10.656 -0.4125 -1.0460 -0.4520
 8599SOL    HW237260   2.811   0.171  10.639 -1.4758  0.7824 -0.0296
 8600SOL     OW37261   2.703   0.498   3.038  0.0385  0.4969  0.0395
 8600SOL    HW137262   2.690   0.572   2.979 -0.8755 -0.1877 -0.6285
 8600SOL    HW237263   2.615   0.487   3.076 -0.5176 -1.4470 -1.8679
 8601SOL     OW37264   0.275   1.400   1.625 -0.5052 -0.3644 -0.0536
 8601SOL    HW137265   0.335   1.474   1.624  1.1970 -1.7643 -2.0148
 8601SOL    HW237266   0.286   1.381   1.719 -3.0369 -0.3374  0.2329
 8602SOL     OW37267   1.151   4.100   6.417 -0.5969  0.0606 -0.2638
 8602SOL    HW137268   1.210   4.040   6.464  1.1404  1.0469 -1.1967
 8602SOL    HW237269   1.065   4.071   6.447 -1.0464  0.7782 -0.8835
 8603SOL     OW37270   1.827   3.835  10.540  0.3272 -0.2450  0.4716
 8603SOL    HW137271   1.799   3.915  10.497 -0.7283 -0.0813  1.4481
 8603SOL    HW237272   1.916   3.817  10.510 -0.2865 -0.9242 -0.9277
 8604SOL     OW37273   0.635   0.299   6.514  0.2025  0.0916 -0.0141
 8604SOL    HW137274   0.640   0.342   6.429 -0.0549  2.3048  1.0884
 8604SOL    HW237275   0.545   0.325   6.537  0.1350 -1.7143  1.8206
 8605SOL     OW37276   3.669   1.522   5.202 -0.2057 -0.2548 -0.3170
 8605SOL    HW137277   3.700   1.612   5.193 -0.4776 -0.0109  1.1522
 8605SOL    HW237278   3.746   1.477   5.236  1.3145  0.5837 -2.6093
 8606SOL     OW37279   2.625   2.421   1.268 -0.1060  0.3072 -0.3407
 8606SOL    HW137280   2.579   2.494   1.227  1.6590  1.7992  0.3268
 8606SOL    HW237281   2.589   2.355   1.209 -2.3278 -1.2579  2.8001
 8607SOL     OW37282   2.541   0.509   8.734 -0.3138  0.3151  0.2157
 8607SOL    HW137283   2.559   0.575   8.801  0.8282  0.2457 -0.0155
 8607SOL    HW237284   2.514   0.435   8.788 -0.3915  1.4967  1.8006
 8608SOL     OW37285   2.743   1.712  10.638  0.1110  0.6390  0.1924
 8608SOL    HW137286   2.782   1.657  10.705 -1.2741 -0.4231  0.1215
 8608SOL    HW237287   2.797   1.674  10.568 -0.5039  1.5133 -0.7565
 8609SOL     OW37288   2.222   4.263   9.819 -0.4428  0.3215 -0.4564
 8609SOL    HW137289   2.138   4.239   9.858  1.0870 -1.3295  1.8332
 8609SOL    HW237290   2.282   4.226   9.883 -0.9404  1.2437  0.5273
 8610SOL     OW37291   0.983   4.668   8.618  0.3679  0.3854 -0.1643
 8610SOL    HW137292   0.928   4.695   8.692  0.3351 -0.3736  0.0923
 8610SOL    HW237293   1.036   0.023   8.607 -0.4853  1.0705  0.6192
 8611SOL     OW37294   4.440   0.702   4.998  0.0612 -0.1701 -0.2122
 8611SOL    HW137295   4.503   0.724   5.066 -1.7316  3.3275  0.3414
 8611SOL    HW237296   4.369   0.763   5.020  0.8907  0.2169  1.3181
 8612SOL     OW37297   4.126   4.722   5.357 -0.0820 -0.2516 -0.3504
 8612SOL    HW137298   4.052   0.031   5.305 -0.6896 -2.3942 -0.8530
 8612SOL    HW237299   4.085   4.683   5.434 -4.1075  4.1106 -0.2675
 8613SOL     OW37300   1.923   2.682  13.196  0.3452 -0.0253  0.1468
 8613SOL    HW137301   2.005   2.723  13.168  0.4640 -0.5326 -0.2530
 8613SOL    HW237302   1.951   2.598  13.233 -1.6203  0.3573  2.4869
 8614SOL     OW37303   0.937   4.120   9.974  0.4486  0.2611  0.0750
 8614SOL    HW137304   0.875   4.127  10.047  0.1708  2.9562 -0.4110
 8614SOL    HW237305   0.951   4.213   9.955  2.0306  0.0367  0.1205
 8615SOL     OW37306   3.845   3.784  16.934  0.3366  0.2364  0.1001
 8615SOL    HW137307   3.854   3.810  16.842 -1.8628  1.6642  0.2944
 8615SOL    HW237308   3.906   3.832  16.990 -0.5081 -0.0912  1.2796
 8616SOL     OW37309   3.360   3.975   8.117 -0.7705 -0.0064 -0.0605
 8616SOL    HW137310   3.285   4.034   8.115 -1.2180 -0.5521  0.4062
 8616SOL    HW237311   3.313   3.897   8.087  0.6757 -0.6145 -0.7375
 8617SOL     OW37312   0.576   3.226   3.297 -0.2536 -0.1466  0.0206
 8617SOL    HW137313   0.611   3.140   3.274  1.3896  0.5952 -0.2827
 8617SOL    HW237314   0.534   3.208   3.381 -0.6866 -1.1280 -0.4138
 8618SOL     OW37315   2.149   0.187   3.420 -0.1195 -0.1816 -0.6565
 8618SOL    HW137316   2.100   0.266   3.442 -1.0750 -0.6859 -0.9999
 8618SOL    HW237317   2.202   0.169   3.498  0.1937  3.9479  0.0720
 8619SOL     OW37318   3.859   2.890   7.416 -0.5781  0.1021  0.1698
 8619SOL    HW137319   3.918   2.817   7.396  0.1644  0.4364  1.1665
 8619SOL    HW237320   3.816   2.862   7.496 -2.2749 -1.2530 -1.2030
 8620SOL     OW37321   3.902   3.707   7.757 -0.1323 -0.5275  0.3430
 8620SOL    HW137322   3.875   3.626   7.716  0.8947  0.5677 -2.4687
 8620SOL    HW237323   3.854   3.710   7.840  1.2808  1.0317  1.1292
 8621SOL     OW37324   3.791   1.674   7.845  0.2625 -0.0929  0.3283
 8621SOL    HW137325   3.806   1.581   7.860 -0.6010 -0.3570 -0.4462
 8621SOL    HW237326   3.861   1.713   7.897  2.0712 -1.5096 -1.0447
 8622SOL     OW37327   4.543   2.338  12.334  0.1597  0.1159  0.5555
 8622SOL    HW137328   4.566   2.245  12.322 -0.6571  0.2082 -1.8033
 8622SOL    HW237329   4.632   2.361  12.359 -0.0090 -0.3856  1.6158
 8623SOL     OW37330   1.772   1.158   2.403 -0.1666 -0.2621 -0.2802
 8623SOL    HW137331   1.685   1.136   2.438  1.0006 -2.4267  1.3089
 8623SOL    HW237332   1.761   1.235   2.348  0.6424 -0.0078 -0.0767
 8624SOL     OW37333   1.932   4.196   6.858  0.3798  0.7591 -0.6897
 8624SOL    HW137334   1.873   4.187   6.783  0.1066 -0.7905 -0.2802
 8624SOL    HW237335   2.008   4.147   6.828  1.2593  0.8109  1.4424
 8625SOL     OW37336   4.185   3.973  12.364  0.0494 -0.1123 -0.1268
 8625SOL    HW137337   4.265   3.955  12.315  0.2457  0.0896  0.1187
 8625SOL    HW237338   4.214   4.056  12.402  0.1115 -0.1917 -0.0014
 8626SOL     OW37339   2.557   4.589  10.325 -0.1921 -0.1834 -0.2934
 8626SOL    HW137340   2.559   4.685  10.322 -3.6411 -0.1351 -1.0508
 8626SOL    HW237341   2.554   4.587  10.420 -2.1594 -0.2309 -0.3660
 8627SOL     OW37342   4.044   4.419   1.885 -0.1155 -0.3649 -0.0345
 8627SOL    HW137343   4.122   4.378   1.920  0.4109 -1.2285 -2.2443
 8627SOL    HW237344   4.088   4.484   1.830 -0.1756  1.7812  2.4046
 8628SOL     OW37345   0.142   2.932   6.932 -0.1626  0.0524 -0.1842
 8628SOL    HW137346   0.106   2.845   6.949 -1.8760  0.4999 -1.4212
 8628SOL    HW237347   0.109   2.975   7.011  0.9125  2.5774 -1.0935
 8629SOL     OW37348   2.203   3.529   5.537 -0.1703  0.1786 -0.7534
 8629SOL    HW137349   2.214   3.452   5.592 -1.0481 -0.5590 -1.6219
 8629SOL    HW237350   2.291   3.567   5.544  0.7914 -2.4345  0.9265
 8630SOL     OW37351   3.258   0.972   7.074 -0.2475 -0.4257 -0.0707
 8630SOL    HW137352   3.325   0.993   7.009  1.1998  0.6852  1.8010
 8630SOL    HW237353   3.181   1.013   7.034  0.3454  0.8611  0.1183
 8631SOL     OW37354   1.611   0.559   5.448  1.1070 -0.4452  0.3460
 8631SOL    HW137355   1.570   0.495   5.506  0.5239 -1.2434 -0.9509
 8631SOL    HW237356   1.604   0.499   5.374 -1.5890  0.7669 -0.3949
 8632SOL     OW37357   3.756   2.397   6.605  0.3412  0.2048  0.0175
 8632SOL    HW137358   3.829   2.425   6.660  0.7769 -3.3769  1.3105
 8632SOL    HW237359   3.723   2.485   6.588 -2.6204 -0.6859  1.1225
 8633SOL     OW37360   0.512   0.868   6.297  0.2509 -0.0289 -0.1791
 8633SOL    HW137361   0.562   0.916   6.231  0.4232 -0.8560 -0.6550
 8633SOL    HW237362   0.455   0.813   6.243  0.1576 -0.6653  0.5653
 8634SOL     OW37363   1.469   2.594  14.895 -0.2434 -0.1667  0.1406
 8634SOL    HW137364   1.393   2.582  14.953 -0.9338  1.1435 -0.5123
 8634SOL    HW237365   1.455   2.537  14.820  0.0322 -0.1739  0.0965
 8635SOL     OW37366   1.946   1.866   6.803 -0.6976  0.1803  0.1839
 8635SOL    HW137367   1.857   1.849   6.774  0.1960 -1.1314 -1.7315
 8635SOL    HW237368   1.959   1.781   6.846 -0.8476 -0.9701 -2.0840
 8636SOL     OW37369   3.233   3.143   9.712 -0.3543 -0.6260  0.0488
 8636SOL    HW137370   3.207   3.147   9.804 -0.8329  0.4832 -0.1348
 8636SOL    HW237371   3.306   3.081   9.711 -0.5630 -0.8605 -0.3204
 8637SOL     OW37372   2.979   4.659   1.646  0.5166  0.2909  0.3861
 8637SOL    HW137373   2.896   4.705   1.663  0.9637  1.0410  0.5406
 8637SOL    HW237374   2.975   4.652   1.551 -0.9835  0.5217  0.4332
 8638SOL     OW37375   0.865   1.436   1.638  0.2216  0.5781 -0.0379
 8638SOL    HW137376   0.815   1.480   1.706 -0.0269  0.6620 -0.2744
 8638SOL    HW237377   0.889   1.350   1.672 -0.7757  1.6158  3.2164
 8639SOL     OW37378   1.772   3.513   2.668 -0.2453  0.8259 -0.7995
 8639SOL    HW137379   1.726   3.446   2.618  0.7667 -1.1479  0.9214
 8639SOL    HW237380   1.855   3.519   2.621  0.8700  1.2886  1.1915
 8640SOL     OW37381   1.761   2.112   8.179  0.0236  0.1628 -0.1632
 8640SOL    HW137382   1.756   2.183   8.242  0.6460  3.4430 -3.8335
 8640SOL    HW237383   1.855   2.099   8.194 -0.1190  0.1108  0.6808
 8641SOL     OW37384   3.644   3.076   4.865  0.4455 -0.3884 -0.3241
 8641SOL    HW137385   3.557   3.037   4.857 -0.2145  1.4015 -1.7392
 8641SOL    HW237386   3.685   3.004   4.914  2.7931  0.8405 -0.4813
 8642SOL     OW37387   4.229   2.658   4.338  0.6729  0.2896 -0.6526
 8642SOL    HW137388   4.185   2.689   4.259  2.2832 -0.6299 -1.9292
 8642SOL    HW237389   4.298   2.725   4.339  0.8386  0.1048 -0.0671
 8643SOL     OW37390   1.158   1.744   8.816  0.1680  0.8109 -0.1401
 8643SOL    HW137391   1.085   1.784   8.863 -1.0257  1.2130 -2.3286
 8643SOL    HW237392   1.131   1.653   8.805 -0.7451  1.0117  0.4728
 8644SOL     OW37393   4.349   0.560  14.276 -0.4880 -0.5438 -0.7881
 8644SOL    HW137394   4.294   0.489  14.310 -0.3955 -0.5011 -0.5487
 8644SOL    HW237395   4.414   0.564  14.346  1.2806  1.6769 -2.5590
 8645SOL     OW37396   3.858   0.559   4.661  0.2103 -0.0500 -0.2502
 8645SOL    HW137397   3.781   0.512   4.627  0.9775  0.0471 -2.1582
 8645SOL    HW237398   3.878   0.512   4.742 -1.7966 -1.1570 -0.4070
 8646SOL     OW37399   4.220   1.723   6.367 -0.4523 -0.6469  0.0991
 8646SOL    HW137400   4.214   1.636   6.406  1.2927 -1.4616 -1.4614
 8646SOL    HW237401   4.268   1.771   6.434 -1.1233  0.9395 -0.5519
 8647SOL     OW37402   1.072   2.560   7.686  0.3535  0.0665 -0.4622
 8647SOL    HW137403   1.044   2.469   7.697  1.7297 -0.4865 -1.5739
 8647SOL    HW237404   1.001   2.599   7.738 -1.1095 -0.0669 -2.3632
 8648SOL     OW37405   2.373   2.309  14.897 -0.3688  0.0483 -0.9581
 8648SOL    HW137406   2.397   2.401  14.891  1.1035 -0.3540 -1.1997
 8648SOL    HW237407   2.451   2.262  14.867 -0.0037  0.9007 -1.3242
 8649SOL     OW37408   4.683   4.674   4.010  0.6942 -0.0926 -0.2442
 8649SOL    HW137409   0.029   4.677   3.945  0.6428  0.4006 -0.2779
 8649SOL    HW237410   4.639   0.031   3.984  2.0692  0.0014 -2.2667
 8650SOL     OW37411   0.108   0.857   3.564  0.1727 -0.0743 -0.3850
 8650SOL    HW137412   0.013   0.843   3.556 -0.1229  0.6849  1.8728
 8650SOL    HW237413   0.129   0.929   3.505  1.0266 -0.2698 -0.3194
 8651SOL     OW37414   4.271   3.848   6.893  0.9044 -0.1561  0.0510
 8651SOL    HW137415   4.272   3.756   6.866 -2.5894 -0.1505 -0.0955
 8651SOL    HW237416   4.361   3.855   6.927  0.5903  2.1095  0.3740
 8652SOL     OW37417   1.780   0.613   1.303  0.4269 -0.1688  0.4708
 8652SOL    HW137418   1.731   0.542   1.345 -1.6326  0.3460 -1.0819
 8652SOL    HW237419   1.723   0.690   1.309  1.1030  0.3318  0.4120
 8653SOL     OW37420   1.968   3.866  10.796  0.0476 -0.6511  0.1210
 8653SOL    HW137421   2.051   3.818  10.792  0.0715 -0.5841 -0.1567
 8653SOL    HW237422   1.897   3.801  10.790  1.2026 -1.7223 -1.9052
 8654SOL     OW37423   2.632   0.326   1.470 -0.4738  0.2456  0.2633
 8654SOL    HW137424   2.623   0.286   1.383 -3.9276  0.4757  0.5205
 8654SOL    HW237425   2.545   0.325   1.509 -0.5795 -0.3608  0.0119
 8655SOL     OW37426   3.983   0.230   4.408 -0.1154 -0.1850  0.3287
 8655SOL    HW137427   4.039   0.206   4.334  1.2475 -2.6688  2.1322
 8655SOL    HW237428   4.033   0.196   4.483  1.1714 -0.9690 -0.8790
 8656SOL     OW37429   3.210   3.167   6.961 -0.0201  0.4709  0.0665
 8656SOL    HW137430   3.156   3.168   7.040 -0.7672 -2.5031 -0.4059
 8656SOL    HW237431   3.164   3.101   6.910  0.5111 -0.8303  1.2936
 8657SOL     OW37432   0.424   0.683   3.669  0.2511 -0.3784 -1.0760
 8657SOL    HW137433   0.437   0.708   3.761 -1.4780 -2.3613 -0.3016
 8657SOL    HW237434   0.351   0.621   3.667  0.4646 -0.5988 -1.9572
 8658SOL     OW37435   4.299   1.903   9.179  0.4287 -0.1371  0.4538
 8658SOL    HW137436   4.358   1.937   9.113  0.7875  0.8795  1.2898
 8658SOL    HW237437   4.365   1.855   9.228  1.2704  0.4974 -0.0622
 8659SOL     OW37438   1.499   4.483  10.267  0.0434  0.1345  0.2919
 8659SOL    HW137439   1.517   4.567  10.225 -2.4221  1.2069  1.4053
 8659SOL    HW237440   1.527   4.416  10.204 -1.8865 -1.2488  0.8849
 8660SOL     OW37441   0.652   2.647   2.169 -1.1655  0.4868  0.3029
 8660SOL    HW137442   0.712   2.699   2.117 -2.8587  2.7468  0.6278
 8660SOL    HW237443   0.707   2.613   2.239 -1.1700 -1.9000 -0.8224
 8661SOL     OW37444   1.935   2.062   5.859 -0.2020 -0.1656  0.0234
 8661SOL    HW137445   1.999   2.102   5.801 -1.3100  2.0098  0.3082
 8661SOL    HW237446   1.962   2.093   5.945 -0.0712  1.3696 -0.5824
 8662SOL     OW37447   2.167   2.342  15.257  0.5545 -0.0955  0.1721
 8662SOL    HW137448   2.260   2.362  15.248  0.7755 -1.1392  0.1033
 8662SOL    HW237449   2.162   2.247  15.246  0.5963 -0.3010  1.9421
 8663SOL     OW37450   3.913   2.331   4.530 -0.2290  0.2674  0.2868
 8663SOL    HW137451   4.003   2.363   4.516  0.2703 -1.4288 -0.3850
 8663SOL    HW237452   3.881   2.330   4.440 -1.0946 -0.0259  0.6029
 8664SOL     OW37453   0.043   4.336  10.157  0.2548  0.0871  0.3933
 8664SOL    HW137454   4.707   4.268  10.188  1.8334 -2.2305 -1.5731
 8664SOL    HW237455   0.101   4.343  10.232 -2.2801 -0.1415  2.3947
 8665SOL     OW37456   3.076   0.900   4.587 -0.5935 -0.0913 -0.3900
 8665SOL    HW137457   3.088   0.836   4.657 -0.3127 -1.6338 -1.8343
 8665SOL    HW237458   3.166   0.916   4.559 -0.3883 -0.4764  0.0484
 8666SOL     OW37459   1.150   2.926   4.916 -0.5657 -0.8536  0.8581
 8666SOL    HW137460   1.140   2.833   4.937 -0.3708 -1.1888 -0.4894
 8666SOL    HW237461   1.060   2.957   4.925 -0.1813  0.1611  1.2345
 8667SOL     OW37462   3.483   3.417  11.805  0.4535  0.0225 -0.1627
 8667SOL    HW137463   3.395   3.407  11.770  0.4996  1.7596 -0.7614
 8667SOL    HW237464   3.465   3.464  11.886  1.3268 -1.0437  0.6535
 8668SOL     OW37465   3.024   0.644  13.767 -0.1540  0.3521 -0.0268
 8668SOL    HW137466   2.974   0.719  13.736 -1.3259  0.6087  2.4160
 8668SOL    HW237467   3.082   0.678  13.835  0.8222  1.9508 -1.6795
 8669SOL     OW37468   4.131   0.353   5.449 -0.3523  0.2606  0.2857
 8669SOL    HW137469   4.170   0.268   5.427 -0.5501 -0.2001  1.6829
 8669SOL    HW237470   4.042   0.320   5.464 -0.9842  0.6263 -2.6282
 8670SOL     OW37471   3.512   4.297   7.178  0.0192 -0.0622 -0.6171
 8670SOL    HW137472   3.527   4.266   7.089 -0.7594  0.2076 -0.8469
 8670SOL    HW237473   3.581   4.242   7.214  0.3345  0.7789  0.0606
 8671SOL     OW37474   3.271   4.491   9.078  0.5880 -0.2294  0.1912
 8671SOL    HW137475   3.227   4.427   9.021 -0.0095  0.3006  0.0636
 8671SOL    HW237476   3.299   4.562   9.021  0.3804  0.4750  0.9644
 8672SOL     OW37477   2.565   1.322   5.491  0.2676  0.2895  0.3146
 8672SOL    HW137478   2.584   1.351   5.402  0.7571 -0.9448  0.0135
 8672SOL    HW237479   2.543   1.406   5.530 -0.1665 -0.1384  1.0104
 8673SOL     OW37480   4.536   2.989   8.380  0.0789 -0.5871 -0.1157
 8673SOL    HW137481   4.478   2.917   8.356 -0.4255 -0.7144  1.5018
 8673SOL    HW237482   4.511   3.021   8.467 -1.4177 -0.4042 -0.5996
 8674SOL     OW37483   4.119   2.553   2.954 -0.2305 -0.3157 -0.1711
 8674SOL    HW137484   4.076   2.592   2.878 -0.4397 -1.0668 -0.4378
 8674SOL    HW237485   4.044   2.529   3.007  0.1324 -0.4711  0.2707
 8675SOL     OW37486   3.907   2.837  15.569 -0.7079 -0.2995  0.5769
 8675SOL    HW137487   3.819   2.806  15.591 -1.5717 -0.0803 -2.5854
 8675SOL    HW237488   3.913   2.851  15.475  1.9731  1.4038  0.9906
 8676SOL     OW37489   4.184   0.906  14.113 -0.2995 -0.3748 -0.1572
 8676SOL    HW137490   4.146   0.920  14.200  0.8763 -0.9467  0.4418
 8676SOL    HW237491   4.121   0.954  14.059  2.3171  1.6998 -1.3792
 8677SOL     OW37492   0.815   3.463   6.227 -0.6492  0.4165  0.1958
 8677SOL    HW137493   0.737   3.408   6.221 -0.6827  0.3726  1.0526
 8677SOL    HW237494   0.880   3.404   6.188 -0.0174  2.1277 -1.3029
 8678SOL     OW37495   2.869   3.483   8.013  0.8216  0.0465  0.1141
 8678SOL    HW137496   2.784   3.471   8.056  0.3560  1.5694 -0.3821
 8678SOL    HW237497   2.930   3.498   8.085 -0.3743  1.1055  0.9178
 8679SOL     OW37498   4.264   3.601   9.124 -0.5006  0.5347  0.0868
 8679SOL    HW137499   4.211   3.596   9.204 -0.2477 -0.7779  0.1642
 8679SOL    HW237500   4.191   3.600   9.063 -0.5109 -0.7419  0.1318
 8680SOL     OW37501   2.185   2.741  12.435 -0.6077  0.4916 -1.2018
 8680SOL    HW137502   2.257   2.804  12.435  0.7939 -1.1176 -2.0265
 8680SOL    HW237503   2.225   2.670  12.485  1.2358  0.8784 -2.1444
 8681SOL     OW37504   2.990   4.093   1.759 -0.2692  0.2710 -0.1476
 8681SOL    HW137505   3.019   4.161   1.820 -2.4612 -0.0883  1.2922
 8681SOL    HW237506   2.903   4.119   1.729 -0.8699 -0.8103  0.6800
 8682SOL     OW37507   0.996   1.661   8.174 -0.2035 -0.1950  0.1090
 8682SOL    HW137508   1.077   1.614   8.153 -2.0050 -3.4105  0.2344
 8682SOL    HW237509   1.002   1.722   8.100 -0.9637  0.0124  0.2172
 8683SOL     OW37510   2.615   2.307   6.664  0.5438 -0.1359  0.1077
 8683SOL    HW137511   2.537   2.340   6.618  0.5422 -1.0417 -0.5394
 8683SOL    HW237512   2.654   2.387   6.700 -0.9014  0.6997 -0.1554
 8684SOL     OW37513   0.370   4.187  14.179 -0.6262 -0.3632  0.5152
 8684SOL    HW137514   0.360   4.254  14.111 -0.3968 -1.9253 -1.0406
 8684SOL    HW237515   0.357   4.240  14.257 -1.4814  1.1350 -0.6396
 8685SOL     OW37516   2.161   3.198  14.960  0.3358 -0.5305 -0.8532
 8685SOL    HW137517   2.093   3.144  14.919  0.2062 -0.7093 -0.3939
 8685SOL    HW237518   2.199   3.242  14.884  2.8132 -0.4568  0.4511
 8686SOL     OW37519   3.620   2.038  15.717 -0.0319 -0.2196  0.2824
 8686SOL    HW137520   3.703   2.075  15.748 -0.3811  1.4499 -0.8318
 8686SOL    HW237521   3.612   1.968  15.782  1.9356 -1.2991 -0.6454
 8687SOL     OW37522   3.452   2.445   8.343  0.2124 -0.1640  0.5802
 8687SOL    HW137523   3.385   2.431   8.410  0.2834 -2.0319  0.2837
 8687SOL    HW237524   3.468   2.356   8.312 -1.7367 -0.6896  1.0374
 8688SOL     OW37525   1.204   0.672   4.662 -0.8432  0.4695 -0.6126
 8688SOL    HW137526   1.230   0.646   4.573 -2.1584  0.3277 -0.9564
 8688SOL    HW237527   1.142   0.599   4.671 -1.7269  1.0287 -2.2275
 8689SOL     OW37528   3.179   2.043   8.969  0.4145  0.3747 -0.0423
 8689SOL    HW137529   3.084   2.049   8.973  0.3183 -0.5150 -0.7272
 8689SOL    HW237530   3.183   1.980   8.896 -1.1967 -0.5244  0.6452
 8690SOL     OW37531   3.139   0.715   7.478 -0.3244  0.5527  0.0801
 8690SOL    HW137532   3.043   0.716   7.481 -0.2652 -0.7079  2.2700
 8690SOL    HW237533   3.156   0.807   7.457 -2.0491  0.4657 -1.6550
 8691SOL     OW37534   2.197   0.299   7.204  0.0527 -0.0358 -0.4226
 8691SOL    HW137535   2.120   0.243   7.213  1.8788 -2.1622  1.7546
 8691SOL    HW237536   2.266   0.258   7.256 -0.3881 -0.0798  0.1347
 8692SOL     OW37537   3.822   2.664   8.957  0.3176  0.0012 -0.0191
 8692SOL    HW137538   3.833   2.685   9.050 -0.1161  0.7938 -0.1454
 8692SOL    HW237539   3.835   2.569   8.960 -4.9804 -0.6609  1.3794
 8693SOL     OW37540   2.216   3.670   9.646 -0.3543  0.0966  0.0706
 8693SOL    HW137541   2.259   3.585   9.655 -0.2193  0.4343  2.7614
 8693SOL    HW237542   2.123   3.653   9.664 -0.1251 -2.3282 -1.0979
 8694SOL     OW37543   1.355   0.912   3.361  0.0323  0.6095 -0.7436
 8694SOL    HW137544   1.308   0.867   3.291 -0.6978  0.5709 -0.2270
 8694SOL    HW237545   1.436   0.860   3.365 -1.3179 -1.5882 -2.0733
 8695SOL     OW37546   0.244   1.430   4.530  1.0792 -0.0560  0.6909
 8695SOL    HW137547   0.231   1.378   4.610 -0.1679 -0.1150  0.4566
 8695SOL    HW237548   0.254   1.358   4.468  0.4620 -0.9729  1.6519
 8696SOL     OW37549   3.999   2.649  14.644 -0.4103 -0.1164  0.2689
 8696SOL    HW137550   4.047   2.646  14.726  2.0559 -0.3906 -1.1880
 8696SOL    HW237551   4.064   2.688  14.585 -1.2412  0.9678  0.0596
 8697SOL     OW37552   2.262   2.489   6.969 -0.0805  0.0762 -0.6944
 8697SOL    HW137553   2.286   2.528   7.053 -0.2683 -2.3723  0.4839
 8697SOL    HW237554   2.195   2.428   7.001 -0.7380  1.7618  1.1353
 8698SOL     OW37555   2.891   2.241   7.204  0.3026 -0.1590  0.2723
 8698SOL    HW137556   2.868   2.266   7.294  2.6710  2.6318  0.1073
 8698SOL    HW237557   2.808   2.221   7.162  0.7047 -0.1677 -0.5099
 8699SOL     OW37558   2.376   1.944   2.744  0.3312 -0.2302 -0.4745
 8699SOL    HW137559   2.431   1.899   2.680 -0.7607 -3.8672  1.1287
 8699SOL    HW237560   2.389   1.884   2.818  1.2484 -0.6828 -1.0146
 8700SOL     OW37561   0.036   0.849   6.421 -0.7461 -0.7425  0.5731
 8700SOL    HW137562   0.018   0.901   6.499 -1.0929  2.4658 -1.6850
 8700SOL    HW237563   0.019   0.914   6.354 -1.6509 -3.7239 -2.1082
 8701SOL     OW37564   1.657   3.717  10.128  0.1536 -0.1548  0.3451
 8701SOL    HW137565   1.603   3.708  10.207 -0.3494 -0.0613  0.0159
 8701SOL    HW237566   1.744   3.706  10.165  0.8737  2.1210 -0.7379
 8702SOL     OW37567   2.720   4.652   7.234  0.3769  0.1330  0.4861
 8702SOL    HW137568   2.687   4.637   7.146  0.9578  2.8839 -0.2095
 8702SOL    HW237569   2.643   4.630   7.285  0.8668 -0.7574  0.8495
 8703SOL     OW37570   0.490   0.873  12.233 -0.3287 -0.1295  0.2291
 8703SOL    HW137571   0.454   0.947  12.281 -1.4316 -1.6565  1.7853
 8703SOL    HW237572   0.568   0.854  12.285  1.5124  1.6198 -1.9649
 8704SOL     OW37573   3.531   0.890   2.245 -0.1424 -0.2073  0.3499
 8704SOL    HW137574   3.595   0.891   2.174 -0.9032  1.0282 -0.3403
 8704SOL    HW237575   3.466   0.827   2.215  0.0424 -0.3017  0.1519
 8705SOL     OW37576   2.178   4.538   2.940 -0.3702 -0.0290  0.2165
 8705SOL    HW137577   2.112   4.469   2.956 -0.9662  0.6674  0.7712
 8705SOL    HW237578   2.235   4.491   2.879 -3.5663 -2.5568 -0.8506
 8706SOL     OW37579   0.282   2.593   9.266  0.6801  0.0919  0.6979
 8706SOL    HW137580   0.213   2.544   9.309 -1.5367  0.8336 -2.0104
 8706SOL    HW237581   0.295   2.658   9.335 -1.1083  0.4162  0.7147
 8707SOL     OW37582   1.286   2.475  14.488  0.0801  0.3710  0.0201
 8707SOL    HW137583   1.288   2.567  14.516  1.3941 -0.0972  1.4470
 8707SOL    HW237584   1.340   2.439  14.558  2.2107  1.0610 -1.2626
 8708SOL     OW37585   0.948   1.422  15.503  0.2335 -0.0478 -0.0473
 8708SOL    HW137586   0.906   1.449  15.421 -0.7883 -2.1769 -0.2295
 8708SOL    HW237587   0.990   1.499  15.541 -0.2790  0.2810 -0.1462
 8709SOL     OW37588   0.141   0.925  10.063  0.2132 -0.1179 -0.1876
 8709SOL    HW137589   0.051   0.937  10.032 -0.4186  1.2167  2.1184
 8709SOL    HW237590   0.155   0.831  10.067 -1.7349 -0.3680  0.9924
 8710SOL     OW37591   4.344   0.018  10.874 -0.0378 -0.1579  0.5201
 8710SOL    HW137592   4.427   0.018  10.923 -0.6381 -3.6684  1.4906
 8710SOL    HW237593   4.358   0.099  10.825 -0.9378  0.0671  0.6391
 8711SOL     OW37594   2.927   0.987   8.016 -0.4153 -0.3974  0.3443
 8711SOL    HW137595   2.907   0.893   8.016  3.0697 -1.1432  0.3991
 8711SOL    HW237596   2.839   1.022   8.030  1.3980  3.9677  0.5668
 8712SOL     OW37597   2.634   2.263   3.484  0.0697  0.4899 -0.7453
 8712SOL    HW137598   2.627   2.291   3.393 -3.3891  1.6710 -0.1463
 8712SOL    HW237599   2.724   2.271   3.515 -0.6026 -0.7586  1.5611
 8713SOL     OW37600   4.218   3.258  15.417 -0.6952 -0.1860 -1.1762
 8713SOL    HW137601   4.268   3.237  15.496 -3.2529 -0.2084  0.4334
 8713SOL    HW237602   4.241   3.347  15.392  2.7047 -0.2684  1.7504
 8714SOL     OW37603   0.390   3.332   4.340  0.3933  0.7746  0.0569
 8714SOL    HW137604   0.374   3.327   4.434 -1.4667  1.7641 -0.2073
 8714SOL    HW237605   0.441   3.414   4.340 -0.3775  1.2553 -0.1371
 8715SOL     OW37606   2.229   3.944   3.014  0.1322 -0.5416  0.3534
 8715SOL    HW137607   2.312   3.897   3.018  0.0299 -0.7368  0.1372
 8715SOL    HW237608   2.200   3.900   2.934  0.7626  1.4571 -0.9667
 8716SOL     OW37609   4.576   0.609  16.657 -0.2681 -0.0254  0.2247
 8716SOL    HW137610   4.498   0.665  16.659  0.1161  0.5970 -2.0662
 8716SOL    HW237611   4.598   0.599  16.564 -0.9802 -0.4414  0.0958
 8717SOL     OW37612   0.067   3.649   7.958  0.6060 -0.2899  0.2872
 8717SOL    HW137613   0.019   3.588   8.014  1.1275  0.3701  1.4574
 8717SOL    HW237614   0.096   3.717   8.019 -0.8678  0.6479 -0.0724
 8718SOL     OW37615   1.379   0.016   7.121  0.2345 -0.0861  0.4589
 8718SOL    HW137616   1.439   4.668   7.144 -0.6675 -0.9427  0.0970
 8718SOL    HW237617   1.322   4.689   7.064 -0.2533  0.0792  0.8064
 8719SOL     OW37618   2.473   3.642   4.001  0.3567 -0.0492 -0.2775
 8719SOL    HW137619   2.435   3.602   4.080 -1.8560  0.1806 -1.2049
 8719SOL    HW237620   2.491   3.564   3.947  3.2105 -0.2434  0.9774
 8720SOL     OW37621   3.079   1.212  11.704  0.6289 -0.9417  0.4028
 8720SOL    HW137622   3.159   1.164  11.681  0.3532 -1.1032 -0.2195
 8720SOL    HW237623   3.012   1.144  11.710 -0.6421  0.3429  0.7095
 8721SOL     OW37624   3.094   2.075   8.566 -0.0759  0.0540 -0.3342
 8721SOL    HW137625   3.089   2.153   8.510 -0.2538 -0.3321 -0.8623
 8721SOL    HW237626   3.021   2.034   8.519  0.9319 -0.4940 -1.4247
 8722SOL     OW37627   1.474   3.828   9.939 -0.0548 -0.4274  0.2873
 8722SOL    HW137628   1.547   3.887   9.922  0.2850 -1.4641 -1.9160
 8722SOL    HW237629   1.524   3.769   9.996  2.3127  2.8705  1.6310
 8723SOL     OW37630   4.247   1.318  17.649  0.7371  0.0446 -0.5145
 8723SOL    HW137631   4.269   1.407  17.678  0.0046 -0.3298  1.2076
 8723SOL    HW237632   4.336   1.287  17.630  0.5013 -0.4061 -0.8638
 8724SOL     OW37633   3.442   2.136   7.030 -0.3899 -0.7359 -0.0197
 8724SOL    HW137634   3.502   2.184   6.973 -0.5709 -1.0514 -0.4754
 8724SOL    HW237635   3.358   2.163   6.992 -0.7504 -1.4353  0.2864
 8725SOL     OW37636   0.902   0.536   7.508 -0.1387 -0.1357 -0.1633
 8725SOL    HW137637   0.820   0.491   7.526 -0.5846  0.6702 -0.1993
 8725SOL    HW237638   0.898   0.550   7.413  0.8061 -1.6386 -0.4409
 8726SOL     OW37639   2.500   1.929   3.884  0.4549 -0.5123  0.0238
 8726SOL    HW137640   2.507   1.834   3.874  2.1833 -0.4288  0.4210
 8726SOL    HW237641   2.419   1.957   3.841  0.5702 -1.7052 -0.9846
 8727SOL     OW37642   2.865   0.661   5.006  0.5397  0.3584 -0.0757
 8727SOL    HW137643   2.788   0.657   5.061 -0.1864  1.8074 -0.9599
 8727SOL    HW237644   2.883   0.576   4.965  0.8140  1.3738 -2.0791
 8728SOL     OW37645   1.367   2.562   8.557  0.0730  1.0844 -0.3184
 8728SOL    HW137646   1.281   2.532   8.586  0.3419  0.3253 -0.3004
 8728SOL    HW237647   1.419   2.484   8.579 -0.4048  1.7900  3.3437
 8729SOL     OW37648   2.484   3.223   5.721 -0.9106  0.0252  0.0872
 8729SOL    HW137649   2.488   3.312   5.756 -2.3625  0.3713 -0.6152
 8729SOL    HW237650   2.570   3.190   5.747 -0.8112 -0.0883 -0.3978
 8730SOL     OW37651   1.175   3.808   9.793 -0.2764  0.3781 -0.1375
 8730SOL    HW137652   1.188   3.834   9.884 -0.6953 -0.8368  0.2670
 8730SOL    HW237653   1.178   3.712   9.796 -0.3542  0.4147  0.9604
 8731SOL     OW37654   2.958   2.287  15.621 -0.5572 -0.5090 -0.0086
 8731SOL    HW137655   2.903   2.294  15.543 -1.1338  1.0055  0.5131
 8731SOL    HW237656   2.925   2.365  15.667  0.2215 -1.3215  1.9528
 8732SOL     OW37657   2.135   3.499   8.044  0.1786 -0.1809 -0.2756
 8732SOL    HW137658   2.136   3.516   7.949  2.3092  1.5327  0.0413
 8732SOL    HW237659   2.205   3.434   8.049  0.5595  0.0491 -2.4733
 8733SOL     OW37660   0.899   0.319   3.741  0.6663 -0.5633  0.0061
 8733SOL    HW137661   0.984   0.284   3.768  0.0098 -0.9450  1.5964
 8733SOL    HW237662   0.860   0.247   3.692  0.8752  0.5489 -1.8090
 8734SOL     OW37663   2.229   0.630   6.228  0.5057  0.0641  0.4490
 8734SOL    HW137664   2.207   0.540   6.252  1.5672 -0.4363 -0.4320
 8734SOL    HW237665   2.295   0.643   6.296  0.9125  1.2759 -0.1740
 8735SOL     OW37666   1.111   3.286  11.930  0.1995 -0.4503  0.4515
 8735SOL    HW137667   1.061   3.238  11.996  2.8177 -1.2579  1.8505
 8735SOL    HW237668   1.141   3.356  11.989  0.2671  1.1456 -1.4637
 8736SOL     OW37669   2.195   3.079   4.378  0.1477  0.0327  0.1674
 8736SOL    HW137670   2.265   3.128   4.421  0.2248 -1.2275  1.4448
 8736SOL    HW237671   2.134   3.063   4.450 -1.4379  0.5357 -1.0564
 8737SOL     OW37672   3.139   3.544   9.823 -0.0849  0.0473 -0.2723
 8737SOL    HW137673   3.149   3.606   9.895 -2.2130  1.4601 -1.1755
 8737SOL    HW237674   3.202   3.479   9.851 -0.9010 -0.1637  1.0802
 8738SOL     OW37675   2.875   1.900   0.285 -0.0167  0.2769  0.3127
 8738SOL    HW137676   2.939   1.898   0.357  0.4487 -0.1165 -0.1138
 8738SOL    HW237677   2.811   1.835   0.313 -0.2645 -0.0025 -0.9098
 8739SOL     OW37678   0.811   0.509   2.924 -0.2484  0.0391 -0.5558
 8739SOL    HW137679   0.894   0.517   2.971 -1.9197  4.7339  1.5656
 8739SOL    HW237680   0.780   0.427   2.960 -1.9143  1.2576  0.7577
 8740SOL     OW37681   0.130   0.035   7.537 -0.0701  0.5702 -0.0223
 8740SOL    HW137682   0.205   0.074   7.491 -1.4521  1.7011 -1.3455
 8740SOL    HW237683   0.172   0.027   7.622  0.0929  1.6034  0.0003
 8741SOL     OW37684   0.787   3.829   7.226 -0.3892  0.0393 -0.2167
 8741SOL    HW137685   0.857   3.790   7.279 -0.8295 -0.7335 -0.1944
 8741SOL    HW237686   0.729   3.864   7.293 -0.3014 -1.0810  0.4443
 8742SOL     OW37687   2.277   1.108   1.937  0.4144  0.4669  0.1072
 8742SOL    HW137688   2.238   1.069   1.859 -0.6282 -0.8320  1.2818
 8742SOL    HW237689   2.227   1.189   1.947  0.7746  0.6483  0.4503
 8743SOL     OW37690   2.873   1.689   0.718  0.1491 -0.1844 -0.0780
 8743SOL    HW137691   2.873   1.639   0.799  1.3025  1.0514  0.6856
 8743SOL    HW237692   2.943   1.639   0.675  1.9058  0.2633  2.2582
 8744SOL     OW37693   3.603   1.182  12.257  0.1558 -0.4880 -0.4527
 8744SOL    HW137694   3.508   1.181  12.262  0.0912  0.5738 -1.8435
 8744SOL    HW237695   3.620   1.239  12.182  1.2022  1.1630  1.0376
 8745SOL     OW37696   4.095   1.578   5.036  0.2764 -0.1076 -0.6199
 8745SOL    HW137697   4.115   1.594   4.944  0.9260  1.4269 -0.2158
 8745SOL    HW237698   4.079   1.666   5.069  2.2594 -0.1359  0.4042
 8746SOL     OW37699   4.568   3.545   2.774  0.7882  0.1694  0.2984
 8746SOL    HW137700   4.485   3.543   2.821 -0.1101 -0.6450 -1.3190
 8746SOL    HW237701   4.621   3.500   2.839  0.9308  1.2163  0.9181
 8747SOL     OW37702   1.497   3.408   4.808  0.5337 -0.2783  0.0274
 8747SOL    HW137703   1.562   3.368   4.866 -0.5040  1.4099  2.3527
 8747SOL    HW237704   1.429   3.419   4.874  0.6652  1.3181 -0.1033
 8748SOL     OW37705   3.628   3.895  15.070 -0.2287 -0.0993 -0.0858
 8748SOL    HW137706   3.644   3.869  15.161 -2.2619 -1.7069 -0.1768
 8748SOL    HW237707   3.651   3.813  15.026 -0.5470 -0.5255  0.5338
 8749SOL     OW37708   2.443   2.514  11.110 -0.3995 -0.1182 -0.2226
 8749SOL    HW137709   2.373   2.451  11.094  0.4352 -0.0481 -4.2044
 8749SOL    HW237710   2.393   2.579  11.159  1.4585 -0.0992  1.6450
 8750SOL     OW37711   2.947   2.687  17.017  0.0719  0.5436  0.6272
 8750SOL    HW137712   2.923   2.745  17.089 -1.1606  1.8699 -0.8487
 8750SOL    HW237713   2.888   2.613  17.026 -1.0872  1.0632 -2.8618
 8751SOL     OW37714   4.230   2.533   4.741 -0.5693  0.5280 -0.0143
 8751SOL    HW137715   4.169   2.606   4.740 -0.3488  0.6812 -3.5212
 8751SOL    HW237716   4.186   2.480   4.807  1.8138 -0.9224  0.3928
 8752SOL     OW37717   3.799   2.017   7.550  0.3035 -0.6805  0.0802
 8752SOL    HW137718   3.817   1.931   7.511 -0.1290  0.3736 -2.4193
 8752SOL    HW237719   3.710   2.027   7.517  0.2623  1.6771  0.8883
 8753SOL     OW37720   4.219   1.462   4.500  0.6454 -0.2715  0.1535
 8753SOL    HW137721   4.191   1.554   4.496  1.1376 -0.2105 -2.1568
 8753SOL    HW237722   4.285   1.459   4.431  0.0934 -0.8536 -0.3484
 8754SOL     OW37723   0.407   2.591  14.820  0.3021 -0.4409  0.2353
 8754SOL    HW137724   0.461   2.652  14.770 -0.5488  1.3567  1.4931
 8754SOL    HW237725   0.459   2.510  14.817 -0.7504 -1.0684 -1.0726
 8755SOL     OW37726   3.478   0.241   9.349  0.0274  0.1924  0.5623
 8755SOL    HW137727   3.391   0.210   9.323  0.3622  0.0711 -0.4090
 8755SOL    HW237728   3.451   0.329   9.377 -0.4098  0.3002 -0.1942
 8756SOL     OW37729   1.291   0.621   6.741 -0.4453  0.6208 -0.0702
 8756SOL    HW137730   1.369   0.570   6.718 -1.7248 -1.0597 -0.6072
 8756SOL    HW237731   1.224   0.554   6.737  1.5082 -1.2154 -2.0157
 8757SOL     OW37732   0.418   4.694   0.141  0.4587 -0.3063  0.3478
 8757SOL    HW137733   0.404   4.708   0.048  1.2487  1.0157  0.4266
 8757SOL    HW237734   0.332   4.661   0.167  0.4102  0.6496  1.4295
 8758SOL     OW37735   1.716   2.817   8.424  0.7193 -0.5598  0.1070
 8758SOL    HW137736   1.633   2.796   8.466  0.4078  0.2538 -0.0893
 8758SOL    HW237737   1.730   2.750   8.358  0.3923 -0.4413 -0.0810
 8759SOL     OW37738   0.785   2.036   8.602  0.0063  0.1529 -0.5947
 8759SOL    HW137739   0.717   2.064   8.540 -0.6023 -0.2666 -0.1181
 8759SOL    HW237740   0.753   2.036   8.692 -0.7267 -2.1256 -0.8562
 8760SOL     OW37741   1.534   0.648  12.198  0.5498  0.2163 -0.0261
 8760SOL    HW137742   1.595   0.683  12.262  0.7851 -1.4047  0.6267
 8760SOL    HW237743   1.554   0.701  12.121 -0.3550 -0.9395 -1.0625
 8761SOL     OW37744   3.188   0.451   2.283  0.0345 -0.2903 -0.0916
 8761SOL    HW137745   3.132   0.389   2.330  0.1654 -0.9250 -0.7846
 8761SOL    HW237746   3.127   0.514   2.245 -2.2358 -1.1775  2.0955
 8762SOL     OW37747   2.778   4.421   5.612 -0.0349  0.0393 -0.1358
 8762SOL    HW137748   2.758   4.337   5.570  2.8596  0.9093 -3.2796
 8762SOL    HW237749   2.806   4.385   5.697 -0.0208 -2.1402 -1.0722
 8763SOL     OW37750   0.343   1.147  15.729  0.0384  0.1416  0.0665
 8763SOL    HW137751   0.336   1.187  15.643 -1.9319  0.6674  0.4903
 8763SOL    HW237752   0.343   1.054  15.705  0.0228 -0.2825  1.7413
 8764SOL     OW37753   3.593   0.929   6.958 -0.7799 -0.0138 -0.1651
 8764SOL    HW137754   3.602   0.997   7.025 -1.6978  2.4893 -2.5929
 8764SOL    HW237755   3.683   0.918   6.929 -0.2767 -0.1657  1.4313
 8765SOL     OW37756   3.097   1.357   2.667 -0.3730  0.5227 -0.0304
 8765SOL    HW137757   3.095   1.413   2.589  0.4895  1.9344  0.9706
 8765SOL    HW237758   3.034   1.404   2.720  1.3049  0.5846  1.8975
 8766SOL     OW37759   0.321   1.339  16.668 -0.5818 -0.4825  0.1319
 8766SOL    HW137760   0.306   1.273  16.599  3.3854 -1.3543  0.1227
 8766SOL    HW237761   0.394   1.395  16.643 -0.0230 -1.1125  0.3556
 8767SOL     OW37762   3.908   2.991   7.092  0.4192 -0.2647  0.7911
 8767SOL    HW137763   3.864   2.906   7.101 -1.6799  0.8637  1.0667
 8767SOL    HW237764   3.881   3.034   7.173  0.6151  3.8918 -1.3946
 8768SOL     OW37765   1.086   0.122  14.901  0.0325  0.2665 -0.1329
 8768SOL    HW137766   1.024   0.078  14.960  0.2135  0.3077  0.0884
 8768SOL    HW237767   1.032   0.136  14.824  0.3658  1.5183 -0.1306
 8769SOL     OW37768   4.456   2.239   8.025  0.1398  0.5752 -0.0304
 8769SOL    HW137769   4.435   2.290   8.104 -2.6157  0.6528 -0.8151
 8769SOL    HW237770   4.439   2.149   8.052  1.9927  0.3490  0.4364
 8770SOL     OW37771   0.823   1.555   5.276  0.1944  0.3350  0.5402
 8770SOL    HW137772   0.793   1.523   5.191 -0.6079  1.6421  0.3252
 8770SOL    HW237773   0.792   1.489   5.338 -0.6842  0.9885  0.7950
 8771SOL     OW37774   1.414   4.547  12.941  0.6477 -0.1767  0.4100
 8771SOL    HW137775   1.489   4.491  12.922  0.6533  0.5341 -1.6140
 8771SOL    HW237776   1.376   4.506  13.019 -1.5380 -0.0322 -0.6009
 8772SOL     OW37777   1.634   1.428   8.649  0.0529 -0.4804  0.3401
 8772SOL    HW137778   1.665   1.355   8.594 -1.4416 -1.0797  0.3004
 8772SOL    HW237779   1.584   1.485   8.592  2.0597 -0.1748 -1.1019
 8773SOL     OW37780   1.187   3.435  11.502 -0.8376 -0.2375 -0.5579
 8773SOL    HW137781   1.227   3.481  11.429 -0.1906  0.2267  0.0897
 8773SOL    HW237782   1.130   3.510  11.525 -0.8892 -0.5829  0.4640
 8774SOL     OW37783   0.508   1.508  11.958  0.2129 -0.2396 -0.4780
 8774SOL    HW137784   0.578   1.557  12.001 -0.5720 -0.5059  1.0937
 8774SOL    HW237785   0.558   1.453  11.897  0.6103 -0.9302  0.4752
 8775SOL     OW37786   0.276   0.037   9.529 -0.4081 -0.0901  0.2646
 8775SOL    HW137787   0.204   0.024   9.592 -1.3798  1.9356 -0.4468
 8775SOL    HW237788   0.331   4.692   9.566 -2.1440 -1.3967  0.4423
 8776SOL     OW37789   0.728   3.249   1.308 -0.0190 -0.4783 -0.0030
 8776SOL    HW137790   0.651   3.233   1.254  0.5840 -0.0440 -0.9797
 8776SOL    HW237791   0.783   3.302   1.250 -2.6015 -0.5762 -2.5128
 8777SOL     OW37792   0.541   1.935  13.901 -0.1095 -0.1351  0.3203
 8777SOL    HW137793   0.617   1.994  13.900 -1.0979  1.1769  2.5215
 8777SOL    HW237794   0.486   1.996  13.949  0.7170 -1.4278  2.8702
 8778SOL     OW37795   2.164   2.261   6.292 -0.0353 -0.5023 -0.0075
 8778SOL    HW137796   2.210   2.343   6.309  0.6499 -0.9848  0.4759
 8778SOL    HW237797   2.129   2.232   6.377 -1.1733  0.4004 -0.1656
 8779SOL     OW37798   0.277   1.637  16.516  0.6948 -0.2988 -0.0918
 8779SOL    HW137799   0.211   1.592  16.569  0.2863 -0.0112 -0.3565
 8779SOL    HW237800   0.367   1.609  16.534  1.4685  2.8076  0.8812
 8780SOL     OW37801   3.016   0.347  12.162  0.1289 -0.0397 -0.0861
 8780SOL    HW137802   2.924   0.370  12.147  0.2412 -0.6839 -1.7011
 8780SOL    HW237803   3.033   0.337  12.069  0.0369  3.3915 -0.4924
 8781SOL     OW37804   0.979   3.252  15.469 -0.6766 -0.5445  0.0639
 8781SOL    HW137805   0.902   3.221  15.422  1.0554 -0.2351 -2.9757
 8781SOL    HW237806   1.006   3.324  15.412 -4.0118  0.5959 -0.0713
 8782SOL     OW37807   1.806   4.119   7.152 -0.2939 -0.0464  1.0184
 8782SOL    HW137808   1.820   4.042   7.098 -0.1581  2.4375 -2.4482
 8782SOL    HW237809   1.896   4.142   7.175 -0.6130  0.4077  1.8263
 8783SOL     OW37810   3.241   1.780   0.600 -0.5252 -0.0532  0.4696
 8783SOL    HW137811   3.202   1.697   0.572  0.4066 -0.4724  0.4003
 8783SOL    HW237812   3.327   1.765   0.560 -2.2663 -3.1287 -2.0817
 8784SOL     OW37813   2.009   3.342  11.148 -0.0889 -0.3830 -0.4173
 8784SOL    HW137814   2.082   3.282  11.140  0.2709 -0.0106  0.0913
 8784SOL    HW237815   2.033   3.426  11.109  0.9837 -1.6244 -2.4067
 8785SOL     OW37816   1.871   2.873  15.312 -0.6367 -0.0285 -0.1756
 8785SOL    HW137817   1.949   2.856  15.365  0.4457  0.2957 -1.6335
 8785SOL    HW237818   1.914   2.872  15.226 -0.7422  0.9112 -0.2457
 8786SOL     OW37819   4.486   3.608   9.300  0.1037  0.3176 -0.2121
 8786SOL    HW137820   4.417   3.600   9.234 -0.9926  1.6216  0.7794
 8786SOL    HW237821   4.555   3.552   9.265 -1.0174 -0.7142 -0.7501
 8787SOL     OW37822   1.945   1.365   1.711  0.1269 -0.3081 -0.1457
 8787SOL    HW137823   1.863   1.316   1.719 -0.7265  1.1277 -0.2125
 8787SOL    HW237824   1.976   1.332   1.626 -2.4286 -0.7976 -0.8980
 8788SOL     OW37825   0.420   2.997  11.716  0.0248  0.3138 -0.1098
 8788SOL    HW137826   0.478   2.923  11.700  0.8265  0.9282 -0.0097
 8788SOL    HW237827   0.424   3.003  11.811 -3.8970  1.3690 -0.0130
 8789SOL     OW37828   2.096   3.699   9.141 -0.2416 -0.5166 -0.0365
 8789SOL    HW137829   2.010   3.658   9.130  0.3251 -1.7635  0.3004
 8789SOL    HW237830   2.074   3.779   9.190 -0.9865  0.4949 -2.0385
 8790SOL     OW37831   2.949   1.099  16.115 -0.3047  0.2616  0.1071
 8790SOL    HW137832   3.030   1.081  16.067 -0.2457  2.5787 -0.6812
 8790SOL    HW237833   2.922   1.010  16.133 -1.4043  0.1059 -2.2973
 8791SOL     OW37834   1.142   0.167   6.016 -0.2183  0.1599  0.1581
 8791SOL    HW137835   1.072   0.226   5.991  1.0618  2.0244  0.9874
 8791SOL    HW237836   1.105   0.145   6.101 -0.0345  0.7062  0.3758
 8792SOL     OW37837   3.187   1.312   4.577  0.0446 -0.2398 -0.0555
 8792SOL    HW137838   3.224   1.273   4.498 -0.2203 -0.8990  0.1471
 8792SOL    HW237839   3.266   1.346   4.618  0.1294 -0.9949  0.4166
 8793SOL     OW37840   1.616   0.945   6.136 -0.5957  0.5299  0.0881
 8793SOL    HW137841   1.552   1.016   6.132 -1.4770  0.0298  5.3488
 8793SOL    HW237842   1.560   0.882   6.181 -0.6564 -0.3999 -1.2749
 8794SOL     OW37843   4.658   1.933   8.863  0.1192  0.3982 -0.3084
 8794SOL    HW137844   4.642   2.027   8.867 -1.3671  0.1451 -0.1953
 8794SOL    HW237845   4.666   1.913   8.957  1.4877 -0.4049 -0.5925
 8795SOL     OW37846   1.983   1.486   9.303 -0.1830  0.3138 -0.5016
 8795SOL    HW137847   2.045   1.414   9.289  1.6836  1.9291 -0.4633
 8795SOL    HW237848   1.899   1.440   9.316  0.6591 -1.6976 -2.1274
 8796SOL     OW37849   3.829   4.679   2.583  0.1026  0.0248  0.0373
 8796SOL    HW137850   3.786   4.605   2.541  0.5603 -0.2268  0.0074
 8796SOL    HW237851   3.819   4.667   2.677 -0.2038 -3.5217 -0.4698
 8797SOL     OW37852   4.101   3.416   5.616  0.5435  0.3588 -0.0844
 8797SOL    HW137853   4.161   3.436   5.544 -0.1330  0.6381 -0.5768
 8797SOL    HW237854   4.017   3.432   5.574  1.2207 -0.8556 -1.9107
 8798SOL     OW37855   1.655   0.222   6.428 -0.1521 -0.2995 -0.1739
 8798SOL    HW137856   1.618   0.284   6.365 -0.2254 -0.3051 -0.1371
 8798SOL    HW237857   1.678   0.155   6.364 -1.2612 -0.4062 -0.4664
 8799SOL     OW37858   1.768   2.389   7.499  0.1120  0.1841 -0.1270
 8799SOL    HW137859   1.784   2.329   7.572  1.0348  0.2549 -0.2659
 8799SOL    HW237860   1.846   2.373   7.446  0.0615  1.5949 -0.6421
 8800SOL     OW37861   4.244   1.193   8.130  0.3933 -0.4303  0.4953
 8800SOL    HW137862   4.252   1.097   8.127 -2.4716 -0.7072  1.7280
 8800SOL    HW237863   4.222   1.212   8.039  3.2636  0.0448 -0.0819
 8801SOL     OW37864   2.325   0.426  11.074  0.3640 -0.2808  0.6562
 8801SOL    HW137865   2.279   0.342  11.080  3.3536 -1.8042  2.1085
 8801SOL    HW237866   2.344   0.441  11.167 -3.7050  0.1667  1.4448
 8802SOL     OW37867   3.706   0.616   1.872 -0.3150 -0.1031 -0.5655
 8802SOL    HW137868   3.670   0.635   1.786  1.3210 -0.4060 -1.3172
 8802SOL    HW237869   3.649   0.550   1.911 -0.7958  1.0034  0.6087
 8803SOL     OW37870   1.648   2.074   4.002 -0.2874  0.2635  0.0121
 8803SOL    HW137871   1.640   1.984   3.972  0.6610  0.3235 -0.4148
 8803SOL    HW237872   1.580   2.120   3.952  0.8133  1.4957 -0.3430
 8804SOL     OW37873   3.341   1.159  13.099 -0.0120  0.4166  0.0140
 8804SOL    HW137874   3.366   1.067  13.107 -2.6873 -0.4636 -1.4859
 8804SOL    HW237875   3.307   1.172  13.188 -0.2377 -1.1844  0.1789
 8805SOL     OW37876   3.536   2.018  13.730  0.0931 -0.4177  0.2156
 8805SOL    HW137877   3.492   1.968  13.660  2.2688 -1.0456 -0.7169
 8805SOL    HW237878   3.460   2.020  13.788 -0.0527 -0.1702  0.0148
 8806SOL     OW37879   1.875   0.382   4.392 -0.0539 -0.1211 -0.1434
 8806SOL    HW137880   1.940   0.446   4.420  1.5659 -1.5926 -0.5033
 8806SOL    HW237881   1.936   0.312   4.368 -0.8224 -2.0142  3.4288
 8807SOL     OW37882   4.212   0.423   2.278  0.4208  0.0165 -0.0140
 8807SOL    HW137883   4.266   0.485   2.227  0.7681  0.4727  0.9132
 8807SOL    HW237884   4.218   0.459   2.366 -0.2683 -0.5419  0.2532
 8808SOL     OW37885   4.394   3.950   1.785 -0.0548 -0.0959 -0.2421
 8808SOL    HW137886   4.479   3.986   1.759  0.4929 -1.3766 -0.2280
 8808SOL    HW237887   4.397   3.862   1.748  2.7772 -1.3119  2.8412
 8809SOL     OW37888   1.051   3.727   7.334 -0.4029  0.0167 -0.0645
 8809SOL    HW137889   0.998   3.657   7.294 -2.5113  0.1397  2.5358
 8809SOL    HW237890   1.112   3.748   7.264 -0.5128 -1.4310 -0.6027
 8810SOL     OW37891   4.560   1.538   2.140 -0.5189  0.5830 -0.1613
 8810SOL    HW137892   4.609   1.456   2.135 -0.1347  0.8785 -1.1801
 8810SOL    HW237893   4.632   1.601   2.137 -0.1577  0.2555  1.8638
 8811SOL     OW37894   1.264   1.033   7.608 -0.3247 -0.4124  0.2204
 8811SOL    HW137895   1.173   1.004   7.619 -0.0672 -1.1040  0.5192
 8811SOL    HW237896   1.277   0.998   7.520 -1.4064 -0.6040  0.1348
 8812SOL     OW37897   1.894   3.347  15.141  0.3868 -0.1404  0.1940
 8812SOL    HW137898   1.849   3.332  15.057  0.6365  2.6232 -0.4116
 8812SOL    HW237899   1.942   3.264  15.144  1.4362  0.2172 -5.1352
 8813SOL     OW37900   0.268   1.122   6.696  0.3808  0.1105  0.0607
 8813SOL    HW137901   0.344   1.159   6.741  1.2768 -0.2087 -1.1934
 8813SOL    HW237902   0.286   1.161   6.610 -1.4487  1.2874  0.2233
 8814SOL     OW37903   4.416   1.527   1.713  0.1305 -0.1712  0.0095
 8814SOL    HW137904   4.451   1.567   1.634  1.5274  1.0664  1.2605
 8814SOL    HW237905   4.488   1.534   1.776 -1.6097 -0.3401  2.0354
 8815SOL     OW37906   1.057   2.685   2.392 -0.5622 -0.0701  0.0023
 8815SOL    HW137907   1.087   2.613   2.336 -2.9893 -0.5565 -0.6668
 8815SOL    HW237908   1.139   2.733   2.380 -2.2750  2.3908 -1.5975
 8816SOL     OW37909   4.084   0.127  11.410 -0.1013  0.1210 -0.2676
 8816SOL    HW137910   4.092   0.183  11.333 -2.3092 -1.9145 -1.9608
 8816SOL    HW237911   4.130   0.178  11.477  0.4715  1.3606 -1.6224
 8817SOL     OW37912   1.661   0.933  10.925  0.3830  0.0300 -0.1002
 8817SOL    HW137913   1.690   1.017  10.890 -0.6012 -0.1933 -1.4425
 8817SOL    HW237914   1.695   0.868  10.863 -1.3152 -0.3877 -0.5880
 8818SOL     OW37915   3.963   0.982   2.128  0.2056  0.0503 -0.0006
 8818SOL    HW137916   3.914   1.045   2.075  0.4124 -0.2232 -0.5150
 8818SOL    HW237917   3.904   0.907   2.132  2.5431 -1.8386 -1.0759
 8819SOL     OW37918   3.438   2.664   7.646 -0.2441  0.1948  0.2141
 8819SOL    HW137919   3.532   2.654   7.661  0.1751 -0.5618 -2.9928
 8819SOL    HW237920   3.414   2.666   7.553  0.4195 -1.5451  0.0205
 8820SOL     OW37921   2.397   3.202  15.344 -0.6195 -0.1326 -0.7775
 8820SOL    HW137922   2.472   3.195  15.404 -1.4909  2.4042  0.5854
 8820SOL    HW237923   2.442   3.221  15.261 -0.3658 -1.2271 -0.8975
 8821SOL     OW37924   2.575   4.552   5.468 -0.4969  0.3276  0.6067
 8821SOL    HW137925   2.546   4.604   5.543 -0.8542  0.7294  0.1936
 8821SOL    HW237926   2.623   4.491   5.524  0.4372  0.4099 -0.0991
 8822SOL     OW37927   3.464   2.201   8.186 -0.2763  0.3827 -0.4779
 8822SOL    HW137928   3.545   2.157   8.160 -0.6644  1.0959 -2.8959
 8822SOL    HW237929   3.405   2.183   8.113 -0.4960 -2.3521  0.3825
 8823SOL     OW37930   3.332   0.528   4.702 -0.1853 -0.3655  0.1475
 8823SOL    HW137931   3.343   0.520   4.796 -3.3948 -0.4520  0.5146
 8823SOL    HW237932   3.291   0.445   4.677  0.5914 -0.5343 -0.5986
 8824SOL     OW37933   1.287   1.012   5.098  0.1719  0.1735  0.0304
 8824SOL    HW137934   1.371   0.999   5.142  0.9770  1.7509 -1.0801
 8824SOL    HW237935   1.313   1.008   5.007 -2.3144 -2.3192 -0.5985
 8825SOL     OW37936   1.166   3.372   7.285  0.5042 -0.1171 -0.1103
 8825SOL    HW137937   1.206   3.286   7.295  2.3610  0.4680 -2.5185
 8825SOL    HW237938   1.184   3.402   7.374 -0.4208 -2.1187  0.7367
 8826SOL     OW37939   1.469   4.718   8.336 -0.1853 -0.4517 -0.1459
 8826SOL    HW137940   1.435   0.040   8.259  0.9053 -1.1042 -1.0058
 8826SOL    HW237941   1.500   4.632   8.309  0.9637 -0.7711  2.2623
 8827SOL     OW37942   1.773   0.169  13.528  0.6800 -0.0355 -0.1374
 8827SOL    HW137943   1.809   0.144  13.613  0.3392 -0.8496 -0.2340
 8827SOL    HW237944   1.691   0.210  13.554  1.3275  0.1767  1.5613
 8828SOL     OW37945   3.506   0.149   7.961  0.1352 -0.8499  0.3392
 8828SOL    HW137946   3.422   0.163   8.004  0.6060 -0.4145  1.1005
 8828SOL    HW237947   3.544   0.237   7.970  1.3942 -1.2865 -0.6116
 8829SOL     OW37948   0.191   0.280   5.757  0.3287  0.8176  0.3324
 8829SOL    HW137949   0.231   0.211   5.810 -0.1563  1.5811  1.6737
 8829SOL    HW237950   0.223   0.276   5.667 -1.6283  0.6767 -0.3541
 8830SOL     OW37951   2.845   3.493   5.816  0.0174  0.2094  0.3231
 8830SOL    HW137952   2.916   3.508   5.879  1.3315  1.5532 -1.4574
 8830SOL    HW237953   2.887   3.528   5.737  1.2347  1.6370  1.6000
 8831SOL     OW37954   2.602   2.445   3.238 -0.0140 -0.0186 -0.0403
 8831SOL    HW137955   2.604   2.540   3.224 -0.0971  0.0955  0.7173
 8831SOL    HW237956   2.509   2.436   3.214 -0.1827  0.8713  0.2882
 8832SOL     OW37957   2.063   1.475   9.590  0.4053  0.1888 -0.5693
 8832SOL    HW137958   1.981   1.456   9.635  0.4535 -0.2083 -0.6520
 8832SOL    HW237959   2.025   1.523   9.516 -0.3871  0.2287 -0.1341
 8833SOL     OW37960   4.139   3.097   2.606 -0.0286  0.0060  0.4150
 8833SOL    HW137961   4.073   3.027   2.608  1.4220 -1.4177 -0.7348
 8833SOL    HW237962   4.084   3.173   2.624 -3.4070 -1.9832 -1.5666
 8834SOL     OW37963   0.174   3.680   3.380 -0.2804 -0.1948  0.7862
 8834SOL    HW137964   0.252   3.719   3.342 -0.4650  0.0948  0.7064
 8834SOL    HW237965   0.100   3.727   3.340  2.9010  4.0188 -0.1288
 8835SOL     OW37966   1.909   3.783   1.863 -0.0582 -0.0377 -0.6525
 8835SOL    HW137967   1.968   3.848   1.824 -0.0951 -0.5704 -1.6020
 8835SOL    HW237968   1.901   3.730   1.784  2.6530 -2.1553  0.4946
 8836SOL     OW37969   2.265   3.327   6.008 -0.2357 -0.3708  0.1758
 8836SOL    HW137970   2.305   3.296   5.927 -0.5259  0.3636 -0.2495
 8836SOL    HW237971   2.340   3.339   6.066  0.7170  1.8058 -1.5300
 8837SOL     OW37972   4.701   2.775  16.104 -0.4605  0.4401  0.7066
 8837SOL    HW137973   4.649   2.849  16.135  1.2589  1.6656  0.6709
 8837SOL    HW237974   4.682   2.771  16.010  2.6624  1.0879  0.0358
 8838SOL     OW37975   0.469   3.511   6.061 -0.3526  0.5958  0.1619
 8838SOL    HW137976   0.477   3.477   5.972 -1.1554  1.9633 -0.4219
 8838SOL    HW237977   0.505   3.444   6.120  0.3177 -0.9827 -2.0107
 8839SOL     OW37978   1.251   4.501   7.756  0.1309  0.0805  0.4002
 8839SOL    HW137979   1.271   4.575   7.699  1.2576  0.5324  1.3736
 8839SOL    HW237980   1.336   4.489   7.799  1.1116  0.3473 -1.4864
 8840SOL     OW37981   2.551   2.378   3.853  0.1358 -0.1420  0.2758
 8840SOL    HW137982   2.487   2.335   3.796  1.6492 -3.5887  1.1924
 8840SOL    HW237983   2.608   2.310   3.889  0.1570  0.9868  2.3765
 8841SOL     OW37984   4.353   4.355   6.643 -0.3419 -0.0264  0.7400
 8841SOL    HW137985   4.314   4.311   6.568 -2.3029  0.6278  1.3733
 8841SOL    HW237986   4.367   4.285   6.707 -3.0166 -1.5619 -0.3522
 8842SOL     OW37987   0.256   4.710   7.776  0.7845 -0.6628 -0.8043
 8842SOL    HW137988   0.290   0.023   7.857  1.3831 -3.0215  0.0083
 8842SOL    HW237989   0.315   4.636   7.757  1.1984 -0.8687  1.3310
 8843SOL     OW37990   3.578   3.907  16.496 -0.9690  0.0087 -0.0848
 8843SOL    HW137991   3.556   3.992  16.534  0.6168 -0.1184  1.1112
 8843SOL    HW237992   3.667   3.889  16.527 -0.6323  0.4715 -0.8022
 8844SOL     OW37993   1.094   0.613   7.023 -0.2276 -0.3467  0.0163
 8844SOL    HW137994   1.155   0.558   6.974 -1.9180  0.0674 -2.5485
 8844SOL    HW237995   1.020   0.628   6.963  0.1204  1.7457  0.0879
 8845SOL     OW37996   1.169   2.333  17.532 -0.0680  0.3473  0.0332
 8845SOL    HW137997   1.217   2.251  17.538 -1.0028 -0.2557 -0.6721
 8845SOL    HW237998   1.124   2.310  17.450  1.4813 -0.1937 -0.6575
 8846SOL     OW37999   1.733   3.992   5.147 -0.1000  0.0424  0.4333
 8846SOL    HW138000   1.713   4.076   5.189 -1.1686 -0.9491  1.9157
 8846SOL    HW238001   1.726   4.013   5.054 -0.8822  0.5399  0.6088
 8847SOL     OW38002   0.144   0.323  13.457 -0.7642 -0.7455  0.9317
 8847SOL    HW138003   0.164   0.238  13.420  0.1529 -1.0643  2.1588
 8847SOL    HW238004   0.103   0.360  13.379 -0.6033 -0.4695  0.9739
 8848SOL     OW38005   4.268   1.174  16.434  0.3866  0.1948 -0.3697
 8848SOL    HW138006   4.302   1.085  16.424  2.2593  0.6159  2.1772
 8848SOL    HW238007   4.178   1.151  16.456 -0.3020  1.1248 -2.2383
 8849SOL     OW38008   0.702   4.439  12.079 -0.0230  0.1943  0.2183
 8849SOL    HW138009   0.700   4.468  12.170 -0.0618 -0.2436  0.3565
 8849SOL    HW238010   0.716   4.345  12.086  0.3038  0.2242 -0.0595
 8850SOL     OW38011   1.838   3.224  13.155 -0.0680 -0.3064  0.2622
 8850SOL    HW138012   1.764   3.271  13.115  0.5144  0.5431  0.1786
 8850SOL    HW238013   1.793   3.191  13.232 -2.8480  0.8786 -0.8559
 8851SOL     OW38014   4.091   0.821   2.398 -0.1800 -0.7992 -0.4190
 8851SOL    HW138015   4.041   0.741   2.412 -1.0953 -0.4748 -1.8493
 8851SOL    HW238016   4.044   0.885   2.452  0.7732 -2.3137  2.2190
 8852SOL     OW38017   4.578   0.444   2.050 -0.6296 -0.2813  0.0051
 8852SOL    HW138018   4.524   0.365   2.062 -0.2401 -0.2301  2.1273
 8852SOL    HW238019   4.510   0.499   2.088  1.0584  2.0320 -0.3321
 8853SOL     OW38020   2.996   1.206   3.256  0.2594  0.0873  0.2129
 8853SOL    HW138021   2.930   1.189   3.189 -0.5728  1.3360  0.7207
 8853SOL    HW238022   2.958   1.159   3.330 -0.8381 -2.7546 -2.1508
 8854SOL     OW38023   1.531   3.671   8.469 -0.1206  0.2103 -0.1845
 8854SOL    HW138024   1.584   3.669   8.389  0.0051 -3.2010 -0.0058
 8854SOL    HW238025   1.534   3.763   8.495 -1.2699 -0.1896  1.3395
 8855SOL     OW38026   4.002   3.725   3.726  0.2523  0.4827 -0.0431
 8855SOL    HW138027   4.065   3.653   3.732 -0.3491 -0.0756 -0.3807
 8855SOL    HW238028   3.927   3.675   3.759 -0.2211  0.9510 -0.4147
 8856SOL     OW38029   4.095   3.148  13.167  0.0831 -0.3341  0.0067
 8856SOL    HW138030   4.171   3.175  13.218 -0.7417  0.9255  0.5860
 8856SOL    HW238031   4.101   3.210  13.094 -2.5920  0.8937  0.8088
 8857SOL     OW38032   4.214   3.492   0.377 -0.2618 -0.3864 -0.1355
 8857SOL    HW138033   4.178   3.580   0.387  0.4467  0.3561 -3.7931
 8857SOL    HW238034   4.255   3.471   0.461  0.9617  2.0551 -0.1409
 8858SOL     OW38035   2.963   2.610   3.625  0.0302 -0.0290 -0.0834
 8858SOL    HW138036   2.878   2.586   3.591  0.8661 -1.4795 -1.1139
 8858SOL    HW238037   2.998   2.533   3.669  1.3293 -0.3166 -1.6187
 8859SOL     OW38038   3.051   1.716  10.949  0.1835  0.1820 -0.2050
 8859SOL    HW138039   2.985   1.654  10.919  0.6388 -0.2337 -0.3438
 8859SOL    HW238040   2.988   1.787  10.964  0.0654 -0.1731  1.0082
 8860SOL     OW38041   2.200   2.776   6.051 -0.5378  0.5524 -0.1066
 8860SOL    HW138042   2.114   2.748   6.021  1.0136 -0.5627 -3.4633
 8860SOL    HW238043   2.191   2.871   6.047  0.7063  0.6563 -0.3437
 8861SOL     OW38044   2.907   2.510   9.507 -0.5048  0.4220 -0.2017
 8861SOL    HW138045   2.919   2.589   9.454  0.0701 -0.7226 -1.8028
 8861SOL    HW238046   2.942   2.436   9.456 -0.9174  0.2095 -0.1755
 8862SOL     OW38047   0.870   3.894   9.382 -0.0900  0.1615 -0.2739
 8862SOL    HW138048   0.871   3.819   9.442 -0.6021  1.0906  0.8920
 8862SOL    HW238049   0.931   3.865   9.314 -1.2461  1.4142 -1.8534
 8863SOL     OW38050   1.141   0.983   7.211 -0.1307  0.4844 -0.0588
 8863SOL    HW138051   1.161   1.061   7.160  2.7443  0.4102  0.9496
 8863SOL    HW238052   1.221   0.974   7.262 -0.6925  0.1905  0.7728
 8864SOL     OW38053   1.351   1.634   3.373 -0.1607 -0.5168 -0.3623
 8864SOL    HW138054   1.343   1.555   3.427  2.0538 -1.4653 -1.4157
 8864SOL    HW238055   1.267   1.678   3.382 -0.5348 -1.1556 -0.7580
 8865SOL     OW38056   2.252   3.356  12.990 -0.7224  0.5729  0.1741
 8865SOL    HW138057   2.207   3.326  12.912  1.0827 -0.2867 -0.5325
 8865SOL    HW238058   2.328   3.298  12.988 -0.8040  0.4248  1.0684
 8866SOL     OW38059   2.851   1.161  14.856  0.0273 -1.0179 -0.3803
 8866SOL    HW138060   2.864   1.071  14.884 -0.9846 -0.8455  0.6462
 8866SOL    HW238061   2.914   1.202  14.915  0.1264 -0.7718 -0.6551
 8867SOL     OW38062   2.908   1.188   6.189 -0.0166  0.2405 -0.0354
 8867SOL    HW138063   2.960   1.266   6.168 -0.3770 -0.0462 -1.9509
 8867SOL    HW238064   2.816   1.213   6.187 -0.5267 -1.7231 -0.6079
 8868SOL     OW38065   4.335   1.835   5.259  0.2366 -0.1707  0.0828
 8868SOL    HW138066   4.372   1.772   5.197 -0.1746 -1.3014  0.9812
 8868SOL    HW238067   4.406   1.899   5.256 -0.1803  0.2633 -0.5945
 8869SOL     OW38068   2.723   2.103   6.807 -0.2087 -0.1959 -0.2737
 8869SOL    HW138069   2.635   2.138   6.791  0.8184  2.0818 -0.9443
 8869SOL    HW238070   2.775   2.169   6.762  0.2775 -1.2616 -1.2683
 8870SOL     OW38071   0.148   2.142   0.128  0.0419  0.3562  0.2767
 8870SOL    HW138072   0.220   2.146   0.191 -1.2554 -0.8510  1.8133
 8870SOL    HW238073   0.191   2.138   0.043 -0.9938  0.6304 -0.2598
 8871SOL     OW38074   2.427   0.134   1.401  0.2465 -0.0962 -0.2876
 8871SOL    HW138075   2.341   0.172   1.418  0.3024  0.2091 -0.6944
 8871SOL    HW238076   2.402   0.072   1.333  0.3550 -0.1378 -0.2896
 8872SOL     OW38077   0.774   1.495   8.118  0.3290 -0.1217  0.3043
 8872SOL    HW138078   0.763   1.460   8.206 -1.9196  2.4971  1.0519
 8872SOL    HW238079   0.840   1.561   8.138  0.1110 -0.4254  1.9974
 8873SOL     OW38080   0.872   0.192   8.032 -0.3492  0.3561 -0.0673
 8873SOL    HW138081   0.923   0.236   8.100  0.2299  1.0801 -0.9648
 8873SOL    HW238082   0.809   0.135   8.075  0.0098 -1.2984 -1.7305
 8874SOL     OW38083   4.322   3.392   9.714  0.0540 -0.3188  0.0379
 8874SOL    HW138084   4.338   3.411   9.807  1.2571 -0.7818 -0.0753
 8874SOL    HW238085   4.408   3.363   9.683 -0.9536 -1.4123 -1.7344
 8875SOL     OW38086   3.574   4.069  13.343 -0.1879 -0.4436 -0.7319
 8875SOL    HW138087   3.515   4.056  13.418  0.3793  2.1336  0.1598
 8875SOL    HW238088   3.636   3.998  13.356  1.5700  0.8948 -1.9620
 8876SOL     OW38089   2.219   3.795   2.800 -0.0228 -0.0337  0.0195
 8876SOL    HW138090   2.127   3.770   2.801 -0.4853  1.7003  0.5054
 8876SOL    HW238091   2.226   3.813   2.706  1.9034  1.5571  0.4603
 8877SOL     OW38092   1.205   1.954   2.844 -0.0184  0.2067  0.1372
 8877SOL    HW138093   1.116   1.970   2.877  0.8039  3.3028  0.8950
 8877SOL    HW238094   1.217   1.885   2.910 -0.3555 -0.1028 -0.1260
 8878SOL     OW38095   2.671   0.171   2.287 -0.8286 -0.4047 -0.3864
 8878SOL    HW138096   2.603   0.222   2.330  1.9572  2.4393  0.6931
 8878SOL    HW238097   2.674   0.093   2.342  2.5956 -0.3885 -0.5512
 8879SOL     OW38098   4.719   3.234   4.276  0.6392  0.1274 -0.3573
 8879SOL    HW138099   4.687   3.199   4.360 -0.7450 -0.9063 -1.3097
 8879SOL    HW238100   4.673   3.173   4.218  0.5319  0.6355 -0.8034
 8880SOL     OW38101   3.976   0.731   2.691 -0.0565  0.1410  0.1334
 8880SOL    HW138102   3.889   0.704   2.720 -1.3854  2.9755 -1.2438
 8880SOL    HW238103   3.971   0.692   2.604  0.8389  2.1803 -0.8355
 8881SOL     OW38104   1.523   2.009  15.712 -0.0634  0.0352  0.0670
 8881SOL    HW138105   1.545   1.965  15.630  0.6580  1.2708 -0.3948
 8881SOL    HW238106   1.605   2.008  15.761 -0.4706 -0.9886  0.7049
 8882SOL     OW38107   3.215   3.929   1.671  0.2708  0.1366 -0.3162
 8882SOL    HW138108   3.154   4.001   1.689  0.0537  0.0428 -0.6608
 8882SOL    HW238109   3.261   3.921   1.754  0.1703 -2.2340 -0.5058
 8883SOL     OW38110   3.114   3.850   6.985 -0.1052 -0.2985 -0.2400
 8883SOL    HW138111   3.047   3.788   7.013 -0.8234  0.2783 -0.7064
 8883SOL    HW238112   3.161   3.868   7.067  1.8853  2.4413 -1.9762
 8884SOL     OW38113   0.544   3.929   5.581 -0.0355 -0.6576  0.0891
 8884SOL    HW138114   0.496   3.896   5.506 -0.4036 -0.5028  0.2540
 8884SOL    HW238115   0.557   4.022   5.561  1.7755 -1.0769 -0.6232
 8885SOL     OW38116   2.064   2.558   7.474 -0.0916  0.6932  0.2864
 8885SOL    HW138117   2.092   2.498   7.543 -0.7374  0.0884  0.0182
 8885SOL    HW238118   2.137   2.619   7.461 -0.3729  1.3808  1.9095
 8886SOL     OW38119   3.969   2.105  13.505  0.0298 -0.2337  0.1984
 8886SOL    HW138120   4.044   2.059  13.540  0.5788 -1.0213 -2.0197
 8886SOL    HW238121   3.902   2.087  13.570  1.6095  0.4628  1.9998
 8887SOL     OW38122   0.228   0.206  16.076 -0.0019 -0.3629 -0.2447
 8887SOL    HW138123   0.181   0.254  16.145  1.4330  1.0299 -0.2259
 8887SOL    HW238124   0.193   0.253  16.001  0.7460 -1.2990 -1.1705
 8888SOL     OW38125   2.391   2.189   6.956  0.0344  0.4423 -0.0178
 8888SOL    HW138126   2.443   2.259   6.995  0.2108  0.9978 -1.2515
 8888SOL    HW238127   2.332   2.179   7.031  0.3325  1.5019  0.3618
 8889SOL     OW38128   3.435   4.528   3.358 -0.4842 -0.3132  0.2783
 8889SOL    HW138129   3.479   4.518   3.274 -1.1611 -3.7351  0.3017
 8889SOL    HW238130   3.380   4.606   3.351  0.6246  0.3023 -1.4743
 8890SOL     OW38131   4.694   1.540   6.304 -0.3862  0.2765  0.3132
 8890SOL    HW138132   4.702   1.586   6.388 -0.5743  1.1130 -0.1252
 8890SOL    HW238133   4.608   1.573   6.279 -0.9643 -1.7463 -0.3636
 8891SOL     OW38134   4.257   2.495   7.700 -0.1230  0.1810 -0.0421
 8891SOL    HW138135   4.303   2.457   7.625  1.6225 -1.4139  1.8376
 8891SOL    HW238136   4.259   2.419   7.759  2.1057  0.0266 -0.3240
 8892SOL     OW38137   4.380   0.013   9.027 -0.5138  0.0320 -0.4364
 8892SOL    HW138138   4.306   0.063   8.994  0.2424  1.3141 -0.2090
 8892SOL    HW238139   4.427   0.084   9.071  1.3519 -0.6295 -1.3311
 8893SOL     OW38140   0.263   1.475  15.634 -0.1652  0.0871 -0.4123
 8893SOL    HW138141   0.274   1.542  15.566  0.9512 -0.6901 -0.9965
 8893SOL    HW238142   0.186   1.427  15.603 -1.3851  2.2706 -0.7206
 8894SOL     OW38143   4.142   0.246   2.659  0.3587 -0.6706  0.2170
 8894SOL    HW138144   4.177   0.283   2.578 -2.4273 -0.3125 -0.8035
 8894SOL    HW238145   4.056   0.221   2.626  0.1435  1.4052 -0.7548
 8895SOL     OW38146   0.768   1.317   9.008  0.4794 -0.3541  0.0028
 8895SOL    HW138147   0.776   1.335   8.915  1.7374 -1.9713 -0.2145
 8895SOL    HW238148   0.808   1.388   9.057 -4.0981  1.3710  1.2320
 8896SOL     OW38149   0.992   2.399   3.476  0.0702  0.3992 -0.0193
 8896SOL    HW138150   0.897   2.413   3.484 -0.1511 -0.6072 -0.9865
 8896SOL    HW238151   1.020   2.484   3.442 -0.4369  0.2014 -0.9433
 8897SOL     OW38152   2.617   2.183   2.223 -0.6514 -0.3291  0.4742
 8897SOL    HW138153   2.541   2.240   2.207 -0.5006 -0.7313 -1.7673
 8897SOL    HW238154   2.672   2.223   2.155 -0.3972 -1.7094 -0.1141
 8898SOL     OW38155   2.558   3.304   4.321  0.4078  0.2473 -0.0417
 8898SOL    HW138156   2.568   3.244   4.395  3.3554 -1.7085 -1.9951
 8898SOL    HW238157   2.615   3.379   4.338  1.1424 -0.4727  0.6580
 8899SOL     OW38158   1.747   3.883   0.395 -1.0033 -0.4414 -0.3089
 8899SOL    HW138159   1.745   3.790   0.373 -2.2843 -0.4243 -0.2614
 8899SOL    HW238160   1.816   3.910   0.335 -0.0113 -0.4070  0.8479
 8900SOL     OW38161   1.782   0.611   5.652  0.4338  0.2176 -0.0389
 8900SOL    HW138162   1.728   0.590   5.576 -1.3941  0.4753  1.2136
 8900SOL    HW238163   1.772   0.706   5.665  0.3785  0.4902 -1.9556
 8901SOL     OW38164   1.713   0.416   1.494  0.1337 -0.0302  0.3166
 8901SOL    HW138165   1.711   0.506   1.524 -2.5538  0.2203 -0.6160
 8901SOL    HW238166   1.721   0.358   1.570  1.7822 -0.8156 -0.4408
 8902SOL     OW38167   3.359   3.381   5.430 -0.3843  0.1790  0.4647
 8902SOL    HW138168   3.364   3.286   5.440  0.5961  0.1770  0.0229
 8902SOL    HW238169   3.365   3.381   5.334  0.0550 -0.6069  0.4910
 8903SOL     OW38170   0.490   1.642   5.924 -0.4178 -0.0323  0.2188
 8903SOL    HW138171   0.586   1.643   5.920 -0.3521 -0.1634  1.7350
 8903SOL    HW238172   0.471   1.666   6.014  2.4674 -4.2745  1.9581
 8904SOL     OW38173   2.173   2.416   1.684 -0.1075 -0.4970  0.2232
 8904SOL    HW138174   2.150   2.502   1.720  0.2350  0.7880 -2.6777
 8904SOL    HW238175   2.251   2.431   1.631  0.8802 -1.0250  1.5262
 8905SOL     OW38176   0.114   4.294  16.980  0.0837  0.0848 -0.6349
 8905SOL    HW138177   0.078   4.218  17.025  0.2330 -1.4322 -3.0586
 8905SOL    HW238178   0.178   4.257  16.918  0.1041 -0.6685 -0.1644
 8906SOL     OW38179   2.840   2.069   0.087 -0.3739  0.2050  0.2687
 8906SOL    HW138180   2.782   2.131   0.130  0.1384 -0.0326  1.2915
 8906SOL    HW238181   2.861   2.005   0.155  1.4088  0.6949  0.1831
 8907SOL     OW38182   3.896   4.251  10.254  0.2435 -0.4624 -0.0113
 8907SOL    HW138183   3.970   4.263  10.314 -0.0951  0.8189  0.1389
 8907SOL    HW238184   3.852   4.177  10.296 -0.1427 -0.2241  0.0019
 8908SOL     OW38185   1.457   4.337  14.816  0.3226  0.0832  0.0157
 8908SOL    HW138186   1.513   4.395  14.764  3.5814 -2.9688  0.1562
 8908SOL    HW238187   1.395   4.389  14.866  0.9597  0.6934  0.1697
 8909SOL     OW38188   1.076   1.391   8.986  0.8200 -0.1931 -0.5775
 8909SOL    HW138189   1.069   1.433   8.900  0.7543  1.8768  0.4248
 8909SOL    HW238190   1.026   1.462   9.028  0.6401 -2.2935  2.7217
 8910SOL     OW38191   0.967   1.477   0.694  0.3924 -0.0182  0.3368
 8910SOL    HW138192   1.036   1.532   0.657 -1.2537  1.0523 -1.2091
 8910SOL    HW238193   0.985   1.490   0.787 -1.7158  1.3673  0.5625
 8911SOL     OW38194   0.277   2.438   3.170  0.0502  0.2141  1.2026
 8911SOL    HW138195   0.203   2.378   3.176  0.5110 -0.5424 -0.7928
 8911SOL    HW238196   0.334   2.399   3.104 -2.1300 -0.0389 -0.5092
 8912SOL     OW38197   4.189   2.844   9.308 -0.2277 -0.7109  0.0592
 8912SOL    HW138198   4.193   2.836   9.213  2.6094  0.2478  0.1060
 8912SOL    HW238199   4.175   2.936   9.331 -3.5885 -1.1688 -0.1087
 8913SOL     OW38200   0.488   1.796   3.841  0.4276 -0.7166  0.3021
 8913SOL    HW138201   0.402   1.778   3.878 -1.4360  2.2720 -2.6233
 8913SOL    HW238202   0.515   1.712   3.803  1.1529  0.1305 -1.0587
 8914SOL     OW38203   2.718   3.789   3.064  0.4828  0.0516  1.1241
 8914SOL    HW138204   2.639   3.759   3.110 -0.8733  0.4081 -0.9812
 8914SOL    HW238205   2.772   3.735   3.122 -0.2855 -1.5496  0.3680
 8915SOL     OW38206   2.232   3.164  16.470  0.1235 -0.3441  0.4419
 8915SOL    HW138207   2.197   3.223  16.538 -2.4941 -2.7919  1.2273
 8915SOL    HW238208   2.284   3.105  16.524 -2.9452 -1.2317  2.4012
 8916SOL     OW38209   1.212   2.603  15.013  0.0871 -0.1163 -0.1809
 8916SOL    HW138210   1.144   2.662  14.979 -0.0509 -0.8310 -1.1141
 8916SOL    HW238211   1.200   2.522  14.964  0.2538 -0.2229 -0.0455
 8917SOL     OW38212   0.126   1.692  16.276 -0.0027  0.0231 -0.2367
 8917SOL    HW138213   0.186   1.723  16.208  0.7843  2.4618  1.5580
 8917SOL    HW238214   0.188   1.666  16.345 -1.0755 -1.2161  0.2435
 8918SOL     OW38215   2.679   1.219   3.360 -0.6305 -0.2799 -0.3788
 8918SOL    HW138216   2.740   1.157   3.399 -0.4181 -0.4352 -0.9732
 8918SOL    HW238217   2.727   1.298   3.384 -0.9261  0.0554 -0.8855
 8919SOL     OW38218   4.462   1.359   9.531 -0.1600 -0.1329 -0.1369
 8919SOL    HW138219   4.490   1.384   9.619  2.3277 -1.5582 -0.5399
 8919SOL    HW238220   4.413   1.440   9.514  1.4887  0.8239 -0.3246
 8920SOL     OW38221   2.838   3.002   3.299  0.0319  0.0402 -0.6623
 8920SOL    HW138222   2.872   2.963   3.218  1.5908  0.0302 -0.0002
 8920SOL    HW238223   2.921   3.035   3.334  1.6676 -0.4317 -4.0867
 8921SOL     OW38224   4.074   3.376  11.609 -0.2173 -0.3153  0.2719
 8921SOL    HW138225   4.012   3.419  11.668  0.3036 -0.4046  0.8863
 8921SOL    HW238226   4.089   3.433  11.534  2.2162  1.1366  1.8351
 8922SOL     OW38227   2.786   2.283   4.740 -0.4186  0.0221  0.1754
 8922SOL    HW138228   2.803   2.260   4.832  3.5284  1.5147 -0.1705
 8922SOL    HW238229   2.856   2.233   4.699 -0.9994 -1.8568  1.4444
 8923SOL     OW38230   4.290   4.530   4.731  0.8193  0.1403 -0.0890
 8923SOL    HW138231   4.358   4.584   4.771  1.3635  0.1890 -1.1077
 8923SOL    HW238232   4.222   4.541   4.798 -0.4856 -3.1347 -0.8990
 8924SOL     OW38233   2.785   0.573   8.293  0.2168 -0.3352 -0.2955
 8924SOL    HW138234   2.875   0.552   8.268  0.6100  0.3289  0.5615
 8924SOL    HW238235   2.796   0.580   8.388 -1.7104  1.1068 -0.1937
 8925SOL     OW38236   1.563   4.147   4.144 -0.2780 -0.3816  0.2444
 8925SOL    HW138237   1.592   4.072   4.092 -1.2179 -1.4445  1.2225
 8925SOL    HW238238   1.634   4.146   4.208  0.0072 -1.6277 -0.0911
 8926SOL     OW38239   2.580   2.763   5.939  0.2613 -0.0182  0.1256
 8926SOL    HW138240   2.603   2.671   5.950 -0.3514 -0.1491  0.3282
 8926SOL    HW238241   2.487   2.754   5.919 -0.0176 -0.9858  1.8675
 8927SOL     OW38242   3.665   3.632   2.604  0.4540  0.7089  0.1293
 8927SOL    HW138243   3.576   3.656   2.627  0.8901  0.9796  1.5441
 8927SOL    HW238244   3.700   3.629   2.693  0.7312  0.8597  0.0259
 8928SOL     OW38245   0.737   3.302   2.237  0.5317 -0.4351 -0.4375
 8928SOL    HW138246   0.687   3.261   2.166  1.4177  2.9038 -2.9853
 8928SOL    HW238247   0.738   3.396   2.220 -1.5680 -0.4704 -0.7441
 8929SOL     OW38248   0.609   3.957   6.997  0.3599 -0.2650  0.0292
 8929SOL    HW138249   0.582   4.017   7.067  2.3673 -1.3670  1.7250
 8929SOL    HW238250   0.675   3.904   7.042  0.8555 -0.4371 -0.9190
 8930SOL     OW38251   2.921   1.624   3.498  0.0265 -0.0857  0.4906
 8930SOL    HW138252   2.859   1.553   3.515 -0.8032  0.4344 -0.4002
 8930SOL    HW238253   2.953   1.594   3.413 -0.9685 -0.9494  0.4129
 8931SOL     OW38254   0.918   0.791   1.990  0.2765 -0.3414 -0.2831
 8931SOL    HW138255   0.865   0.789   2.070 -0.7418  2.8783 -0.8878
 8931SOL    HW238256   0.852   0.758   1.928  0.8087 -1.4000 -0.2954
 8932SOL     OW38257   3.164   1.553   9.740  0.1285  0.5847 -1.2189
 8932SOL    HW138258   3.202   1.604   9.668  0.4207 -0.7787 -2.0280
 8932SOL    HW238259   3.214   1.603   9.805  0.8810 -1.3118 -0.3163
 8933SOL     OW38260   1.252   4.247   4.556 -0.3712 -0.3517 -0.4085
 8933SOL    HW138261   1.286   4.232   4.468  2.1160 -2.4254  0.9200
 8933SOL    HW238262   1.303   4.185   4.608 -0.3570 -1.1046 -1.3428
 8934SOL     OW38263   1.658   0.520   8.564 -0.1207  0.1223  0.3426
 8934SOL    HW138264   1.626   0.608   8.583  0.4209  0.6162 -1.0257
 8934SOL    HW238265   1.578   0.478   8.534 -0.3552  0.9421 -0.1651
 8935SOL     OW38266   0.493   4.375   2.396 -0.2732 -0.4211  0.9265
 8935SOL    HW138267   0.450   4.368   2.311 -0.6947 -2.3410  1.2883
 8935SOL    HW238268   0.446   4.446   2.439 -0.3012  0.7951 -1.0964
 8936SOL     OW38269   2.677   0.890   3.602 -0.0839 -0.4070 -0.0347
 8936SOL    HW138270   2.582   0.885   3.610  0.1467 -0.5938  2.8168
 8936SOL    HW238271   2.688   0.983   3.622 -2.6433  0.0863 -1.0026
 8937SOL     OW38272   4.091   3.064   1.498 -0.6111  0.1098 -0.0323
 8937SOL    HW138273   4.130   3.142   1.537  0.7563 -0.9349  0.6912
 8937SOL    HW238274   4.078   3.004   1.572 -0.7296  1.5105  1.0878
 8938SOL     OW38275   1.557   1.600   6.394  0.3042 -0.4640 -0.3009
 8938SOL    HW138276   1.506   1.604   6.313 -2.0934  0.4208  1.2566
 8938SOL    HW238277   1.611   1.523   6.375 -0.6660 -1.6658  1.7795
 8939SOL     OW38278   4.328   3.753   0.635  0.6317 -0.3853 -0.9124
 8939SOL    HW138279   4.263   3.755   0.565  0.3619 -1.8421 -0.7065
 8939SOL    HW238280   4.344   3.659   0.630  1.1328 -0.4946  2.9672
 8940SOL     OW38281   4.408   2.968  10.322  0.5705 -0.5480  0.5016
 8940SOL    HW138282   4.463   2.919  10.383  0.1277  1.6596  2.6867
 8940SOL    HW238283   4.390   3.048  10.372  0.9219 -1.7272  2.5122
 8941SOL     OW38284   2.954   1.901  11.662  0.1110  0.1325 -0.7313
 8941SOL    HW138285   2.932   1.973  11.603 -1.5743 -0.2081 -0.5258
 8941SOL    HW238286   2.915   1.923  11.747 -1.2458  1.4152 -1.6934
 8942SOL     OW38287   0.717   1.969   8.855  0.0263  0.3102  0.0123
 8942SOL    HW138288   0.667   2.032   8.908 -2.0963 -3.0849  2.0760
 8942SOL    HW238289   0.663   1.891   8.869  0.1985  0.5810  2.1668
 8943SOL     OW38290   2.677   1.982  17.553  0.0437  0.4307 -0.0406
 8943SOL    HW138291   2.713   2.000  17.640  2.5614  0.3968 -1.0954
 8943SOL    HW238292   2.620   1.905  17.555  0.4692  0.1366  0.7859
 8944SOL     OW38293   1.333   4.022   3.925 -0.3012  0.3270  0.1582
 8944SOL    HW138294   1.322   3.967   3.847  1.4854 -2.0735  1.5922
 8944SOL    HW238295   1.307   3.965   3.998 -1.0850  0.3035 -0.1403
 8945SOL     OW38296   0.628   3.207   5.759  0.1008  0.3637 -0.0547
 8945SOL    HW138297   0.675   3.261   5.695 -1.0825  1.7325  0.2369
 8945SOL    HW238298   0.565   3.263   5.805  0.9912  0.2708  1.3015
 8946SOL     OW38299   3.065   3.989   8.173 -0.0014 -0.3662  0.0200
 8946SOL    HW138300   3.018   4.006   8.091  1.0643 -0.8202 -0.6751
 8946SOL    HW238301   3.044   3.896   8.178 -0.1079 -0.4838 -2.6079
 8947SOL     OW38302   2.077   2.804   6.607  0.3522  0.3006  0.3197
 8947SOL    HW138303   2.074   2.879   6.667  1.0951 -1.2625  2.3417
 8947SOL    HW238304   2.116   2.736   6.662 -2.0583  0.2593  2.0070
 8948SOL     OW38305   3.698   3.199   2.276 -0.3049  0.8891  0.0010
 8948SOL    HW138306   3.687   3.263   2.346  0.4610  1.3245 -0.2801
 8948SOL    HW238307   3.632   3.229   2.214 -0.3569  0.1302 -0.3149
 8949SOL     OW38308   3.906   1.322   6.069 -0.1944 -0.5245  0.0297
 8949SOL    HW138309   3.880   1.396   6.123 -0.6952 -1.6056  1.2685
 8949SOL    HW238310   3.833   1.263   6.090  0.3443 -2.2464 -2.8730
 8950SOL     OW38311   3.403   3.685  15.070 -0.0683  0.0033 -0.1092
 8950SOL    HW138312   3.498   3.670  15.070 -0.1462 -0.4958 -0.4535
 8950SOL    HW238313   3.397   3.728  14.984 -0.7216 -0.6723 -0.3985
 8951SOL     OW38314   0.784   0.060  11.950 -0.6047  0.1536  0.4638
 8951SOL    HW138315   0.877   0.036  11.945  0.0789  2.6593  0.9499
 8951SOL    HW238316   0.788   0.136  12.009  0.9932 -0.6712  1.4422
 8952SOL     OW38317   3.225   1.319   3.396  0.3605 -0.3578  0.2245
 8952SOL    HW138318   3.146   1.319   3.451 -0.6235  0.3175 -1.1789
 8952SOL    HW238319   3.249   1.227   3.407  2.1579  0.0619 -0.1424
 8953SOL     OW38320   2.725   1.265   8.708  0.3888  0.4246  0.4824
 8953SOL    HW138321   2.746   1.232   8.621  2.3969  0.8249  0.8037
 8953SOL    HW238322   2.746   1.184   8.753  0.0245 -0.3339 -0.7226
 8954SOL     OW38323   1.386   1.664   2.038 -0.0761 -0.9124 -0.0727
 8954SOL    HW138324   1.412   1.630   1.952  0.4604  0.9742 -0.6450
 8954SOL    HW238325   1.330   1.592   2.069 -0.4534 -0.6906 -0.2425
 8955SOL     OW38326   2.458   1.020   1.169 -0.2722  0.3378  0.8320
 8955SOL    HW138327   2.405   0.950   1.208 -1.2381 -0.1356 -1.3219
 8955SOL    HW238328   2.458   0.992   1.077  1.5276 -0.2333  1.0253
 8956SOL     OW38329   3.722   1.865   3.855  0.2163 -0.0206 -0.9547
 8956SOL    HW138330   3.707   1.910   3.938  0.3968  0.2944 -1.0917
 8956SOL    HW238331   3.742   1.940   3.798 -1.5214  1.6884  0.6618
 8957SOL     OW38332   1.767   2.887   9.190 -0.4562 -0.1676  0.0480
 8957SOL    HW138333   1.748   2.797   9.217  0.6697  0.1262  1.8487
 8957SOL    HW238334   1.847   2.898   9.241 -1.0734  0.3292  0.9079
 8958SOL     OW38335   3.182   4.486  12.680 -0.0587  0.0901 -0.1298
 8958SOL    HW138336   3.091   4.459  12.671  0.5692 -2.0680  0.0937
 8958SOL    HW238337   3.213   4.503  12.591 -1.2714 -0.1042 -0.5834
 8959SOL     OW38338   1.788   1.889  10.490  0.1387  0.2658 -0.0540
 8959SOL    HW138339   1.765   1.970  10.446  0.2238 -0.3081 -1.1364
 8959SOL    HW238340   1.726   1.902  10.563  0.5779  1.2754  0.1370
 8960SOL     OW38341   2.624   2.607  13.723 -0.0151  0.1472  0.2407
 8960SOL    HW138342   2.578   2.556  13.656  0.1954  1.6563 -1.0671
 8960SOL    HW238343   2.555   2.670  13.743 -0.5317 -0.3523 -0.0021
 8961SOL     OW38344   0.499   3.216   5.239  0.2053  0.2891 -0.3598
 8961SOL    HW138345   0.507   3.281   5.309 -1.2290 -0.5670  0.5868
 8961SOL    HW238346   0.420   3.170   5.266  0.9552 -0.0871  1.1836
 8962SOL     OW38347   0.441   2.672   7.616 -0.4696  0.5290 -0.1224
 8962SOL    HW138348   0.397   2.719   7.545  0.3968 -0.6642 -1.4438
 8962SOL    HW238349   0.524   2.651   7.573 -1.3882  0.0785 -1.7017
 8963SOL     OW38350   1.038   0.942   1.794  0.0839 -0.5532  0.1979
 8963SOL    HW138351   1.031   0.882   1.719 -1.4339 -2.3422  1.7539
 8963SOL    HW238352   1.004   0.886   1.865 -0.4943  0.4747  0.7267
 8964SOL     OW38353   0.970   1.094  11.150 -0.3406 -1.0762  0.3761
 8964SOL    HW138354   1.029   1.144  11.093 -0.4786 -1.0200  0.2832
 8964SOL    HW238355   0.910   1.159  11.187 -0.8557  0.0831 -2.4628
 8965SOL     OW38356   3.738   1.003  11.032 -0.5950  0.6346 -0.5423
 8965SOL    HW138357   3.715   1.040  10.947  0.8546 -0.5573 -1.4702
 8965SOL    HW238358   3.782   1.084  11.058  0.5704  0.1165 -0.8693
 8966SOL     OW38359   2.159   3.420   4.059 -0.0445  0.1534 -0.1685
 8966SOL    HW138360   2.108   3.426   4.140  1.3686  1.6852  0.6161
 8966SOL    HW238361   2.221   3.353   4.091 -0.6592  1.0981  3.0450
 8967SOL     OW38362   0.144   2.181   3.095 -0.1407  0.0905  0.1831
 8967SOL    HW138363   0.048   2.182   3.092 -0.0127  1.6753 -3.0528
 8967SOL    HW238364   0.176   2.141   3.015 -3.4497 -0.4468 -0.8659
 8968SOL     OW38365   3.915   0.426   2.222  0.2037 -0.3444  0.0977
 8968SOL    HW138366   4.006   0.400   2.238  0.0314 -1.7545 -1.2188
 8968SOL    HW238367   3.934   0.485   2.149  2.5391 -0.2126  0.7977
 8969SOL     OW38368   3.122   3.996   1.399  0.0877  0.0721 -0.2245
 8969SOL    HW138369   3.139   3.950   1.480  0.7114 -1.5220 -1.2612
 8969SOL    HW238370   3.173   3.938   1.342 -0.5718  0.2562 -1.0095
 8970SOL     OW38371   1.430   4.512   4.414 -0.7327  0.2950  0.1458
 8970SOL    HW138372   1.486   4.588   4.398  0.8884 -1.1479 -1.0016
 8970SOL    HW238373   1.456   4.493   4.503  0.2659 -1.0736 -0.4445
 8971SOL     OW38374   2.207   2.005  12.887 -0.1840 -0.0417 -0.1446
 8971SOL    HW138375   2.128   2.038  12.930 -0.0068 -0.4995  0.5441
 8971SOL    HW238376   2.165   1.923  12.861  1.3873 -1.0268  0.3957
 8972SOL     OW38377   4.049   3.550   2.809 -0.1816 -0.2097  0.6154
 8972SOL    HW138378   4.015   3.625   2.760 -1.3208  0.2620  2.1093
 8972SOL    HW238379   4.012   3.473   2.765 -0.6829 -0.2060  1.0279
 8973SOL     OW38380   4.142   2.740   2.516 -0.0547 -0.1529 -0.0935
 8973SOL    HW138381   4.188   2.812   2.472  0.6104 -1.9690 -2.3431
 8973SOL    HW238382   4.211   2.680   2.542  1.8634  1.0455 -2.3915
 8974SOL     OW38383   3.679   2.524   2.254 -0.7393  0.7860  0.4697
 8974SOL    HW138384   3.773   2.511   2.266 -0.6966 -0.3129 -1.0668
 8974SOL    HW238385   3.645   2.526   2.343  2.3750  0.3811  1.6647
 8975SOL     OW38386   2.108   1.470   8.171 -0.1046 -0.1757 -0.0561
 8975SOL    HW138387   2.074   1.498   8.256 -1.5452  0.5952 -0.8756
 8975SOL    HW238388   2.157   1.395   8.204  1.3261  0.2315 -1.3013
 8976SOL     OW38389   3.113   0.181   4.144 -0.1620  0.3908 -0.3306
 8976SOL    HW138390   3.138   0.264   4.184  0.5888  0.1109 -0.2255
 8976SOL    HW238391   3.140   0.195   4.053 -0.9232  0.4926 -0.5482
 8977SOL     OW38392   1.687   1.073  11.694 -0.7608  0.2679  0.2763
 8977SOL    HW138393   1.627   1.009  11.733 -1.2068 -0.4585 -1.6253
 8977SOL    HW238394   1.675   1.060  11.600  1.3510  0.2972 -0.0025
 8978SOL     OW38395   4.498   2.074   6.698 -0.1222 -0.1701  0.1578
 8978SOL    HW138396   4.454   2.114   6.773 -1.8882  1.2458 -1.6512
 8978SOL    HW238397   4.508   2.142   6.633  1.0574 -1.9036 -1.4656
 8979SOL     OW38398   0.701   3.776   7.679 -0.4288 -0.3090  0.4462
 8979SOL    HW138399   0.621   3.733   7.709 -0.6535  0.5037  0.9939
 8979SOL    HW238400   0.763   3.774   7.752  0.8223 -1.0233 -0.6378
 8980SOL     OW38401   0.219   3.358  12.332  0.2909 -0.4017 -0.4091
 8980SOL    HW138402   0.259   3.437  12.369 -1.7956 -0.5093  2.1075
 8980SOL    HW238403   0.164   3.395  12.263 -2.5700 -1.2807  1.4112
 8981SOL     OW38404   2.245   1.212   4.876  0.0029 -0.3554 -0.2102
 8981SOL    HW138405   2.337   1.190   4.891 -0.4903 -1.0324  1.8884
 8981SOL    HW238406   2.252   1.308   4.870  1.3484 -0.4490 -0.3081
 8982SOL     OW38407   2.336   3.763  13.158  0.1344  0.7814 -0.6183
 8982SOL    HW138408   2.410   3.739  13.103  0.6943 -1.3457  1.0839
 8982SOL    HW238409   2.382   3.786  13.239  3.0309 -1.2653 -1.7116
 8983SOL     OW38410   4.449   2.696   6.283  0.0490  0.0742 -0.0344
 8983SOL    HW138411   4.355   2.714   6.287  0.1894  0.6716  0.6122
 8983SOL    HW238412   4.493   2.776   6.312 -0.2849  0.5204 -0.7465
 8984SOL     OW38413   0.756   1.776   1.269  0.8265  0.2654  0.3860
 8984SOL    HW138414   0.779   1.684   1.254 -0.4275 -0.2022  1.3528
 8984SOL    HW238415   0.840   1.817   1.288  0.5832  1.4795 -1.0943
 8985SOL     OW38416   0.529   1.123  15.921  0.0101 -0.0203  0.0663
 8985SOL    HW138417   0.456   1.133  15.860  1.5030 -0.7388 -1.8569
 8985SOL    HW238418   0.531   1.205  15.971  0.9882 -0.5428  0.8711
 8986SOL     OW38419   0.224   2.575   8.972  0.2737  0.1057 -0.3152
 8986SOL    HW138420   0.236   2.578   9.067 -1.0317  1.2907 -0.1817
 8986SOL    HW238421   0.165   2.502   8.957 -0.7787  1.0359 -0.6874
 8987SOL     OW38422   0.936   2.841   8.038 -0.2309 -0.1560 -0.3453
 8987SOL    HW138423   0.982   2.836   8.122  1.0486 -0.1090 -1.0453
 8987SOL    HW238424   0.932   2.748   8.015 -0.3427 -0.0639 -0.7034
 8988SOL     OW38425   2.351   4.385   5.623  0.8176 -0.2279 -0.1521
 8988SOL    HW138426   2.357   4.448   5.695  3.6603  0.5921 -1.1008
 8988SOL    HW238427   2.273   4.421   5.581  0.3266 -0.4693  0.5493
 8989SOL     OW38428   3.642   1.977   5.014  0.0246 -0.3410  0.2064
 8989SOL    HW138429   3.564   2.025   4.988 -0.2620 -0.0415  1.6403
 8989SOL    HW238430   3.603   1.941   5.094 -0.3459  0.8171  0.5429
 8990SOL     OW38431   2.074   0.938   6.514 -0.0608  0.2240 -0.4494
 8990SOL    HW138432   2.010   0.989   6.465  0.1788 -0.3833 -1.3991
 8990SOL    HW238433   2.085   0.997   6.588  0.0244 -4.1263  3.0229
 8991SOL     OW38434   1.483   3.886   5.777  0.0984  0.1961 -0.2701
 8991SOL    HW138435   1.466   3.980   5.788 -2.1902 -0.4876  1.8995
 8991SOL    HW238436   1.478   3.881   5.681  2.3037 -0.3396 -0.3546
 8992SOL     OW38437   3.884   0.209  15.496 -0.2137  0.1818  0.5808
 8992SOL    HW138438   3.858   0.269  15.426  1.2193 -1.3592 -1.2669
 8992SOL    HW238439   3.867   0.270  15.567  1.2737  1.2833 -0.0239
 8993SOL     OW38440   4.642   1.595   5.800 -0.2147 -0.0339 -0.4191
 8993SOL    HW138441   4.705   1.658   5.835 -0.5692  1.0195 -1.6686
 8993SOL    HW238442   4.688   1.523   5.843  0.5208  1.8426  1.9169
 8994SOL     OW38443   2.474   3.202   8.380  0.1995 -0.7819  0.0452
 8994SOL    HW138444   2.563   3.170   8.368 -0.2498 -1.7633 -0.7016
 8994SOL    HW238445   2.490   3.292   8.408 -0.9806 -1.0528  1.5946
 8995SOL     OW38446   2.050   2.505   6.151  0.0747  0.0785 -0.3043
 8995SOL    HW138447   2.087   2.542   6.231  0.4473  2.8883 -1.7825
 8995SOL    HW238448   2.055   2.580   6.092 -0.4208  0.7788  0.5477
 8996SOL     OW38449   3.417   4.418  14.533  0.1628 -0.2576  0.1444
 8996SOL    HW138450   3.402   4.410  14.627 -2.4815 -0.8235 -0.3366
 8996SOL    HW238451   3.326   4.429  14.505  0.4891  3.1091  0.3748
 8997SOL     OW38452   0.690   2.175   1.748 -0.3718 -0.7386  0.2196
 8997SOL    HW138453   0.631   2.183   1.673  2.6291 -3.0370 -2.3720
 8997SOL    HW238454   0.669   2.247   1.807 -2.0622 -0.2619 -0.9633
 8998SOL     OW38455   4.045   1.013   0.638 -0.1101 -0.1190 -0.0022
 8998SOL    HW138456   3.957   1.044   0.662  0.5211  1.3485  0.4443
 8998SOL    HW238457   4.037   0.919   0.652 -0.6435 -0.2052 -0.9116
 8999SOL     OW38458   0.608   1.776  11.164 -0.2464 -1.1820 -0.2838
 8999SOL    HW138459   0.562   1.738  11.089  1.4775 -2.0280 -0.9203
 8999SOL    HW238460   0.568   1.862  11.179  0.7598 -0.5053 -1.4817
 9000SOL     OW38461   1.276   1.848   4.958 -0.2067  0.1810  0.5123
 9000SOL    HW138462   1.248   1.877   5.045  2.0219  1.2789  0.8528
 9000SOL    HW238463   1.364   1.884   4.951 -0.0614 -0.2458  0.1186
 9001SOL     OW38464   0.897   1.365   5.941  0.8161  0.7939  0.2855
 9001SOL    HW138465   0.943   1.443   5.909 -0.1892  0.7285 -1.2952
 9001SOL    HW238466   0.958   1.309   5.989  1.2176 -0.7995 -2.1256
 9002SOL     OW38467   0.188   1.791   4.909 -0.0368 -0.3410 -0.0674
 9002SOL    HW138468   0.207   1.810   4.817 -1.1511  1.8385  0.1652
 9002SOL    HW238469   0.217   1.702   4.931  0.5363  0.1516  1.1307
 9003SOL     OW38470   1.123   3.787   5.594  0.3032  0.0787 -0.5487
 9003SOL    HW138471   1.089   3.833   5.518  0.1841  1.2971  0.2326
 9003SOL    HW238472   1.161   3.863   5.638  1.2841  0.5181 -2.1767
 9004SOL     OW38473   3.397   4.341   3.785 -0.4118 -0.4189 -0.1577
 9004SOL    HW138474   3.354   4.261   3.817  1.5502 -0.2511  2.9235
 9004SOL    HW238475   3.343   4.408   3.827  0.8886  0.2221  0.4994
 9005SOL     OW38476   2.981   4.048  11.985  0.1549  0.3439  0.3233
 9005SOL    HW138477   2.903   3.994  11.978 -0.3331  0.8208  2.0143
 9005SOL    HW238478   2.947   4.133  11.959  0.8399  0.5712  0.1541
 9006SOL     OW38479   2.348   4.547   9.390 -0.4375 -0.1069  0.2897
 9006SOL    HW138480   2.321   4.508   9.473 -0.0042 -1.3542 -0.1524
 9006SOL    HW238481   2.376   4.632   9.423 -0.0310  0.0874 -0.5591
 9007SOL     OW38482   1.820   3.767   8.625 -0.0807  0.4878  0.5563
 9007SOL    HW138483   1.762   3.838   8.597 -0.5587 -0.0057  0.2963
 9007SOL    HW238484   1.863   3.767   8.539 -0.7170 -4.6447  0.2319
 9008SOL     OW38485   0.557   0.530   7.176  0.0323 -0.4567  0.0571
 9008SOL    HW138486   0.515   0.557   7.257  1.9800  1.4290  0.4508
 9008SOL    HW238487   0.557   0.612   7.126 -1.3634  0.3647  1.4101
 9009SOL     OW38488   1.781   0.589   3.982  0.6519 -0.2817 -0.0709
 9009SOL    HW138489   1.780   0.494   3.971 -1.8352 -0.0873 -1.5922
 9009SOL    HW238490   1.777   0.608   3.889  0.1014 -0.0634 -0.0025
 9010SOL     OW38491   1.290   3.646  16.637  0.6604 -0.0437  0.3475
 9010SOL    HW138492   1.248   3.654  16.723 -0.1952 -0.2078 -0.0565
 9010SOL    HW238493   1.219   3.622  16.578 -0.2217 -1.4146  1.9798
 9011SOL     OW38494   1.788   3.362   7.554 -0.4878  0.3135 -0.1263
 9011SOL    HW138495   1.860   3.425   7.548 -0.4159  0.2636  0.2404
 9011SOL    HW238496   1.716   3.421   7.576  1.1796  1.7147  1.5140
 9012SOL     OW38497   1.323   3.899   3.604  0.4908  0.3366  0.2982
 9012SOL    HW138498   1.340   3.992   3.590 -2.0325  0.3796 -2.6548
 9012SOL    HW238499   1.349   3.857   3.522 -2.5835 -1.2667  0.1358
 9013SOL     OW38500   2.527   2.673   6.905  0.6369 -0.1599  0.0198
 9013SOL    HW138501   2.475   2.628   6.971 -0.6313  2.3058  0.7093
 9013SOL    HW238502   2.601   2.713   6.951  0.8598 -0.0692 -0.4129
 9014SOL     OW38503   2.520   2.561   9.331  0.0736 -0.4452  0.0295
 9014SOL    HW138504   2.493   2.489   9.389  0.3864 -0.3847  0.2445
 9014SOL    HW238505   2.533   2.526   9.243  0.4432  0.0642 -0.1172
 9015SOL     OW38506   3.886   3.972   3.626  0.1643  0.0535 -0.0748
 9015SOL    HW138507   3.907   3.891   3.673 -2.5080 -0.0323  0.9517
 9015SOL    HW238508   3.949   4.027   3.673 -0.0105 -0.5099  0.8273
 9016SOL     OW38509   1.694   1.875   9.777  0.2211 -0.1690  0.0657
 9016SOL    HW138510   1.678   1.787   9.810  2.1061 -0.2303  0.8233
 9016SOL    HW238511   1.605   1.905   9.756  0.4405  0.0937 -0.4887
 9017SOL     OW38512   2.666   2.149   3.991 -0.1364  0.0027  0.4645
 9017SOL    HW138513   2.622   2.073   3.953  0.9600 -0.6903  0.5816
 9017SOL    HW238514   2.757   2.123   4.002 -0.1722 -0.7249 -0.8930
 9018SOL     OW38515   4.592   0.709   4.435  0.8066  0.7519  0.1540
 9018SOL    HW138516   4.551   0.795   4.441 -0.6831 -0.0134  0.9632
 9018SOL    HW238517   4.685   0.731   4.444  0.6309  2.0129 -1.3357
 9019SOL     OW38518   0.625   0.052   7.609  0.4278  0.0488  0.5059
 9019SOL    HW138519   0.644   4.698   7.662 -1.9686 -1.1319 -0.3511
 9019SOL    HW238520   0.557   0.099   7.656  0.7783  0.1547  0.9015
 9020SOL     OW38521   3.494   1.015  10.549 -0.2006 -0.4099  0.1347
 9020SOL    HW138522   3.401   1.009  10.527 -0.1548 -0.4915 -0.0387
 9020SOL    HW238523   3.521   0.959  10.476 -0.1174 -1.9419  1.3447
 9021SOL     OW38524   2.477   3.829  13.369 -0.6413  0.0239  0.6072
 9021SOL    HW138525   2.464   3.898  13.434  0.5134  0.1586  0.6950
 9021SOL    HW238526   2.503   3.750  13.416 -1.3040 -0.6348 -0.1376
 9022SOL     OW38527   4.331   0.257  13.240  0.1103  1.0555 -0.1729
 9022SOL    HW138528   4.389   0.214  13.178 -0.5963 -1.4987  0.9731
 9022SOL    HW238529   4.348   0.346  13.209  0.4072  1.6629  1.7481
 9023SOL     OW38530   2.893   3.852   7.212 -0.0783 -0.2885  0.0659
 9023SOL    HW138531   2.956   3.914   7.177  0.4839  0.2218  1.9875
 9023SOL    HW238532   2.912   3.781   7.151 -1.7735  0.8356 -1.7439
 9024SOL     OW38533   3.917   3.079   4.620 -1.0172 -0.4714  0.6536
 9024SOL    HW138534   3.899   2.984   4.617  0.1802 -0.6875  0.4248
 9024SOL    HW238535   3.970   3.095   4.698 -0.7328  0.6830  0.2142
 9025SOL     OW38536   0.518   1.657   8.632  0.1106  0.2063 -0.4160
 9025SOL    HW138537   0.426   1.665   8.659  0.9415  1.2016  2.0729
 9025SOL    HW238538   0.512   1.688   8.542  0.1050 -0.0520 -0.5059
 9026SOL     OW38539   4.642   1.455  14.444  0.1316 -0.2022  0.3516
 9026SOL    HW138540   4.696   1.426  14.517  2.0047  0.3486 -0.8237
 9026SOL    HW238541   4.700   1.424  14.376  0.0230  2.6618 -1.0661
 9027SOL     OW38542   1.745   0.422   1.794 -0.3510  0.3123  0.0049
 9027SOL    HW138543   1.715   0.455   1.878  1.9959 -0.9512  1.3372
 9027SOL    HW238544   1.712   0.332   1.797 -0.8882  0.5705  1.3508
 9028SOL     OW38545   3.718   2.845   3.139 -0.4060 -0.1818 -0.5338
 9028SOL    HW138546   3.692   2.914   3.078 -0.6244  0.1175 -0.1009
 9028SOL    HW238547   3.773   2.894   3.200  0.5028  1.3170 -2.5388
 9029SOL     OW38548   1.874   3.917   8.298 -0.6573  0.2269  0.2323
 9029SOL    HW138549   1.964   3.949   8.302 -0.1075 -1.1948 -0.6323
 9029SOL    HW238550   1.834   3.996   8.334 -1.6444 -0.0913 -0.1742
 9030SOL     OW38551   2.982   2.718   9.322 -0.2305 -0.0535  0.5291
 9030SOL    HW138552   3.068   2.703   9.283 -0.1586  0.5184  0.4777
 9030SOL    HW238553   2.950   2.776   9.253 -0.1512  2.0243  2.2498
 9031SOL     OW38554   4.349   3.585  17.693 -0.0793 -0.7162  0.4420
 9031SOL    HW138555   4.385   3.611  17.607  0.8005 -2.6375  0.2331
 9031SOL    HW238556   4.406   3.513   0.025  0.4289  0.8657  3.3753
 9032SOL     OW38557   1.718   3.722   5.751  0.0132 -0.2290  0.2748
 9032SOL    HW138558   1.645   3.748   5.693  1.4572 -0.6160 -1.7189
 9032SOL    HW238559   1.771   3.801   5.758 -1.2117  0.8361 -2.3485
 9033SOL     OW38560   3.169   2.831   4.817 -0.1427  0.1247  0.4591
 9033SOL    HW138561   3.121   2.792   4.744 -1.8777  0.2945  1.5204
 9033SOL    HW238562   3.132   2.919   4.814  1.0713  0.7021  2.1341
 9034SOL     OW38563   0.847   0.164   1.307 -0.1194 -0.0536  0.8949
 9034SOL    HW138564   0.815   0.251   1.332 -2.6283 -0.7931  0.2571
 9034SOL    HW238565   0.898   0.173   1.226 -0.0220 -0.1066  0.9500
 9035SOL     OW38566   1.035   3.242   1.499 -0.1411 -0.6903  0.6483
 9035SOL    HW138567   1.114   3.291   1.476 -1.1073  0.8358  0.5573
 9035SOL    HW238568   0.960   3.283   1.456  2.0561  0.5849 -1.9344
 9036SOL     OW38569   0.869   1.952   5.888  0.5234  0.7819  0.2723
 9036SOL    HW138570   0.805   1.934   5.819 -0.3743  0.4413  1.2025
 9036SOL    HW238571   0.900   2.039   5.862 -0.1319  0.4867 -1.5236
 9037SOL     OW38572   3.655   3.831   9.200  0.5595 -0.2315  0.0052
 9037SOL    HW138573   3.587   3.793   9.144  1.6765  0.2579 -1.6862
 9037SOL    HW238574   3.740   3.793   9.174  0.3020 -1.6969  1.3117
 9038SOL     OW38575   2.902   1.389   0.417 -0.9816  0.0123 -0.2835
 9038SOL    HW138576   2.948   1.305   0.416  2.4731  1.8447  1.5749
 9038SOL    HW238577   2.811   1.364   0.406 -1.6148  1.9598  0.5670
 9039SOL     OW38578   1.023   0.626  16.442  0.4131 -0.7245  0.3196
 9039SOL    HW138579   1.117   0.606  16.447  0.7186  1.2961  2.7440
 9039SOL    HW238580   1.019   0.643  16.348  0.9057  0.1464  0.4479
 9040SOL     OW38581   0.521   0.112   1.332 -0.4715 -0.1488  0.7635
 9040SOL    HW138582   0.614   0.125   1.351 -1.0780  1.2923  2.6865
 9040SOL    HW238583   0.524   0.111   1.237  1.1320  0.4966  0.8075
 9041SOL     OW38584   3.969   2.249   9.489  0.3487  0.1977 -0.5336
 9041SOL    HW138585   3.989   2.321   9.548 -1.3688 -1.0926  1.6442
 9041SOL    HW238586   4.000   2.171   9.533 -1.6741  0.3645  1.2168
 9042SOL     OW38587   0.619   2.842  10.072  0.3456 -0.5652 -0.5330
 9042SOL    HW138588   0.711   2.820  10.078  0.3963 -0.9285 -2.4840
 9042SOL    HW238589   0.596   2.774  10.008 -0.2488 -1.6235  0.8142
 9043SOL     OW38590   3.025   3.171   4.373 -0.1673 -0.6686 -0.0838
 9043SOL    HW138591   3.018   3.226   4.294 -1.4761 -1.3256 -0.4147
 9043SOL    HW238592   3.088   3.220   4.426 -3.9868  1.4743  2.4512
 9044SOL     OW38593   1.609   4.576   5.359  0.0690  0.1523 -0.0376
 9044SOL    HW138594   1.660   4.540   5.286 -0.8768 -1.4804  0.1160
 9044SOL    HW238595   1.654   4.661   5.357 -2.6242  1.5612 -1.1403
 9045SOL     OW38596   3.538   4.293  11.200 -0.0551 -0.2682 -0.0506
 9045SOL    HW138597   3.605   4.360  11.190 -0.2892  0.4792  3.3427
 9045SOL    HW238598   3.458   4.315  11.152  0.3660 -0.8112 -1.0113
 9046SOL     OW38599   1.431   3.202  11.251  0.3337  0.2933 -0.2277
 9046SOL    HW138600   1.390   3.116  11.242  0.8832  0.2714 -2.4753
 9046SOL    HW238601   1.466   3.215  11.163 -0.2367  1.4667 -0.2815
 9047SOL     OW38602   2.222   3.910   5.811 -0.1124 -0.1938  0.1051
 9047SOL    HW138603   2.309   3.948   5.799 -0.4917  0.3860 -0.9104
 9047SOL    HW238604   2.236   3.816   5.815  1.2140  0.0156  0.2273
 9048SOL     OW38605   3.396   2.281   1.793 -0.4451 -0.1861  0.3702
 9048SOL    HW138606   3.326   2.346   1.804 -0.5288  0.0133 -1.4086
 9048SOL    HW238607   3.397   2.269   1.698 -0.3684 -0.7831  0.4510
 9049SOL     OW38608   0.229   0.273   3.928 -0.0641  0.3035  0.2928
 9049SOL    HW138609   0.276   0.346   3.969 -2.1612  0.9349  1.6121
 9049SOL    HW238610   0.298   0.208   3.943  2.2796  2.9732  1.0662
 9050SOL     OW38611   0.302   4.084   1.943  0.2122 -0.9803 -0.6402
 9050SOL    HW138612   0.238   4.016   1.965  1.3494 -1.6870  0.4853
 9050SOL    HW238613   0.379   4.030   1.960  0.6026 -0.2828 -0.2035
 9051SOL     OW38614   3.697   2.642  15.704  0.7334  0.4169 -0.1121
 9051SOL    HW138615   3.647   2.560  15.701  1.2341  0.0561  1.3378
 9051SOL    HW238616   3.636   2.704  15.663 -1.2820 -0.9935  0.7412
 9052SOL     OW38617   1.888   1.897   2.338  0.2806 -0.0150  0.5416
 9052SOL    HW138618   1.962   1.936   2.292  0.9199 -1.7994  0.0867
 9052SOL    HW238619   1.896   1.802   2.331 -0.4739 -0.1041  0.9716
 9053SOL     OW38620   0.150   4.281   5.033 -0.2607 -0.2340 -0.0445
 9053SOL    HW138621   0.061   4.250   5.049 -1.1734  2.3344 -0.0785
 9053SOL    HW238622   0.146   4.294   4.938 -0.7210  4.2349  0.6017
 9054SOL     OW38623   4.719   3.955   8.527 -0.5920 -1.0305 -0.0323
 9054SOL    HW138624   4.666   3.940   8.605 -0.6137  1.8848  0.5296
 9054SOL    HW238625   0.079   3.919   8.555 -0.4269  0.7358  1.8338
 9055SOL     OW38626   4.332   0.238   1.569  0.2917 -0.1500 -0.1851
 9055SOL    HW138627   4.373   0.306   1.622  0.1293 -1.8386  2.1093
 9055SOL    HW238628   4.297   0.289   1.496 -0.5319 -1.5754 -0.7899
 9056SOL     OW38629   4.414   3.818   3.363 -0.5606 -0.1227 -0.1392
 9056SOL    HW138630   4.343   3.782   3.309 -0.6806 -0.1354  0.0295
 9056SOL    HW238631   4.362   3.839   3.440 -0.1447 -1.3394  0.4690
 9057SOL     OW38632   0.574   4.293   1.461  0.0744  0.5694  0.2487
 9057SOL    HW138633   0.503   4.262   1.404  0.7480 -3.7144  1.7319
 9057SOL    HW238634   0.548   4.246   1.540 -0.3323  0.6077  0.1379
 9058SOL     OW38635   3.008   4.462   7.084 -0.2069 -0.0639 -0.1158
 9058SOL    HW138636   2.967   4.527   7.028  0.2445  0.6291  0.3615
 9058SOL    HW238637   3.086   4.447   7.031 -0.1367 -1.9317  0.5212
 9059SOL     OW38638   4.016   2.693   5.664 -0.2870 -0.2625  0.0063
 9059SOL    HW138639   4.016   2.681   5.759  0.4506  1.7287  0.2577
 9059SOL    HW238640   3.976   2.779   5.653  0.7096  0.5758  2.8518
 9060SOL     OW38641   0.684   0.794  16.779  0.0870 -0.0587 -0.3835
 9060SOL    HW138642   0.774   0.801  16.747 -0.5326  1.9644 -1.7001
 9060SOL    HW238643   0.641   0.750  16.706 -1.1357 -0.4859  0.5920
 9061SOL     OW38644   2.359   0.368   7.750  0.0875  0.6309  0.5181
 9061SOL    HW138645   2.453   0.349   7.749 -0.4133 -1.8159 -0.1116
 9061SOL    HW238646   2.345   0.426   7.676  0.2149 -0.8112 -0.6295
 9062SOL     OW38647   3.836   2.794   7.862 -0.3413 -0.6663 -0.2332
 9062SOL    HW138648   3.921   2.753   7.847  1.3172  2.6528  0.0089
 9062SOL    HW238649   3.845   2.888   7.847  1.9090 -0.7898  0.4076
 9063SOL     OW38650   0.935   4.425  10.814  0.1309 -0.3695  0.0641
 9063SOL    HW138651   1.021   4.449  10.779 -0.6113 -0.9408 -2.1917
 9063SOL    HW238652   0.901   4.514  10.826  0.4045 -0.4224  1.1406
 9064SOL     OW38653   3.695   2.663   6.644 -0.0776 -0.3905 -0.3576
 9064SOL    HW138654   3.730   2.697   6.726 -2.2084  2.4514 -0.6067
 9064SOL    HW238655   3.708   2.733   6.580 -2.9653  0.1735 -0.3312
 9065SOL     OW38656   0.124   3.815   8.174  0.2865  0.4236  0.2551
 9065SOL    HW138657   0.117   3.910   8.184 -0.1325  0.4364 -0.1768
 9065SOL    HW238658   0.057   3.791   8.238 -1.1528  0.7355 -1.1387
 9066SOL     OW38659   0.029   1.498   3.859 -0.0516  0.1827  0.6826
 9066SOL    HW138660   0.014   1.411   3.895 -0.0702  0.2002  0.7166
 9066SOL    HW238661   0.070   1.470   3.777 -1.1969 -1.1168  0.5664
 9067SOL     OW38662   3.313   3.463   5.695 -0.3061  0.0802 -0.8897
 9067SOL    HW138663   3.326   3.388   5.753  2.1191  0.5111 -0.8956
 9067SOL    HW238664   3.308   3.419   5.610  0.3273 -0.1368 -0.8119
 9068SOL     OW38665   3.712   0.445  12.730  0.3607  0.3899  0.5073
 9068SOL    HW138666   3.671   0.466  12.646 -1.6977  0.0019  1.4001
 9068SOL    HW238667   3.662   0.368  12.757 -0.1180  0.8301  0.8795
 9069SOL     OW38668   1.589   1.392   8.079 -0.7946 -0.0499 -0.0665
 9069SOL    HW138669   1.577   1.487   8.074 -2.0334 -0.0957  2.0076
 9069SOL    HW238670   1.497   1.371   8.096 -0.9181  1.7519  1.5164
 9070SOL     OW38671   1.629   2.818  15.394 -0.4699 -0.2988  0.0852
 9070SOL    HW138672   1.724   2.818  15.378 -0.0424  0.3988  2.5601
 9070SOL    HW238673   1.595   2.804  15.306  1.3372 -1.4926 -0.4206
 9071SOL     OW38674   0.347   0.229   7.599  0.1643 -0.4140 -0.0722
 9071SOL    HW138675   0.277   0.293   7.592  0.5446  0.1101  0.9004
 9071SOL    HW238676   0.323   0.177   7.676 -1.1793  0.0791 -0.1612
 9072SOL     OW38677   1.828   3.921   2.067  0.0215 -0.0887  0.5336
 9072SOL    HW138678   1.848   3.855   2.002 -3.3416 -0.0521 -0.5392
 9072SOL    HW238679   1.883   3.874   2.129 -0.1480 -1.1481 -0.1306
 9073SOL     OW38680   4.184   1.878  13.436  0.2792 -0.9628  0.2142
 9073SOL    HW138681   4.221   1.797  13.400 -1.4406 -0.5209 -2.4988
 9073SOL    HW238682   4.173   1.932  13.358  3.5348 -1.2624 -0.4384
 9074SOL     OW38683   0.672   2.797   1.692  0.3088 -0.0518  0.3029
 9074SOL    HW138684   0.649   2.817   1.783  4.4576  2.7894  0.7281
 9074SOL    HW238685   0.653   2.704   1.680  0.6211 -0.4635  3.0265
 9075SOL     OW38686   2.310   1.383   2.961 -0.0254 -0.7499  0.2562
 9075SOL    HW138687   2.368   1.449   2.922 -0.9123  0.7924  1.5633
 9075SOL    HW238688   2.223   1.394   2.924 -0.0107 -1.4539  0.0183
 9076SOL     OW38689   3.729   4.278   4.112 -0.4397  0.0153 -0.7747
 9076SOL    HW138690   3.656   4.266   4.174 -0.8700 -1.3119 -1.5496
 9076SOL    HW238691   3.697   4.339   4.046 -0.6101  0.4264 -0.3188
 9077SOL     OW38692   3.084   0.338  11.229 -0.0879  0.4637  0.8020
 9077SOL    HW138693   3.048   0.271  11.172 -0.4524  2.0247 -0.7877
 9077SOL    HW238694   3.082   0.412  11.168  0.1109  0.1683  0.4370
 9078SOL     OW38695   3.603   1.666   8.428 -0.0845 -0.3565 -0.6095
 9078SOL    HW138696   3.624   1.574   8.443  0.2337 -0.3821 -1.2041
 9078SOL    HW238697   3.643   1.704   8.506 -2.1949 -0.6546  0.6264
 9079SOL     OW38698   4.412   2.861   4.318 -0.0858 -0.0474 -0.5365
 9079SOL    HW138699   4.449   2.936   4.271  0.2360  1.6925  2.4890
 9079SOL    HW238700   4.476   2.843   4.387  0.1229 -3.9673 -1.7651
 9080SOL     OW38701   1.795   4.383   1.216 -0.1842 -0.2513  0.7242
 9080SOL    HW138702   1.796   4.471   1.255  0.2891  0.6133 -1.2484
 9080SOL    HW238703   1.718   4.397   1.161 -0.5614 -2.5141  0.6669
 9081SOL     OW38704   2.532   3.401   3.385 -0.1709 -0.0668 -0.1083
 9081SOL    HW138705   2.540   3.306   3.386 -1.2921 -0.1731 -0.8805
 9081SOL    HW238706   2.511   3.422   3.476  0.0223  0.3694 -0.1654
 9082SOL     OW38707   0.055   1.277   4.781  0.3242 -0.1796 -0.7024
 9082SOL    HW138708   0.065   1.187   4.811 -1.8060  0.2054  1.1398
 9082SOL    HW238709   0.141   1.310   4.807 -0.0702  1.9257 -2.0391
 9083SOL     OW38710   1.049   3.652   2.238 -0.3576 -0.1018 -0.6055
 9083SOL    HW138711   1.057   3.637   2.332  1.1241 -0.3509 -0.7679
 9083SOL    HW238712   1.070   3.564   2.207 -0.5821 -0.8435  1.3867
 9084SOL     OW38713   4.240   2.689  16.996 -0.3619 -0.1287 -0.3082
 9084SOL    HW138714   4.179   2.692  16.923  0.9944  2.5172 -1.3390
 9084SOL    HW238715   4.288   2.609  16.974 -0.2066  0.2089 -1.1861
 9085SOL     OW38716   1.348   4.181   6.956  0.6925 -0.1996  0.4024
 9085SOL    HW138717   1.314   4.240   6.889  1.7029 -0.4165 -0.2849
 9085SOL    HW238718   1.440   4.202   6.941  0.1900  2.4042  1.0255
 9086SOL     OW38719   1.740   1.890  17.019  0.1242  0.3297  0.0898
 9086SOL    HW138720   1.730   1.800  16.988  1.9765  0.2268 -0.1980
 9086SOL    HW238721   1.830   1.879  17.051  0.1087  0.5526  0.2074
 9087SOL     OW38722   4.143   2.778   6.560  0.0453 -0.2774 -0.0294
 9087SOL    HW138723   4.204   2.851   6.546 -0.7000  0.9042  2.8666
 9087SOL    HW238724   4.146   2.761   6.654  1.8139 -0.0827 -0.0458
 9088SOL     OW38725   4.149   0.754   4.670  0.0812  0.1680 -0.1269
 9088SOL    HW138726   4.115   0.813   4.738 -1.2772  0.0085 -0.6713
 9088SOL    HW238727   4.241   0.774   4.687  0.1947  1.1549 -1.9516
 9089SOL     OW38728   3.810   2.369   4.792 -0.3276 -0.1979 -0.4846
 9089SOL    HW138729   3.853   2.373   4.707  1.2555 -1.2340  0.2692
 9089SOL    HW238730   3.829   2.285   4.836 -2.1370 -0.2171  0.2575
 9090SOL     OW38731   3.345   4.316  15.996 -0.2534 -0.2285 -0.1711
 9090SOL    HW138732   3.338   4.381  15.926  0.2030 -0.2598 -0.2454
 9090SOL    HW238733   3.262   4.269  15.986 -0.6909  0.6491 -0.6675
 9091SOL     OW38734   0.051   4.268   2.530 -0.1106  0.2979 -0.1243
 9091SOL    HW138735   4.717   4.291   2.602  2.4126  0.8037  1.7537
 9091SOL    HW238736   0.132   4.254   2.579 -0.6790  0.1213  0.7639
 9092SOL     OW38737   2.275   0.106   1.129 -0.2826 -0.0698  0.2163
 9092SOL    HW138738   2.192   0.089   1.173 -0.3585 -0.3404 -0.0292
 9092SOL    HW238739   2.242   0.112   1.039  0.4768 -1.6244 -0.1705
 9093SOL     OW38740   2.420   1.845   4.876 -0.1296  0.5553 -0.3041
 9093SOL    HW138741   2.325   1.838   4.866 -0.1923  0.0110  0.7511
 9093SOL    HW238742   2.444   1.753   4.865  1.2009  0.9674 -1.0020
 9094SOL     OW38743   4.382   3.681   1.693 -0.0595 -0.5328  0.0112
 9094SOL    HW138744   4.318   3.631   1.642 -2.1761  1.1826  0.9800
 9094SOL    HW238745   4.370   3.646   1.781 -0.3325  0.8186  0.5174
 9095SOL     OW38746   2.333   4.092  15.139 -0.2957  0.6016 -0.0567
 9095SOL    HW138747   2.340   4.168  15.196  4.7950  1.3514 -1.6386
 9095SOL    HW238748   2.426   4.068  15.141 -0.4079  0.1334 -0.4459
 9096SOL     OW38749   2.471   0.835   2.547 -0.5732 -0.5433 -0.1090
 9096SOL    HW138750   2.399   0.775   2.563 -0.5641 -0.8550 -1.2072
 9096SOL    HW238751   2.526   0.832   2.625 -0.9986  1.7047  0.2862
 9097SOL     OW38752   4.466   1.071   3.418  0.0481  0.0026 -0.2277
 9097SOL    HW138753   4.439   1.057   3.327  0.2646  0.6594 -0.3843
 9097SOL    HW238754   4.499   1.160   3.416 -2.5426  1.0129  1.2544
 9098SOL     OW38755   0.624   0.795   7.847 -0.4078 -0.6520  0.2390
 9098SOL    HW138756   0.567   0.724   7.816 -1.7445  1.3956 -1.9940
 9098SOL    HW238757   0.578   0.814   7.928 -0.5485  0.0751 -0.0152
 9099SOL     OW38758   1.818   0.037  15.393 -0.3926  0.0956 -0.4513
 9099SOL    HW138759   1.866   0.047  15.311  0.9754  0.0377  0.3441
 9099SOL    HW238760   1.791   0.127  15.411 -1.2895 -0.1992 -0.3009
 9100SOL     OW38761   3.815   3.409  12.934 -0.6597 -0.0063  0.4582
 9100SOL    HW138762   3.811   3.325  12.887  0.6277  0.4002 -0.3702
 9100SOL    HW238763   3.739   3.450  12.894  0.6358  1.7101 -0.2290
 9101SOL     OW38764   2.227   0.404  12.911  0.3080 -0.0210  0.1327
 9101SOL    HW138765   2.214   0.312  12.936 -1.4414  0.2043  0.0368
 9101SOL    HW238766   2.178   0.405  12.829  0.7886 -0.6623 -0.1633
 9102SOL     OW38767   0.231   0.452  14.984  0.2356  0.2930 -0.0140
 9102SOL    HW138768   0.161   0.498  14.938 -1.0096 -1.7173 -0.0930
 9102SOL    HW238769   0.255   0.513  15.054 -0.1421  0.4100  0.0119
 9103SOL     OW38770   4.370   3.099   2.138  0.3400 -0.5584  0.0988
 9103SOL    HW138771   4.346   3.104   2.046 -1.3452 -1.6311  0.4776
 9103SOL    HW238772   4.453   3.052   2.136  0.6379 -0.1817  3.1357
 9104SOL     OW38773   2.970   2.693   1.849 -0.1070 -0.1094 -0.2798
 9104SOL    HW138774   2.882   2.671   1.881  0.0671  1.4587  1.2770
 9104SOL    HW238775   2.969   2.777   1.895  1.4333  0.1496 -0.7309
 9105SOL     OW38776   4.525   1.297   1.720 -0.4001 -0.4519 -0.5461
 9105SOL    HW138777   4.523   1.221   1.662  2.3185  0.2484 -1.5936
 9105SOL    HW238778   4.447   1.350   1.706 -0.3319 -0.1032  0.4291
 9106SOL     OW38779   4.224   0.515   6.607 -0.2269 -0.8127 -0.4558
 9106SOL    HW138780   4.204   0.545   6.518 -0.4931 -0.0787 -0.1470
 9106SOL    HW238781   4.314   0.546   6.615 -0.2002 -0.0872 -3.3099
 9107SOL     OW38782   0.037   4.578   7.184  0.6462  0.5436  0.2833
 9107SOL    HW138783   0.126   4.566   7.150  1.1807  1.2028  1.4631
 9107SOL    HW238784   4.720   4.493   7.167 -1.3122  1.1221  2.1038
 9108SOL     OW38785   1.628   1.535  10.769  0.0073  0.1946  0.3572
 9108SOL    HW138786   1.698   1.587  10.810 -0.2452  0.5648  0.3267
 9108SOL    HW238787   1.560   1.547  10.835 -0.5572  2.7533 -0.6650
 9109SOL     OW38788   1.397   0.100   4.202 -0.6800  0.1427  0.4585
 9109SOL    HW138789   1.453   0.177   4.193 -0.8753  0.3298  0.8460
 9109SOL    HW238790   1.433   0.055   4.126  0.1950  1.0205  0.3509
 9110SOL     OW38791   2.082   0.161   4.325  0.0089 -0.4628  0.3609
 9110SOL    HW138792   2.170   0.182   4.356 -0.8128 -0.2985  2.6064
 9110SOL    HW238793   2.090   0.087   4.265 -0.6913  1.9469 -2.6714
 9111SOL     OW38794   0.087   0.336   2.058  0.6748  0.6786  0.4196
 9111SOL    HW138795   0.067   0.256   2.108 -1.3075 -0.6667 -2.5972
 9111SOL    HW238796   0.002   0.376   2.043  0.0157 -1.7441 -2.2445
 9112SOL     OW38797   2.524   4.532   4.951  0.5709 -0.1864  0.9079
 9112SOL    HW138798   2.515   4.438   4.967  2.5634 -0.4830  0.2289
 9112SOL    HW238799   2.601   4.550   5.006  1.4833 -2.7168  0.4632
 9113SOL     OW38800   0.641   4.715   2.447 -0.1034  0.5900  0.6372
 9113SOL    HW138801   0.682   0.046   2.513  0.1642  0.3938  0.6340
 9113SOL    HW238802   0.666   0.043   2.370 -3.9470  1.8109  0.2026
 9114SOL     OW38803   3.056   3.206   5.671  0.0717 -0.4098 -0.1751
 9114SOL    HW138804   3.117   3.135   5.651  0.1597 -0.3449 -0.1370
 9114SOL    HW238805   3.054   3.208   5.766  1.0331 -1.0689 -0.1371
 9115SOL     OW38806   3.807   3.225   9.623 -0.2353 -0.8003 -0.3801
 9115SOL    HW138807   3.878   3.286   9.644 -0.3115 -0.6301 -0.6175
 9115SOL    HW238808   3.843   3.170   9.554  0.5416 -0.2556 -0.4103
 9116SOL     OW38809   0.065   4.156  13.182 -0.6968 -0.1748  0.2094
 9116SOL    HW138810   0.157   4.140  13.164 -1.0675  0.2455 -2.0769
 9116SOL    HW238811   0.035   4.065  13.172 -0.4564 -0.1089 -1.1277
 9117SOL     OW38812   3.043   0.022   4.915  0.6295  0.3577 -0.3396
 9117SOL    HW138813   3.107   0.006   4.846 -0.2434 -1.7516 -0.6552
 9117SOL    HW238814   2.966   0.053   4.868  1.2018  2.0079 -0.1808
 9118SOL     OW38815   2.589   0.294   6.235  0.5448 -0.3694 -0.2779
 9118SOL    HW138816   2.626   0.319   6.150 -0.2465 -1.9967 -1.0994
 9118SOL    HW238817   2.623   0.205   6.248  1.5536  0.1986  0.9989
 9119SOL     OW38818   2.003   1.114   2.969  0.0604  0.6360  0.9736
 9119SOL    HW138819   1.991   1.209   2.973 -0.8727  0.6129 -0.8544
 9119SOL    HW238820   2.098   1.108   2.967 -0.0256 -0.8132  0.8826
 9120SOL     OW38821   2.421   4.535   0.837  0.3478 -0.4935 -0.7380
 9120SOL    HW138822   2.500   4.531   0.891 -0.1111 -0.9977 -0.1017
 9120SOL    HW238823   2.462   4.495   0.760 -1.0587 -3.7357  0.1747
 9121SOL     OW38824   3.270   2.835   3.785 -0.0520 -0.2289 -0.3204
 9121SOL    HW138825   3.219   2.844   3.704 -0.8434 -0.9072  0.1001
 9121SOL    HW238826   3.201   2.848   3.851 -0.2046 -1.1777 -0.2840
 9122SOL     OW38827   4.717   1.308   9.352  0.3503  0.5207 -0.2769
 9122SOL    HW138828   0.006   1.272   9.440 -1.5746  3.6062  1.2648
 9122SOL    HW238829   4.622   1.314   9.359  0.2859 -0.8390 -0.0612
 9123SOL     OW38830   3.526   1.194  10.099 -0.5061 -0.5171 -0.0757
 9123SOL    HW138831   3.609   1.181  10.054 -0.2170 -1.2505  0.6659
 9123SOL    HW238832   3.486   1.252  10.034  2.1134  1.6296  0.2303
 9124SOL     OW38833   2.941   3.003  11.096  0.1658  0.3496 -0.7147
 9124SOL    HW138834   2.994   2.972  11.023  1.9359 -1.5103  1.3620
 9124SOL    HW238835   2.946   2.922  11.148  0.9234  1.1118  0.4082
 9125SOL     OW38836   1.362   1.468   3.946  0.5723  0.0978 -0.1104
 9125SOL    HW138837   1.345   1.391   4.000  1.2040  0.0067 -0.0352
 9125SOL    HW238838   1.411   1.525   4.006 -2.6377  1.0604  1.6200
 9126SOL     OW38839   2.491   1.645   4.034  0.8746  0.2204  0.4120
 9126SOL    HW138840   2.586   1.644   4.040  0.8480 -2.1075  0.2063
 9126SOL    HW238841   2.461   1.691   4.113 -1.2095 -0.0056 -0.2410
 9127SOL     OW38842   3.289   4.653   6.460 -0.0047  0.2530 -0.1957
 9127SOL    HW138843   3.349   4.581   6.475  1.1322  1.3594  0.5717
 9127SOL    HW238844   3.289   4.661   6.365  0.0126  2.3783 -0.0288
 9128SOL     OW38845   3.974   0.511  14.398  0.2351 -0.0750  0.0416
 9128SOL    HW138846   4.007   0.563  14.326  0.1089  0.5295  0.4155
 9128SOL    HW238847   3.950   0.429  14.355  0.0209 -0.7414  1.4120
 9129SOL     OW38848   3.666   3.741   0.852 -0.1739  0.0407 -0.6356
 9129SOL    HW138849   3.749   3.755   0.897 -0.6739 -0.0659  0.3192
 9129SOL    HW238850   3.617   3.699   0.923 -1.5333  0.1995 -1.4801
 9130SOL     OW38851   0.170   4.346   1.325  0.1028 -0.4196  0.4866
 9130SOL    HW138852   0.131   4.343   1.238  0.9208 -1.8585  0.1621
 9130SOL    HW238853   0.161   4.441   1.333 -0.1524 -0.3306 -0.9698
 9131SOL     OW38854   3.660   3.996   6.621 -0.0444 -0.3324 -0.6591
 9131SOL    HW138855   3.710   3.984   6.701  0.2570  0.6564 -0.6990
 9131SOL    HW238856   3.566   4.003   6.640  0.3171  2.3585  0.1512
 9132SOL     OW38857   3.038   1.380   6.453  0.4383  0.4583  0.0941
 9132SOL    HW138858   3.089   1.308   6.492 -1.2056  1.0393  3.4025
 9132SOL    HW238859   3.041   1.368   6.358 -1.8914 -3.1765  0.4428
 9133SOL     OW38860   1.349   2.574   2.313  0.2252  0.0667  0.2033
 9133SOL    HW138861   1.317   2.603   2.228  1.0429 -2.3391 -0.9167
 9133SOL    HW238862   1.433   2.538   2.286  0.6602 -1.3789  3.4565
 9134SOL     OW38863   1.546   2.611   3.046 -0.7564  0.2148  0.9399
 9134SOL    HW138864   1.534   2.518   3.065 -0.1226 -0.5781 -2.5198
 9134SOL    HW238865   1.639   2.621   3.027 -0.9560  1.5244  0.5982
 9135SOL     OW38866   3.520   2.111   8.527  0.3624 -0.2662 -0.0645
 9135SOL    HW138867   3.586   2.112   8.458 -0.5602 -0.3887 -0.9512
 9135SOL    HW238868   3.486   2.200   8.534  2.0153  0.2279  1.4379
 9136SOL     OW38869   1.169   1.278  14.901  0.2427 -0.0801  0.2988
 9136SOL    HW138870   1.086   1.301  14.858  1.2668 -0.8869 -2.0987
 9136SOL    HW238871   1.225   1.354  14.883 -0.5812  0.8971  1.8882
 9137SOL     OW38872   4.606   4.536   9.661 -0.0855 -0.5590 -0.0582
 9137SOL    HW138873   4.580   4.509   9.750  0.6716  0.2677  0.4131
 9137SOL    HW238874   4.617   4.447   9.627 -2.9032 -0.2671 -1.7057
 9138SOL     OW38875   1.460   2.904   4.425  0.4960 -0.3028  0.0862
 9138SOL    HW138876   1.449   2.904   4.520  0.6976 -0.0668  0.1088
 9138SOL    HW238877   1.502   2.821   4.402 -1.6346 -1.7587  1.4216
 9139SOL     OW38878   0.576   3.782   6.564 -0.1147  0.2477 -0.2797
 9139SOL    HW138879   0.634   3.711   6.536 -0.0816  0.0136  0.3811
 9139SOL    HW238880   0.592   3.775   6.658 -0.0717 -0.3311 -0.3301
 9140SOL     OW38881   2.984   1.472   2.450 -0.3877 -0.5239 -0.1286
 9140SOL    HW138882   2.900   1.517   2.459  0.2094  0.4558  0.6104
 9140SOL    HW238883   3.006   1.524   2.373  2.2435 -0.0245  0.9417
 9141SOL     OW38884   4.657   1.066  12.038  0.0825  0.4186 -0.2544
 9141SOL    HW138885   4.561   1.069  12.037  0.0848  1.2217  1.9665
 9141SOL    HW238886   4.668   0.971  12.043  0.1778  0.5865  2.4295
 9142SOL     OW38887   4.458   4.268  13.077 -0.2358 -0.1068 -0.2573
 9142SOL    HW138888   4.363   4.263  13.063 -0.4604 -1.7274  1.9159
 9142SOL    HW238889   4.468   4.286  13.170 -0.5004  1.4143 -0.5188
 9143SOL     OW38890   0.353   4.378  16.051 -0.0304 -0.1373 -0.0381
 9143SOL    HW138891   0.302   4.448  16.091 -2.6881 -1.0514 -1.8465
 9143SOL    HW238892   0.432   4.388  16.105  0.1620 -2.2626  0.0573
 9144SOL     OW38893   3.023   2.032   7.037  0.0606 -0.2846  0.1114
 9144SOL    HW138894   2.969   2.068   7.107  0.2096  0.1722 -0.0099
 9144SOL    HW238895   3.096   1.995   7.088 -0.9068 -1.0885  0.9086
 9145SOL     OW38896   1.237   2.989   7.605  0.5685  1.1586  0.1466
 9145SOL    HW138897   1.160   2.936   7.622  1.6270 -0.2986  0.4252
 9145SOL    HW238898   1.216   3.072   7.649 -0.3844  1.7969 -1.5154
 9146SOL     OW38899   0.249   2.195   3.335 -0.7325  0.3948 -0.0117
 9146SOL    HW138900   0.330   2.156   3.301 -0.4168 -1.4632  2.9083
 9146SOL    HW238901   0.197   2.192   3.255 -2.6302  1.2396  1.1836
 9147SOL     OW38902   2.928   1.500  16.925  0.2978  0.2909 -0.0751
 9147SOL    HW138903   2.872   1.426  16.902 -1.5227  1.0802  1.7984
 9147SOL    HW238904   2.879   1.531  17.001  1.9689 -0.3872  1.2752
 9148SOL     OW38905   1.775   3.154  15.316  0.3130 -0.2579  0.0526
 9148SOL    HW138906   1.832   3.098  15.368 -1.0438 -0.1039  1.7308
 9148SOL    HW238907   1.776   3.108  15.232  0.2393 -0.3702  0.1129
 9149SOL     OW38908   2.941   0.787   6.057  0.0621  0.2445 -0.1485
 9149SOL    HW138909   2.867   0.752   6.008 -0.4090  2.9837 -1.3324
 9149SOL    HW238910   3.008   0.787   5.989  0.2526 -1.3306  0.0376
 9150SOL     OW38911   4.119   3.861   6.342  0.0106  0.3808 -0.1287
 9150SOL    HW138912   4.165   3.863   6.426  0.1404 -1.1103 -0.1689
 9150SOL    HW238913   4.070   3.943   6.346 -0.1853  0.2003  1.2113
 9151SOL     OW38914   3.009   3.755   6.294  0.3580 -0.8872 -0.0521
 9151SOL    HW138915   3.072   3.824   6.276 -1.1523  0.2118 -1.1928
 9151SOL    HW238916   2.955   3.760   6.215  0.2484  0.3439  0.0954
 9152SOL     OW38917   0.483   0.234   2.965  0.3968 -0.3140 -0.1686
 9152SOL    HW138918   0.423   0.160   2.970 -0.1519  0.2980  2.6312
 9152SOL    HW238919   0.459   0.271   3.050  1.1230  1.4250 -0.7095
 9153SOL     OW38920   3.420   1.487   3.574  0.1375  0.1292  0.0196
 9153SOL    HW138921   3.507   1.483   3.615 -0.5025  0.1298  1.3754
 9153SOL    HW238922   3.424   1.429   3.498  2.4245  0.4635 -0.1060
 9154SOL     OW38923   3.938   4.413   6.628  0.5889 -0.3349  0.1035
 9154SOL    HW138924   4.023   4.453   6.612 -0.1542  1.3579  0.3416
 9154SOL    HW238925   3.954   4.369   6.712 -2.4981 -0.7649  0.4823
 9155SOL     OW38926   4.362   1.432  12.426 -0.3515 -0.0119  0.0189
 9155SOL    HW138927   4.388   1.406  12.514 -1.8828  0.9419  0.7495
 9155SOL    HW238928   4.266   1.432  12.427 -0.3383  0.6052  1.1955
 9156SOL     OW38929   2.906   1.632  11.668 -0.2917 -0.2872 -0.0047
 9156SOL    HW138930   2.895   1.723  11.639 -4.2050 -1.2564 -1.5775
 9156SOL    HW238931   2.895   1.629  11.763 -0.3167  1.0497  0.0421
 9157SOL     OW38932   0.095   4.019  11.845  0.1413 -0.5557 -0.2692
 9157SOL    HW138933   0.112   4.104  11.885 -0.1301 -0.5006 -0.2727
 9157SOL    HW238934   0.060   4.047  11.761  0.4339  3.2193  0.8852
 9158SOL     OW38935   1.697   4.506   9.331  0.2545 -0.3389  0.0954
 9158SOL    HW138936   1.648   4.521   9.250  0.6687 -1.2122 -0.3138
 9158SOL    HW238937   1.628   4.463   9.380 -1.6593  2.3695 -0.2078
 9159SOL     OW38938   3.506   1.663   1.456 -0.2649 -0.2544  0.6385
 9159SOL    HW138939   3.491   1.613   1.376 -1.9300  0.0671  0.7509
 9159SOL    HW238940   3.430   1.721   1.451  0.1488  0.5188  3.4547
 9160SOL     OW38941   2.373   0.549  17.644  0.2286 -0.2901  0.3685
 9160SOL    HW138942   2.430   0.549  17.567 -1.3757 -0.6764 -0.8376
 9160SOL    HW238943   2.312   0.619  17.620  0.5287  0.0840  0.7179
 9161SOL     OW38944   0.288   3.497   8.623 -0.1639 -0.2713  0.6077
 9161SOL    HW138945   0.197   3.481   8.649  0.5217 -0.1819  2.9871
 9161SOL    HW238946   0.293   3.480   8.529  1.1531  0.4515  0.5553
 9162SOL     OW38947   3.350   3.913   4.637  0.1880 -0.0931 -0.1433
 9162SOL    HW138948   3.289   3.911   4.563 -1.5811  2.6875  1.2397
 9162SOL    HW238949   3.332   3.825   4.669 -0.5648 -0.3659 -1.2907
 9163SOL     OW38950   1.415   4.144   3.533 -0.2984 -0.0337  0.2720
 9163SOL    HW138951   1.486   4.120   3.592  0.5182 -1.3150 -1.2144
 9163SOL    HW238952   1.387   4.232   3.558  2.1774  1.6159 -2.7610
 9164SOL     OW38953   4.236   0.951   7.737  1.0247  0.5044  0.0253
 9164SOL    HW138954   4.234   0.902   7.655 -1.3631 -0.3607  0.6051
 9164SOL    HW238955   4.310   1.008   7.720  3.1574 -2.2299  0.2363
 9165SOL     OW38956   4.654   2.186  15.784 -0.7860 -0.7738 -0.6858
 9165SOL    HW138957   4.611   2.211  15.865  0.1199 -0.5182 -0.2857
 9165SOL    HW238958   4.678   2.098  15.814 -2.8414 -0.3231  2.2910
 9166SOL     OW38959   3.145   3.678   5.296  0.2916  0.0227  0.4629
 9166SOL    HW138960   3.161   3.735   5.371 -1.9854 -0.1387  1.0556
 9166SOL    HW238961   3.231   3.690   5.254  0.3264 -1.8565 -0.0351
 9167SOL     OW38962   2.798   0.702   2.418  0.5150 -0.1165 -0.3888
 9167SOL    HW138963   2.799   0.789   2.378 -2.1649 -0.1713 -0.5649
 9167SOL    HW238964   2.717   0.660   2.389 -1.1281  1.8065  1.4017
 9168SOL     OW38965   3.793   2.584   3.707 -0.2032  0.3634  0.1130
 9168SOL    HW138966   3.783   2.547   3.619  2.1840 -0.1590  0.0475
 9168SOL    HW238967   3.700   2.595   3.725  0.4243  1.9540  2.3799
 9169SOL     OW38968   3.539   1.778   6.654 -0.0302 -0.3387  0.3006
 9169SOL    HW138969   3.476   1.849   6.661 -1.9575 -1.8707 -1.4197
 9169SOL    HW238970   3.521   1.757   6.563  0.6869 -1.6617  0.4568
 9170SOL     OW38971   0.178   0.305  12.196  0.5411  0.4423  0.1405
 9170SOL    HW138972   0.248   0.369  12.178  0.2080  0.2323 -1.8630
 9170SOL    HW238973   0.233   0.228  12.184 -0.3295  0.2212 -2.4747
 9171SOL     OW38974   1.680   2.957   5.166  0.2251  0.4089 -0.1970
 9171SOL    HW138975   1.626   3.027   5.128  1.6227  2.4347  1.5581
 9171SOL    HW238976   1.755   3.000   5.207 -0.7087 -0.1623  2.0900
 9172SOL     OW38977   3.993   0.955   4.447  0.3874 -0.3724 -0.7819
 9172SOL    HW138978   3.980   0.999   4.531 -0.5330  0.3276 -1.2906
 9172SOL    HW238979   4.089   0.956   4.443  0.5067  0.0021  2.5232
 9173SOL     OW38980   0.571   1.278   7.434 -0.8331 -0.6569 -0.0822
 9173SOL    HW138981   0.585   1.192   7.473  1.7026  0.4390  1.4530
 9173SOL    HW238982   0.633   1.333   7.483 -0.1481  0.1489 -1.8800
 9174SOL     OW38983   4.191   0.622   1.566 -0.5515  0.4872  0.1845
 9174SOL    HW138984   4.226   0.710   1.552 -1.8770  0.9564 -0.1364
 9174SOL    HW238985   4.097   0.640   1.566 -0.7040 -0.2395 -1.4281
 9175SOL     OW38986   1.427   3.768   9.216 -0.2090  0.0032 -0.3252
 9175SOL    HW138987   1.458   3.689   9.172 -2.7793 -0.3320 -1.5499
 9175SOL    HW238988   1.505   3.823   9.217  1.4119 -2.2910  2.0271
 9176SOL     OW38989   4.389   0.691   1.280  0.5436  0.1384  0.0252
 9176SOL    HW138990   4.305   0.734   1.298  2.1963  2.8687  1.1750
 9176SOL    HW238991   4.436   0.677   1.362  1.4470 -0.9969 -0.6944
 9177SOL     OW38992   2.008   2.244  13.559  0.1689 -0.0349 -0.7729
 9177SOL    HW138993   2.006   2.338  13.575 -2.7568 -0.1589 -0.3204
 9177SOL    HW238994   2.087   2.225  13.609  1.2804  1.7144 -1.8823
 9178SOL     OW38995   1.352   3.430  15.491 -0.1232  0.1000 -0.3526
 9178SOL    HW138996   1.433   3.397  15.452 -1.0122  0.5034 -2.5401
 9178SOL    HW238997   1.323   3.484  15.418  0.6613  3.0146  1.5269
 9179SOL     OW38998   2.387   2.838   6.243  0.6340 -0.3360 -0.2464
 9179SOL    HW138999   2.323   2.822   6.173 -1.1256  1.7235  0.8748
 9179SOL    HW239000   2.319   2.854   6.310 -0.8588  1.5243 -2.1911
 9180SOL     OW39001   1.341   2.931  11.248  0.7200 -0.3115 -0.5373
 9180SOL    HW139002   1.398   2.956  11.320  0.3144  0.8586 -0.6351
 9180SOL    HW239003   1.400   2.875  11.197 -1.3234 -1.8967 -1.1771
 9181SOL     OW39004   3.280   4.407   4.122  0.0421 -0.0824 -0.3027
 9181SOL    HW139005   3.268   4.498   4.096 -3.0607  0.0868  1.6723
 9181SOL    HW239006   3.290   4.356   4.042 -0.6868 -0.3315 -0.2350
 9182SOL     OW39007   1.835   0.080   5.581  0.5050  0.6194 -0.4533
 9182SOL    HW139008   1.821   0.084   5.676 -0.0047  2.0401 -0.5877
 9182SOL    HW239009   1.751   0.122   5.561  1.1123  1.4155 -1.3122
 9183SOL     OW39010   1.976   3.511   2.974 -0.4990 -0.5395 -0.1888
 9183SOL    HW139011   1.998   3.449   2.904  0.8696 -0.3686  0.0868
 9183SOL    HW239012   1.884   3.493   2.994 -0.5949  0.4153  0.2549
 9184SOL     OW39013   3.708   0.369  11.902  0.2864  0.4846 -0.0976
 9184SOL    HW139014   3.665   0.396  11.983  2.9733  2.9379  0.5271
 9184SOL    HW239015   3.642   0.401  11.840 -2.0934 -3.9360  0.1499
 9185SOL     OW39016   2.465   4.357   2.348 -0.0200 -0.1150 -0.0757
 9185SOL    HW139017   2.471   4.430   2.286 -0.0950  0.0718  0.1398
 9185SOL    HW239018   2.444   4.405   2.428 -0.2459  0.2001 -0.3209
 9186SOL     OW39019   4.255   1.168   6.070 -0.5213 -0.0072  0.2396
 9186SOL    HW139020   4.252   1.221   5.989 -2.6235  1.9260  1.5901
 9186SOL    HW239021   4.231   1.227   6.141 -0.6355 -1.9741  1.8130
 9187SOL     OW39022   0.922   4.390   0.090  0.1449  0.9913  0.6429
 9187SOL    HW139023   0.891   4.426   0.173  0.3063 -1.6597  1.8622
 9187SOL    HW239024   0.919   4.461   0.026 -0.5419  0.8760  0.5497
 9188SOL     OW39025   3.775   1.059  13.631  0.1872  0.7187  0.1758
 9188SOL    HW139026   3.770   1.000  13.556  1.0405  0.5075  0.2866
 9188SOL    HW239027   3.810   1.004  13.702 -1.6507 -0.4966  0.1453
 9189SOL     OW39028   2.534   2.066   8.652  0.4058  0.2705  0.2387
 9189SOL    HW139029   2.509   2.152   8.686  1.9882  0.5387  0.7188
 9189SOL    HW239030   2.491   2.054   8.567  2.5803  0.9554 -0.9478
 9190SOL     OW39031   3.701   4.217   2.982 -0.0098 -0.3369 -0.2300
 9190SOL    HW139032   3.615   4.200   3.020 -0.0076  1.3149  0.5362
 9190SOL    HW239033   3.755   4.146   3.016  1.3826  0.8764  0.1378
 9191SOL     OW39034   0.379   0.694  10.230 -0.1519 -0.0486 -0.5533
 9191SOL    HW139035   0.318   0.728  10.295  0.2370  1.3163 -0.8980
 9191SOL    HW239036   0.328   0.685  10.150  1.3088 -1.7889 -1.2832
 9192SOL     OW39037   0.969   1.569   5.714  0.5198 -0.1303 -0.3247
 9192SOL    HW139038   0.942   1.627   5.642 -1.5665 -0.7498 -0.0268
 9192SOL    HW239039   0.984   1.493   5.657 -0.2025  0.0786 -0.7881
 9193SOL     OW39040   1.170   2.316   6.948 -0.1068  0.1901 -0.3388
 9193SOL    HW139041   1.256   2.351   6.967 -0.1394  0.3763 -0.5367
 9193SOL    HW239042   1.132   2.389   6.900 -1.8307 -0.0205  0.7006
 9194SOL     OW39043   0.473   2.100   6.476 -0.2648  0.6019 -0.2699
 9194SOL    HW139044   0.515   2.167   6.530  0.5482  0.8953 -1.2761
 9194SOL    HW239045   0.430   2.047   6.543 -0.9037 -0.2465 -1.3688
 9195SOL     OW39046   1.978   3.435  13.014  0.2338  0.1520  0.2334
 9195SOL    HW139047   1.974   3.361  13.075 -0.8581 -0.6858 -0.8701
 9195SOL    HW239048   2.061   3.472  13.045  0.1459  0.4669  0.0904
 9196SOL     OW39049   3.000   2.743   4.639 -0.4329  0.3051 -0.3548
 9196SOL    HW139050   3.001   2.799   4.561 -0.6200  0.7059 -0.0697
 9196SOL    HW239051   2.942   2.673   4.610  0.4768 -0.7785  0.4276
 9197SOL     OW39052   3.312   3.309   0.300 -0.7327 -0.2658 -0.4811
 9197SOL    HW139053   3.359   3.353   0.370  0.4284  0.1057 -1.4855
 9197SOL    HW239054   3.235   3.366   0.290 -0.6217 -0.2364 -1.1819
 9198SOL     OW39055   0.618   2.900   3.696  0.4995  0.1935 -0.0121
 9198SOL    HW139056   0.692   2.945   3.737  1.4237 -0.7867 -0.6109
 9198SOL    HW239057   0.620   2.816   3.742 -1.9224 -0.3153 -0.8383
 9199SOL     OW39058   3.888   1.923   2.176 -0.3561 -0.0040 -0.4814
 9199SOL    HW139059   3.865   1.830   2.175 -0.8876  0.1343 -1.6034
 9199SOL    HW239060   3.806   1.961   2.208 -0.8259 -0.8016 -0.7332
 9200SOL     OW39061   2.038   1.920  10.326  0.8355 -0.4126  0.1922
 9200SOL    HW139062   2.041   1.848  10.263 -1.7182 -0.6449  0.3709
 9200SOL    HW239063   1.947   1.918  10.355  0.5560  1.3375 -0.5265
 9201SOL     OW39064   1.809   3.546  13.630 -0.2889 -0.2899  0.3310
 9201SOL    HW139065   1.792   3.461  13.590  0.1140 -0.0585 -0.3538
 9201SOL    HW239066   1.874   3.523  13.696  1.0700  1.7935 -0.2898
 9202SOL     OW39067   2.860   3.834  10.445  0.6422 -0.0491 -0.0615
 9202SOL    HW139068   2.879   3.872  10.531  0.5779 -0.5301  0.1630
 9202SOL    HW239069   2.912   3.754  10.449 -0.9322 -1.0371  0.4905
 9203SOL     OW39070   0.812   0.232   7.336  0.1857  0.3337  0.9190
 9203SOL    HW139071   0.886   0.243   7.276 -0.7524  0.1229 -0.2828
 9203SOL    HW239072   0.746   0.258   7.271 -0.8892  1.9750  2.6563
 9204SOL     OW39073   1.954   4.123  10.855  0.9287  0.1004  0.6777
 9204SOL    HW139074   1.878   4.128  10.912 -0.5067  1.5022 -1.3526
 9204SOL    HW239075   1.945   4.033  10.823  2.9097  0.0767  0.1806
 9205SOL     OW39076   2.298   1.146   7.537  0.3451  0.3095 -0.1786
 9205SOL    HW139077   2.324   1.205   7.609 -2.1331  2.0159 -0.7006
 9205SOL    HW239078   2.355   1.073   7.563  1.2650  0.3494 -2.0491
 9206SOL     OW39079   2.513   4.459   1.870 -0.3682  0.5609 -0.0492
 9206SOL    HW139080   2.545   4.400   1.939  0.6944 -2.9671 -3.5697
 9206SOL    HW239081   2.552   4.415   1.795 -0.1133 -1.0533  1.0196
 9207SOL     OW39082   2.033   4.380   3.757 -0.6747 -0.5987  0.3309
 9207SOL    HW139083   1.995   4.357   3.842 -0.6281 -0.4170  0.4006
 9207SOL    HW239084   1.959   4.365   3.698 -1.0639  3.9705 -0.3452
 9208SOL     OW39085   0.466   2.221   7.313 -0.2864  0.4579  0.6348
 9208SOL    HW139086   0.407   2.148   7.331  1.6059 -0.7170  2.1370
 9208SOL    HW239087   0.400   2.290   7.312 -0.1051  0.5764 -1.9506
 9209SOL     OW39088   1.812   0.732  12.095 -0.0067  0.0284  0.3165
 9209SOL    HW139089   1.732   0.775  12.064  0.0689 -0.4868 -0.5829
 9209SOL    HW239090   1.852   0.815  12.121 -2.5096  1.2159  0.4127
 9210SOL     OW39091   1.853   2.075   1.413  0.2789 -0.1017  0.4630
 9210SOL    HW139092   1.837   2.075   1.319  0.3379 -1.4523  0.4517
 9210SOL    HW239093   1.910   2.150   1.431  2.4976 -1.7346  0.2240
 9211SOL     OW39094   3.555   3.074   0.395  0.4403  0.4776  0.1753
 9211SOL    HW139095   3.553   3.170   0.393  1.0027  0.5298  1.9859
 9211SOL    HW239096   3.643   3.068   0.432  0.2828 -1.7361  0.2076
 9212SOL     OW39097   0.130   3.607   1.242 -0.2435  0.6259  0.0424
 9212SOL    HW139098   0.119   3.684   1.296 -0.4751  0.1342  0.6940
 9212SOL    HW239099   0.201   3.626   1.181  1.6283  1.4993  2.5012
 9213SOL     OW39100   3.696   2.134   3.687  0.2099 -0.1718 -0.0673
 9213SOL    HW139101   3.759   2.195   3.726  0.8737 -2.3365  2.1961
 9213SOL    HW239102   3.695   2.164   3.596  0.2033 -1.7644 -0.5921
 9214SOL     OW39103   2.348   3.285   0.662  0.0716 -0.0777 -0.7785
 9214SOL    HW139104   2.355   3.194   0.634  2.3581  0.1007 -0.8278
 9214SOL    HW239105   2.253   3.296   0.665  0.1827  0.8362 -0.5958
 9215SOL     OW39106   4.229   1.207   4.176 -0.0847  0.3512 -0.0427
 9215SOL    HW139107   4.228   1.165   4.262  1.9004 -0.5100 -0.4469
 9215SOL    HW239108   4.149   1.259   4.188  0.3989  1.3049 -0.8865
 9216SOL     OW39109   0.467   0.658   1.534  0.1550 -0.2955  0.5097
 9216SOL    HW139110   0.404   0.588   1.552 -0.5959  0.1192 -0.4956
 9216SOL    HW239111   0.451   0.713   1.611  0.7937  0.5257  0.0567
 9217SOL     OW39112   0.662   1.524   1.817  0.0728 -0.2331  0.1219
 9217SOL    HW139113   0.602   1.450   1.825 -1.1912  0.9912  1.9787
 9217SOL    HW239114   0.670   1.551   1.908 -1.4861 -0.0289  0.1908
 9218SOL     OW39115   3.853   1.700  15.818  0.8843  0.3016  0.0417
 9218SOL    HW139116   3.862   1.787  15.858  1.7879 -0.0613  0.6348
 9218SOL    HW239117   3.938   1.689  15.776 -0.5626  0.0825 -2.8236
 9219SOL     OW39118   3.539   0.909   4.260 -0.3465  0.4319  0.1311
 9219SOL    HW139119   3.592   0.976   4.304 -0.0758  0.3269 -0.0325
 9219SOL    HW239120   3.565   0.917   4.169  0.5529 -2.8312  0.1078
 9220SOL     OW39121   1.009   1.603  14.594 -0.2268  0.1110 -0.0617
 9220SOL    HW139122   1.044   1.636  14.512 -0.5603 -0.5339 -0.4686
 9220SOL    HW239123   1.018   1.507  14.593  3.1806  0.4525  1.1495
 9221SOL     OW39124   2.021   0.731   6.088  0.0791  0.5517 -0.2442
 9221SOL    HW139125   2.098   0.718   6.142 -1.0829  0.9255  1.4958
 9221SOL    HW239126   1.965   0.654   6.103  2.9640 -2.1799 -3.4450
 9222SOL     OW39127   4.675   3.710   0.467 -0.0950 -0.6727 -0.3641
 9222SOL    HW139128   4.650   3.640   0.528 -0.6439 -0.7575 -0.6888
 9222SOL    HW239129   4.656   3.668   0.383 -2.3603  1.2543 -0.8041
 9223SOL     OW39130   1.584   0.979  14.896 -0.4336  0.0207  0.2787
 9223SOL    HW139131   1.510   0.975  14.957 -0.1134  1.0894  0.7318
 9223SOL    HW239132   1.541   1.039  14.835  1.3117 -1.1966 -2.1681
 9224SOL     OW39133   1.311   0.202   6.520  0.3492 -0.1602  0.4036
 9224SOL    HW139134   1.360   0.183   6.600  1.2902 -1.8263 -0.5734
 9224SOL    HW239135   1.309   0.297   6.512 -0.7931 -0.3291 -1.2949
 9225SOL     OW39136   3.870   0.510   3.219  0.0009 -0.0785  0.2705
 9225SOL    HW139137   3.867   0.415   3.235  0.8682  0.0252  1.0477
 9225SOL    HW239138   3.780   0.528   3.191  0.2787 -1.4315 -1.4977
 9226SOL     OW39139   4.127   3.066  17.413  0.2462  0.0226 -0.1680
 9226SOL    HW139140   4.120   3.085  17.506 -0.2012  1.9870 -0.6144
 9226SOL    HW239141   4.094   3.149  17.380  1.5217  0.3291 -0.6960
 9227SOL     OW39142   4.644   3.183   2.677  0.0012 -0.5432  0.1518
 9227SOL    HW139143   4.710   3.135   2.728  0.3881 -1.3965 -1.1408
 9227SOL    HW239144   4.584   3.207   2.747 -0.0780 -0.1443 -0.0569
 9228SOL     OW39145   3.069   3.143  11.523 -0.7323  0.5814 -0.0962
 9228SOL    HW139146   3.133   3.166  11.455 -0.4792 -0.0335 -0.0734
 9228SOL    HW239147   3.009   3.216  11.510  1.5630  2.5089  0.1534
 9229SOL     OW39148   1.794   3.006  15.013  0.3263  0.4012 -0.2468
 9229SOL    HW139149   1.879   2.962  15.011 -1.0516 -2.3424  0.3343
 9229SOL    HW239150   1.744   2.935  14.972 -0.4300 -0.0826  1.4692
 9230SOL     OW39151   3.424   3.119   1.074  0.5699 -0.1968  0.2865
 9230SOL    HW139152   3.362   3.178   1.116  0.3520 -1.2028  1.3837
 9230SOL    HW239153   3.425   3.043   1.133  0.4891  0.1475  0.7350
 9231SOL     OW39154   2.655   4.458   6.719  0.0817  0.3863 -0.4978
 9231SOL    HW139155   2.645   4.372   6.678  0.6877 -0.7451  1.7310
 9231SOL    HW239156   2.737   4.488   6.679 -0.9050  0.8794 -2.1659
 9232SOL     OW39157   3.448   2.973   8.522 -0.4980 -0.6866  0.3376
 9232SOL    HW139158   3.526   2.948   8.570 -0.1710  0.5893  0.4576
 9232SOL    HW239159   3.425   3.052   8.571  1.1214  0.2896 -0.5008
 9233SOL     OW39160   0.340   4.232   9.249  0.1516  0.4160  0.3621
 9233SOL    HW139161   0.319   4.323   9.232  2.2512  0.8096 -0.1916
 9233SOL    HW239162   0.436   4.237   9.255  0.1099  0.6322  0.8353
 9234SOL     OW39163   1.371   0.361   1.995 -0.0431 -0.0593  0.4595
 9234SOL    HW139164   1.464   0.351   2.016 -0.2911  1.2102  2.2080
 9234SOL    HW239165   1.349   0.269   2.002  3.0695 -0.8015  0.5409
 9235SOL     OW39166   0.800   4.194   1.679  0.1711 -0.1443  0.0866
 9235SOL    HW139167   0.769   4.172   1.767 -0.3557 -1.2592 -0.3779
 9235SOL    HW239168   0.749   4.138   1.621 -2.3445  1.6191  0.6112
 9236SOL     OW39169   0.733   3.883   0.114  0.3197 -0.1623 -0.2730
 9236SOL    HW139170   0.760   3.851   0.200 -1.9218 -0.9843  0.1281
 9236SOL    HW239171   0.811   3.901   0.062  1.6873 -2.4777  0.9660
 9237SOL     OW39172   0.100   0.175   6.929  0.3305  0.1631 -0.0313
 9237SOL    HW139173   0.089   0.147   7.020  1.6713  0.0391  0.0928
 9237SOL    HW239174   0.100   0.270   6.922 -1.9784  0.3615  2.9678
 9238SOL     OW39175   3.090   4.529   7.592  0.6171 -0.1417 -0.8689
 9238SOL    HW139176   3.044   4.536   7.509 -0.4726  1.3172 -0.1347
 9238SOL    HW239177   3.024   4.506   7.658 -0.4020  0.7384 -1.5960
 9239SOL     OW39178   1.193   3.505   5.904 -0.5776 -0.4757 -0.4082
 9239SOL    HW139179   1.150   3.486   5.987 -0.2302  0.5849  0.0092
 9239SOL    HW239180   1.194   3.599   5.885  0.4895 -0.2017  1.0610
 9240SOL     OW39181   0.352   1.273   5.583  0.1278  0.3678 -0.3852
 9240SOL    HW139182   0.263   1.239   5.572 -0.7195  2.6609 -0.4293
 9240SOL    HW239183   0.347   1.340   5.514  0.7592  1.2465  0.4359
 9241SOL     OW39184   1.658   3.531  14.132 -0.3866  0.1714  0.6736
 9241SOL    HW139185   1.637   3.625  14.134  0.3341  0.3898 -1.8326
 9241SOL    HW239186   1.754   3.538  14.124 -0.1710 -1.0175  2.1251
 9242SOL     OW39187   2.627   3.556   6.962  0.4574  0.0924  0.2103
 9242SOL    HW139188   2.617   3.503   7.041 -0.2493 -0.4711 -0.2497
 9242SOL    HW239189   2.701   3.508   6.926 -0.1172 -1.3321  0.9317
 9243SOL     OW39190   2.756   1.851   1.847  0.4266 -0.5367 -0.0891
 9243SOL    HW139191   2.726   1.806   1.767 -1.6295 -0.8331  0.8572
 9243SOL    HW239192   2.712   1.936   1.844  0.1919 -0.7198 -1.8506
 9244SOL     OW39193   3.942   2.617   5.405  0.7293  0.2092 -0.2357
 9244SOL    HW139194   3.914   2.531   5.435  0.6708  0.8405  1.5234
 9244SOL    HW239195   3.940   2.659   5.491  1.5023  0.0296 -0.1306
 9245SOL     OW39196   2.629   0.115   0.550  1.0051  0.0482 -0.3857
 9245SOL    HW139197   2.643   0.074   0.635 -1.9080 -3.2338 -1.4880
 9245SOL    HW239198   2.564   0.180   0.577  1.2422  1.0045 -2.1007
 9246SOL     OW39199   0.634   4.477   8.077 -0.2496 -0.7996  0.9362
 9246SOL    HW139200   0.667   4.424   8.004  0.0763 -0.1889  0.6437
 9246SOL    HW239201   0.574   4.412   8.114 -0.0500 -0.3876  1.9658
 9247SOL     OW39202   2.800   4.627  16.314 -0.3837  0.1313 -0.1409
 9247SOL    HW139203   2.759   4.709  16.343 -0.9219 -0.9065  1.9862
 9247SOL    HW239204   2.740   4.553  16.321 -0.5633  0.2702 -0.1853
 9248SOL     OW39205   2.732   0.578   9.503  0.5236 -0.5247 -0.5357
 9248SOL    HW139206   2.668   0.508   9.492 -1.0105  0.7740  0.0540
 9248SOL    HW239207   2.681   0.642   9.553  1.1247  0.0084 -0.6105
 9249SOL     OW39208   1.696   1.372   4.925 -0.3737 -0.4251 -0.3889
 9249SOL    HW139209   1.661   1.362   4.837 -0.6134 -1.0351 -0.2287
 9249SOL    HW239210   1.733   1.284   4.937  1.4694  0.6358  1.7166
 9250SOL     OW39211   4.230   2.181  11.372 -0.4507  0.1663  0.0620
 9250SOL    HW139212   4.285   2.247  11.330 -3.0582  1.1617 -1.8030
 9250SOL    HW239213   4.278   2.163  11.453  0.4352 -2.9420 -1.1494
 9251SOL     OW39214   0.880   1.608   9.071  0.4030  0.1175  0.2987
 9251SOL    HW139215   0.828   1.641   8.997  0.4687 -1.5513 -0.4973
 9251SOL    HW239216   0.824   1.637   9.143  1.2344  1.4039  0.4195
 9252SOL     OW39217   4.015   2.366   8.729 -0.1552 -0.2111  0.2062
 9252SOL    HW139218   3.972   2.393   8.810 -0.0068 -0.6784  0.4364
 9252SOL    HW239219   4.067   2.292   8.760 -2.0158 -1.5373  0.2157
 9253SOL     OW39220   1.149   1.609   4.939 -0.3319  0.3564 -0.9380
 9253SOL    HW139221   1.225   1.570   4.896 -1.5643 -1.8254 -1.1518
 9253SOL    HW239222   1.177   1.701   4.939  2.4712 -0.5028 -0.8619
 9254SOL     OW39223   3.991   1.919   4.801 -0.1701 -0.4703 -0.4360
 9254SOL    HW139224   4.052   1.871   4.745  0.9307 -1.7519  1.8632
 9254SOL    HW239225   3.958   1.856   4.864 -0.3936  0.6007  0.5290
 9255SOL     OW39226   4.525   3.431  14.293 -0.3438 -0.3113  0.0578
 9255SOL    HW139227   4.509   3.365  14.360  0.7614 -0.6893 -0.0635
 9255SOL    HW239228   4.451   3.492  14.295  0.4430  0.6748 -0.9154
 9256SOL     OW39229   3.908   3.174  13.941 -0.9632 -0.2323  0.7609
 9256SOL    HW139230   3.974   3.222  13.990 -1.4751  3.5321 -2.2238
 9256SOL    HW239231   3.952   3.140  13.863 -0.4656 -0.2792  1.0611
 9257SOL     OW39232   1.513   3.259   6.262 -1.0449 -0.2151 -0.4739
 9257SOL    HW139233   1.503   3.307   6.180  2.1205  2.8402  0.9239
 9257SOL    HW239234   1.547   3.176   6.228 -2.3472 -1.1512  0.5197
 9258SOL     OW39235   1.413   1.007   4.857 -0.2340 -0.5274 -0.0905
 9258SOL    HW139236   1.434   1.100   4.854  0.2060 -0.6126  0.4081
 9258SOL    HW239237   1.501   0.968   4.856 -0.5847 -1.3509  1.6135
 9259SOL     OW39238   3.694   2.649   5.783 -0.6730  0.2666 -0.7859
 9259SOL    HW139239   3.764   2.662   5.719 -0.8967 -0.5956 -1.2016
 9259SOL    HW239240   3.678   2.736   5.820  1.1805  0.3479 -0.1284
 9260SOL     OW39241   0.263   4.227   0.854  0.3151 -0.3420 -0.2689
 9260SOL    HW139242   0.331   4.282   0.893  2.1939 -2.0752 -1.1315
 9260SOL    HW239243   0.311   4.146   0.837  0.5505 -0.1833 -0.3573
 9261SOL     OW39244   1.398   0.266   3.252 -0.2444  0.1528  0.3873
 9261SOL    HW139245   1.442   0.225   3.178 -2.7427  0.2773 -1.1888
 9261SOL    HW239246   1.427   0.357   3.255  0.4498  0.0423 -3.6157
 9262SOL     OW39247   1.501   1.163   2.599  0.0158 -0.3269 -0.6138
 9262SOL    HW139248   1.435   1.226   2.570  1.4842  0.7158 -1.6708
 9262SOL    HW239249   1.526   1.220   2.672 -1.4126  1.9094 -1.8377
 9263SOL     OW39250   1.776   3.540  13.188 -0.4305 -0.0554 -0.3701
 9263SOL    HW139251   1.780   3.616  13.246 -3.8986  0.1554 -0.4341
 9263SOL    HW239252   1.838   3.492  13.243 -0.2461  1.3789  0.6797
 9264SOL     OW39253   2.616   4.605  17.347 -0.7584  0.0859  0.4275
 9264SOL    HW139254   2.651   4.524  17.384 -0.6129 -0.5507 -1.1309
 9264SOL    HW239255   2.660   4.675  17.397 -2.8208  2.2128 -0.7395
 9265SOL     OW39256   3.054   2.835   3.193 -0.1601  0.0689 -0.1052
 9265SOL    HW139257   3.102   2.758   3.224 -1.8098 -0.3403  1.4178
 9265SOL    HW239258   3.080   2.894   3.263  0.7910 -2.7724  1.9189
 9266SOL     OW39259   4.019   3.893   7.613  0.1948 -0.0855 -0.5104
 9266SOL    HW139260   4.022   3.960   7.681  0.6484  0.2626 -0.8677
 9266SOL    HW239261   3.963   3.830   7.657  1.2905 -2.1772 -2.0656
 9267SOL     OW39262   4.711   1.009   7.100 -0.0066 -0.0994  0.0152
 9267SOL    HW139263   4.631   0.981   7.145 -0.0216  1.3581  0.9169
 9267SOL    HW239264   0.043   1.055   7.163  1.5871 -1.0687 -0.6811
 9268SOL     OW39265   4.451   4.522  14.341  0.5189 -0.1257 -0.1780
 9268SOL    HW139266   4.363   4.503  14.373 -0.1843  0.0393 -1.9660
 9268SOL    HW239267   4.499   4.543  14.421  1.4619  1.3938 -1.1306
 9269SOL     OW39268   4.533   2.913  10.571  0.2694  0.8673  1.0171
 9269SOL    HW139269   4.613   2.879  10.609 -0.9531 -2.0901  0.9740
 9269SOL    HW239270   4.514   2.985  10.631  0.0480  3.2756 -1.8750
 9270SOL     OW39271   2.780   1.344   6.484  0.1739 -0.2947 -0.3685
 9270SOL    HW139272   2.863   1.389   6.498  1.0753 -1.9575 -0.3992
 9270SOL    HW239273   2.819   1.273   6.434  1.7686 -0.7923  1.5779
 9271SOL     OW39274   1.086   1.381   4.289  0.0201 -0.4447 -0.4972
 9271SOL    HW139275   1.166   1.372   4.342 -1.0489  1.3735  1.4228
 9271SOL    HW239276   1.057   1.471   4.305  1.4467 -0.0023 -0.3794
 9272SOL     OW39277   2.963   2.032   3.291  0.0747 -0.0758  0.5799
 9272SOL    HW139278   3.053   2.001   3.303  0.0079 -0.1951  0.7642
 9272SOL    HW239279   2.929   2.008   3.377 -0.4068  0.4651  0.5384
 9273SOL     OW39280   0.632   1.067   1.059  0.3402  0.3956 -0.7963
 9273SOL    HW139281   0.664   1.022   0.981  1.5812  1.3340 -0.8192
 9273SOL    HW239282   0.537   1.060   1.064  0.3832  0.4187  0.2557
 9274SOL     OW39283   1.081   2.434   4.259  0.2576 -0.0516 -0.5349
 9274SOL    HW139284   1.138   2.377   4.310  0.7804  0.0718 -0.9710
 9274SOL    HW239285   1.118   2.421   4.171 -2.7914 -0.4463 -1.7702
 9275SOL     OW39286   0.204   1.311   9.565 -0.4519 -0.0369 -0.7987
 9275SOL    HW139287   0.170   1.269   9.644 -1.0081  0.6054 -0.6914
 9275SOL    HW239288   0.284   1.351   9.597 -0.4753  0.8520 -1.8622
 9276SOL     OW39289   1.045   1.469   8.723 -0.3238  0.3152  0.2520
 9276SOL    HW139290   1.077   1.486   8.634 -0.6150 -0.0012  0.0896
 9276SOL    HW239291   0.960   1.438   8.693 -0.3958 -0.1203  0.8863
 9277SOL     OW39292   1.630   3.276   3.612 -0.0688 -0.1273  0.2977
 9277SOL    HW139293   1.570   3.283   3.538  0.0732 -0.0311  0.1929
 9277SOL    HW239294   1.607   3.189   3.645  0.4117 -0.4841 -0.3202
 9278SOL     OW39295   2.233   4.449  10.119  0.0185  0.2931 -0.2442
 9278SOL    HW139296   2.162   4.498  10.079  1.2567  0.0763 -2.7130
 9278SOL    HW239297   2.307   4.504  10.093  0.6275 -0.6505 -0.5160
 9279SOL     OW39298   0.697   2.313   8.360 -0.1821 -0.1887  0.1682
 9279SOL    HW139299   0.784   2.299   8.324 -0.8617 -2.3562 -0.6269
 9279SOL    HW239300   0.728   2.360   8.437 -1.1085  3.9953 -2.0015
 9280SOL     OW39301   3.369   2.972   3.472 -0.0253  0.2592 -0.0747
 9280SOL    HW139302   3.455   3.014   3.470 -0.7077  1.7936  2.1357
 9280SOL    HW239303   3.383   2.909   3.401 -0.7826 -0.0054  0.0137
 9281SOL     OW39304   1.141   0.609  11.980  0.1498  0.2556 -0.2976
 9281SOL    HW139305   1.103   0.523  11.996  0.8433 -0.0450 -0.2404
 9281SOL    HW239306   1.073   0.674  11.964  0.9586  0.7508 -1.7657
 9282SOL     OW39307   3.040   2.079   8.174 -0.3640 -0.4195  0.3915
 9282SOL    HW139308   2.944   2.081   8.168 -0.3565  1.9997  1.2082
 9282SOL    HW239309   3.046   2.080   8.269 -0.2730  0.9184  0.3637
 9283SOL     OW39310   3.313   3.884   7.636 -0.3178  0.3655 -0.1619
 9283SOL    HW139311   3.344   3.817   7.697 -0.0724 -0.0454 -0.7312
 9283SOL    HW239312   3.224   3.851   7.629  0.8774 -2.6284 -1.7750
 9284SOL     OW39313   0.895   3.552   1.800 -0.2147 -0.2225  0.4541
 9284SOL    HW139314   0.966   3.600   1.759 -0.8725 -0.3212 -0.8013
 9284SOL    HW239315   0.935   3.465   1.799 -0.7753 -0.4820  0.5686
 9285SOL     OW39316   3.600   3.036   7.955  0.0036 -0.2539  0.2085
 9285SOL    HW139317   3.567   3.010   8.041 -1.0473  0.9212  0.1451
 9285SOL    HW239318   3.551   2.973   7.902 -0.4271  0.7462 -0.5888
 9286SOL     OW39319   4.040   3.123  14.322  0.6617  0.4435  0.5917
 9286SOL    HW139320   3.963   3.181  14.321 -0.6781 -1.4068 -2.8062
 9286SOL    HW239321   4.044   3.103  14.416  1.0296  0.8975  0.6700
 9287SOL     OW39322   3.990   3.264   7.276  0.4155  0.2420 -0.1329
 9287SOL    HW139323   3.896   3.244   7.267  0.6024 -1.1832  1.0412
 9287SOL    HW239324   4.010   3.318   7.200  1.2131  1.1637  0.7332
 9288SOL     OW39325   0.915   4.186   2.662 -0.6381 -0.3454 -0.1650
 9288SOL    HW139326   0.828   4.205   2.627  0.2810  0.8478 -1.7935
 9288SOL    HW239327   0.935   4.117   2.600  1.4712  0.9470 -0.9122
 9289SOL     OW39328   2.821   0.216   2.969  0.2428  1.2439  0.0971
 9289SOL    HW139329   2.850   0.273   3.040  1.3596  1.6247 -0.6665
 9289SOL    HW239330   2.735   0.257   2.956  0.4730  2.0434  1.1633
 9290SOL     OW39331   2.475   4.405   3.746  0.5474  0.4386 -0.2924
 9290SOL    HW139332   2.493   4.380   3.837  0.6890 -0.5426 -0.5844
 9290SOL    HW239333   2.565   4.429   3.724  1.3254 -1.6520  0.5565
 9291SOL     OW39334   2.570   3.973  15.060  0.3386 -0.2960 -0.2927
 9291SOL    HW139335   2.507   3.938  14.997  0.0779  0.2124 -0.3164
 9291SOL    HW239336   2.552   3.900  15.119  1.1863 -0.8354 -0.7047
 9292SOL     OW39337   1.858   0.849   8.654 -0.0557 -0.3008  0.0116
 9292SOL    HW139338   1.858   0.817   8.564  1.1418 -1.0841  0.2860
 9292SOL    HW239339   1.767   0.834   8.678 -0.1870  1.5435  0.7049
 9293SOL     OW39340   0.059   0.420   3.762  0.0764 -0.1230 -0.1184
 9293SOL    HW139341   0.097   0.346   3.810  0.0541 -1.4545 -2.1587
 9293SOL    HW239342   4.692   0.409   3.793  0.3261  2.2690  1.5219
 9294SOL     OW39343   1.738   2.171   2.140  0.1974  0.5537 -0.1725
 9294SOL    HW139344   1.661   2.208   2.097 -0.4083  1.1888  1.4508
 9294SOL    HW239345   1.816   2.205   2.095  0.0185 -1.3318 -1.8806
 9295SOL     OW39346   0.778   1.554  11.284 -0.0317 -0.3130 -0.4198
 9295SOL    HW139347   0.848   1.619  11.276  0.5576 -1.0696 -1.3374
 9295SOL    HW239348   0.706   1.614  11.266 -0.6130 -0.6587  0.6955
 9296SOL     OW39349   1.171   2.531  16.257 -0.1453 -0.4856 -0.2703
 9296SOL    HW139350   1.122   2.477  16.318  0.9827  0.3050  1.3382
 9296SOL    HW239351   1.102   2.594  16.238 -0.0275 -0.7321 -1.5386
 9297SOL     OW39352   4.066   1.427  10.957 -0.1140 -0.1001 -0.2652
 9297SOL    HW139353   4.099   1.338  10.969 -1.3059 -0.4587  0.3202
 9297SOL    HW239354   4.060   1.425  10.862 -0.8944 -0.4695 -0.2021
 9298SOL     OW39355   2.360   1.559   3.530  0.6043  0.8347 -0.0242
 9298SOL    HW139356   2.315   1.620   3.589 -0.5996 -0.8859  0.8348
 9298SOL    HW239357   2.452   1.587   3.532  0.6136  0.8854 -1.2278
 9299SOL     OW39358   3.923   0.672   5.604 -0.2315  0.3165  0.0409
 9299SOL    HW139359   3.900   0.764   5.591  1.8591  0.9526  0.8830
 9299SOL    HW239360   3.885   0.661   5.691  0.1217  2.0566  0.4269
 9300SOL     OW39361   3.534   1.680   2.979  0.0620  0.2064 -0.0836
 9300SOL    HW139362   3.560   1.598   2.938  0.4858  0.7749 -0.9502
 9300SOL    HW239363   3.562   1.662   3.069 -0.1892  2.0357  0.3578
 9301SOL     OW39364   4.042   3.549   8.981  0.0630 -0.6666  0.3398
 9301SOL    HW139365   3.947   3.550   8.979  0.0507 -3.7075 -0.4669
 9301SOL    HW239366   4.071   3.493   8.909 -0.3198  1.7797 -1.6822
 9302SOL     OW39367   2.884   2.817   5.560 -0.0135  0.5988  0.4507
 9302SOL    HW139368   2.839   2.736   5.538  2.6177 -0.4103 -1.0763
 9302SOL    HW239369   2.905   2.809   5.653 -0.7485 -0.3255  0.5387
 9303SOL     OW39370   3.572   1.269  10.503 -0.1349 -0.2361 -0.1125
 9303SOL    HW139371   3.667   1.268  10.516 -0.0131  1.1030 -0.8354
 9303SOL    HW239372   3.540   1.185  10.535 -1.8707  0.0230 -1.1620
 9304SOL     OW39373   4.697   2.602   5.699 -0.3219  0.1784 -0.1524
 9304SOL    HW139374   4.615   2.650   5.715  0.5843  2.1453 -1.4539
 9304SOL    HW239375   4.671   2.511   5.716 -0.6722 -0.1445 -2.5017
 9305SOL     OW39376   0.191   0.440   9.369 -0.1024  0.2371 -0.1039
 9305SOL    HW139377   0.098   0.458   9.354  0.5946  1.2790 -3.1793
 9305SOL    HW239378   0.211   0.425   9.277  0.1695  1.2149 -0.2066
 9306SOL     OW39379   1.911   1.229   0.677  0.1028  0.2510  0.5842
 9306SOL    HW139380   1.895   1.202   0.586 -0.4197 -0.9503  1.0289
 9306SOL    HW239381   1.890   1.148   0.725  0.0231  0.2602  0.5660
 9307SOL     OW39382   2.925   1.154   7.364 -0.1373  0.1220  0.0803
 9307SOL    HW139383   2.882   1.222   7.311 -1.9839 -0.5006  0.7544
 9307SOL    HW239384   2.889   1.175   7.450 -0.3772  3.5715 -0.8672
 9308SOL     OW39385   4.518   0.314   8.081  0.1701  0.1487 -0.1168
 9308SOL    HW139386   4.556   0.228   8.101 -1.2604 -0.6540 -0.7614
 9308SOL    HW239387   4.464   0.291   8.005 -0.3755 -0.3295  0.4130
 9309SOL     OW39388   4.269   0.063   7.085 -0.1002 -0.1744  0.4242
 9309SOL    HW139389   4.188   0.030   7.124 -2.1397  3.8375 -0.4670
 9309SOL    HW239390   4.330   0.038   7.155  0.9299  2.4068  0.4185
 9310SOL     OW39391   1.983   3.081   3.941  0.6565 -0.0183 -0.4584
 9310SOL    HW139392   2.000   3.152   3.879 -2.3947  0.8353 -0.3129
 9310SOL    HW239393   1.986   3.116   4.030 -1.2961  2.1893 -1.2608
 9311SOL     OW39394   2.966   4.589   2.415 -0.5193  0.5703  0.4313
 9311SOL    HW139395   3.029   4.660   2.426  1.3110 -0.8539 -0.9060
 9311SOL    HW239396   3.020   4.513   2.434 -0.5605 -0.0420 -1.8813
 9312SOL     OW39397   1.196   1.802  15.737  0.2664  0.6849 -0.2473
 9312SOL    HW139398   1.115   1.751  15.743  1.2483 -0.6907  1.3936
 9312SOL    HW239399   1.153   1.885  15.718 -1.9107 -0.5474 -0.7325
 9313SOL     OW39400   2.633   3.546  11.854 -0.2970  0.1046  0.3028
 9313SOL    HW139401   2.601   3.629  11.890 -0.2795 -0.2224  1.0499
 9313SOL    HW239402   2.626   3.492  11.932  0.8311 -1.3436 -0.5869
 9314SOL     OW39403   2.206   3.850   9.847 -0.2976  0.6090  0.0037
 9314SOL    HW139404   2.166   3.928   9.809 -1.1139  0.4057  0.4498
 9314SOL    HW239405   2.202   3.787   9.775 -1.4097  0.5672  0.1102
 9315SOL     OW39406   3.515   0.745   8.749 -0.5185 -0.1446 -0.1051
 9315SOL    HW139407   3.517   0.682   8.821 -0.6704  0.4724  0.4461
 9315SOL    HW239408   3.480   0.688   8.681 -0.2216 -3.1149  2.2729
 9316SOL     OW39409   4.018   4.596   3.866  0.7388  0.1810 -1.0167
 9316SOL    HW139410   4.036   4.682   3.829 -1.7405  1.3603  0.5327
 9316SOL    HW239411   4.105   4.556   3.868  0.1760 -0.9291  1.7716
 9317SOL     OW39412   4.400   1.392  14.136 -0.3308 -0.2751  0.0939
 9317SOL    HW139413   4.482   1.439  14.124 -1.2405  1.3951  0.5320
 9317SOL    HW239414   4.375   1.424  14.222 -0.7883 -1.1986  0.3075
 9318SOL     OW39415   1.685   0.973  17.377 -0.2972  0.8425 -0.7340
 9318SOL    HW139416   1.702   0.962  17.470 -0.7042 -1.2543 -0.9075
 9318SOL    HW239417   1.726   1.057  17.355 -0.6404  1.4615  1.0359
 9319SOL     OW39418   0.861   2.905   4.930 -0.8937 -0.3488 -1.0161
 9319SOL    HW139419   0.806   2.851   4.987  1.6308 -0.9383  0.8743
 9319SOL    HW239420   0.828   2.993   4.948  1.5926  0.1282  1.2087
 9320SOL     OW39421   4.373   0.598   2.147  0.0411  0.1712  1.0053
 9320SOL    HW139422   4.327   0.637   2.073  0.9001 -1.2303 -0.2640
 9320SOL    HW239423   4.414   0.681   2.172 -0.1815  0.6477 -0.1805
 9321SOL     OW39424   2.570   3.409   7.187 -0.1060  0.3532  0.0783
 9321SOL    HW139425   2.495   3.456   7.222 -1.7692 -1.2969 -1.2905
 9321SOL    HW239426   2.603   3.354   7.259 -0.1027  1.5013  0.9525
 9322SOL     OW39427   3.410   1.531   8.805  0.2279  1.0028 -0.8349
 9322SOL    HW139428   3.423   1.511   8.712 -0.9213 -0.3310 -0.7040
 9322SOL    HW239429   3.328   1.483   8.813  0.8678 -0.0950 -0.7199
 9323SOL     OW39430   2.777   1.711   5.407 -0.2479 -0.3820  0.4399
 9323SOL    HW139431   2.784   1.721   5.311 -1.1228  0.1811  0.4393
 9323SOL    HW239432   2.696   1.757   5.426 -0.3185  0.1340 -1.0863
 9324SOL     OW39433   0.415   3.695   3.238  0.0054 -0.2192  0.2814
 9324SOL    HW139434   0.347   3.698   3.170  1.9276  1.1518 -1.5734
 9324SOL    HW239435   0.491   3.704   3.180  0.3381 -0.7004  0.6399
 9325SOL     OW39436   4.002   3.024   4.879  0.4546 -0.2500  0.0818
 9325SOL    HW139437   3.935   2.961   4.907 -0.1025  0.4916  0.3913
 9325SOL    HW239438   4.077   3.009   4.937  0.2542  1.8108  0.8577
 9326SOL     OW39439   0.561   3.725   4.922  0.1354  0.7081 -0.2260
 9326SOL    HW139440   0.619   3.766   4.858  0.8019  0.3221  0.1322
 9326SOL    HW239441   0.479   3.775   4.924  0.8179  1.8110  0.1859
 9327SOL     OW39442   2.582   4.536  15.441 -0.4542 -0.0971 -0.8158
 9327SOL    HW139443   2.621   4.462  15.394  0.3556  0.1838 -0.6012
 9327SOL    HW239444   2.655   4.597  15.431 -0.9632  0.2047 -2.6693
 9328SOL     OW39445   4.641   1.473  16.200  0.1983  0.3464 -0.0702
 9328SOL    HW139446   4.627   1.525  16.121  0.1442 -1.0091 -0.9394
 9328SOL    HW239447   4.722   1.425  16.183  1.1524  2.4838 -1.6200
 9329SOL     OW39448   3.118   3.475   6.952  0.2539  0.0718 -0.5480
 9329SOL    HW139449   3.180   3.432   7.011 -0.9821  0.9108  1.3345
 9329SOL    HW239450   3.148   3.451   6.864  0.3398 -0.2025 -0.4447
 9330SOL     OW39451   2.503   0.312   1.165 -1.0792 -0.2161  0.0990
 9330SOL    HW139452   2.412   0.315   1.194 -1.0718  2.1889 -0.1202
 9330SOL    HW239453   2.519   0.218   1.164 -0.0174 -0.0155 -3.0358
 9331SOL     OW39454   4.660   4.573  17.416  0.3946  0.1032  0.2089
 9331SOL    HW139455   4.649   4.481  17.440  2.2887 -0.7984 -2.4704
 9331SOL    HW239456   4.699   4.560  17.330  0.1686 -1.2659  0.3135
 9332SOL     OW39457   1.918   2.950   4.929  0.1210  0.1951 -0.2881
 9332SOL    HW139458   1.974   2.905   4.866 -0.4420  2.1278 -2.1942
 9332SOL    HW239459   1.880   3.022   4.878 -0.9239 -0.5565 -0.5765
 9333SOL     OW39460   2.647   4.609   4.103  0.2694 -0.1285 -0.7057
 9333SOL    HW139461   2.637   4.692   4.057  0.6002 -0.0650 -0.6638
 9333SOL    HW239462   2.728   4.624   4.151  0.3209 -1.2713 -0.4267
 9334SOL     OW39463   0.519   1.826   2.439  0.5742 -0.5698  0.5579
 9334SOL    HW139464   0.604   1.785   2.426 -0.0697 -1.5791 -0.5719
 9334SOL    HW239465   0.488   1.782   2.518 -0.0250 -0.4088  0.4174
 9335SOL     OW39466   1.752   4.226  15.101 -0.0126 -0.0779 -0.3824
 9335SOL    HW139467   1.704   4.158  15.148  2.6904 -3.0945 -1.9959
 9335SOL    HW239468   1.839   4.186  15.093 -0.6383 -1.3644 -0.7070
 9336SOL     OW39469   1.568   2.860  17.337  0.3364 -0.8570 -0.3958
 9336SOL    HW139470   1.593   2.849  17.245  1.7168  2.0789 -0.3524
 9336SOL    HW239471   1.527   2.778  17.365 -1.2548  0.0991  0.0711
 9337SOL     OW39472   0.652   0.458  12.033  0.5075 -0.3287 -0.4961
 9337SOL    HW139473   0.713   0.505  12.090 -1.4402  1.8598 -0.2162
 9337SOL    HW239474   0.712   0.395  11.993  1.1480 -0.3832  0.5570
 9338SOL     OW39475   0.021   1.964   5.750  0.2348  0.1231  0.3269
 9338SOL    HW139476   0.073   1.896   5.794  0.2463 -0.0582  0.0363
 9338SOL    HW239477   4.657   1.928   5.741  1.6080 -2.1686 -4.0647
 9339SOL     OW39478   1.308   4.348   1.699  0.2103 -0.2270  0.2917
 9339SOL    HW139479   1.241   4.309   1.644 -0.1636  2.2945 -1.0429
 9339SOL    HW239480   1.297   4.443   1.694  0.0587 -0.1836  1.5112
 9340SOL     OW39481   2.366   4.093   6.403 -0.1290  0.2706 -0.1676
 9340SOL    HW139482   2.462   4.093   6.410 -0.2504 -0.6195  1.5206
 9340SOL    HW239483   2.347   4.152   6.476  0.4452 -0.4769  0.5989
 9341SOL     OW39484   4.661   4.577   8.376  0.3612 -0.4428 -0.4294
 9341SOL    HW139485   0.026   4.576   8.342  0.8692 -2.2562  0.9506
 9341SOL    HW239486   4.686   4.556   8.466 -1.2560 -1.0769 -0.1113
 9342SOL     OW39487   1.482   1.553  10.181 -0.1682 -0.0298  0.1978
 9342SOL    HW139488   1.512   1.628  10.232  0.5865 -1.1529  1.4016
 9342SOL    HW239489   1.477   1.491  10.253  0.9371  1.4928  1.5656
 9343SOL     OW39490   4.665   3.746  16.502 -0.3013 -0.5408 -0.1136
 9343SOL    HW139491   4.686   3.794  16.582  0.2748 -2.4814  0.8768
 9343SOL    HW239492   0.028   3.754  16.463  0.9811 -2.4029  2.4257
 9344SOL     OW39493   3.639   0.579  10.280 -0.1349  0.2442  1.0006
 9344SOL    HW139494   3.571   0.554  10.217 -0.8096  0.0449  1.8123
 9344SOL    HW239495   3.589   0.623  10.349 -0.5267  1.8622 -0.3188
 9345SOL     OW39496   0.913   0.591   7.841  0.3133 -0.4165  0.1037
 9345SOL    HW139497   0.893   0.498   7.833  0.6119 -0.3643 -1.1879
 9345SOL    HW239498   0.852   0.625   7.906 -0.4007 -0.1804 -0.6925
 9346SOL     OW39499   4.466   3.628  10.209  0.3692  0.1990 -0.4004
 9346SOL    HW139500   4.540   3.596  10.261  2.0029  2.1529 -1.5025
 9346SOL    HW239501   4.404   3.559  10.230  1.2217 -0.3656  0.2646
 9347SOL     OW39502   3.887   3.312   9.112  0.2780 -0.4734 -0.4274
 9347SOL    HW139503   3.977   3.340   9.125  0.2543 -0.8229  0.4962
 9347SOL    HW239504   3.852   3.333   9.199  1.9553 -1.0531  0.3912
 9348SOL     OW39505   3.508   0.253   6.296  0.8206  0.0132  0.3462
 9348SOL    HW139506   3.560   0.334   6.294 -3.8075  2.9231 -1.8515
 9348SOL    HW239507   3.551   0.204   6.366  2.8170 -1.0684 -1.6425
 9349SOL     OW39508   0.565   1.535   4.000 -0.0916 -0.0976  0.1982
 9349SOL    HW139509   0.617   1.586   3.938 -1.4192 -0.0502 -0.8569
 9349SOL    HW239510   0.535   1.461   3.948 -2.6176  1.9523 -1.2636
 9350SOL     OW39511   4.120   2.205  16.291 -0.3523 -0.1962 -0.4864
 9350SOL    HW139512   4.201   2.248  16.319 -0.9017  0.8693 -0.5046
 9350SOL    HW239513   4.057   2.272  16.320  0.7267  0.3056  0.6954
 9351SOL     OW39514   1.117   4.486   4.514  0.3708  0.3865 -0.3751
 9351SOL    HW139515   1.204   4.500   4.552  1.6450  0.4603 -3.3185
 9351SOL    HW239516   1.129   4.394   4.492  0.1260  0.2500  0.0659
 9352SOL     OW39517   3.010   4.573   2.771  0.1257 -0.0348  0.0641
 9352SOL    HW139518   2.930   4.522   2.782  1.7309 -2.4899  0.4666
 9352SOL    HW239519   2.985   4.656   2.731 -1.8257 -0.4576  0.4085
 9353SOL     OW39520   4.266   3.314  13.325  0.1203 -0.2524  0.3860
 9353SOL    HW139521   4.244   3.386  13.384 -0.5730  0.5851 -0.8907
 9353SOL    HW239522   4.355   3.343  13.305  0.1297  0.3311  1.2563
 9354SOL     OW39523   3.366   2.037   3.829 -0.0800 -0.3841 -0.2110
 9354SOL    HW139524   3.377   1.942   3.834 -1.6772 -0.5532  0.0149
 9354SOL    HW239525   3.444   2.060   3.779  1.0403  1.0261  2.1676
 9355SOL     OW39526   0.620   4.402  15.116  0.4349 -0.1952  0.2545
 9355SOL    HW139527   0.684   4.393  15.186  1.0468 -0.8464 -0.3841
 9355SOL    HW239528   0.559   4.329  15.129  0.7338 -0.4804  0.0746
 9356SOL     OW39529   1.452   3.623   4.548 -0.0839 -0.1303 -0.3817
 9356SOL    HW139530   1.502   3.633   4.467 -0.1475  0.1196 -0.3898
 9356SOL    HW239531   1.438   3.528   4.551  0.1472 -0.0936  1.8295
 9357SOL     OW39532   2.693   4.207   4.770  0.1344 -0.0516 -0.3410
 9357SOL    HW139533   2.736   4.251   4.843  1.6138  1.6094 -2.2261
 9357SOL    HW239534   2.655   4.132   4.814 -0.2993 -0.6127 -1.6705
 9358SOL     OW39535   1.507   0.027   3.796  0.5672 -0.0062  0.6028
 9358SOL    HW139536   1.570   4.687   3.828  0.6249 -0.1565  0.1984
 9358SOL    HW239537   1.440   0.015   3.863  0.7164 -1.1132  0.5528
 9359SOL     OW39538   3.068   1.786  17.102  0.5964  0.2186 -0.1202
 9359SOL    HW139539   3.099   1.710  17.152  0.9149  0.5759  0.2252
 9359SOL    HW239540   3.014   1.840  17.159  0.4153  0.1008 -0.1817
 9360SOL     OW39541   3.840   0.114   8.100  0.0641  0.7902  0.1800
 9360SOL    HW139542   3.896   0.074   8.166 -0.9018 -0.6238  0.1358
 9360SOL    HW239543   3.838   0.051   8.028  3.6748  1.0036 -0.1195
 9361SOL     OW39544   1.592   1.562  14.163  0.4593 -0.3464 -0.2062
 9361SOL    HW139545   1.581   1.612  14.244 -1.6451  2.8561 -2.4703
 9361SOL    HW239546   1.687   1.552  14.162  0.3714 -1.3565  0.9504
 9362SOL     OW39547   4.387   3.411   1.142 -0.1595  0.4630 -0.1251
 9362SOL    HW139548   4.347   3.325   1.130  0.9831 -0.2459  1.1488
 9362SOL    HW239549   4.473   3.382   1.174 -0.6365  1.8405  2.3592
 9363SOL     OW39550   1.589   0.672   1.555 -0.2773 -0.5267 -0.3785
 9363SOL    HW139551   1.498   0.668   1.527 -0.0170  0.0917 -1.3290
 9363SOL    HW239552   1.569   0.683   1.648  0.9869 -1.4595  0.0035
 9364SOL     OW39553   2.065   4.546   0.538  0.1289  0.2306  0.3455
 9364SOL    HW139554   2.103   4.458   0.545 -0.3955  0.2313  2.9914
 9364SOL    HW239555   1.979   4.526   0.501  0.3585  0.3919 -0.2901
 9365SOL     OW39556   3.433   2.915   4.862  0.0782 -0.2114 -0.4069
 9365SOL    HW139557   3.339   2.899   4.857  0.2215 -0.6670 -1.6571
 9365SOL    HW239558   3.452   2.891   4.953  0.2370  1.2981 -0.0513
 9366SOL     OW39559   3.237   1.876   5.168 -0.5704 -0.2584  0.4741
 9366SOL    HW139560   3.287   1.828   5.234  1.0774  1.7994  0.7208
 9366SOL    HW239561   3.158   1.822   5.177 -0.5366 -0.1868  1.1986
 9367SOL     OW39562   0.007   3.761   7.514 -0.1979  0.0352  0.5072
 9367SOL    HW139563   4.656   3.730   7.567  0.9063  0.5120  2.3448
 9367SOL    HW239564   0.071   3.784   7.581 -0.5855  2.1333  0.1694
 9368SOL     OW39565   2.722   0.954   1.267  0.4037  0.0250 -0.3534
 9368SOL    HW139566   2.795   1.015   1.254  0.0997  0.0092 -1.9992
 9368SOL    HW239567   2.652   1.011   1.238  0.4914  0.2761 -0.0711
 9369SOL     OW39568   4.165   4.114   7.372  0.1107  0.7882 -0.3845
 9369SOL    HW139569   4.234   4.056   7.338  0.6690  1.6830 -0.7630
 9369SOL    HW239570   4.224   4.163   7.429  1.1583 -1.1594  0.2130
 9370SOL     OW39571   1.683   4.664   6.764  0.1919 -0.1736  0.2425
 9370SOL    HW139572   1.721   4.593   6.816  1.2203 -0.8257 -1.4173
 9370SOL    HW239573   1.743   4.674   6.691 -1.7174  1.4055 -1.0943
 9371SOL     OW39574   0.514   3.098   3.568 -0.0444 -0.0902  0.3271
 9371SOL    HW139575   0.526   3.018   3.618 -1.1621 -0.0662  0.6423
 9371SOL    HW239576   0.517   3.157   3.643  0.6320  0.8420 -0.4370
 9372SOL     OW39577   1.018   2.445  16.508  0.2316  0.5364  0.5331
 9372SOL    HW139578   0.930   2.423  16.476 -0.2423 -0.3924  2.5041
 9372SOL    HW239579   1.027   2.398  16.591 -0.1753 -0.5944 -0.0663
 9373SOL     OW39580   3.968   0.841  10.996 -0.3208  0.0891  0.6133
 9373SOL    HW139581   3.993   0.797  11.077  0.1525 -2.4865 -0.9182
 9373SOL    HW239582   3.908   0.904  11.035  0.9738  2.4354 -1.1495
 9374SOL     OW39583   2.239   3.523   2.036 -0.0616 -0.5746 -0.0504
 9374SOL    HW139584   2.306   3.455   2.027 -1.4341 -1.8718 -0.5378
 9374SOL    HW239585   2.205   3.502   2.123  0.1219  2.4768  0.7395
 9375SOL     OW39586   3.819   2.608   7.374  0.8004  0.0235  0.0291
 9375SOL    HW139587   3.914   2.595   7.383  1.0861  1.5845 -0.7673
 9375SOL    HW239588   3.793   2.597   7.465 -3.3094  1.6952 -0.9616
 9376SOL     OW39589   3.523   1.849   9.961  0.4306  0.0924  0.1337
 9376SOL    HW139590   3.579   1.849  10.039 -0.5166 -0.3026  0.8090
 9376SOL    HW239591   3.576   1.885   9.890  1.4471  0.5800  1.1428
 9377SOL     OW39592   2.044   0.582   4.673  0.0140  0.0289 -0.5184
 9377SOL    HW139593   2.052   0.562   4.580 -0.1358  2.5973 -1.0674
 9377SOL    HW239594   2.115   0.520   4.693  0.7074  0.8425 -0.4711
 9378SOL     OW39595   0.241   3.803  13.244  0.0223 -0.2892 -0.5653
 9378SOL    HW139596   0.194   3.721  13.257 -0.5582  0.2966  1.0081
 9378SOL    HW239597   0.166   3.856  13.216  1.5916  0.9804 -2.2870
 9379SOL     OW39598   0.399   1.445   2.494 -0.1088  0.9717  0.2843
 9379SOL    HW139599   0.312   1.436   2.457 -0.2222  0.3780  0.6973
 9379SOL    HW239600   0.404   1.366   2.548  0.0812  2.0158  1.7946
 9380SOL     OW39601   0.681   1.399  11.518  0.4318  0.6207 -0.1024
 9380SOL    HW139602   0.620   1.456  11.471  1.2464  1.1240 -0.5375
 9380SOL    HW239603   0.763   1.442  11.493  1.8559 -0.6916  2.2853
 9381SOL     OW39604   3.699   4.668   0.987  0.5727 -0.1612  0.0548
 9381SOL    HW139605   3.758   4.655   0.912  0.1076 -0.3278 -0.2816
 9381SOL    HW239606   3.759   4.623   1.046  1.0418  2.0634  1.2747
 9382SOL     OW39607   0.367   2.316   3.694 -0.0177  0.5554 -0.8481
 9382SOL    HW139608   0.418   2.299   3.773  0.5312 -1.1871 -1.5846
 9382SOL    HW239609   0.357   2.410   3.709  1.2542  0.2763  1.7062
 9383SOL     OW39610   0.124   2.040   1.970  0.8026 -0.1698 -0.0350
 9383SOL    HW139611   0.041   2.033   1.924 -0.6335  0.2090  2.4792
 9383SOL    HW239612   0.185   2.020   1.899  0.7045 -0.6018  0.0031
 9384SOL     OW39613   2.389   0.748   3.019  0.2010  0.1151  0.1534
 9384SOL    HW139614   2.334   0.800   2.961 -0.3485  0.3096  0.8548
 9384SOL    HW239615   2.456   0.811   3.046  0.5523 -0.8143  1.4528
 9385SOL     OW39616   4.453   2.061   1.332 -0.1045  0.2217  0.0772
 9385SOL    HW139617   4.477   2.141   1.286  0.6326 -0.0105  0.0484
 9385SOL    HW239618   4.540   2.022   1.344  0.5670  2.1816  1.5735
 9386SOL     OW39619   0.931   2.655  11.358  0.5395 -0.1935 -0.2684
 9386SOL    HW139620   0.919   2.676  11.266  0.4060  0.3821 -0.1200
 9386SOL    HW239621   0.843   2.673  11.391  0.7276 -3.8994  2.3849
 9387SOL     OW39622   2.252   2.908   1.979  0.3297  0.1734 -0.0063
 9387SOL    HW139623   2.304   2.856   1.917  0.7769  0.5496  0.0491
 9387SOL    HW239624   2.201   2.958   1.915  0.8934 -0.9693 -1.3475
 9388SOL     OW39625   4.030   0.855   6.281 -0.2858 -0.2191  0.2766
 9388SOL    HW139626   4.118   0.822   6.265  0.1721  0.6990  0.8570
 9388SOL    HW239627   4.023   0.930   6.222 -1.5033 -1.0408 -0.6270
 9389SOL     OW39628   3.757   4.671   6.928 -0.5316 -0.3316  0.1783
 9389SOL    HW139629   3.802   4.614   6.990 -2.2244  0.3052  1.9949
 9389SOL    HW239630   3.826   0.002   6.891  1.1587 -3.2344 -0.9903
 9390SOL     OW39631   0.174   0.523   1.660 -0.0880  0.5478 -0.8601
 9390SOL    HW139632   0.154   0.593   1.598  2.5391  0.9122 -1.2964
 9390SOL    HW239633   0.124   0.457   1.612 -1.9359  0.9755  0.4929
 9391SOL     OW39634   0.082   3.563  13.226 -0.6725  0.0873 -0.2226
 9391SOL    HW139635   0.041   3.536  13.308 -1.2933 -0.9535 -0.8805
 9391SOL    HW239636   0.006   3.594  13.175 -0.4145  0.6695 -0.2532
 9392SOL     OW39637   1.807   2.980   7.989  0.1843 -0.3393 -0.8918
 9392SOL    HW139638   1.899   3.003   7.971  0.1815  0.5911  0.2199
 9392SOL    HW239639   1.815   2.896   8.033  0.3538 -0.0703 -0.4008
 9393SOL     OW39640   0.185   4.524   8.147 -0.4775 -0.1225 -0.2510
 9393SOL    HW139641   0.173   4.619   8.151  0.5407 -0.0229  0.4312
 9393SOL    HW239642   0.201   4.503   8.239 -0.1833  0.7313 -0.0969
 9394SOL     OW39643   0.402   4.126   6.044 -0.0336 -0.4818 -0.4786
 9394SOL    HW139644   0.494   4.150   6.030 -0.0777  1.0994  1.8411
 9394SOL    HW239645   0.371   4.171   5.966  0.0072 -0.1305 -0.2919
 9395SOL     OW39646   3.908   1.627   1.721  0.0703 -0.2778  0.2300
 9395SOL    HW139647   3.987   1.576   1.738  1.6474  2.8070  2.0529
 9395SOL    HW239648   3.947   1.704   1.678 -0.8130 -0.3239 -0.6633
 9396SOL     OW39649   1.171   1.261   5.063  0.1097 -0.7996  0.7349
 9396SOL    HW139650   1.163   1.296   5.151  0.8902  2.7858 -0.6213
 9396SOL    HW239651   1.210   1.175   5.082 -1.8702 -2.3105 -1.9537
 9397SOL     OW39652   1.745   3.588  14.981 -0.2060  0.2982 -0.1402
 9397SOL    HW139653   1.781   3.499  14.989 -0.9222 -0.0330 -0.6368
 9397SOL    HW239654   1.766   3.612  14.891  1.6788  0.8746  0.4459
 9398SOL     OW39655   4.609   2.786   3.911  0.0874  0.4504 -0.3239
 9398SOL    HW139656   4.657   2.707   3.890  0.5180  0.6270 -0.0179
 9398SOL    HW239657   4.518   2.771   3.889  0.6382 -0.8074 -1.6722
 9399SOL     OW39658   3.096   2.995   0.052 -0.4072 -0.0283  0.2685
 9399SOL    HW139659   3.177   3.037   0.081 -1.0292  0.3759  1.4167
 9399SOL    HW239660   3.073   3.042  17.669  1.2411  1.6376  0.7673
 9400SOL     OW39661   0.582   3.301  10.276  0.3926  0.3999 -0.9127
 9400SOL    HW139662   0.534   3.295  10.359 -0.0405 -2.3136 -1.3790
 9400SOL    HW239663   0.512   3.313  10.212  0.4165 -1.4782 -1.2646
 9401SOL     OW39664   2.213   2.783  11.481 -0.2605  0.4828  0.0339
 9401SOL    HW139665   2.119   2.789  11.459 -0.6971  0.8353  2.0389
 9401SOL    HW239666   2.220   2.830  11.564 -1.1011  0.5305  0.0864
 9402SOL     OW39667   4.519   1.626   7.076 -0.4112 -0.7409  0.5270
 9402SOL    HW139668   4.492   1.704   7.029  1.3438 -0.3281  0.2388
 9402SOL    HW239669   4.457   1.566   7.034  0.6863 -0.7353 -1.0566
 9403SOL     OW39670   0.269   1.622   3.159  0.3304 -0.0977 -0.2150
 9403SOL    HW139671   0.238   1.625   3.068 -0.9413  1.6668  0.2751
 9403SOL    HW239672   0.264   1.715   3.183  0.3352  0.0705 -0.8498
 9404SOL     OW39673   2.308   4.533   4.503 -0.1567 -0.5105  0.0348
 9404SOL    HW139674   2.353   4.480   4.570 -0.0564 -1.2139 -0.5875
 9404SOL    HW239675   2.221   4.494   4.495 -1.0424  1.0935  1.7933
 9405SOL     OW39676   3.770   0.125   0.278 -0.2502  0.0811 -0.1551
 9405SOL    HW139677   3.821   0.200   0.244  0.4678  0.4305  1.6934
 9405SOL    HW239678   3.788   0.051   0.220  1.5120  0.5898 -0.2882
 9406SOL     OW39679   1.462   3.446   8.598 -0.4264 -0.3469 -0.5546
 9406SOL    HW139680   1.474   3.525   8.546 -1.3276  0.4457  0.4238
 9406SOL    HW239681   1.423   3.480   8.678  0.3185 -0.8200  0.0016
 9407SOL     OW39682   2.382   4.692  16.331  0.5534  0.0641 -0.6750
 9407SOL    HW139683   2.339   0.049  16.361 -2.6584 -0.8098 -2.8758
 9407SOL    HW239684   2.384   0.002  16.241  1.8672 -0.7626 -0.9568
 9408SOL     OW39685   2.091   1.919   8.380  0.1777  0.2683 -0.1358
 9408SOL    HW139686   2.010   1.872   8.403 -0.4927  0.8595 -1.3084
 9408SOL    HW239687   2.058   2.009   8.386  1.9132  0.9210 -0.6299
 9409SOL     OW39688   0.944   0.902  14.737 -0.1669  0.0046  0.8460
 9409SOL    HW139689   0.905   0.987  14.760 -0.3449  0.4027 -0.9268
 9409SOL    HW239690   0.961   0.869  14.825  1.9635  0.8332  0.7645
 9410SOL     OW39691   3.876   1.514   2.110  0.0244  0.6518 -0.0328
 9410SOL    HW139692   3.857   1.582   2.045  0.5061  1.4289  0.6404
 9410SOL    HW239693   3.799   1.526   2.166 -0.8760  1.0699 -1.3649
 9411SOL     OW39694   1.952   1.870   7.995 -0.0827 -0.0839 -0.8792
 9411SOL    HW139695   2.043   1.861   8.022 -0.9616 -3.7578  0.8573
 9411SOL    HW239696   1.955   1.952   7.946  0.5842  0.0941 -0.5357
 9412SOL     OW39697   4.319   3.251  12.869  0.6542  0.0996 -0.5131
 9412SOL    HW139698   4.298   3.338  12.902 -2.0053 -1.4782  1.9183
 9412SOL    HW239699   4.269   3.244  12.787 -0.4682 -0.3454  0.2051
 9413SOL     OW39700   1.380   1.921  16.762 -0.2758  0.7003 -0.4385
 9413SOL    HW139701   1.349   1.925  16.671  0.8544 -0.3461 -0.8680
 9413SOL    HW239702   1.366   2.012  16.789  2.7206  1.4157 -1.2997
 9414SOL     OW39703   4.653   0.249  10.860  0.5292  0.2853  0.0921
 9414SOL    HW139704   4.658   0.155  10.881 -0.4346 -0.0374 -1.1069
 9414SOL    HW239705   0.020   0.264  10.836  0.3721  0.2206 -0.5580
 9415SOL     OW39706   1.529   0.964   3.751  0.4190  0.0459  0.0294
 9415SOL    HW139707   1.536   0.888   3.694  2.4834 -0.4340  0.9388
 9415SOL    HW239708   1.566   0.928   3.831 -0.1268  0.9146  0.6732
 9416SOL     OW39709   3.219   0.751   6.501  0.0022 -0.2799 -0.4273
 9416SOL    HW139710   3.293   0.690   6.494 -0.9073 -1.7984  3.1171
 9416SOL    HW239711   3.139   0.705   6.477 -0.5711  1.3990 -1.7418
 9417SOL     OW39712   4.476   0.867   6.536 -0.1218  0.1638  0.1387
 9417SOL    HW139713   4.452   0.849   6.446  1.1654 -1.8368  0.1938
 9417SOL    HW239714   4.471   0.780   6.576 -1.5574 -0.6714 -1.9191
 9418SOL     OW39715   4.122   2.910  11.095  0.7108 -0.0584 -0.0820
 9418SOL    HW139716   4.139   2.969  11.022 -0.7038 -0.7132 -0.9302
 9418SOL    HW239717   4.148   2.830  11.049 -0.0437  0.5079 -1.4787
 9419SOL     OW39718   1.871   4.367   2.830 -0.8521 -0.2305  0.2868
 9419SOL    HW139719   1.863   4.344   2.922 -0.2388 -2.6779 -0.2668
 9419SOL    HW239720   1.947   4.314   2.804  0.7119  1.7760  0.8161
 9420SOL     OW39721   3.824   3.604   2.362  0.4887 -0.4638  0.2322
 9420SOL    HW139722   3.770   3.596   2.440 -0.5169 -0.8975 -0.5005
 9420SOL    HW239723   3.852   3.694   2.379 -1.6328  0.3406 -0.5128
 9421SOL     OW39724   4.131   0.321   5.065 -0.2207 -0.2765 -0.0838
 9421SOL    HW139725   4.167   0.408   5.048 -1.3172 -0.2508 -2.3207
 9421SOL    HW239726   4.208   0.264   5.063 -1.8196 -2.4900  2.2059
 9422SOL     OW39727   0.975   2.358   2.919  0.1710 -0.4646 -0.2469
 9422SOL    HW139728   1.064   2.391   2.930  0.0754  0.3461 -2.0128
 9422SOL    HW239729   0.963   2.391   2.830  0.5151  0.0576 -0.0991
 9423SOL     OW39730   3.208   1.895   3.316 -0.3445 -0.0982 -0.5729
 9423SOL    HW139731   3.277   1.842   3.356 -0.1159  2.0629  1.8752
 9423SOL    HW239732   3.152   1.826   3.279 -1.9160  0.7674  0.1965
 9424SOL     OW39733   2.389   4.617   1.269  0.4381 -0.3275  0.0961
 9424SOL    HW139734   2.398   4.523   1.284  1.1306 -0.2143  0.3940
 9424SOL    HW239735   2.314   4.613   1.209 -0.1162 -1.7664  0.9034
 9425SOL     OW39736   4.307   0.931  10.811  0.0433 -0.5276 -0.2585
 9425SOL    HW139737   4.304   0.931  10.907 -1.1644  0.3283 -0.2989
 9425SOL    HW239738   4.227   0.977  10.784  0.5599  0.5895  0.1167
 9426SOL     OW39739   3.889   2.670   2.070 -0.5418 -0.3195 -0.5017
 9426SOL    HW139740   3.799   2.700   2.085 -0.6466 -0.9887  0.1790
 9426SOL    HW239741   3.947   2.734   2.111 -3.3450  2.3042 -0.6321
 9427SOL     OW39742   4.171   4.570   6.625  0.1063  0.2024 -0.5517
 9427SOL    HW139743   4.208   4.619   6.699  1.0027 -2.6579  0.8795
 9427SOL    HW239744   4.235   4.501   6.612 -0.6543 -0.6598  0.3264
 9428SOL     OW39745   1.955   0.194  16.771  0.2382 -0.0900 -0.0080
 9428SOL    HW139746   2.007   0.113  16.765 -2.8884 -2.1343  0.4346
 9428SOL    HW239747   1.996   0.255  16.709 -0.5008  1.1304  0.7082
 9429SOL     OW39748   2.616   0.564   1.641  0.3623 -0.0964 -0.2989
 9429SOL    HW139749   2.524   0.560   1.614  1.1824 -3.1090 -2.6989
 9429SOL    HW239750   2.645   0.480   1.606  2.2439  1.1058 -1.5842
 9430SOL     OW39751   1.868   0.320   5.218  0.7988 -0.0978  0.0074
 9430SOL    HW139752   1.898   0.393   5.271  2.8358 -1.2690  0.4525
 9430SOL    HW239753   1.897   0.334   5.129 -0.1345 -0.0620 -0.2895
 9431SOL     OW39754   0.459   3.177  13.173 -0.1243 -0.2381 -0.4848
 9431SOL    HW139755   0.440   3.162  13.265  2.7391 -0.2664  0.0963
 9431SOL    HW239756   0.539   3.126  13.165  0.2672  0.0827  1.4528
 9432SOL     OW39757   4.306   3.416  14.987  0.1032  0.1072 -0.0173
 9432SOL    HW139758   4.312   3.337  15.041 -0.1326 -0.3669 -0.6752
 9432SOL    HW239759   4.227   3.400  14.936  1.1370 -2.3333 -0.8718
 9433SOL     OW39760   3.430   4.076   8.363  0.3559  0.0144  0.1505
 9433SOL    HW139761   3.347   4.060   8.408  1.1369  0.0484  1.5790
 9433SOL    HW239762   3.415   4.046   8.273  1.8967 -0.8036  0.1614
 9434SOL     OW39763   0.187   2.556   6.746 -0.4145  0.4448  0.6267
 9434SOL    HW139764   0.128   2.557   6.821 -0.7589  0.5458  0.3548
 9434SOL    HW239765   0.214   2.465   6.742  2.3899  1.2342  1.4732
 9435SOL     OW39766   2.928   0.278   8.377  0.0733 -0.2384  0.5602
 9435SOL    HW139767   2.992   0.332   8.423 -0.9507  0.4346  1.2230
 9435SOL    HW239768   2.859   0.271   8.444  2.3388  0.0302  2.9347
 9436SOL     OW39769   2.198   1.955   8.626  0.3773 -0.3584  0.0530
 9436SOL    HW139770   2.170   1.963   8.535 -0.5568  0.2666  0.3897
 9436SOL    HW239771   2.169   1.867   8.649  0.7481 -0.0732  1.6150
 9437SOL     OW39772   2.273   3.069   4.784  0.1365 -0.1555 -0.5587
 9437SOL    HW139773   2.257   3.120   4.863 -0.7787 -1.9483  0.4190
 9437SOL    HW239774   2.345   3.014   4.816 -0.8742 -0.6494  0.8794
 9438SOL     OW39775   1.477   3.012   0.508  0.4408 -0.3580  0.5966
 9438SOL    HW139776   1.533   2.962   0.566  2.1430  0.8343 -0.0329
 9438SOL    HW239777   1.435   2.930   0.482  1.2335  0.0567 -1.9880
 9439SOL     OW39778   3.098   1.843   3.957  0.1257 -1.1352  0.4064
 9439SOL    HW139779   3.191   1.855   3.941 -0.8813  1.5077 -3.6337
 9439SOL    HW239780   3.080   1.770   3.898  0.1222  0.1054 -1.1438
 9440SOL     OW39781   4.668   1.638  15.963  0.1779  0.0092  0.2294
 9440SOL    HW139782   4.613   1.586  15.904 -0.0177 -0.5189  0.8659
 9440SOL    HW239783   0.025   1.655  15.914  0.2172 -1.5024 -0.2376
 9441SOL     OW39784   0.553   1.378  15.536  0.2400 -0.2058  0.1759
 9441SOL    HW139785   0.490   1.427  15.482 -0.3419 -1.0505  0.0871
 9441SOL    HW239786   0.632   1.362  15.484  0.6878 -3.2046  1.7886
 9442SOL     OW39787   1.678   0.509  14.031  0.5856 -0.0425 -0.3906
 9442SOL    HW139788   1.674   0.500  13.935  2.1892  2.5505 -0.6880
 9442SOL    HW239789   1.629   0.432  14.060  3.1174 -1.4689  0.1135
 9443SOL     OW39790   2.857   1.021  10.683 -0.6784 -0.0320 -0.6792
 9443SOL    HW139791   2.787   1.086  10.673 -0.4056  0.5546  1.1673
 9443SOL    HW239792   2.848   1.008  10.777 -0.3489  1.9028 -0.3700
 9444SOL     OW39793   3.898   3.632   4.300 -0.0991 -0.1331  0.2604
 9444SOL    HW139794   3.979   3.580   4.292 -0.7258 -1.2591  1.2201
 9444SOL    HW239795   3.932   3.697   4.239  0.0363 -0.5238 -0.0780
 9445SOL     OW39796   3.397   1.048   1.986  0.0581 -0.3108  0.2074
 9445SOL    HW139797   3.405   1.060   1.891 -0.1314  1.6082  0.4254
 9445SOL    HW239798   3.449   1.120   2.020  0.0927  1.0026 -2.6011
 9446SOL     OW39799   2.625   0.054   4.397  0.0747  0.6612 -0.3956
 9446SOL    HW139800   2.648   0.143   4.423  2.5800  0.3307 -1.4859
 9446SOL    HW239801   2.532   0.066   4.375 -0.0728 -0.4048 -0.3635
 9447SOL     OW39802   4.207   1.585   7.733  0.3592 -0.2912 -0.3060
 9447SOL    HW139803   4.256   1.570   7.652 -0.6863  2.9694 -1.5487
 9447SOL    HW239804   4.150   1.659   7.714  0.5994 -0.7187 -2.7937
 9448SOL     OW39805   3.775   2.788   6.872 -0.8747  0.2111 -0.0314
 9448SOL    HW139806   3.712   2.751   6.934 -0.8876  0.0457 -0.1419
 9448SOL    HW239807   3.857   2.754   6.906 -1.5906 -0.7871  0.7153
 9449SOL     OW39808   0.429   3.513   4.066 -0.4976  0.6602  0.1114
 9449SOL    HW139809   0.505   3.495   4.011 -0.7972 -2.8543  0.8306
 9449SOL    HW239810   0.401   3.422   4.073  1.7729 -0.1715 -1.5303
 9450SOL     OW39811   0.157   1.096   3.468  0.0763 -0.6024  0.0598
 9450SOL    HW139812   0.120   1.111   3.555 -2.6993  0.3460 -1.2952
 9450SOL    HW239813   0.247   1.125   3.484 -0.0062 -0.3251  0.0306
 9451SOL     OW39814   2.349   3.743  11.587  0.7187 -0.4844  0.0296
 9451SOL    HW139815   2.375   3.835  11.579  1.5272 -0.8057 -1.0060
 9451SOL    HW239816   2.437   3.714  11.611  0.3654  0.2321  2.1932
 9452SOL     OW39817   4.134   1.195   7.041  0.0701 -0.2950 -0.0142
 9452SOL    HW139818   4.140   1.172   6.948 -2.0240 -0.6671 -0.0551
 9452SOL    HW239819   4.044   1.225   7.048 -0.0658 -0.8519  0.6504
 9453SOL     OW39820   0.617   4.127   6.787 -0.0786  0.0875 -0.3839
 9453SOL    HW139821   0.698   4.099   6.743  0.1340  2.9977 -1.8710
 9453SOL    HW239822   0.621   4.064   6.858  3.6497  0.3782 -0.3464
 9454SOL     OW39823   3.671   3.195  13.859 -0.3503 -0.0799 -0.6980
 9454SOL    HW139824   3.754   3.175  13.902 -0.3150  0.0855 -0.6930
 9454SOL    HW239825   3.706   3.215  13.772  0.6204  3.1161  0.4443
 9455SOL     OW39826   1.531   2.290   4.622 -0.0488  0.0832 -0.0249
 9455SOL    HW139827   1.595   2.356   4.648  0.1426 -1.7994  4.2017
 9455SOL    HW239828   1.492   2.313   4.538  0.5718 -2.5985 -1.0700
 9456SOL     OW39829   3.808   1.193   2.053 -0.2560 -0.5605  0.0055
 9456SOL    HW139830   3.747   1.226   2.119  0.0872 -1.2799  0.6824
 9456SOL    HW239831   3.798   1.256   1.981 -0.0322  0.8923  1.2245
 9457SOL     OW39832   0.463   0.107   6.247  0.8319 -0.2911 -0.5909
 9457SOL    HW139833   0.427   0.171   6.309  2.0939 -0.0113 -0.1422
 9457SOL    HW239834   0.384   0.076   6.203 -0.3742  0.5492  0.9910
 9458SOL     OW39835   0.190   4.390   9.568 -0.0246  0.5069 -0.3961
 9458SOL    HW139836   0.197   4.441   9.488  1.0338  1.0179  0.0181
 9458SOL    HW239837   0.251   4.434   9.627  1.4820 -2.7236  0.4792
 9459SOL     OW39838   2.267   2.223   6.014 -0.3763 -0.5950 -0.1292
 9459SOL    HW139839   2.181   2.249   6.047  1.0322 -0.3063  3.2836
 9459SOL    HW239840   2.297   2.295   5.959 -0.1574  0.4489  1.3629
 9460SOL     OW39841   0.067   3.399   3.272 -0.3335  0.0006  0.5460
 9460SOL    HW139842   0.106   3.439   3.350  1.2658 -0.2326 -0.1451
 9460SOL    HW239843   0.039   3.312   3.303  0.6776 -0.0154  1.4296
 9461SOL     OW39844   3.683   0.457   6.246  0.2850 -0.5586 -0.3851
 9461SOL    HW139845   3.646   0.544   6.263  2.2426 -0.2979  2.3851
 9461SOL    HW239846   3.764   0.465   6.295 -0.3024 -0.9646  0.6520
 9462SOL     OW39847   0.564   2.960   9.436 -0.1407 -0.4277  0.0753
 9462SOL    HW139848   0.559   3.055   9.435  1.8928 -0.3241  0.4678
 9462SOL    HW239849   0.631   2.945   9.503  1.9616  1.3027 -1.6930
 9463SOL     OW39850   1.959   4.589   7.730 -0.4377  0.1331  0.2504
 9463SOL    HW139851   2.054   4.581   7.721 -0.1394  1.6499  2.0389
 9463SOL    HW239852   1.927   4.583   7.640 -1.5926  0.8459  0.6212
 9464SOL     OW39853   1.238   0.668   5.483 -0.1576  0.0252  0.3009
 9464SOL    HW139854   1.274   0.580   5.496  1.7974  0.7407 -0.2073
 9464SOL    HW239855   1.194   0.657   5.400  0.3103  2.1541 -0.2237
 9465SOL     OW39856   0.405   1.571   3.637 -0.0694  0.9249 -0.1746
 9465SOL    HW139857   0.314   1.595   3.621 -0.5469 -0.5704  0.3031
 9465SOL    HW239858   0.384   1.482   3.664  1.2870  0.4761 -0.5840
 9466SOL     OW39859   3.782   1.235   8.167  0.1602  0.0959 -0.1851
 9466SOL    HW139860   3.805   1.145   8.145 -1.8381 -0.2094 -1.0413
 9466SOL    HW239861   3.686   1.235   8.171  0.1160 -2.0195 -0.9871
 9467SOL     OW39862   0.681   0.814  12.395 -0.0062  0.6471 -1.0519
 9467SOL    HW139863   0.773   0.810  12.372  0.1801  0.7461 -0.3311
 9467SOL    HW239864   0.695   0.812  12.490 -1.5233 -2.4361 -0.8790
 9468SOL     OW39865   0.869   1.841   0.931  0.3178 -0.3867  0.1543
 9468SOL    HW139866   0.906   1.860   0.845 -3.0050  2.8143 -0.5536
 9468SOL    HW239867   0.892   1.749   0.944 -1.3985 -0.6479  1.3180
 9469SOL     OW39868   2.309   2.772   1.746  0.4256  0.1658  0.8748
 9469SOL    HW139869   2.225   2.727   1.758  0.3904  0.1783  0.6735
 9469SOL    HW239870   2.298   2.808   1.658 -3.2866 -0.1705  1.1868
 9470SOL     OW39871   0.952   0.499   3.522 -0.1898 -0.1525 -0.0104
 9470SOL    HW139872   0.930   0.432   3.587  3.7040 -0.2895  1.1436
 9470SOL    HW239873   1.042   0.469   3.509 -0.0472  0.8649 -1.3953
 9471SOL     OW39874   0.411   3.850   5.342 -0.7543  0.2293  0.5491
 9471SOL    HW139875   0.339   3.905   5.313 -2.1216 -1.6840  0.2757
 9471SOL    HW239876   0.488   3.886   5.298 -0.7204 -0.7369 -0.1902
 9472SOL     OW39877   2.944   1.531   2.792 -0.0918 -0.3648 -0.7669
 9472SOL    HW139878   2.981   1.577   2.867 -0.8945 -2.4217  0.8974
 9472SOL    HW239879   2.849   1.519   2.798  0.2702 -2.0259  1.5211
 9473SOL     OW39880   2.215   2.406   8.969 -0.6020 -0.3825 -0.0433
 9473SOL    HW139881   2.195   2.450   9.051 -1.5412 -0.4250 -0.2586
 9473SOL    HW239882   2.241   2.317   8.995 -0.9648 -0.4321  0.1507
 9474SOL     OW39883   3.008   4.372   4.637 -0.2635 -0.6625  0.2036
 9474SOL    HW139884   3.082   4.337   4.686 -0.2910 -1.5183 -0.3667
 9474SOL    HW239885   3.036   4.463   4.630 -0.8597 -0.4640  0.4075
 9475SOL     OW39886   0.927   3.416  17.414 -0.3467 -0.3736  0.2048
 9475SOL    HW139887   0.913   3.497  17.364 -0.9693 -0.6619 -0.0839
 9475SOL    HW239888   0.872   3.432  17.490  0.3291 -0.6877  0.7603
 9476SOL     OW39889   0.453   0.444  10.243 -0.2698  0.1617  0.2220
 9476SOL    HW139890   0.512   0.475  10.174 -1.0917 -1.3588 -1.1413
 9476SOL    HW239891   0.430   0.525  10.290 -0.7664  1.1617 -1.7580
 9477SOL     OW39892   3.991   4.396   2.328  0.3252  0.0636 -0.5980
 9477SOL    HW139893   3.965   4.310   2.362 -0.4407 -0.0239 -1.3965
 9477SOL    HW239894   3.905   4.418   2.292 -0.6906  0.1372  1.8209
 9478SOL     OW39895   3.305   4.628   2.621  0.5644  0.1258  0.0083
 9478SOL    HW139896   3.280   4.695   2.558 -0.1338  1.1821  1.4139
 9478SOL    HW239897   3.334   4.677   2.698  1.7373 -0.6276  0.0556
 9479SOL     OW39898   4.654   1.335  12.102 -0.6420  0.1717 -0.1850
 9479SOL    HW139899   4.657   1.239  12.109  0.1852  0.2043 -0.0994
 9479SOL    HW239900   4.716   1.359  12.034  0.0875 -2.2448 -0.3784
 9480SOL     OW39901   3.914   2.653  12.980 -0.9362 -0.0861  0.0793
 9480SOL    HW139902   3.997   2.605  12.982 -0.5643  0.5554 -0.1246
 9480SOL    HW239903   3.856   2.577  12.977 -1.0173  0.0078 -0.7696
 9481SOL     OW39904   2.877   0.648   4.684 -0.1189  0.4461  0.1830
 9481SOL    HW139905   2.781   0.651   4.674 -0.2895 -0.4410  1.6184
 9481SOL    HW239906   2.897   0.736   4.716  2.1306 -0.7778  2.1585
 9482SOL     OW39907   0.385   1.193   4.429  0.2163 -0.1435 -0.2471
 9482SOL    HW139908   0.361   1.121   4.486  0.1124  0.5476  0.5843
 9482SOL    HW239909   0.479   1.182   4.419  0.2918  0.1572  0.1365
 9483SOL     OW39910   4.037   4.131   8.790 -0.3665  0.9580 -0.2708
 9483SOL    HW139911   4.067   4.165   8.874 -0.4837  1.3282 -0.3779
 9483SOL    HW239912   4.079   4.197   8.735 -1.3265  3.0276  1.4750
 9484SOL     OW39913   2.632   2.955  13.630  0.1787 -0.5950 -0.4085
 9484SOL    HW139914   2.677   2.879  13.592 -0.8774 -2.6197  2.3266
 9484SOL    HW239915   2.542   2.926  13.622  0.3116 -0.7788 -1.2493
 9485SOL     OW39916   2.260   0.964   7.852  0.1267 -0.0691  0.0275
 9485SOL    HW139917   2.246   0.870   7.859  1.0180 -0.1164  1.2986
 9485SOL    HW239918   2.240   0.970   7.759  2.3498  2.0718 -0.3151
 9486SOL     OW39919   3.174   4.103  16.432  0.1623  0.0314  0.8166
 9486SOL    HW139920   3.263   4.123  16.462  1.0016 -2.4173 -0.0002
 9486SOL    HW239921   3.150   4.184  16.386  0.6798 -1.8215 -2.7631
 9487SOL     OW39922   3.485   1.559   1.928  0.2334 -0.1664  0.2467
 9487SOL    HW139923   3.565   1.572   1.877 -0.2468 -1.1580 -0.7677
 9487SOL    HW239924   3.469   1.643   1.970 -1.0372  1.2950 -3.1509
 9488SOL     OW39925   3.008   1.299   3.580  0.1629  0.2471  0.0460
 9488SOL    HW139926   3.043   1.359   3.647 -2.7803  0.6496  1.2153
 9488SOL    HW239927   2.913   1.312   3.581  0.4193  2.1693  0.4753
 9489SOL     OW39928   3.278   1.181   4.366 -0.1063  0.2911 -0.0694
 9489SOL    HW139929   3.364   1.199   4.329  0.5397  0.8497  1.7503
 9489SOL    HW239930   3.218   1.222   4.303  0.9735 -1.2416 -2.1150
 9490SOL     OW39931   4.400   0.076  10.491  0.1244  0.0697 -0.0759
 9490SOL    HW139932   4.476   0.113  10.447  0.5957 -1.2357 -0.3427
 9490SOL    HW239933   4.378   0.138  10.561 -0.4590 -0.7055  0.4322
 9491SOL     OW39934   2.083   1.068  15.965 -0.0563  0.1891  0.2277
 9491SOL    HW139935   2.165   1.039  16.005  0.9357 -0.7042 -2.4537
 9491SOL    HW239936   2.120   1.126  15.899  1.0315 -1.8506 -0.9415
 9492SOL     OW39937   2.524   1.098   4.635  0.3278 -0.0554 -0.4230
 9492SOL    HW139938   2.602   1.045   4.622  0.2466 -0.2137 -0.2728
 9492SOL    HW239939   2.456   1.037   4.604  2.7009 -2.2351 -1.3122
 9493SOL     OW39940   2.045   0.854   3.304 -0.2701 -0.0800 -0.1362
 9493SOL    HW139941   2.098   0.784   3.344  1.9258  0.3894 -2.2032
 9493SOL    HW239942   2.116   0.912   3.277 -0.3181  1.1944  2.4803
 9494SOL     OW39943   1.051   2.972   6.200  0.3141  0.0343 -0.6406
 9494SOL    HW139944   1.069   2.921   6.121  0.9953 -3.4526  1.7855
 9494SOL    HW239945   1.127   2.941   6.250  1.6152  0.3432 -2.4197
 9495SOL     OW39946   2.174   0.385   2.468  0.1185 -0.5037 -0.1135
 9495SOL    HW139947   2.140   0.434   2.543 -2.2714  0.1406 -1.6535
 9495SOL    HW239948   2.125   0.303   2.461 -1.4220  0.4510 -0.3760
 9496SOL     OW39949   0.698   4.348   9.726 -0.4031 -0.4894  0.4784
 9496SOL    HW139950   0.725   4.395   9.805  1.0837  1.4412 -1.2006
 9496SOL    HW239951   0.630   4.292   9.765 -0.6048 -0.9546 -0.5386
 9497SOL     OW39952   2.177   0.259   1.416 -0.4204  0.3132 -0.4191
 9497SOL    HW139953   2.085   0.244   1.393 -0.1421 -0.6353 -0.9138
 9497SOL    HW239954   2.189   0.351   1.396  0.1934  0.6140  1.3657
 9498SOL     OW39955   1.315   3.363   5.711 -0.3678  0.2857  0.8560
 9498SOL    HW139956   1.273   3.395   5.792  0.8865  2.5674  0.6113
 9498SOL    HW239957   1.267   3.417   5.648  1.0451  0.5735  0.0187
 9499SOL     OW39958   4.404   1.487   4.830 -0.1587 -1.1218  0.3744
 9499SOL    HW139959   4.434   1.401   4.857  1.2257 -0.6762  0.2312
 9499SOL    HW239960   4.484   1.531   4.802 -0.6053 -0.6581 -0.1932
 9500SOL     OW39961   2.023   1.808   7.499  0.0416  0.7166 -0.5191
 9500SOL    HW139962   2.106   1.798   7.452  1.1838  0.7638  1.4776
 9500SOL    HW239963   2.020   1.747   7.573  1.5530 -0.6137 -1.5859
 9501SOL     OW39964   1.622   4.078   6.196  0.5673  0.2389 -0.6630
 9501SOL    HW139965   1.686   4.013   6.223  0.9645  0.9170  0.0423
 9501SOL    HW239966   1.665   4.123   6.123  0.0114  2.4942  0.3739
 9502SOL     OW39967   3.048   3.696  12.755 -0.3856 -0.3022 -0.0916
 9502SOL    HW139968   3.137   3.729  12.765  0.0450 -2.1922  2.4623
 9502SOL    HW239969   3.044   3.629  12.823 -2.8337 -1.1300 -1.0607
 9503SOL     OW39970   1.601   2.238   6.185  0.1578  0.1231  0.3581
 9503SOL    HW139971   1.678   2.290   6.162  0.4551 -0.6987 -0.5160
 9503SOL    HW239972   1.594   2.168   6.119  1.0122 -0.1326  0.5443
 9504SOL     OW39973   3.635   1.724   9.216 -0.7467  0.9975  0.3245
 9504SOL    HW139974   3.540   1.733   9.219 -0.5593  2.5567  1.1226
 9504SOL    HW239975   3.637   1.654   9.150  0.5791  1.4311 -0.1028
 9505SOL     OW39976   4.299   0.452   2.880  0.0265 -0.2079 -0.3903
 9505SOL    HW139977   4.270   0.419   2.796 -1.2544 -0.7404  0.2646
 9505SOL    HW239978   4.216   0.472   2.925 -0.1195 -0.6475 -0.4705
 9506SOL     OW39979   4.313   3.838   6.125  0.3668  0.6880 -0.2728
 9506SOL    HW139980   4.360   3.920   6.112 -0.5072  1.3690  0.8447
 9506SOL    HW239981   4.258   3.865   6.199 -0.2165  0.2001 -0.5205
 9507SOL     OW39982   1.857   4.078  15.863  0.3956 -0.0986 -0.4800
 9507SOL    HW139983   1.776   4.028  15.865  1.4627 -1.7750  1.0203
 9507SOL    HW239984   1.912   4.021  15.808  0.6494 -0.7799  0.4842
 9508SOL     OW39985   2.651   2.444   2.700 -0.0404 -0.1286 -0.1896
 9508SOL    HW139986   2.740   2.441   2.735  1.0235  0.7645 -2.8467
 9508SOL    HW239987   2.603   2.400   2.770  1.6004 -0.8167  0.4854
 9509SOL     OW39988   1.661   0.875   1.291 -0.5072 -0.7071  0.3261
 9509SOL    HW139989   1.578   0.863   1.336 -0.5809  1.1235  0.6633
 9509SOL    HW239990   1.697   0.925   1.364 -0.2416 -0.3674 -0.0372
 9510SOL     OW39991   0.443   3.757   4.309 -0.4133 -0.0629  0.8838
 9510SOL    HW139992   0.475   3.791   4.393  0.2751  1.6245 -0.0488
 9510SOL    HW239993   0.366   3.713   4.345 -1.0267  1.1889  1.1123
 9511SOL     OW39994   1.203   2.577   2.703  0.5291  0.5469 -0.1698
 9511SOL    HW139995   1.206   2.612   2.792  0.3034  1.4289 -0.5079
 9511SOL    HW239996   1.239   2.656   2.661  0.3007  1.1897  0.8572
 9512SOL     OW39997   2.786   3.867   5.841  0.6471 -0.0939  1.2294
 9512SOL    HW139998   2.800   3.957   5.813 -1.7596  0.1315  0.7221
 9512SOL    HW239999   2.796   3.813   5.762 -2.5187  1.2941 -0.1348
 9513SOL     OW40000   1.204   2.360   8.351  0.3954 -0.4102  0.3690
 9513SOL    HW140001   1.171   2.270   8.347  0.5775 -0.4172 -1.0090
 9513SOL    HW240002   1.156   2.389   8.429  1.6187  3.4227 -0.3539
 9514SOL     OW40003   3.190   2.569  14.510  0.1393 -0.0502 -0.1262
 9514SOL    HW140004   3.263   2.521  14.550 -0.7726 -2.2857 -1.1164
 9514SOL    HW240005   3.123   2.501  14.511  1.0983 -1.0281 -1.3934
 9515SOL     OW40006   1.459   0.127  16.879 -0.1783  0.0901  0.6670
 9515SOL    HW140007   1.401   0.063  16.839  0.1686 -0.7410  1.5096
 9515SOL    HW240008   1.543   0.084  16.860 -0.8496 -0.2348 -1.5061
 9516SOL     OW40009   4.177   3.052  14.941 -0.2289  0.0992  0.1465
 9516SOL    HW140010   4.198   3.108  15.015 -2.6980 -0.1014  1.0195
 9516SOL    HW240011   4.194   3.114  14.870 -1.7178  0.6281  0.2426
 9517SOL     OW40012   2.263   2.176  13.646  0.5576  0.0922 -0.2155
 9517SOL    HW140013   2.340   2.192  13.702  0.4907  1.9840 -0.6353
 9517SOL    HW240014   2.312   2.120  13.586 -1.5865  0.6898 -2.5457
 9518SOL     OW40015   3.337   4.135   3.938 -0.4792 -0.1400  0.3342
 9518SOL    HW140016   3.354   4.049   3.899 -1.5706  0.3427 -1.2428
 9518SOL    HW240017   3.337   4.120   4.032  0.5418  0.0983  0.3702
 9519SOL     OW40018   0.367   3.518   0.793  0.2232  0.1134 -0.4343
 9519SOL    HW140019   0.379   3.561   0.709  1.3522 -2.4462 -1.5925
 9519SOL    HW240020   0.443   3.540   0.846  0.0419  3.2328 -1.4779
 9520SOL     OW40021   4.363   2.616   9.284  0.1540 -0.0227  0.1484
 9520SOL    HW140022   4.450   2.641   9.250  1.3634 -2.4145  1.5029
 9520SOL    HW240023   4.324   2.696   9.249  1.1329  0.0816 -0.7114
 9521SOL     OW40024   4.640   4.574  10.041  0.0012  0.2668 -0.1282
 9521SOL    HW140025   4.707   4.507  10.058  0.1778  0.0337 -1.7389
 9521SOL    HW240026   4.578   4.512  10.003  0.9125 -0.7384  0.0195
 9522SOL     OW40027   2.028   3.273   3.721 -0.0060 -0.2702  0.0004
 9522SOL    HW140028   1.981   3.357   3.721 -0.3498 -0.4655 -0.6725
 9522SOL    HW240029   2.112   3.316   3.709 -0.4623  0.5754 -0.1541
 9523SOL     OW40030   4.567   2.966   3.511  0.5856 -0.1529  0.4750
 9523SOL    HW140031   4.584   2.872   3.518  3.0706  0.2398 -0.3987
 9523SOL    HW240032   4.471   2.965   3.508  0.5521 -0.8077  1.6934
 9524SOL     OW40033   3.400   2.289   6.031  0.0449 -0.1791 -0.4143
 9524SOL    HW140034   3.433   2.378   6.017  0.1484 -0.2071 -0.3448
 9524SOL    HW240035   3.411   2.249   5.944  1.6510  0.3736 -0.4542
 9525SOL     OW40036   3.820   1.742   7.484 -0.4021 -0.4552  0.1276
 9525SOL    HW140037   3.816   1.721   7.390  0.1503 -1.6665  0.3765
 9525SOL    HW240038   3.774   1.678   7.539  2.0178 -0.2875  2.3664
 9526SOL     OW40039   1.455   1.579   5.101 -0.0955  0.1756  0.5920
 9526SOL    HW140040   1.376   1.582   5.155  0.3173  0.7086  1.1704
 9526SOL    HW240041   1.429   1.566   5.010  0.0826 -1.9557  0.8618
 9527SOL     OW40042   0.974   3.075   2.349  0.2623  0.3523  0.3165
 9527SOL    HW140043   0.944   3.119   2.269 -0.1502 -1.0329 -0.2889
 9527SOL    HW240044   1.055   3.038   2.317 -1.0209 -1.0212 -1.3358
 9528SOL     OW40045   3.261   3.692   7.832  0.2802 -0.0223 -0.5301
 9528SOL    HW140046   3.179   3.733   7.805 -0.3194 -1.2144 -0.5303
 9528SOL    HW240047   3.261   3.695   7.928 -2.7519  0.0106 -0.5279
 9529SOL     OW40048   2.232   4.502   1.876  0.0445 -0.1151 -0.4982
 9529SOL    HW140049   2.287   4.430   1.907  1.1688  0.8779 -0.1857
 9529SOL    HW240050   2.296   4.534   1.813  1.3280 -1.2098  0.2720
 9530SOL     OW40051   1.773   2.448   5.347 -0.0324 -0.5579  0.4698
 9530SOL    HW140052   1.776   2.543   5.330 -1.4032 -0.9301 -1.8397
 9530SOL    HW240053   1.815   2.406   5.272 -1.2256  1.2896 -1.2236
 9531SOL     OW40054   0.673   1.164   3.655 -0.2232  0.4174 -0.3031
 9531SOL    HW140055   0.693   1.093   3.716  0.2358  0.8683  0.0722
 9531SOL    HW240056   0.734   1.156   3.581 -0.9962 -0.8955 -0.7954
 9532SOL     OW40057   0.120   4.082  15.309  0.0695  0.3488 -0.3854
 9532SOL    HW140058   0.097   4.174  15.300  2.0831  0.8383 -0.4709
 9532SOL    HW240059   0.107   4.080  15.403 -0.8899  0.1277 -0.5207
 9533SOL     OW40060   0.827   3.517   3.983 -0.1170  0.1464  0.4568
 9533SOL    HW140061   0.918   3.533   4.011  0.0207 -0.0216  0.1029
 9533SOL    HW240062   0.788   3.599   4.011 -0.2275 -0.7702  3.0275
 9534SOL     OW40063   2.497   1.385   6.408  0.0510  0.0540  0.3852
 9534SOL    HW140064   2.574   1.357   6.458  1.9548  1.4764 -1.7464
 9534SOL    HW240065   2.440   1.321   6.450 -1.0814  1.1151  0.4428
 9535SOL     OW40066   3.846   2.390   2.578  0.1806 -0.5930 -0.2855
 9535SOL    HW140067   3.861   2.455   2.509  0.0165 -1.9278 -1.5869
 9535SOL    HW240068   3.930   2.344   2.575  0.9243  0.8197 -1.0806
 9536SOL     OW40069   1.765   0.772   6.701  0.7001 -0.0961  0.0930
 9536SOL    HW140070   1.791   0.826   6.626  1.0266 -0.3976 -0.0098
 9536SOL    HW240071   1.678   0.741   6.674 -0.5532  3.4630  0.0743
 9537SOL     OW40072   3.796   3.003   1.204  0.4972  0.0086  0.5426
 9537SOL    HW140073   3.810   2.952   1.125 -0.3273  1.6309 -0.6652
 9537SOL    HW240074   3.759   3.086   1.173  2.5856  1.0248  0.7140
 9538SOL     OW40075   3.815   0.842   7.862 -0.4425 -0.2981  0.9898
 9538SOL    HW140076   3.755   0.815   7.793 -0.0452  0.9358  0.1657
 9538SOL    HW240077   3.791   0.772   7.923  0.5462 -0.7411  0.8710
 9539SOL     OW40078   4.093   3.868   3.189 -0.2210  0.3716 -0.4707
 9539SOL    HW140079   4.136   3.824   3.116  0.1828  0.0655 -0.0438
 9539SOL    HW240080   4.075   3.794   3.246 -1.7519  0.8026 -0.3671
 9540SOL     OW40081   3.881   1.245  12.315  0.1584  0.3837  0.3303
 9540SOL    HW140082   3.804   1.213  12.269 -1.2110  0.8881  2.2526
 9540SOL    HW240083   3.837   1.251  12.400  0.8832  0.1554  0.7237
 9541SOL     OW40084   1.734   4.581  15.582  0.3820  0.7055 -0.0309
 9541SOL    HW140085   1.722   4.660  15.634  0.9644  0.5677  0.3169
 9541SOL    HW240086   1.767   4.628  15.506 -0.7778 -2.6228 -2.5934
 9542SOL     OW40087   0.661   0.181  11.650  0.7608  0.3216  0.2142
 9542SOL    HW140088   0.663   0.110  11.713  0.9212  0.6891  0.6236
 9542SOL    HW240089   0.626   0.129  11.578 -0.0614  0.4940  0.4930
 9543SOL     OW40090   4.346   3.727   7.915 -0.2093  0.0861  0.1601
 9543SOL    HW140091   4.327   3.815   7.883  1.7253  0.3924 -0.1332
 9543SOL    HW240092   4.261   3.698   7.949 -0.2204 -1.7387 -1.3833
 9544SOL     OW40093   1.031   3.370   2.732 -0.5497  0.4293 -0.4254
 9544SOL    HW140094   0.968   3.332   2.793  1.0745 -0.5500  0.6216
 9544SOL    HW240095   1.098   3.396   2.795  0.2956 -0.4764 -0.9443
 9545SOL     OW40096   4.600   3.055   7.527  0.0255  0.0220 -0.2384
 9545SOL    HW140097   4.521   3.043   7.580 -0.4946  1.4814 -0.6959
 9545SOL    HW240098   4.599   2.997   7.451 -1.0326 -1.8988  1.2277
 9546SOL     OW40099   0.245   3.733  16.063  0.1311 -0.0150 -0.8527
 9546SOL    HW140100   0.340   3.723  16.057 -0.0027 -0.8190 -1.6384
 9546SOL    HW240101   0.222   3.686  16.143  2.2185  0.4886  0.0568
 9547SOL     OW40102   0.135   3.222   4.741  0.4741  0.6736 -0.7499
 9547SOL    HW140103   0.088   3.305   4.733 -1.9438 -0.5914  0.4689
 9547SOL    HW240104   0.061   3.163   4.753  1.2734  0.0295  1.1590
 9548SOL     OW40105   2.684   2.491   4.150 -0.2427  0.0636 -0.4920
 9548SOL    HW140106   2.653   2.491   4.241 -0.3057  0.6437 -0.5129
 9548SOL    HW240107   2.747   2.419   4.148  0.3261  0.5616 -0.3031
 9549SOL     OW40108   1.788   3.334   2.304  0.2588  0.6329 -0.2196
 9549SOL    HW140109   1.778   3.244   2.275 -2.0199  0.7425  0.1758
 9549SOL    HW240110   1.785   3.315   2.397  1.3508  2.0608  0.1026
 9550SOL     OW40111   3.288   2.168   2.288  0.1402  0.1774  0.0321
 9550SOL    HW140112   3.352   2.156   2.358  0.1079  1.7519  0.3222
 9550SOL    HW240113   3.346   2.192   2.215  0.6875 -1.5294 -0.1087
 9551SOL     OW40114   3.954   1.406   7.327  0.2838 -0.1149 -0.0078
 9551SOL    HW140115   3.900   1.334   7.296 -2.2335  2.0818 -0.7153
 9551SOL    HW240116   3.932   1.401   7.420  1.4542  2.9734  0.4329
 9552SOL     OW40117   2.923   3.150   1.375  0.3670 -0.9273 -0.0626
 9552SOL    HW140118   2.918   3.076   1.315 -1.2056 -0.8663 -0.0041
 9552SOL    HW240119   2.977   3.111   1.444  1.1219 -2.1284 -1.3191
 9553SOL     OW40120   2.560   3.019  14.271  0.2891 -0.1582  0.6307
 9553SOL    HW140121   2.650   3.052  14.267  0.4842 -0.9707 -1.7881
 9553SOL    HW240122   2.507   3.098  14.261  2.7516  1.7529  2.5712
 9554SOL     OW40123   1.813   4.306   3.996  0.4084 -0.2346  0.7040
 9554SOL    HW140124   1.798   4.304   4.091  0.8674 -3.5357  0.7137
 9554SOL    HW240125   1.798   4.216   3.968 -0.4577 -0.1240  0.8205
 9555SOL     OW40126   0.546   3.682   9.104 -0.7229 -0.1328  0.2009
 9555SOL    HW140127   0.512   3.646   9.022  2.1274  1.8413 -1.8408
 9555SOL    HW240128   0.541   3.776   9.086 -0.7000 -0.1854 -0.0828
 9556SOL     OW40129   0.982   1.847   0.691 -0.4068 -0.0262  0.0527
 9556SOL    HW140130   0.966   1.918   0.628 -1.2520  0.4690  0.8276
 9556SOL    HW240131   1.015   1.784   0.627  2.1904 -0.0898  1.4518
 9557SOL     OW40132   4.503   1.547   2.811  0.3148 -1.0272 -0.3036
 9557SOL    HW140133   4.425   1.565   2.864  0.6200 -1.3816  0.2612
 9557SOL    HW240134   4.492   1.604   2.735 -0.8676  0.2298  0.7895
 9558SOL     OW40135   0.733   2.349  16.495 -0.0229  0.2754  0.1811
 9558SOL    HW140136   0.656   2.406  16.498 -0.3066  0.0513 -2.9940
 9558SOL    HW240137   0.711   2.280  16.557 -0.2525  0.3925  0.2305
 9559SOL     OW40138   1.832   2.027   5.231  0.3509 -0.4669 -0.3492
 9559SOL    HW140139   1.910   1.972   5.224  1.5680  0.9224  2.2481
 9559SOL    HW240140   1.764   1.961   5.215 -0.0233 -0.4315  1.0800
 9560SOL     OW40141   2.495   3.103   1.806 -0.4436 -0.0884 -0.5589
 9560SOL    HW140142   2.523   3.033   1.747  0.1463 -1.4957  1.3602
 9560SOL    HW240143   2.466   3.167   1.742  1.8142 -0.5082 -1.9774
 9561SOL     OW40144   3.415   4.144   6.695 -0.2042  0.3136  0.5261
 9561SOL    HW140145   3.438   4.170   6.606  0.7941 -1.5425  0.2258
 9561SOL    HW240146   3.335   4.190   6.722 -1.8692 -1.4220 -1.3724
 9562SOL     OW40147   1.279   1.420  15.251 -0.5739 -0.0913 -0.0110
 9562SOL    HW140148   1.225   1.351  15.214 -2.0861  1.3550 -0.4654
 9562SOL    HW240149   1.234   1.500  15.223  2.8955  2.1361  0.6542
 9563SOL     OW40150   2.139   3.753   6.762  0.2678  0.0799 -0.3880
 9563SOL    HW140151   2.165   3.662   6.749 -2.5451 -0.6071 -1.1323
 9563SOL    HW240152   2.195   3.797   6.698  0.2169  0.0982 -0.4204
 9564SOL     OW40153   1.713   4.063   7.896  0.7527  0.0020  0.8734
 9564SOL    HW140154   1.703   3.991   7.958 -1.9919  1.5410  2.2307
 9564SOL    HW240155   1.639   4.067   7.835  0.6733  0.8524  1.0239
 9565SOL     OW40156   1.214   0.619   6.107 -0.1802 -0.9888  0.1751
 9565SOL    HW140157   1.139   0.566   6.080 -0.5674 -0.1231 -0.4335
 9565SOL    HW240158   1.190   0.709   6.083  2.5674 -0.1192  0.6959
 9566SOL     OW40159   0.765   4.429   3.518 -0.2545 -0.0773 -0.2021
 9566SOL    HW140160   0.845   4.381   3.496 -0.8087 -1.8428  1.5678
 9566SOL    HW240161   0.712   4.350   3.533  0.2462 -1.1641 -4.2282
 9567SOL     OW40162   3.515   3.764   3.528  0.3123 -0.2183 -0.4588
 9567SOL    HW140163   3.551   3.783   3.614 -1.0672 -1.8731  0.4799
 9567SOL    HW240164   3.510   3.851   3.488 -1.6517 -0.5440 -0.9623
 9568SOL     OW40165   4.594   3.563   3.203  0.2915  0.3134  0.3921
 9568SOL    HW140166   4.548   3.483   3.230  0.7091 -0.2005 -0.3951
 9568SOL    HW240167   4.682   3.527   3.212  0.6174  1.2608  0.9817
   4.72381   4.72381  17.69696
