Membrane in water
40167
    1TCq1    O1    1   0.240   2.934  10.761  0.5433  0.1525  0.3514
    1TCq1    C1    2   0.223   2.821  10.831  0.4592 -0.0566  0.0239
    1TCq1    O2    3   0.126   2.789  10.903 -0.2294  0.4452 -0.2505
    1TCq1    C2    4   0.358   2.781  10.857  0.6853 -0.0932  0.7370
    1TCq1    C3    5   0.428   2.744  10.746  0.5241  0.2185 -0.2197
    1TCq1    C4    6   0.526   2.651  10.755  0.4538  0.2321 -0.2626
    1TCq1    C5    7   0.566   2.608  10.879  1.0658  0.0248  0.2721
    1TCq1    C6    8   0.486   2.639  10.986 -0.3085  0.2025 -0.1580
    1TCq1    C7    9   0.385   2.721  10.976 -0.2280  0.4518  0.2751
    1TCq1    C8   10   0.485   2.565  11.111  0.2892 -0.0477  0.3336
    1TCq1    O4   11   0.400   2.606  11.194 -0.2139 -0.2646 -0.4396
    1TCq1    C9   12   0.594   2.604  10.634 -0.5393  0.0339 -0.0431
    1TCq1    O5   13   0.544   2.641  10.524 -0.1611 -0.3376 -0.2520
    1TCq1    O6   14   0.706   2.549  10.658  0.0171 -0.3726  0.1068
    1TCq1    H1   15   0.333   2.939  10.731 -0.7195 -1.4157 -3.8260
    1TCq1    H2   16   0.406   2.764  10.642  0.0059 -0.2220 -0.1973
    1TCq1    H3   17   0.654   2.544  10.877  1.1823  0.2894 -2.7082
    1TCq1    H4   18   0.310   2.750  11.049  0.0720  1.2856  0.2518
    2MPD2     C   19   0.661   2.222  11.443  0.0936  0.0982 -0.4404
    2MPD2    C1   20   0.570   2.328  11.456  0.2979  0.4393  0.6354
    2MPD2    C2   21   0.551   2.408  11.346 -0.3415 -0.2093 -0.0407
    2MPD2    C3   22   0.611   2.384  11.223  0.9041 -0.3248 -0.6369
    2MPD2    C4   23   0.699   2.281  11.201 -1.3420  0.1899 -0.4779
    2MPD2    C5   24   0.719   2.197  11.312  0.8171  0.2315 -0.0897
    2MPD2     H   25   0.487   2.493  11.364  1.7997  0.6638  3.3514
    2MPD2    H1   26   0.742   2.269  11.102 -1.1766  0.4049 -0.4301
    2MPD2    H2   27   0.704   2.163  11.523 -0.1179 -0.0564 -0.4410
    2MPD2    H3   28   0.779   2.108  11.295  0.4378 -0.0590  0.0828
    2MPD2     N   29   0.575   2.458  11.107 -0.0719 -0.3389  0.1983
    2MPD2    H5   30   0.632   2.439  11.025 -2.0719  0.3515 -1.3397
    2MPD2    N1   31   0.504   2.359  11.581 -0.2862  0.2793 -0.2696
    2MPD2    H7   32   0.442   2.439  11.585  1.2553  1.4122  0.9786
    3TCq1    O1   33   4.015   3.757  10.792  0.3818 -0.6054 -0.7315
    3TCq1    C1   34   4.110   3.751  10.700 -0.3342 -0.4490  0.6896
    3TCq1    O2   35   4.199   3.836  10.682  0.0022 -0.3436  0.6237
    3TCq1    C2   36   4.096   3.628  10.620 -0.6224 -0.3771 -0.5841
    3TCq1    C3   37   4.153   3.616  10.495  0.0794 -0.1412 -0.0368
    3TCq1    C4   38   4.136   3.505  10.424  0.3004 -0.0322 -0.0990
    3TCq1    C5   39   4.066   3.397  10.481 -0.0897  0.0367 -0.0384
    3TCq1    C6   40   4.025   3.402  10.615  0.9121 -0.0854  0.2020
    3TCq1    C7   41   4.039   3.519  10.684  0.2148 -0.0450 -0.1185
    3TCq1    C8   42   3.984   3.282  10.684 -0.4416 -0.4478  0.1754
    3TCq1    O4   43   4.030   3.177  10.637 -0.4332 -0.8904 -0.2505
    3TCq1    C9   44   4.179   3.501  10.288  0.2655  0.7088 -0.6557
    3TCq1    O5   45   4.218   3.613  10.246  0.2758  0.3411 -0.1179
    3TCq1    O6   46   4.143   3.395  10.230 -0.0150  0.1562 -0.1215
    3TCq1    H1   47   3.940   3.697  10.771  1.0317 -1.6337 -0.1602
    3TCq1    H2   48   4.202   3.702  10.450 -3.5924  0.8685 -2.1156
    3TCq1    H3   49   4.048   3.303  10.430 -3.5635  0.4710  0.3710
    3TCq1    H4   50   4.036   3.514  10.792 -0.2887  0.9897 -0.0762
    4MPD2     C   51   3.841   3.046  11.126  0.6436  0.1527 -0.2488
    4MPD2    C1   52   3.859   3.181  11.150  0.1594  0.2103 -0.2341
    4MPD2    C2   53   3.879   3.267  11.038  0.3777  0.2005 -0.3112
    4MPD2    C3   54   3.898   3.213  10.909  0.1896 -0.1185  0.3871
    4MPD2    C4   55   3.902   3.078  10.892 -0.6575  0.6549  0.0091
    4MPD2    C5   56   3.856   3.002  10.996 -0.1875  0.4150  0.3732
    4MPD2     H   57   3.887   3.374  11.052  0.4340  0.1837 -0.2151
    4MPD2    H1   58   3.915   3.034  10.794 -0.3086 -0.0741  0.3846
    4MPD2    H2   59   3.815   2.977  11.205 -1.1740  1.3265  0.1822
    4MPD2    H3   60   3.851   2.896  10.972 -0.6912 -0.4057  4.1339
    4MPD2     N   61   3.934   3.307  10.810 -0.3032 -0.5257 -0.0999
    4MPD2    H5   62   3.927   3.408  10.823  0.0212 -0.3242 -1.4428
    4MPD2    N1   63   3.855   3.235  11.277  0.3300  0.5143 -0.0571
    4MPD2    H7   64   3.857   3.336  11.281  0.4153  0.5482 -0.9236
    5TCq1    O1   65   3.488   0.007  11.612  0.6885 -0.7326  0.1312
    5TCq1    C1   66   3.428   0.072  11.509 -0.0717  0.1056 -0.1260
    5TCq1    O2   67   3.316   0.121  11.516  0.1978 -0.2921 -0.0678
    5TCq1    C2   68   3.478   4.713  11.400 -0.1177  1.0600 -0.0713
    5TCq1    C3   69   3.395   4.620  11.339  0.7401  0.6434  0.4398
    5TCq1    C4   70   3.458   4.527  11.259 -0.4026 -0.0206  0.4095
    5TCq1    C5   71   3.594   4.525  11.249  0.3411 -0.6891 -0.6640
    5TCq1    C6   72   3.674   4.614  11.309  0.4471  0.6282  0.0769
    5TCq1    C7   73   3.614   4.706  11.395 -0.0988  0.1367 -0.1336
    5TCq1    C8   74   3.814   4.605  11.284 -0.0811  0.1176  0.0225
    5TCq1    O4   75   3.856   4.527  11.196 -0.1090  0.9137  0.4067
    5TCq1    C9   76   3.377   4.435  11.186 -0.6401  0.3784 -0.1217
    5TCq1    O5   77   3.249   4.445  11.187  0.0276  0.1001 -0.4543
    5TCq1    O6   78   3.444   4.351  11.121  0.0873 -0.7083 -0.2812
    5TCq1    H1   79   3.559   4.664  11.594  1.2866 -0.5719  1.8595
    5TCq1    H2   80   3.288   4.635  11.344  0.7658  1.0785 -0.1970
    5TCq1    H3   81   3.639   4.451  11.185 -0.4626 -1.3602 -0.4544
    5TCq1    H4   82   3.670   0.058  11.450  1.6870 -3.4625  2.9356
    6MPD2     C   83   4.066   0.084  11.446  0.8022  0.2970 -0.3469
    6MPD2    C1   84   4.018   0.006  11.344 -0.6255 -0.6756  0.1199
    6MPD2    C2   85   4.098   4.690  11.238 -0.3251  0.6206 -0.7301
    6MPD2    C3   86   4.230   0.011  11.231 -0.0261  1.0147 -0.2797
    6MPD2    C4   87   4.277   0.089  11.338  0.8310  0.1318 -0.2450
    6MPD2    C5   88   4.197   0.129  11.439 -0.1481 -0.0466  0.5801
    6MPD2     H   89   4.050   4.639  11.156  0.3120  1.8667 -1.8726
    6MPD2    H1   90   4.375   0.133  11.350  0.9650 -0.1221 -0.4185
    6MPD2    H2   91   3.999   0.123  11.521 -0.6423  0.0268 -1.5082
    6MPD2    H3   92   4.241   0.188  11.518 -1.3303  0.8637  0.5468
    6MPD2     N   93   4.301   4.722  11.107 -0.1543 -0.2890  0.2797
    6MPD2    H5   94   4.252   4.672  11.034  1.0504  0.2512 -0.8887
    6MPD2    N1   95   3.886   4.690  11.365  0.4854  0.0292 -0.4625
    6MPD2    H7   96   3.838   4.715  11.450  0.8717  0.2618 -0.3148
    7TCq1    O1   97   1.798   4.329  12.618 -0.2491 -0.0607 -0.2092
    7TCq1    C1   98   1.903   4.258  12.651 -0.3351  0.8145  0.5823
    7TCq1    O2   99   2.000   4.222  12.584 -0.4710 -0.1570 -0.0989
    7TCq1    C2  100   1.888   4.215  12.788  0.2353  0.0456  0.8702
    7TCq1    C3  101   1.829   4.288  12.883  0.1138 -0.2270  0.0813
    7TCq1    C4  102   1.851   4.261  13.017 -0.6688 -0.3664 -0.1043
    7TCq1    C5  103   1.930   4.164  13.056  0.3982  0.1838  0.6265
    7TCq1    C6  104   1.986   4.085  12.960 -0.1200  0.0612 -0.1163
    7TCq1    C7  105   1.971   4.110  12.829  0.6583  0.1480  0.2185
    7TCq1    C8  106   2.104   4.011  12.994 -0.1334 -0.0386 -0.0966
    7TCq1    O4  107   2.143   3.914  12.927 -0.3288  0.4908  0.5286
    7TCq1    C9  108   1.792   4.338  13.122 -0.1842 -0.0831 -0.0804
    7TCq1    O5  109   1.732   4.439  13.088 -0.0472  0.3157 -0.4304
    7TCq1    O6  110   1.817   4.312  13.243  0.4974 -0.0086  0.4931
    7TCq1    H1  111   1.731   4.326  12.689  0.8491  0.7900  0.8576
    7TCq1    H2  112   1.770   4.370  12.843  1.7686  0.5756 -0.6800
    7TCq1    H3  113   1.954   4.139  13.159  0.8772  1.5610  0.8338
    7TCq1    H4  114   2.021   4.039  12.763 -2.9609 -1.0225 -1.2497
    8MPD2     C  115   2.539   4.012  13.273  0.4832  0.3605 -0.0883
    8MPD2    C1  116   2.469   3.901  13.235  0.6759 -0.1745 -0.5960
    8MPD2    C2  117   2.352   3.924  13.159  0.4715  0.3214  0.3097
    8MPD2    C3  118   2.299   4.053  13.150  0.3564 -0.9696 -0.9704
    8MPD2    C4  119   2.365   4.155  13.204  0.0841 -0.2154  0.5672
    8MPD2    C5  120   2.479   4.139  13.269 -0.2698  0.0259 -0.4518
    8MPD2     H  121   2.292   3.837  13.133  0.8224  0.5856 -1.3963
    8MPD2    H1  122   2.330   4.257  13.200  0.2256 -0.2915 -2.1092
    8MPD2    H2  123   2.640   4.000  13.310  0.6063  2.3532  0.2122
    8MPD2    H3  124   2.528   4.229  13.306  1.2299 -0.9090 -0.1805
    8MPD2     N  125   2.175   4.083  13.090 -0.1235 -0.2313  0.3794
    8MPD2    H5  126   2.142   4.179  13.101  0.0952  0.0777 -1.6517
    8MPD2    N1  127   2.527   3.774  13.274 -0.2828 -0.1167  0.2459
    8MPD2    H7  128   2.612   3.776  13.330 -0.1783  0.0869  0.0797
    9TCq1    O1  129   0.832   3.686  10.407 -0.6116 -0.5677 -0.0405
    9TCq1    C1  130   0.783   3.607  10.313  0.4664  0.0438 -0.0920
    9TCq1    O2  131   0.847   3.563  10.222  0.0830  0.2510  0.3526
    9TCq1    C2  132   0.673   3.533  10.371  0.1781  0.7464  0.0699
    9TCq1    C3  133   0.651   3.400  10.336 -0.5653  0.5750  0.1905
    9TCq1    C4  134   0.537   3.338  10.383  0.3802 -0.2086  0.6846
    9TCq1    C5  135   0.456   3.407  10.464 -0.0996 -0.8897 -0.2365
    9TCq1    C6  136   0.475   3.538  10.491  0.3505  0.2998  0.4082
    9TCq1    C7  137   0.586   3.603  10.444 -0.1421 -0.1512  0.4571
    9TCq1    C8  138   0.389   3.606  10.585  0.0247  0.1428 -0.7811
    9TCq1    O4  139   0.412   3.728  10.589 -0.0460  0.2452  0.5381
    9TCq1    C9  140   0.500   3.208  10.344 -0.0126  0.0688  0.8763
    9TCq1    O5  141   0.414   3.150  10.417  0.5701 -0.6839  0.4258
    9TCq1    O6  142   0.577   3.148  10.264 -0.2201  0.4682  0.0913
    9TCq1    H1  143   0.777   3.684  10.489 -0.9224 -0.3405 -0.2415
    9TCq1    H2  144   0.719   3.356  10.264  2.0570  0.7564  2.5144
    9TCq1    H3  145   0.361   3.361  10.488 -0.1927 -1.4008 -1.5916
    9TCq1    H4  146   0.595   3.709  10.466  0.2120 -0.1458  0.2800
   10MPD2     C  147   0.152   3.710  10.735 -0.1550 -0.8618 -0.2000
   10MPD2    C1  148   0.181   3.575  10.719 -0.3918  0.8493 -0.2395
   10MPD2    C2  149   0.107   3.478  10.777 -1.0033 -0.0403  0.6131
   10MPD2    C3  150   0.025   3.508  10.880 -0.5197  0.1747  0.4670
   10MPD2    C4  151   4.720   3.641  10.899  0.2862  0.7361 -0.1945
   10MPD2    C5  152   0.062   3.741  10.830 -0.5764  0.3202 -0.2477
   10MPD2     H  153   0.128   3.377  10.744 -3.6247 -0.3329 -0.1417
   10MPD2    H1  154   4.651   3.664  10.980  0.0560  0.1130 -0.2133
   10MPD2    H2  155   0.197   3.792  10.680  2.7837 -0.9482  2.0689
   10MPD2    H3  156   0.028   3.844  10.831 -1.6638 -0.0374 -0.0079
   10MPD2     N  157   4.706   3.415  10.982 -0.1840  0.5170  0.1648
   10MPD2    H5  158   4.670   3.450  11.070  0.5993  0.3340  0.5625
   10MPD2    N1  159   0.284   3.533  10.631  0.7503  0.1985 -0.3724
   10MPD2    H7  160   0.281   3.436  10.602 -1.6657 -0.5542  2.3702
   11TCq1    O1  161   1.344   2.810  14.150  0.5338 -0.0161 -0.3170
   11TCq1    C1  162   1.257   2.760  14.240  0.1892  0.5503 -0.1094
   11TCq1    O2  163   1.163   2.686  14.211  0.4632 -0.2362  0.5169
   11TCq1    C2  164   1.263   2.828  14.370 -0.2495 -0.2735 -0.6689
   11TCq1    C3  165   1.372   2.909  14.396 -0.1620 -0.6610  0.4564
   11TCq1    C4  166   1.360   2.990  14.504  0.9907  0.0544 -0.1398
   11TCq1    C5  167   1.252   2.986  14.583 -0.5069  0.1077 -0.1719
   11TCq1    C6  168   1.150   2.902  14.550  0.3378  0.8499  0.1416
   11TCq1    C7  169   1.143   2.822  14.444 -0.4739  0.3479 -0.6070
   11TCq1    C8  170   1.024   2.910  14.621 -0.0566 -0.3123 -0.0291
   11TCq1    O4  171   1.031   2.941  14.738 -0.0434 -0.0073  0.2622
   11TCq1    C9  172   1.457   3.080  14.532 -0.8166 -0.0745  0.6409
   11TCq1    O5  173   1.558   3.084  14.453  0.0737  0.4797 -0.0309
   11TCq1    O6  174   1.443   3.167  14.618  0.4550  0.1352  0.2907
   11TCq1    H1  175   1.402   2.887  14.171 -0.4907  1.2588 -2.1507
   11TCq1    H2  176   1.468   2.906  14.346  0.3145 -1.1291  1.4013
   11TCq1    H3  177   1.244   3.048  14.672 -0.9516 -1.5289  0.9248
   11TCq1    H4  178   1.071   2.744  14.422 -0.4229 -0.1982  1.1990
   12MPD2     C  179   0.742   2.888  14.722  0.7266  0.2516 -0.2674
   12MPD2    C1  180   0.792   2.859  14.597  0.2984 -0.2579  0.7356
   12MPD2    C2  181   0.698   2.801  14.517 -0.1018  0.5365  0.5755
   12MPD2    C3  182   0.576   2.751  14.545  0.5008  0.0352  0.1237
   12MPD2    C4  183   0.541   2.757  14.677  0.4937 -0.3624  0.5041
   12MPD2    C5  184   0.621   2.830  14.765 -0.0187 -0.6230  0.6640
   12MPD2     H  185   0.717   2.788  14.411 -0.7620 -1.5100  0.7125
   12MPD2    H1  186   0.445   2.722  14.712  0.7441 -2.7168 -1.1646
   12MPD2    H2  187   0.790   2.944  14.801 -0.8004  1.5441 -0.2405
   12MPD2    H3  188   0.587   2.840  14.867  0.1559 -2.4731  0.8992
   12MPD2     N  189   0.502   2.694  14.441 -0.0198 -0.7607  0.3037
   12MPD2    H5  190   0.541   2.687  14.347  0.5380 -1.6577  0.6083
   12MPD2    N1  191   0.915   2.894  14.541 -0.5332  0.8364 -0.4163
   12MPD2    H7  192   0.923   2.877  14.442  0.8406 -0.7876 -0.0156
   13TCq1    O1  193   3.335   2.117  10.831 -0.3430 -0.1171  0.3008
   13TCq1    C1  194   3.390   2.007  10.766  0.2795 -0.5894  0.4878
   13TCq1    O2  195   3.397   1.893  10.817  0.2792  0.1448 -0.2667
   13TCq1    C2  196   3.440   2.047  10.641 -0.5972  0.3575 -0.6353
   13TCq1    C3  197   3.432   1.957  10.540 -0.8042  0.4662 -0.4651
   13TCq1    C4  198   3.515   1.976  10.431  0.1654 -0.1584  0.5732
   13TCq1    C5  199   3.609   2.078  10.436  0.3946 -0.0289 -0.3947
   13TCq1    C6  200   3.611   2.167  10.543  0.8381 -0.2957  0.1395
   13TCq1    C7  201   3.524   2.151  10.650  0.3051  0.0817 -0.5505
   13TCq1    C8  202   3.726   2.256  10.564 -0.3014  0.2309  0.4251
   13TCq1    O4  203   3.739   2.292  10.679  0.0903 -0.1310  0.1313
   13TCq1    C9  204   3.518   1.867  10.336 -0.5569  0.5474  0.0353
   13TCq1    O5  205   3.417   1.794  10.327 -0.7576 -0.0961  0.0463
   13TCq1    O6  206   3.626   1.857  10.271  0.5143  0.1078  0.0421
   13TCq1    H1  207   3.300   2.188  10.774 -0.6913 -1.2257 -0.8814
   13TCq1    H2  208   3.365   1.872  10.541  0.5988 -0.6310 -1.2570
   13TCq1    H3  209   3.693   2.085  10.367  1.4331 -3.3924  0.5099
   13TCq1    H4  210   3.530   2.215  10.737  0.6602  0.8913 -1.1638
   14MPD2     C  211   3.906   2.458  10.320 -0.2690  0.0082  0.9657
   14MPD2    C1  212   3.877   2.412  10.442  0.0953 -0.5949  0.0711
   14MPD2    C2  213   3.918   2.488  10.560  0.1380 -0.0933 -0.1297
   14MPD2    C3  214   3.999   2.595  10.546  0.1392  0.8605 -0.0382
   14MPD2    C4  215   4.032   2.635  10.418 -0.0051 -0.3995 -0.4316
   14MPD2    C5  216   3.978   2.575  10.311  0.2416 -0.2975  0.3879
   14MPD2     H  217   3.888   2.459  10.659 -1.4843 -5.2737 -2.1365
   14MPD2    H1  218   4.098   2.719  10.398 -0.7167 -0.0950 -1.4651
   14MPD2    H2  219   3.870   2.420  10.225  2.2428 -0.9451  0.4007
   14MPD2    H3  220   4.005   2.607  10.212  1.7065  0.4186  1.0260
   14MPD2     N  221   4.043   2.659  10.669  0.2279 -0.4083 -0.8925
   14MPD2    H5  222   4.000   2.623  10.753 -0.4766 -2.9023 -2.2962
   14MPD2    N1  223   3.788   2.304  10.449 -0.3481  0.7613 -0.5867
   14MPD2    H7  224   3.749   2.271  10.361 -1.7292  0.0280  0.3010
   15TCq1    O1  225   1.255   2.287   1.757 -0.4610 -0.0033  0.3094
   15TCq1    C1  226   1.290   2.197   1.655  0.9863  0.9099 -0.2321
   15TCq1    O2  227   1.295   2.227   1.535  0.3809 -0.1470  0.1846
   15TCq1    C2  228   1.359   2.079   1.713 -0.3473 -0.0433 -0.5779
   15TCq1    C3  229   1.302   1.998   1.815  0.0010  0.3650 -0.4626
   15TCq1    C4  230   1.377   1.892   1.865 -0.1287  0.1776 -0.2534
   15TCq1    C5  231   1.497   1.859   1.821 -0.1833  0.1281  0.2438
   15TCq1    C6  232   1.546   1.941   1.723  0.1575  0.0447  0.1610
   15TCq1    C7  233   1.479   2.047   1.664 -1.0327  0.4511 -0.8223
   15TCq1    C8  234   1.653   1.879   1.643  0.1752  0.1075 -0.0219
   15TCq1    O4  235   1.726   1.800   1.698 -0.3040  0.2056 -0.7203
   15TCq1    C9  236   1.313   1.800   1.965  0.0906  0.0867  0.0214
   15TCq1    O5  237   1.185   1.810   1.987  0.2099  0.0938  0.3886
   15TCq1    O6  238   1.394   1.715   2.007  0.2301  0.1329 -0.0508
   15TCq1    H1  239   1.262   2.240   1.844  1.7558  0.9081  0.6435
   15TCq1    H2  240   1.198   2.018   1.834  0.2010  0.7764  0.2062
   15TCq1    H3  241   1.555   1.780   1.866 -1.0673  1.0709  3.0155
   15TCq1    H4  242   1.521   2.112   1.588 -1.2813  1.8067  0.2051
   16MPD2     C  243   1.711   1.897   1.282  0.5630  0.1927  0.0225
   16MPD2    C1  244   1.735   1.863   1.413 -0.2484  0.1659 -0.2678
   16MPD2    C2  245   1.849   1.795   1.439 -0.9044 -0.2789  0.1673
   16MPD2    C3  246   1.929   1.751   1.334 -0.2509  0.2021 -0.1098
   16MPD2    C4  247   1.892   1.773   1.203 -0.0800 -0.4897 -0.5283
   16MPD2    C5  248   1.786   1.850   1.174 -0.0815 -0.2847 -0.0498
   16MPD2     H  249   1.878   1.769   1.540  1.1527  0.3215 -0.2675
   16MPD2    H1  250   1.961   1.747   1.123  0.9699 -0.3567  0.3483
   16MPD2    H2  251   1.638   1.972   1.254  0.2114  0.0271  0.4836
   16MPD2    H3  252   1.776   1.887   1.073  1.9206  3.4502  1.1475
   16MPD2     N  253   2.041   1.674   1.370  0.9444 -0.4036 -0.2730
   16MPD2    H5  254   2.060   1.663   1.469 -2.4371 -1.7665  0.2090
   16MPD2    N1  255   1.641   1.908   1.512 -0.0557 -0.5156  0.1812
   16MPD2    H7  256   1.571   1.978   1.488  0.2425 -0.0636  0.6262
   17TCq1    O1  257   4.534   2.071  11.538 -0.2439 -0.5753 -0.5261
   17TCq1    C1  258   4.543   2.200  11.493 -0.2599  0.1560 -0.1072
   17TCq1    O2  259   4.470   2.296  11.525  0.1115 -0.1555 -0.3417
   17TCq1    C2  260   4.678   2.214  11.457 -0.5631 -0.0998 -0.2166
   17TCq1    C3  261   0.055   2.138  11.518 -0.2196 -0.1306  0.5848
   17TCq1    C4  262   0.181   2.144  11.465  0.4858  0.3864  0.5934
   17TCq1    C5  263   0.211   2.229  11.361  0.0169  0.7642 -0.5280
   17TCq1    C6  264   0.115   2.311  11.310  0.3924 -0.3794  0.0043
   17TCq1    C7  265   4.712   2.307  11.368 -0.3276 -0.1346 -0.2227
   17TCq1    C8  266   0.131   2.382  11.187 -0.0552  0.3057 -0.0742
   17TCq1    O4  267   0.045   2.461  11.159 -0.2706 -0.2768 -0.4547
   17TCq1    C9  268   0.282   2.043  11.502  0.2007  0.1696  0.2340
   17TCq1    O5  269   0.377   2.025  11.422  0.4289 -0.1811  0.2917
   17TCq1    O6  270   0.239   1.954  11.576 -0.5669 -0.0769  0.4310
   17TCq1    H1  271   4.607   2.010  11.514 -0.0755  0.6956 -3.2782
   17TCq1    H2  272   0.030   2.066  11.595 -2.2131 -0.2997 -0.2168
   17TCq1    H3  273   0.311   2.223  11.321 -0.9954 -1.1834 -2.7446
   17TCq1    H4  274   4.636   2.368  11.321 -1.0917 -0.3708  0.7142
   18MPD2     C  275   0.178   2.456  10.901  0.1314 -0.6117  0.1003
   18MPD2    C1  276   0.244   2.354  10.966 -0.7388  0.9041  0.0399
   18MPD2    C2  277   0.339   2.289  10.896  0.0257  0.1652  0.3409
   18MPD2    C3  278   0.377   2.316  10.764 -0.8670 -0.1832 -0.2363
   18MPD2    C4  279   0.303   2.408  10.698  0.2279  0.1053  0.0368
   18MPD2    C5  280   0.206   2.475  10.772 -0.2040  0.4441 -0.3128
   18MPD2     H  281   0.390   2.215  10.956  2.2274  0.5272 -1.0949
   18MPD2    H1  282   0.328   2.439  10.597  1.7453 -1.2257  0.0151
   18MPD2    H2  283   0.107   2.522  10.950  0.3271  2.5738 -3.9022
   18MPD2    H3  284   0.162   2.549  10.706  0.8379 -0.2494 -1.7807
   18MPD2     N  285   0.486   2.259  10.687 -0.5177  0.3472  0.0501
   18MPD2    H5  286   0.510   2.284  10.591  2.0705 -1.4361  0.2339
   18MPD2    N1  287   0.225   2.320  11.104 -0.4548  0.2431 -0.3109
   18MPD2    H7  288   0.283   2.244  11.138 -0.6636  0.5528  0.7434
   19TMC2    C1  289   1.630   2.692  13.813 -0.7946  0.9907 -0.1185
   19TMC2    C2  290   1.520   2.754  13.755 -0.4440 -1.1390 -0.5228
   19TMC2    C3  291   1.398   2.709  13.786 -0.2458 -0.0943  0.3956
   19TMC2    C4  292   1.614   2.576  13.893  0.2154 -0.6196  0.5933
   19TMC2    C5  293   1.482   2.530  13.911  0.6970 -0.4865 -0.1757
   19TMC2    C6  294   1.377   2.598  13.855 -0.2212 -0.0427  0.6497
   19TMC2     C  295   1.758   2.736  13.759 -0.4539 -0.3561  0.1649
   19TMC2     O  296   1.745   2.820  13.673  0.0223  0.0109 -0.1558
   19TMC2     H  297   1.529   2.851  13.706  0.2120 -1.1626 -0.4539
   19TMC2    H1  298   1.701   2.521  13.928  0.6860 -0.8847 -0.9606
   19TMC2    H2  299   1.277   2.555  13.861 -0.1055 -0.3123  0.6234
   19TMC2    C7  300   1.444   2.406  13.976  0.2595 -0.0231 -0.3875
   19TMC2    C8  301   1.280   2.751  13.711  0.0367  0.7866  0.2814
   19TMC2    O1  302   1.332   2.354  13.960  0.1284 -0.4454 -0.3505
   19TMC2    O2  303   1.165   2.730  13.747 -0.1715 -0.0370  0.0049
   19TMC2    O5  304   1.315   2.799  13.591  0.1944 -0.2227  0.0844
   19TMC2    H5  305   1.401   2.773  13.554  0.6551  0.1865  0.8568
   20MPD2     C  306   2.033   2.762  13.673 -0.0009 -0.2341 -0.5048
   20MPD2    C1  307   2.001   2.705  13.794  0.3062  0.4808 -0.0720
   20MPD2    C2  308   2.098   2.671  13.881 -0.2560  0.5458  0.0525
   20MPD2    C3  309   2.229   2.694  13.852 -0.0511  0.6391 -0.1801
   20MPD2    C4  310   2.267   2.746  13.737  0.6760 -0.3493  0.0372
   20MPD2    C5  311   2.169   2.778  13.648 -0.3211  0.3774  0.0981
   20MPD2     H  312   2.073   2.623  13.975 -0.9079  1.2158  0.2198
   20MPD2    H1  313   2.371   2.764  13.710  0.4129  0.9209 -0.1704
   20MPD2    H2  314   1.958   2.808  13.609 -1.9632 -1.0966  1.1754
   20MPD2    H3  315   2.194   2.825  13.553  1.2660 -0.6044  0.0365
   20MPD2     N  316   2.334   2.667  13.942  0.1291  0.3491 -0.1318
   20MPD2    H5  317   2.424   2.707  13.916 -0.2575 -1.1783 -3.8807
   20MPD2    N1  318   1.867   2.684  13.825 -0.3216  0.4677  0.2169
   20MPD2    H7  319   1.850   2.648  13.919 -0.4993  1.6283  0.6274
   21MPD2     C  320   3.776   2.744  14.352 -0.2550 -0.4094 -0.1560
   21MPD2    C1  321   3.863   2.756  14.454  0.4153  0.5080 -0.2927
   21MPD2    C2  322   3.815   2.798  14.577 -1.1701  0.4457 -0.1184
   21MPD2    C3  323   3.683   2.834  14.589 -0.6924  0.0603  0.5464
   21MPD2    C4  324   3.600   2.799  14.487 -0.2843 -0.2797  0.2965
   21MPD2    C5  325   3.643   2.752  14.371  0.6012 -0.4466 -0.1420
   21MPD2     H  326   3.879   2.810  14.664  0.6273  2.3135 -1.7016
   21MPD2    H1  327   3.493   2.816  14.496 -0.7167 -3.1225  0.8250
   21MPD2    H2  328   3.809   2.709  14.255  0.8044 -1.7382  0.6798
   21MPD2    H3  329   3.581   2.745  14.281 -3.4665 -0.5508  2.6630
   21MPD2     N  330   3.635   2.883  14.715 -0.0255 -0.7717 -0.2044
   21MPD2    H5  331   3.708   2.876  14.785  0.8365  0.2703 -1.0008
   21MPD2    N1  332   3.993   2.721  14.432  0.2982 -0.3838  0.2217
   21MPD2    H7  333   3.996   2.684  14.338  0.5079 -0.7859  0.3846
   22TCq2    C1  334   3.511   2.937  14.734  0.1394  0.3842 -0.3947
   22TCq2    O2  335   3.420   2.964  14.655 -0.4062 -0.5657 -0.4026
   22TCq2    C2  336   3.499   2.964  14.879  0.3803  0.0026 -0.2065
   22TCq2    C3  337   3.500   2.860  14.964 -0.0396 -0.6104 -0.4241
   22TCq2    C4  338   3.476   2.880  15.099 -0.1994 -0.2847 -0.2838
   22TCq2    C5  339   3.487   3.011  15.147  0.0463 -0.1922 -1.0110
   22TCq2    C6  340   3.510   3.117  15.059  0.5948 -0.2476  0.5605
   22TCq2    C7  341   3.490   3.095  14.926 -0.0708  0.1072  0.5464
   22TCq2    C8  342   3.520   3.254  15.115  0.3682 -0.1603 -0.4716
   22TCq2    O4  343   3.561   3.266  15.231 -0.3510  0.4321 -0.6173
   22TCq2    C9  344   3.453   2.769  15.188 -0.1782 -0.7624  0.7430
   22TCq2    O5  345   3.509   2.662  15.148  0.9018  0.2852 -0.0195
   22TCq2    O6  346   3.404   2.790  15.301 -0.2549 -0.0880 -0.0813
   22TCq2    H2  347   3.490   2.759  14.925 -0.8597 -0.6429 -0.1241
   22TCq2    H3  348   3.479   3.023  15.254 -1.1026  0.1345 -1.1298
   22TCq2    H4  349   3.506   3.184  14.867 -0.7052  0.2883  0.6506
   23MPD2     C  350   1.115   3.612  14.951 -0.4794 -0.0068  0.4178
   23MPD2    C1  351   0.981   3.585  14.978 -0.1943 -0.8225 -0.2807
   23MPD2    C2  352   0.880   3.628  14.892 -0.6103 -0.2067  0.1016
   23MPD2    C3  353   0.907   3.697  14.773 -0.6027  0.2894  0.1273
   23MPD2    C4  354   1.039   3.730  14.753 -0.3232 -0.7692 -0.0059
   23MPD2    C5  355   1.140   3.679  14.834  0.0161  0.2091 -0.4915
   23MPD2     H  356   0.775   3.618  14.918 -0.3327 -3.2061  0.0965
   23MPD2    H1  357   1.077   3.786  14.669 -0.3766  0.4916  0.8223
   23MPD2    H2  358   1.201   3.583  15.010  0.7991 -1.4240 -2.1739
   23MPD2    H3  359   1.241   3.708  14.807  0.6445 -0.7028  0.8903
   23MPD2     N  360   0.816   3.764  14.693  0.1393  0.0887 -0.0380
   23MPD2    H5  361   0.852   3.827  14.623 -2.3626  1.2885 -0.2342
   23MPD2    N1  362   0.924   3.514  15.088 -0.3277  0.2224 -0.0044
   23MPD2    H7  363   0.825   3.497  15.098  0.0056 -0.0997  2.6290
   24TCq2    C1  364   0.682   3.740  14.707  0.0355  0.0481 -0.1174
   24TCq2    O2  365   0.618   3.654  14.764  0.9913 -0.3741  0.2446
   24TCq2    C2  366   0.599   3.818  14.611  1.1202 -0.1056 -0.0945
   24TCq2    C3  367   0.670   3.899  14.521  0.0482 -0.3422 -0.2049
   24TCq2    C4  368   0.596   3.920  14.403  0.4745  0.2979 -0.3996
   24TCq2    C5  369   0.482   3.861  14.375 -0.0148  0.1370 -0.2452
   24TCq2    C6  370   0.431   3.782  14.462 -0.3718  0.3001  0.2039
   24TCq2    C7  371   0.482   3.759  14.583 -0.6255  0.5791  0.7900
   24TCq2    C8  372   0.292   3.755  14.432  0.5873  0.7205  0.1912
   24TCq2    O4  373   0.270   3.731  14.315  0.0463  0.2091 -0.3213
   24TCq2    C9  374   0.650   4.007  14.306 -0.8801  0.5959  0.6103
   24TCq2    O5  375   0.740   4.081  14.354 -0.0875  0.1935  0.1550
   24TCq2    O6  376   0.587   4.022  14.195  0.6991  1.0024 -0.1988
   24TCq2    H2  377   0.764   3.946  14.547  0.1947 -0.7640  0.0142
   24TCq2    H3  378   0.421   3.894  14.292  2.2664  0.4733 -1.7972
   24TCq2    H4  379   0.442   3.677  14.640  0.1913 -0.5826 -0.3104
   25TMC2    C1  380   4.538   1.996  12.120 -0.1171 -0.4203  0.0926
   25TMC2    C2  381   4.610   2.047  12.221 -0.0510  0.0027  0.2096
   25TMC2    C3  382   4.659   2.170  12.214  0.0863  0.1695  0.5581
   25TMC2    C4  383   4.508   2.070  12.008  0.9453 -0.1290 -0.2039
   25TMC2    C5  384   4.546   2.202  12.007 -0.0838 -0.3648  0.3315
   25TMC2    C6  385   4.636   2.246  12.103  0.4558 -0.6881  0.2092
   25TMC2     C  386   4.437   1.899  12.154 -0.1661  0.8262 -0.8037
   25TMC2     O  387   4.461   1.841  12.260 -0.1305  0.3003 -0.1372
   25TMC2     H  388   4.620   1.983  12.307  1.0362  0.4531  0.4243
   25TMC2    H1  389   4.446   2.036  11.926  0.0818 -0.2373  0.4932
   25TMC2    H2  390   4.692   2.334  12.075 -0.7782 -0.0857 -0.3399
   25TMC2    C7  391   4.522   2.302  11.898 -0.4883 -0.3990 -0.3831
   25TMC2    C8  392   0.011   2.225  12.321 -0.1841 -0.4927  0.5047
   25TMC2    O1  393   4.602   2.390  11.887 -0.7713  0.1546  0.9296
   25TMC2    O2  394   0.057   2.144  12.398 -0.2565  0.5065 -0.1487
   25TMC2    O5  395   4.675   2.345  12.348 -0.5851  0.0521 -0.3661
   25TMC2    H5  396   4.617   2.379  12.277 -0.5867  1.2664  0.2098
   26MPD2     C  397   4.026   1.611  12.048 -0.6254  0.5444  0.1253
   26MPD2    C1  398   4.063   1.680  11.934  0.2523 -0.2128  0.0087
   26MPD2    C2  399   4.170   1.770  11.937 -0.0966  0.0537 -0.0020
   26MPD2    C3  400   4.244   1.780  12.053  0.6310  0.2928  0.7907
   26MPD2    C4  401   4.213   1.707  12.165  0.0956 -0.0442  0.2158
   26MPD2    C5  402   4.106   1.620  12.156  0.4711 -0.0226  0.1248
   26MPD2     H  403   4.200   1.825  11.849 -0.8034  1.2077  0.4883
   26MPD2    H1  404   4.275   1.713  12.254 -0.4506 -1.2520  0.6733
   26MPD2    H2  405   3.941   1.543  12.055 -0.6271  0.4252 -1.0489
   26MPD2    H3  406   4.078   1.570  12.248  2.2096  0.5352  0.9536
   26MPD2     N  407   4.356   1.869  12.053 -0.1023 -0.7192 -0.1705
   26MPD2    H5  408   4.373   1.909  11.962  0.7886 -0.1739  0.2395
   26MPD2    N1  409   3.995   1.646  11.812  0.5630 -0.0235 -0.1388
   26MPD2    H7  410   3.906   1.598  11.809  0.2126  0.6300 -0.2643
   27TMC2    C1  411   3.090   3.349  11.837 -0.9250 -0.0445 -0.6176
   27TMC2    C2  412   2.991   3.434  11.792  0.2549  0.6701 -0.0473
   27TMC2    C3  413   3.031   3.559  11.756  0.6597 -0.1954 -0.0842
   27TMC2    C4  414   3.221   3.374  11.821  0.2965 -0.1086  0.7384
   27TMC2    C5  415   3.255   3.496  11.788 -0.3700  0.1299  0.0356
   27TMC2    C6  416   3.162   3.588  11.747 -0.4061  0.4661  0.1349
   27TMC2     C  417   3.058   3.262  11.944  0.0422  0.7070 -0.0017
   27TMC2     O  418   3.107   3.154  11.931 -0.0150  0.2186 -0.0669
   27TMC2     H  419   2.887   3.429  11.822 -0.0211 -1.9773 -1.4767
   27TMC2    H1  420   3.293   3.308  11.867  0.6488 -0.7756 -0.7589
   27TMC2    H2  421   3.197   3.686  11.715  0.1564  0.7499  1.5884
   27TMC2    C7  422   3.363   3.542  11.864  0.1495  0.1638  0.0862
   27TMC2    C8  423   2.941   3.610  11.646  0.2255  0.2912 -0.5985
   27TMC2    O1  424   3.401   3.468  11.952 -0.0307  0.1693 -0.0465
   27TMC2    O2  425   2.887   3.530  11.570  0.3996  0.3029  0.5619
   27TMC2    O5  426   2.970   3.739  11.624  0.6134  0.1197 -0.1783
   27TMC2    H5  427   3.013   3.774  11.705  0.2236  1.7880 -0.6792
   28MPD2     C  428   2.976   3.210  12.442  0.1246  0.3833 -0.1652
   28MPD2    C1  429   2.934   3.337  12.417  0.3304 -0.5316 -0.1439
   28MPD2    C2  430   2.945   3.381  12.284  0.5688 -0.0848  0.0297
   28MPD2    C3  431   2.984   3.297  12.182  0.3694  0.5446 -0.4995
   28MPD2    C4  432   3.002   3.166  12.219 -0.1671  0.6643  0.1788
   28MPD2    C5  433   3.017   3.127  12.344 -0.4841  0.3218  0.3110
   28MPD2     H  434   2.917   3.483  12.260 -1.2548 -0.0629  2.2984
   28MPD2    H1  435   3.035   3.094  12.144  1.2593  0.6064  0.8628
   28MPD2    H2  436   2.963   3.173  12.543 -0.6250  2.3446  0.4539
   28MPD2    H3  437   3.020   3.021  12.368  1.5520  0.2903 -0.1096
   28MPD2     N  438   3.004   3.340  12.047 -0.0719 -0.3123  0.1723
   28MPD2    H5  439   2.988   3.437  12.023  0.1242 -0.4540 -0.5068
   28MPD2    N1  440   2.868   3.410  12.521 -0.1043 -0.4260 -0.2530
   28MPD2    H7  441   2.841   3.351  12.599 -1.3589  2.2156  1.3009
   29MPD2     C  442   3.197   1.179  13.588 -0.1061 -0.3541  0.4127
   29MPD2    C1  443   3.152   1.142  13.714  0.1086  0.0092 -0.2026
   29MPD2    C2  444   3.143   1.239  13.806  0.2948 -0.3467  1.2396
   29MPD2    C3  445   3.188   1.368  13.783  0.2483  0.1751 -0.9616
   29MPD2    C4  446   3.239   1.400  13.659 -0.5509  0.2431  0.2718
   29MPD2    C5  447   3.239   1.305  13.558  0.6061 -0.7216 -0.6941
   29MPD2     H  448   3.128   1.213  13.910  0.2663 -0.9924  1.0740
   29MPD2    H1  449   3.275   1.502  13.649  0.7219 -0.5266 -3.1128
   29MPD2    H2  450   3.213   1.100  13.515  0.6516  1.2172 -1.1276
   29MPD2    H3  451   3.281   1.329  13.461 -1.4155  0.0544 -1.4013
   29MPD2     N  452   3.203   1.462  13.886 -0.0615  0.1341 -0.4118
   29MPD2    H5  453   3.260   1.542  13.861  0.7154 -0.6357 -1.0818
   29MPD2    N1  454   3.116   1.003  13.743 -0.0859 -0.3328 -0.8648
   29MPD2    H7  455   3.096   0.980  13.840  0.0355  0.2343 -0.7058
   30TCq2    C1  456   3.169   1.447  14.012  0.0416  0.3324 -0.6131
   30TCq2    O2  457   3.077   1.379  14.044 -0.0403  0.2457 -0.0217
   30TCq2    C2  458   3.235   1.532  14.110  0.1601  0.9026 -0.0990
   30TCq2    C3  459   3.156   1.565  14.223  0.0389 -0.4446 -0.3067
   30TCq2    C4  460   3.206   1.643  14.317  0.7989 -0.7699  0.6276
   30TCq2    C5  461   3.333   1.690  14.311 -0.0798 -0.1273 -0.1093
   30TCq2    C6  462   3.406   1.662  14.199 -0.1862  0.1993 -0.5744
   30TCq2    C7  463   3.362   1.577  14.099 -0.0139 -0.0741  0.3440
   30TCq2    C8  464   3.536   1.726  14.190 -0.4521 -0.2385  0.1521
   30TCq2    O4  465   3.624   1.677  14.119  0.0462 -0.0432 -0.2756
   30TCq2    C9  466   3.120   1.700  14.423  0.4360 -0.1863  0.1874
   30TCq2    O5  467   3.004   1.661  14.440 -0.3905 -0.4180 -0.4209
   30TCq2    O6  468   3.166   1.805  14.479 -0.2496  0.3139  0.8286
   30TCq2    H2  469   3.054   1.529  14.232  0.3386 -1.2385 -0.0239
   30TCq2    H3  470   3.366   1.759  14.388 -1.1267  0.4946 -0.2191
   30TCq2    H4  471   3.419   1.550  14.010 -0.0026  2.2416 -0.3447
   31MPD2     C  472   0.958   4.709  14.859 -0.4143 -0.6261  0.1830
   31MPD2    C1  473   0.830   0.015  14.811 -0.3270 -0.2474  0.4227
   31MPD2    C2  474   0.718   4.720  14.891  0.5573  0.0704 -0.0324
   31MPD2    C3  475   0.730   4.663  15.012  0.5561 -0.1761  0.0363
   31MPD2    C4  476   0.853   4.625  15.057  0.8292 -0.4717 -0.1661
   31MPD2    C5  477   0.966   4.656  14.986 -0.2732  0.3217 -0.4625
   31MPD2     H  478   0.618   0.011  14.853  0.4434 -0.1662  0.1843
   31MPD2    H1  479   0.875   4.570  15.148  1.3703 -1.8003 -1.0998
   31MPD2    H2  480   1.048   4.721  14.799 -0.3718  2.1679  0.7899
   31MPD2    H3  481   1.060   4.617  15.023 -0.2251 -1.1543 -2.1397
   31MPD2     N  482   0.623   4.631  15.097  0.2835 -0.1427  0.2838
   31MPD2    H5  483   0.640   4.568  15.175 -1.4051 -1.5455 -0.4684
   31MPD2    N1  484   0.828   0.066  14.676 -0.2190 -0.5823 -0.2727
   31MPD2    H7  485   0.916   0.104  14.642  0.5247 -0.9485  1.2418
   32TCq2    C1  486   0.501   4.693  15.085 -0.0899  0.2264  0.0649
   32TCq2    O2  487   0.452   0.046  14.999 -1.0835  0.7564  0.4760
   32TCq2    C2  488   0.404   4.639  15.180 -0.4829  0.2875  0.8754
   32TCq2    C3  489   0.270   4.630  15.144 -0.5042 -0.5356 -1.0678
   32TCq2    C4  490   0.188   4.568  15.239  0.7325  0.0615  0.5191
   32TCq2    C5  491   0.236   4.545  15.365 -0.0007  0.1443 -0.3112
   32TCq2    C6  492   0.365   4.573  15.404 -0.1355 -0.2072 -0.1366
   32TCq2    C7  493   0.454   4.608  15.307 -0.7228  0.5114 -0.6577
   32TCq2    C8  494   0.402   4.581  15.548 -0.8529  0.1531 -0.0259
   32TCq2    O4  495   0.521   4.599  15.566 -0.4700  0.3568 -0.1531
   32TCq2    C9  496   0.048   4.550  15.211 -0.1698 -0.0008  0.2351
   32TCq2    O5  497   0.006   4.571  15.091 -0.9212  0.1530 -0.2216
   32TCq2    O6  498   4.694   4.530  15.310 -0.5074  0.0974  0.0632
   32TCq2    H2  499   0.240   4.638  15.041  0.3472  0.8814 -1.2071
   32TCq2    H3  500   0.157   4.516  15.434  0.1375 -0.8227 -0.5513
   32TCq2    H4  501   0.557   4.627  15.335  0.2924 -1.9688 -2.6867
   33MPD2     C  502   0.953   2.597  10.373 -0.0872  0.8149  0.1478
   33MPD2    C1  503   0.913   2.488  10.308 -1.1071  0.0362  0.8527
   33MPD2    C2  504   0.935   2.473  10.170  0.0431  0.0165 -0.7735
   33MPD2    C3  505   0.981   2.583  10.098  0.6928 -0.8388 -0.0232
   33MPD2    C4  506   1.024   2.697  10.167  0.1049 -0.0965  0.6720
   33MPD2    C5  507   0.998   2.703  10.302  0.0678 -0.2344 -0.1467
   33MPD2     H  508   0.881   2.389  10.127  1.8547 -1.4431 -0.2173
   33MPD2    H1  509   1.069   2.784  10.120  1.0263 -0.0274  1.6740
   33MPD2    H2  510   0.958   2.595  10.481  5.5177 -0.5749 -0.1630
   33MPD2    H3  511   1.021   2.792  10.360  2.6386 -1.6868  1.0889
   33MPD2     N  512   0.989   2.587   9.961  0.0342 -0.2573 -0.8559
   33MPD2    H5  513   1.030   2.668   9.915 -0.5650 -0.4459 -1.7296
   33MPD2    N1  514   0.844   2.390  10.383 -0.2379 -0.4445 -0.4435
   33MPD2    H7  515   0.836   2.422  10.479  3.0056  0.5135 -0.5058
   34TCq2    C1  516   0.951   2.483   9.877 -0.6479  0.5569  0.1039
   34TCq2    O2  517   0.869   2.394   9.891 -0.2642 -0.1886 -0.5756
   34TCq2    C2  518   1.013   2.499   9.750  0.4174  0.0603  0.0561
   34TCq2    C3  519   0.944   2.465   9.641  0.1386  0.0303 -0.2630
   34TCq2    C4  520   1.007   2.475   9.514 -0.1519 -0.6036 -0.2696
   34TCq2    C5  521   1.131   2.535   9.504 -0.5335  0.2465 -0.4685
   34TCq2    C6  522   1.193   2.570   9.616  0.0210 -0.1700 -0.1752
   34TCq2    C7  523   1.134   2.562   9.742 -0.3028 -0.1523 -0.4964
   34TCq2    C8  524   1.306   2.666   9.606  0.6429 -0.2537  0.7400
   34TCq2    O4  525   1.337   2.731   9.706  0.0268  0.6013  0.2532
   34TCq2    C9  526   0.931   2.457   9.395  0.1418  0.4377 -0.4969
   34TCq2    O5  527   0.807   2.436   9.406  0.6114  0.2462 -0.4339
   34TCq2    O6  528   0.988   2.474   9.283  0.4954 -0.6898  0.0770
   34TCq2    H2  529   0.844   2.423   9.635 -0.3592  1.2281 -0.4394
   34TCq2    H3  530   1.169   2.566   9.407  0.9790  0.7821  0.3082
   34TCq2    H4  531   1.194   2.589   9.828 -1.0617  1.0548 -0.3552
   35MPD2     C  532   2.412   4.205  11.981 -0.5755 -0.3918  0.0533
   35MPD2    C1  533   2.303   4.124  11.997 -0.1300  0.7614 -0.7475
   35MPD2    C2  534   2.237   4.071  11.887  0.5912 -0.1208  0.1103
   35MPD2    C3  535   2.278   4.104  11.756  0.4488 -0.7687 -0.0028
   35MPD2    C4  536   2.384   4.191  11.742  0.4914  0.0621 -0.1455
   35MPD2    C5  537   2.448   4.235  11.852 -0.3654 -0.4099 -0.1476
   35MPD2     H  538   2.152   4.004  11.898  1.3790 -1.0013  0.8518
   35MPD2    H1  539   2.423   4.223  11.646 -0.3625 -0.0019 -0.5156
   35MPD2    H2  540   2.466   4.246  12.065  0.4419  1.2988 -1.4067
   35MPD2    H3  541   2.531   4.304  11.843 -1.2193  0.9214  2.0037
   35MPD2     N  542   2.201   4.079  11.640 -0.0474 -0.0819 -0.6105
   35MPD2    H5  543   2.251   4.095  11.552  0.3788  1.0343 -0.1662
   35MPD2    N1  544   2.263   4.097  12.131  0.1923 -0.0949  0.6497
   35MPD2    H7  545   2.328   4.126  12.203  0.2262 -1.4791  1.1667
   36TCq2    C1  546   2.081   4.017  11.633  0.7155 -0.2899 -0.2556
   36TCq2    O2  547   2.005   3.970  11.715  0.0111  0.5778  0.5131
   36TCq2    C2  548   2.040   4.004  11.497 -0.1716  0.0018  0.0494
   36TCq2    C3  549   2.086   4.093  11.403 -0.4692  0.1810 -0.1450
   36TCq2    C4  550   2.032   4.087  11.277 -0.0968  0.8853  0.2091
   36TCq2    C5  551   1.952   3.982  11.242 -0.0150 -0.0597  0.0875
   36TCq2    C6  552   1.906   3.896  11.338  0.0616  0.5191 -0.1872
   36TCq2    C7  553   1.945   3.914  11.472 -0.0503  0.3479 -0.3724
   36TCq2    C8  554   1.790   3.812  11.322  0.8908  0.2776 -0.1496
   36TCq2    O4  555   1.776   3.715  11.396  0.0569  0.2584  0.0563
   36TCq2    C9  556   2.065   4.181  11.183 -0.3791  0.3139  0.0590
   36TCq2    O5  557   2.035   4.151  11.064 -0.3792 -0.1479 -0.4539
   36TCq2    O6  558   2.170   4.249  11.208 -0.7512  0.0608  0.1702
   36TCq2    H2  559   2.132   4.187  11.431 -0.6948  0.5265 -0.9146
   36TCq2    H3  560   1.921   3.978  11.139 -2.2420 -0.0651  0.7520
   36TCq2    H4  561   1.922   3.845  11.552 -1.3549  2.4321  1.0650
   37TMC2    C1  562   4.153   4.106  11.547  0.7818  1.0280  0.6533
   37TMC2    C2  563   4.110   4.095  11.418  0.2105 -0.3995 -0.3053
   37TMC2    C3  564   4.202   4.041  11.334 -0.0475 -0.1883 -0.1230
   37TMC2    C4  565   4.283   4.083  11.584 -0.5402  0.8019 -0.6371
   37TMC2    C5  566   4.376   4.048  11.487  0.6325  0.5743  0.7557
   37TMC2    C6  567   4.331   4.017  11.359 -0.8203  0.2268  0.0324
   37TMC2     C  568   4.045   4.115  11.647  0.5070 -0.0752  0.2096
   37TMC2     O  569   3.929   4.117  11.606 -0.0592  0.0970  0.2402
   37TMC2     H  570   4.005   4.103  11.390 -0.1977  1.0385  1.5868
   37TMC2    H1  571   4.317   4.091  11.686 -0.7461  0.0270 -0.5120
   37TMC2    H2  572   4.396   3.975  11.284 -0.4174  1.4243 -0.2931
   37TMC2    C7  573   4.510   4.017  11.532  0.1468  0.0108 -0.0994
   37TMC2    C8  574   4.156   4.022  11.195  0.1022 -0.0601  0.2940
   37TMC2    O1  575   4.514   3.983  11.651 -0.4811  0.3219  0.4682
   37TMC2    O2  576   4.200   3.935  11.123  0.0025 -0.4469 -0.0141
   37TMC2    O5  577   4.051   4.102  11.170  0.5169  0.2136  0.9457
   37TMC2    H5  578   4.037   4.177  11.231 -0.7403  0.5846  0.2030
   38MPD2     C  579   3.903   4.099  12.155 -0.0178 -0.5954  0.5887
   38MPD2    C1  580   4.038   4.090  12.142 -0.5262  0.8258  0.0431
   38MPD2    C2  581   4.089   4.111  12.015 -0.6190 -0.5735 -0.7093
   38MPD2    C3  582   4.018   4.136  11.898  0.3475  0.0366 -1.0954
   38MPD2    C4  583   3.881   4.123  11.917  1.1153  0.6287 -0.2127
   38MPD2    C5  584   3.818   4.120  12.042  0.2904  0.0845  0.1567
   38MPD2     H  585   4.197   4.115  12.005 -0.2842 -3.3886  1.9814
   38MPD2    H1  586   3.824   4.127  11.825  0.5500 -1.2695  0.0578
   38MPD2    H2  587   3.851   4.095  12.250 -1.1529 -1.1459 -0.0611
   38MPD2    H3  588   3.711   4.129  12.055  0.3397 -0.2385  0.7858
   38MPD2     N  589   4.088   4.140  11.777  0.0642 -0.3306  0.5481
   38MPD2    H5  590   4.187   4.153  11.790  0.3486 -1.1197 -0.8240
   38MPD2    N1  591   4.128   4.072  12.248 -0.4855 -0.1459  0.3594
   38MPD2    H7  592   4.227   4.071  12.223 -0.4150 -2.3372  0.6995
   39MPD2     C  593   2.399   1.190   1.833 -0.1275  0.2436  0.7652
   39MPD2    C1  594   2.286   1.265   1.859  0.1344  0.4161  0.0399
   39MPD2    C2  595   2.195   1.287   1.763  0.3357  0.8073 -0.2916
   39MPD2    C3  596   2.202   1.223   1.643 -0.2960  0.1686  0.2694
   39MPD2    C4  597   2.319   1.154   1.607 -0.7313 -0.3671  0.2060
   39MPD2    C5  598   2.414   1.142   1.706 -0.5640  0.0590 -0.2472
   39MPD2     H  599   2.111   1.355   1.771 -0.4789  0.1339 -3.0662
   39MPD2    H1  600   2.317   1.104   1.511 -1.6937 -1.6524  0.8999
   39MPD2    H2  601   2.474   1.183   1.912  1.1384  0.6866 -0.3905
   39MPD2    H3  602   2.505   1.088   1.682  0.0559  1.1950 -0.4610
   39MPD2     N  603   2.103   1.226   1.542  0.2002  0.1664  0.4734
   39MPD2    H5  604   2.121   1.168   1.460  1.6896 -0.6504  1.3627
   39MPD2    N1  605   2.276   1.328   1.983  0.3561  0.0048 -0.1924
   39MPD2    H7  606   2.354   1.321   2.048  1.2022 -1.7343 -1.3874
   40TCq2    C1  607   2.170   1.396   2.030  0.0541 -0.5754  0.2912
   40TCq2    O2  608   2.053   1.398   1.986 -0.0723  0.2559  0.1719
   40TCq2    C2  609   2.190   1.456   2.163  0.5414  0.1956  0.1948
   40TCq2    C3  610   2.079   1.467   2.235  0.0234  0.9599 -0.1932
   40TCq2    C4  611   2.096   1.500   2.369 -0.1374  0.0551 -0.4188
   40TCq2    C5  612   2.212   1.533   2.429 -0.1443 -0.1950 -0.0659
   40TCq2    C6  613   2.322   1.515   2.351 -0.1512 -0.3659  0.3320
   40TCq2    C7  614   2.315   1.475   2.220 -0.3520 -1.0965 -0.3440
   40TCq2    C8  615   2.440   1.583   2.394 -0.0656  0.6604  0.4894
   40TCq2    O4  616   2.445   1.595   2.516  0.7597 -0.5158  0.0652
   40TCq2    C9  617   1.976   1.550   2.442  0.0523  0.1787  0.1150
   40TCq2    O5  618   1.877   1.578   2.366  0.6138 -0.5100  0.2341
   40TCq2    O6  619   1.991   1.546   2.569 -0.4477 -0.4239  0.4185
   40TCq2    H2  620   1.978   1.452   2.199  0.1548 -0.3918  0.0266
   40TCq2    H3  621   2.210   1.592   2.520 -0.9432 -2.8965  1.6509
   40TCq2    H4  622   2.403   1.457   2.159 -0.2049  1.7718 -0.9807
   41TMC2    C1  623   1.748   3.909  13.464  0.0752 -0.5609  0.4007
   41TMC2    C2  624   1.764   4.013  13.548 -0.3142  0.3899  0.0926
   41TMC2    C3  625   1.705   4.131  13.510 -1.4439 -0.4376 -0.0172
   41TMC2    C4  626   1.674   3.915  13.351 -0.1294  0.1936  0.6273
   41TMC2    C5  627   1.627   4.032  13.305 -0.1757  0.2973 -0.1361
   41TMC2    C6  628   1.636   4.142  13.387  0.7163  0.3594 -0.0139
   41TMC2     C  629   1.801   3.777  13.493  0.3713  0.3880 -0.0969
   41TMC2     O  630   1.822   3.703  13.404  0.3735 -0.7449  0.3956
   41TMC2     H  631   1.837   4.007  13.628 -0.9842 -0.0065  0.6662
   41TMC2    H1  632   1.655   3.819  13.304  2.2460 -0.5363  1.1550
   41TMC2    H2  633   1.593   4.236  13.358 -1.4240 -0.9376 -0.9972
   41TMC2    C7  634   1.581   4.046  13.170  0.3477 -0.0725 -0.0932
   41TMC2    C8  635   1.749   4.252  13.583  0.5453 -0.1477  0.1977
   41TMC2    O1  636   1.510   4.141  13.137  0.1921 -0.0252 -0.0336
   41TMC2    O2  637   1.758   4.257  13.702 -0.1441  0.4754 -0.7061
   41TMC2    O5  638   1.800   4.333  13.495 -0.1442  0.0061 -0.4217
   41TMC2    H5  639   1.804   4.301  13.402  0.4448  2.0708 -1.1030
   42MPD2     C  640   1.941   3.539  13.603  0.1537 -0.2077  0.1283
   42MPD2    C1  641   1.895   3.650  13.679  0.3619  1.0018  0.5612
   42MPD2    C2  642   1.913   3.646  13.818 -0.7979  1.1986 -0.2339
   42MPD2    C3  643   1.970   3.535  13.881 -0.1275  0.5005  0.4328
   42MPD2    C4  644   2.018   3.432  13.801 -0.0448 -0.3833  0.2713
   42MPD2    C5  645   2.001   3.435  13.666 -0.1129 -0.3743  0.0362
   42MPD2     H  646   1.887   3.739  13.867  2.1218  1.5411  0.6542
   42MPD2    H1  647   2.073   3.352  13.849  0.9670  0.4343  0.4904
   42MPD2    H2  648   1.925   3.529  13.496 -0.6427 -0.3912  0.2617
   42MPD2    H3  649   2.039   3.353  13.606 -1.0645  0.4167 -1.6614
   42MPD2     N  650   1.986   3.518  14.022  0.0114  0.1793  0.1993
   42MPD2    H5  651   2.018   3.427  14.052  1.3970  0.8596  0.7950
   42MPD2    N1  652   1.821   3.754  13.627 -0.2395  0.5539 -0.7600
   42MPD2    H7  653   1.789   3.821  13.697 -0.3295  2.5961 -2.7699
   43MPD2     C  654   2.382   2.514   0.747 -0.3414  0.1619  0.6638
   43MPD2    C1  655   2.513   2.481   0.800  0.1075  0.5843  0.5178
   43MPD2    C2  656   2.542   2.522   0.927  0.4451 -0.3366  1.1021
   43MPD2    C3  657   2.457   2.602   0.994  0.1435 -0.3900 -0.1008
   43MPD2    C4  658   2.327   2.624   0.949 -0.4216  0.1936 -0.0123
   43MPD2    C5  659   2.291   2.581   0.822 -0.1460  0.3341  0.2647
   43MPD2     H  660   2.627   2.483   0.983 -0.1345 -0.9652  1.5441
   43MPD2    H1  661   2.253   2.677   1.009  1.4899  1.1563  1.5015
   43MPD2    H2  662   2.346   2.468   0.655 -0.5494 -1.8359  1.7542
   43MPD2    H3  663   2.186   2.589   0.794 -1.1782  0.0087  4.0722
   43MPD2     N  664   2.485   2.639   1.127 -0.4103  0.1068  0.7566
   43MPD2    H5  665   2.405   2.678   1.177 -1.1233 -1.6165  0.9330
   43MPD2    N1  666   2.599   2.385   0.738 -0.5873  0.2590 -0.1733
   43MPD2    H7  667   2.682   2.368   0.795 -0.2063  1.5970 -0.3284
   44TCq2    C1  668   2.826   2.525   1.581 -0.5806 -0.3487  0.8346
   44TCq2    O2  669   2.932   2.554   1.526 -0.0995 -0.3216 -0.0251
   44TCq2    C2  670   2.712   2.593   1.526 -0.4346  0.4192 -0.0941
   44TCq2    C3  671   2.598   2.601   1.596  0.6304 -0.0674 -0.4787
   44TCq2    C4  672   2.486   2.653   1.531 -0.3817 -0.0800  0.4270
   44TCq2    C5  673   2.486   2.671   1.401  0.1289 -0.6177  0.0064
   44TCq2    C6  674   2.600   2.664   1.331 -0.2243 -0.8757 -0.2440
   44TCq2    C7  675   2.716   2.624   1.399 -0.4199  0.3217  0.2627
   44TCq2    C8  676   2.609   2.638   1.186  0.6630 -0.4590 -0.5915
   44TCq2    O4  677   2.716   2.624   1.134  0.0257 -0.5020 -0.3585
   44TCq2    C9  678   2.374   2.665   1.615 -0.3154 -0.1380 -0.0616
   44TCq2    O5  679   2.395   2.631   1.736  0.2620  0.5199  0.0149
   44TCq2    O6  680   2.270   2.717   1.564 -0.2343  0.1857  0.3668
   44TCq2    H2  681   2.599   2.598   1.704  0.3918  0.3226 -0.4680
   44TCq2    H3  682   2.394   2.704   1.355  0.4697 -0.4660 -0.5773
   44TCq2    H4  683   2.802   2.597   1.338  1.2012  0.5842  2.4500
   45TMC2    C1  684   3.685   4.707   9.906 -0.0938 -0.3860  0.5126
   45TMC2    C2  685   3.580   4.667   9.822  0.4433  0.1005  0.4020
   45TMC2    C3  686   3.477   0.030   9.798  0.6542  0.5295 -0.2940
   45TMC2    C4  687   3.689   0.108   9.964 -0.1117 -0.5086 -0.0092
   45TMC2    C5  688   3.580   0.185   9.932 -0.2872  0.7607 -0.6316
   45TMC2    C6  689   3.471   0.152   9.858  0.2861 -0.2981 -0.6082
   45TMC2     C  690   3.804   4.628   9.909  0.3072 -0.0640  0.1111
   45TMC2     O  691   3.880   4.655  10.000 -0.0313 -0.1508 -0.5271
   45TMC2     H  692   3.573   4.565   9.785  0.2014  0.9831 -1.9975
   45TMC2    H1  693   3.776   0.153  10.011  0.5050 -0.3909 -1.2607
   45TMC2    H2  694   3.402   0.230   9.827 -1.2408 -1.0126  1.0059
   45TMC2    C7  695   3.570   0.315   9.996  0.0886 -0.4669  0.5104
   45TMC2    C8  696   3.378   4.701   9.707 -0.4620 -0.2297  0.0111
   45TMC2    O1  697   3.624   0.327  10.100 -0.2030  0.2760 -0.5923
   45TMC2    O2  698   3.431   4.659   9.606 -0.1670  0.2943 -0.3447
   45TMC2    O5  699   3.276   0.067   9.723  0.4042 -0.3560 -0.3115
   45TMC2    H5  700   3.255   0.085   9.817 -0.9615  0.1059 -0.7105
   46MPD2     C  701   3.999   4.400   9.912  0.0555  0.0959  0.0508
   46MPD2    C1  702   3.887   4.403   9.840 -0.3431  0.0570 -0.3672
   46MPD2    C2  703   3.869   4.303   9.755  0.2274  0.2525  0.5884
   46MPD2    C3  704   3.948   4.188   9.765  0.1779 -0.0942 -0.0238
   46MPD2    C4  705   4.055   4.179   9.846  0.2811  0.3940  0.1940
   46MPD2    C5  706   4.082   4.290   9.928 -0.5892  0.6594  0.7563
   46MPD2     H  707   3.774   4.297   9.703  0.1022 -0.0961  0.8562
   46MPD2    H1  708   4.117   4.091   9.834 -0.8219 -0.4364  0.6388
   46MPD2    H2  709   4.026   4.478   9.983 -0.4703 -0.2298  0.6044
   46MPD2    H3  710   4.170   4.291   9.990 -0.9777  0.0615  1.3188
   46MPD2     N  711   3.905   4.080   9.687  0.0285 -0.1656  0.0252
   46MPD2    H5  712   3.826   4.098   9.626 -0.0271 -3.0336 -0.7607
   46MPD2    N1  713   3.796   4.515   9.831  0.2794  0.2093 -0.5034
   46MPD2    H7  714   3.719   4.506   9.765 -0.2597  0.6127  0.0664
   47TMC2    C1  715   1.491   4.146   9.472  0.2227  0.1820 -0.5034
   47TMC2    C2  716   1.574   4.044   9.429  0.7398 -0.1011  1.1909
   47TMC2    C3  717   1.518   3.927   9.384  0.3790  0.2127  0.1056
   47TMC2    C4  718   1.356   4.135   9.467  0.5203  0.2240  0.4208
   47TMC2    C5  719   1.303   4.017   9.417 -0.7584  0.0119 -0.1272
   47TMC2    C6  720   1.376   3.914   9.369  0.3771  0.1682  0.0621
   47TMC2     C  721   1.533   4.259   9.550 -0.2006  0.1348 -0.4218
   47TMC2     O  722   1.458   4.358   9.549  0.1124 -0.2836  0.3406
   47TMC2     H  723   1.681   4.059   9.430  0.4741  1.9924 -0.5265
   47TMC2    H1  724   1.295   4.205   9.523 -0.3471 -1.3691  1.4842
   47TMC2    H2  725   1.349   3.828   9.310 -1.7373  1.9361 -1.5693
   47TMC2    C7  726   1.162   3.993   9.412 -0.0841 -0.0521 -0.5258
   47TMC2    C8  727   1.607   3.840   9.310 -0.6829  0.3185 -0.0332
   47TMC2    O1  728   1.115   3.903   9.346  0.4107 -0.1373  0.0972
   47TMC2    O2  729   1.713   3.881   9.261  0.8493 -0.2236  0.3144
   47TMC2    O5  730   1.581   3.712   9.342  0.1296 -0.3697  1.0455
   47TMC2    H5  731   1.508   3.690   9.404  0.0798  0.1319  1.1623
   48MPD2     C  732   1.674   4.440   9.733  0.7827 -0.0222  0.1634
   48MPD2    C1  733   1.732   4.333   9.669 -0.0268 -0.1012  0.4053
   48MPD2    C2  734   1.855   4.285   9.704 -0.0799  0.4767 -0.7656
   48MPD2    C3  735   1.913   4.348   9.813 -0.4049  0.2774 -0.0696
   48MPD2    C4  736   1.851   4.443   9.887 -0.5353  0.9167 -0.3917
   48MPD2    C5  737   1.731   4.490   9.845  0.5217 -0.3541 -0.6639
   48MPD2     H  738   1.895   4.199   9.653 -0.5822  1.3738 -2.6685
   48MPD2    H1  739   1.884   4.495   9.976  0.6308 -1.8482  0.7851
   48MPD2    H2  740   1.572   4.471   9.709  1.0931  1.5593  0.8882
   48MPD2    H3  741   1.680   4.569   9.898  2.7731  0.9727 -0.4604
   48MPD2     N  742   2.046   4.295   9.851 -0.1598  0.0470 -0.8491
   48MPD2    H5  743   2.086   4.219   9.797  1.4032 -0.7542  1.4396
   48MPD2    N1  744   1.663   4.247   9.580 -0.0972 -0.1775 -0.1630
   48MPD2    H7  745   1.710   4.162   9.553  1.1494  0.8426 -1.1794
   49MPD2     C  746   0.387   1.851  10.530 -0.4932  0.2383 -0.4726
   49MPD2    C1  747   0.265   1.910  10.513 -0.5869  0.0687 -0.5116
   49MPD2    C2  748   0.199   1.962  10.617  0.5554  0.0764 -0.2836
   49MPD2    C3  749   0.235   1.941  10.739 -0.4881  0.3536  0.9474
   49MPD2    C4  750   0.357   1.890  10.763  0.0751  0.0768  0.6633
   49MPD2    C5  751   0.423   1.839  10.659  0.1083 -0.4519  0.5275
   49MPD2     H  752   0.107   2.011  10.587 -0.2814 -0.7107  1.0156
   49MPD2    H1  753   0.399   1.888  10.863 -0.4979 -0.1608  0.8975
   49MPD2    H2  754   0.447   1.798  10.456  1.0768  1.0437  0.2328
   49MPD2    H3  755   0.523   1.801  10.674 -0.0621 -0.3297  1.9514
   49MPD2     N  756   0.160   1.977  10.853 -0.2558 -0.3360 -0.0286
   49MPD2    H5  757   0.215   1.960  10.937 -1.3204 -3.2712  0.0460
   49MPD2    N1  758   0.199   1.901  10.384 -0.6478  0.4040 -0.4169
   49MPD2    H7  759   0.100   1.921  10.382 -0.9174 -0.8298  1.0136
   50TCq2    C1  760   0.263   1.883  10.259  0.3061 -0.1095 -0.3515
   50TCq2    O2  761   0.384   1.893  10.239  0.7267  0.0898 -0.3584
   50TCq2    C2  762   0.181   1.854  10.140 -0.5422 -0.4785  0.3495
   50TCq2    C3  763   0.241   1.865  10.018  0.3508  0.2204 -0.0225
   50TCq2    C4  764   0.156   1.839   9.916 -0.4705  0.1196  0.3462
   50TCq2    C5  765   0.025   1.814   9.915 -0.2276 -0.4240 -0.1285
   50TCq2    C6  766   4.694   1.813  10.042  0.3239  0.4063  0.8087
   50TCq2    C7  767   0.051   1.825  10.155  0.2080  0.0656 -0.0961
   50TCq2    C8  768   4.554   1.772  10.065 -0.3060 -0.0766 -0.1202
   50TCq2    O4  769   4.506   1.784  10.178  0.8306 -0.3582  0.5463
   50TCq2    C9  770   0.215   1.828   9.783  0.0687 -0.2141  1.2374
   50TCq2    O5  771   0.338   1.867   9.775  0.0845  0.1515 -0.5388
   50TCq2    O6  772   0.153   1.765   9.684  0.3989  0.3698 -0.3110
   50TCq2    H2  773   0.349   1.866  10.007  0.3118  0.8288 -0.3786
   50TCq2    H3  774   4.691   1.799   9.823  2.0703 -1.7823 -1.3216
   50TCq2    H4  775   0.002   1.810  10.250  1.4646  0.8640  0.6835
   51MPD2     C  776   4.697   0.593   1.627 -0.1603 -0.5452 -0.0344
   51MPD2    C1  777   4.714   0.509   1.738 -0.4915  0.2119  0.3899
   51MPD2    C2  778   0.023   0.566   1.867 -0.5703 -0.5870  0.0883
   51MPD2    C3  779   0.046   0.700   1.878  0.0722 -0.3977  0.3767
   51MPD2    C4  780   0.025   0.782   1.773 -0.1837  0.3320 -0.3029
   51MPD2    C5  781   4.708   0.726   1.648 -0.2815 -0.3951 -0.2810
   51MPD2     H  782   0.039   0.492   1.945 -1.4672  0.3252  1.1334
   51MPD2    H1  783   0.053   0.887   1.773  0.8411  0.0548  0.7135
   51MPD2    H2  784   4.670   0.561   1.527  0.8063 -0.6919 -0.2470
   51MPD2    H3  785   4.693   0.797   1.567 -1.3724  0.4042  0.6114
   51MPD2     N  786   0.099   0.751   1.996  0.2021  0.5699 -0.2907
   51MPD2    H5  787   0.122   0.850   2.001  2.9790 -0.1449  0.7388
   51MPD2    N1  788   4.692   0.373   1.729 -0.1375  0.2152 -0.0092
   51MPD2    H7  789   0.000   0.317   1.808  1.0909  0.5333 -0.2490
   52TCq2    C1  790   0.128   0.688   2.113 -0.1727  1.1982 -0.5075
   52TCq2    O2  791   0.110   0.572   2.150 -0.3064 -0.1536 -0.1739
   52TCq2    C2  792   0.183   0.784   2.210 -0.0654 -0.4887 -0.1654
   52TCq2    C3  793   0.203   0.737   2.338 -0.7559 -0.5930  0.1036
   52TCq2    C4  794   0.218   0.830   2.443  0.8261  0.0280 -0.4857
   52TCq2    C5  795   0.202   0.971   2.422 -0.1439  0.6831 -0.3254
   52TCq2    C6  796   0.187   1.014   2.288  0.4010  0.3141  0.3755
   52TCq2    C7  797   0.178   0.922   2.188  0.0159  0.5087 -0.0474
   52TCq2    C8  798   0.158   1.148   2.247 -0.2740 -0.2556 -0.2688
   52TCq2    O4  799   0.109   1.158   2.135  0.4353  0.1354 -0.0760
   52TCq2    C9  800   0.251   0.790   2.572 -0.0090  0.5538  0.5264
   52TCq2    O5  801   0.297   0.882   2.648 -0.2601  0.3186  0.2203
   52TCq2    O6  802   0.238   0.668   2.601 -0.1687 -0.0714  0.1410
   52TCq2    H2  803   0.213   0.635   2.371 -2.0175  0.0014  2.3145
   52TCq2    H3  804   0.214   1.041   2.504 -0.5180 -0.2785  0.5385
   52TCq2    H4  805   0.180   0.956   2.085 -2.1714  3.5491  0.9220
   53TMC2    C1  806   0.436   4.022  11.906 -0.1115 -0.9061 -0.5654
   53TMC2    C2  807   0.521   3.935  11.973 -0.6241 -0.1634  0.3974
   53TMC2    C3  808   0.518   3.934  12.104  0.1432 -0.5028  0.0286
   53TMC2    C4  809   0.339   4.090  11.975  0.2085 -0.2404  0.5940
   53TMC2    C5  810   0.336   4.074  12.107  0.7356  0.5327  0.0979
   53TMC2    C6  811   0.424   3.999  12.179  0.0958 -0.3759  0.9032
   53TMC2     C  812   0.406   3.992  11.764  0.3191  0.5320  0.5278
   53TMC2     O  813   0.490   3.936  11.695  0.6962  0.0671 -0.4742
   53TMC2     H  814   0.598   3.885  11.914 -2.1339  0.5665 -2.1788
   53TMC2    H1  815   0.268   4.149  11.918 -0.3032  1.2748  2.8150
   53TMC2    H2  816   0.425   4.007  12.287 -0.2133 -0.6372  0.9264
   53TMC2    C7  817   0.205   4.114  12.167  0.3767 -0.0972 -0.1722
   53TMC2    C8  818   0.633   3.870  12.166 -0.4136  0.2623 -0.1190
   53TMC2    O1  819   0.125   4.151  12.080 -0.2387  0.4224 -0.1064
   53TMC2    O2  820   0.678   3.903  12.273 -0.5562 -0.1714  0.1608
   53TMC2    O5  821   0.611   3.739  12.130 -0.5876  0.2495 -0.1899
   53TMC2    H5  822   0.532   3.716  12.077  2.5577  0.4058 -4.9434
   54MPD2     C  823   0.294   3.970  11.488  0.1700  0.0121  0.2524
   54MPD2    C1  824   0.216   3.992  11.601 -0.2631  0.0372  0.3866
   54MPD2    C2  825   0.081   3.999  11.583  0.2371 -0.9141 -0.1801
   54MPD2    C3  826   0.026   3.984  11.459  1.0709  0.4559  0.4015
   54MPD2    C4  827   0.109   3.960  11.353  0.5184 -0.4722  0.1607
   54MPD2    C5  828   0.243   3.954  11.367 -0.2606  0.9873  0.1453
   54MPD2     H  829   0.024   4.030  11.670 -1.6506 -1.1431 -1.3532
   54MPD2    H1  830   0.074   3.942  11.252  0.4077  0.7254 -0.0112
   54MPD2    H2  831   0.402   3.965  11.499  0.1694 -0.8375 -0.1719
   54MPD2    H3  832   0.304   3.933  11.280 -0.4107 -0.8727  0.5038
   54MPD2     N  833   4.608   3.998  11.436  0.8013 -0.5169 -0.0251
   54MPD2    H5  834   4.573   3.993  11.341  0.3591  1.9384  0.0176
   54MPD2    N1  835   0.267   4.006  11.733 -0.8112 -0.1426  0.3816
   54MPD2    H7  836   0.201   4.022  11.809  0.2575 -1.3793  1.5507
   55MPD2     C  837   1.314   1.638  17.271 -0.0189  0.0054 -1.0502
   55MPD2    C1  838   1.282   1.666  17.396 -0.6038 -0.0588 -0.2324
   55MPD2    C2  839   1.163   1.742  17.415 -0.7963 -0.3815  0.4551
   55MPD2    C3  840   1.089   1.785  17.308  0.1391  1.0682 -0.1803
   55MPD2    C4  841   1.131   1.768  17.177 -0.4625  0.1482 -0.0432
   55MPD2    C5  842   1.244   1.687  17.160  0.6183 -0.2142 -0.0893
   55MPD2     H  843   1.133   1.768  17.516 -0.9818  1.9179 -0.1897
   55MPD2    H1  844   1.089   1.804  17.084 -0.1435  1.0314  0.1534
   55MPD2    H2  845   1.396   1.573  17.244 -0.8370 -1.7233  0.6136
   55MPD2    H3  846   1.290   1.679  17.063 -0.4482 -1.0815 -0.5229
   55MPD2     N  847   0.963   1.843  17.337  0.6288  0.6649 -0.4144
   55MPD2    H5  848   0.942   1.826  17.435  1.0512 -0.4100 -0.5068
   55MPD2    N1  849   1.341   1.597  17.503  0.1792 -1.2093 -0.3398
   55MPD2    H7  850   1.432   1.553  17.487  0.0594 -1.2661 -0.8615
   56TCq2    C1  851   1.292   1.579  17.631 -0.5233 -0.8081  0.2186
   56TCq2    O2  852   1.178   1.588  17.674  0.0013  0.2920 -0.6967
   56TCq2    C2  853   1.395   1.554   0.037 -0.4053 -0.4253  0.1335
   56TCq2    C3  854   1.519   1.506   0.002 -0.5765  0.1130 -0.1730
   56TCq2    C4  855   1.598   1.451   0.101  0.0169  0.2604 -0.4725
   56TCq2    C5  856   1.560   1.449   0.234 -0.5121  0.9835  0.3711
   56TCq2    C6  857   1.437   1.501   0.266 -0.1022  0.1811  0.6485
   56TCq2    C7  858   1.358   1.558   0.168 -0.5044 -0.5664  0.6686
   56TCq2    C8  859   1.386   1.495   0.405 -0.0537  0.3824 -1.0017
   56TCq2    O4  860   1.470   1.443   0.478  0.4611  0.2352  0.4110
   56TCq2    C9  861   1.705   1.368   0.064  0.4164 -0.2073 -0.1827
   56TCq2    O5  862   1.708   1.345  17.630 -0.8080  0.1822  0.1585
   56TCq2    O6  863   1.758   1.302   0.162  0.3706  0.6414 -0.1501
   56TCq2    H2  864   1.570   1.506  17.597  1.5788  4.0236  0.9876
   56TCq2    H3  865   1.626   1.402   0.306 -2.7442 -2.1582  0.3881
   56TCq2    H4  866   1.262   1.600   0.195 -1.3428 -0.4858 -2.4445
   57TMC2    C1  867   4.139   3.097  13.135 -0.5725 -0.1899 -0.2810
   57TMC2    C2  868   4.076   2.977  13.112 -0.6249 -0.7462 -0.2788
   57TMC2    C3  869   4.137   2.902  13.015 -0.4596  0.0822 -0.1143
   57TMC2    C4  870   4.234   3.149  13.058 -0.5187 -0.3866  0.7392
   57TMC2    C5  871   4.274   3.074  12.950 -0.0491  0.3787 -0.4239
   57TMC2    C6  872   4.234   2.945  12.930 -0.3989  0.3983  0.5071
   57TMC2     C  873   4.080   3.181  13.240  0.0951 -0.2856  0.3119
   57TMC2     O  874   3.965   3.148  13.272 -0.2712 -0.4674  0.3369
   57TMC2     H  875   3.990   2.942  13.168 -1.3694 -0.2257 -1.0838
   57TMC2    H1  876   4.272   3.250  13.069  1.8380 -1.2621  0.4815
   57TMC2    H2  877   4.272   2.886  12.847 -0.0931  0.7038  0.4309
   57TMC2    C7  878   4.396   3.123  12.881  0.0643  0.2594 -0.5244
   57TMC2    C8  879   4.063   2.780  12.968  0.3112 -0.1475 -0.0226
   57TMC2    O1  880   4.415   3.240  12.860  0.3318 -0.2322  0.4692
   57TMC2    O2  881   4.129   2.694  12.910  0.2285  0.3231 -0.2938
   57TMC2    O5  882   3.948   2.832  12.913 -0.4515  0.2181  0.3131
   57TMC2    H5  883   3.910   2.907  12.964  0.8056  1.0200  0.0728
   58MPD2     C  884   4.026   3.633  13.446 -0.4592  1.0022 -0.2374
   58MPD2    C1  885   3.933   3.533  13.426 -0.0193 -0.5834 -0.7934
   58MPD2    C2  886   3.984   3.411  13.387 -0.0423  0.8610  0.3124
   58MPD2    C3  887   4.116   3.396  13.356  0.1749  0.5631  0.3569
   58MPD2    C4  888   4.203   3.501  13.378  0.2774  0.7447  0.8865
   58MPD2    C5  889   4.156   3.621  13.420 -0.3519  0.3610 -0.5612
   58MPD2     H  890   3.903   3.345  13.361  1.1351 -0.1392 -0.8125
   58MPD2    H1  891   4.306   3.489  13.347  0.2420  0.5905  0.8257
   58MPD2    H2  892   3.991   3.732  13.472 -1.6547  0.1043  1.5347
   58MPD2    H3  893   4.214   3.713  13.420  1.8974 -1.0691 -2.1238
   58MPD2     N  894   4.164   3.289  13.278 -0.2498  0.2471  0.7406
   58MPD2    H5  895   4.265   3.283  13.263 -0.3481  0.0323  0.1635
   58MPD2    N1  896   3.794   3.556  13.422  0.1165  0.5480 -0.2687
   58MPD2    H7  897   3.738   3.478  13.388  0.2264  0.7946 -1.0214
   59MPD2     C  898   2.854   3.024  13.249  0.4218  0.0830  0.7995
   59MPD2    C1  899   2.799   3.134  13.190 -0.2969  0.1229 -0.2184
   59MPD2    C2  900   2.837   3.265  13.232 -0.1492 -0.0663  0.7165
   59MPD2    C3  901   2.918   3.274  13.337 -0.5849  0.1456  0.4501
   59MPD2    C4  902   2.976   3.165  13.399  0.5780 -0.1129  0.1784
   59MPD2    C5  903   2.946   3.039  13.355  1.0595  0.2217 -0.2193
   59MPD2     H  904   2.795   3.357  13.193 -1.7146  0.1700  3.0088
   59MPD2    H1  905   3.046   3.178  13.481 -0.6184  0.1349  1.1629
   59MPD2    H2  906   2.839   2.925  13.208 -0.2753  0.7807 -0.6223
   59MPD2    H3  907   2.994   2.947  13.387  1.4478  1.3931  2.5335
   59MPD2     N  908   2.956   3.401  13.399  0.3073 -0.2807  0.3631
   59MPD2    H5  909   3.005   3.401  13.488 -0.8304  2.0609  0.9697
   59MPD2    N1  910   2.719   3.113  13.077 -0.2964  0.0222  0.7226
   59MPD2    H7  911   2.676   3.192  13.030 -1.1136  0.1396  1.6684
   60TCq2    C1  912   2.659   2.995  13.050 -0.1937 -0.0561  1.3239
   60TCq2    O2  913   2.646   2.891  13.113  0.7898 -0.9156 -0.1224
   60TCq2    C2  914   2.591   3.000  12.921 -0.1146  0.7359 -0.2274
   60TCq2    C3  915   2.482   2.920  12.907  0.2406  0.1163  0.5539
   60TCq2    C4  916   2.394   2.944  12.800 -0.7479 -1.0484  0.7935
   60TCq2    C5  917   2.424   3.036  12.709 -0.5196 -0.7664  0.2193
   60TCq2    C6  918   2.550   3.092  12.714 -0.1421 -0.4151  0.4787
   60TCq2    C7  919   2.638   3.084  12.820  0.5414  0.0717 -0.1248
   60TCq2    C8  920   2.585   3.169  12.603  0.5644  0.1679  0.0271
   60TCq2    O4  921   2.704   3.170  12.581  0.1697 -0.4282 -0.1192
   60TCq2    C9  922   2.269   2.878  12.799  0.3453 -0.1836  0.0972
   60TCq2    O5  923   2.261   2.776  12.872 -0.2999 -0.8368  0.1527
   60TCq2    O6  924   2.187   2.915  12.704 -0.1356 -0.4169 -0.7825
   60TCq2    H2  925   2.464   2.842  12.980  1.0711 -0.0734  0.5601
   60TCq2    H3  926   2.370   3.046  12.616  0.7738 -1.8656 -0.6525
   60TCq2    H4  927   2.726   3.148  12.822 -0.5915  1.5580  2.0118
   61MPD2     C  928   2.522   4.238  15.541 -0.0653 -0.2093 -1.0267
   61MPD2    C1  929   2.429   4.325  15.488  0.5610 -1.2575 -1.0787
   61MPD2    C2  930   2.439   4.355  15.356  0.4589 -0.5942  0.5468
   61MPD2    C3  931   2.545   4.311  15.278  0.8663  0.2368 -0.9515
   61MPD2    C4  932   2.644   4.228  15.337 -0.1885 -0.5362  0.1454
   61MPD2    C5  933   2.632   4.194  15.470 -0.7879 -0.3236  0.6072
   61MPD2     H  934   2.371   4.427  15.311  2.4776  1.7356  1.1815
   61MPD2    H1  935   2.729   4.187  15.284 -0.0668 -1.4177  1.0137
   61MPD2    H2  936   2.512   4.191  15.638  0.5880 -0.8146 -1.2457
   61MPD2    H3  937   2.703   4.137  15.529  0.7488  0.3857 -0.5551
   61MPD2     N  938   2.547   4.346  15.140  0.5128 -0.3426  0.0106
   61MPD2    H5  939   2.461   4.390  15.109  0.1035 -0.2199  1.3295
   61MPD2    N1  940   2.307   4.370  15.550 -0.1902 -0.1453 -0.2046
   61MPD2    H7  941   2.255   4.432  15.488  0.3749 -0.9826 -1.5114
   62TCq2    C1  942   2.284   4.369  15.684  0.2248 -0.2546 -0.1272
   62TCq2    O2  943   2.338   4.296  15.770  0.4788 -0.9148 -0.1072
   62TCq2    C2  944   2.177   4.458  15.728  0.5409  0.2259  0.7819
   62TCq2    C3  945   2.113   4.417  15.842 -0.3439  0.2050  0.0982
   62TCq2    C4  946   2.016   4.500  15.886  0.4207 -0.0193  0.3682
   62TCq2    C5  947   1.974   4.614  15.819 -0.3646  0.9439  0.3386
   62TCq2    C6  948   2.046   4.644  15.707  0.0013  0.2207 -0.1470
   62TCq2    C7  949   2.152   4.571  15.667  0.3197 -0.0069 -0.3073
   62TCq2    C8  950   2.016   0.047  15.639 -0.1472  0.3197  0.6910
   62TCq2    O4  951   2.111   0.088  15.566  0.1326  0.0554 -0.2911
   62TCq2    C9  952   1.948   4.466  16.003  0.1797  0.0164 -0.3058
   62TCq2    O5  953   1.893   4.566  16.060 -0.1514  0.3015  0.0885
   62TCq2    O6  954   1.939   4.340  16.032  0.4201  0.2652  0.7133
   62TCq2    H2  955   2.137   4.322  15.888  0.9451  0.0143 -0.9659
   62TCq2    H3  956   1.896   4.676  15.860  0.2798  1.8065  0.2569
   62TCq2    H4  957   2.203   4.591  15.574  1.2739  2.3676  0.7172
   63TMC2    C1  958   1.343   4.488  11.242  0.3911 -0.2786  0.5282
   63TMC2    C2  959   1.376   4.505  11.374  0.9954 -0.1055 -0.3511
   63TMC2    C3  960   1.510   4.513  11.393 -0.3097  0.6298 -0.4008
   63TMC2    C4  961   1.432   4.487  11.139  0.1947  0.5506  0.5753
   63TMC2    C5  962   1.563   4.500  11.168  0.1683  0.1827 -0.2791
   63TMC2    C6  963   1.611   4.519  11.295  0.6122  0.9146  0.0759
   63TMC2     C  964   1.200   4.484  11.219 -0.3916 -0.2005 -0.5386
   63TMC2     O  965   1.127   4.498  11.320 -0.1789 -0.1803 -0.1454
   63TMC2     H  966   1.306   4.519  11.456 -0.7351 -1.4366 -1.6100
   63TMC2    H1  967   1.409   4.494  11.033 -1.4739  0.9836  0.9654
   63TMC2    H2  968   1.718   4.523  11.310  1.0113 -0.6227 -2.4776
   63TMC2    C7  969   1.632   4.549  11.056  0.0743  0.2656  0.2309
   63TMC2    C8  970   1.550   4.524  11.535  0.1522  0.2137 -0.5059
   63TMC2    O1  971   1.604   4.499  10.947 -0.5873  0.4579  0.4542
   63TMC2    O2  972   1.661   4.565  11.565  0.2357  0.0725 -0.1979
   63TMC2    O5  973   1.477   4.443  11.611 -0.0439 -0.2613 -0.4804
   63TMC2    H5  974   1.394   4.413  11.568 -1.1360 -0.0445  1.4457
   64MPD2     C  975   0.800   4.360  10.926  0.2229 -0.3500  0.0620
   64MPD2    C1  976   0.915   4.327  10.870 -0.0903  0.2205 -0.3333
   64MPD2    C2  977   1.037   4.359  10.920  0.3532 -0.1670  0.3238
   64MPD2    C3  978   1.038   4.423  11.039 -0.3250 -0.1814  0.2187
   64MPD2    C4  979   0.926   4.446  11.112 -0.4288 -0.2912  0.0652
   64MPD2    C5  980   0.802   4.428  11.044  0.2621  0.3675  0.8118
   64MPD2     H  981   1.127   4.322  10.873  1.0281  1.6094  0.1959
   64MPD2    H1  982   0.912   4.497  11.208 -1.5609  0.2482 -0.3761
   64MPD2    H2  983   0.699   4.336  10.894  0.0073 -0.9302  1.1722
   64MPD2    H3  984   0.720   4.481  11.091 -1.3177  0.9785 -2.5984
   64MPD2     N  985   1.162   4.442  11.094 -0.5877 -0.7549 -0.3998
   64MPD2    H5  986   1.238   4.417  11.032 -0.5282 -0.1672 -0.5574
   64MPD2    N1  987   0.927   4.256  10.745 -0.2413  0.3271 -0.3599
   64MPD2    H7  988   1.020   4.234  10.710  0.4917  1.0631  1.1056
   65MPD2     C  989   2.847   3.836  15.889 -0.4385  0.5446  0.1736
   65MPD2    C1  990   2.818   3.840  15.750  0.0653  0.1062  0.4079
   65MPD2    C2  991   2.741   3.745  15.689 -0.6407  0.4643 -0.5288
   65MPD2    C3  992   2.686   3.645  15.774  0.5086 -0.1911 -0.1931
   65MPD2    C4  993   2.711   3.647  15.914 -0.0461  0.8208 -0.2064
   65MPD2    C5  994   2.802   3.736  15.965 -0.2725  0.2302  1.1064
   65MPD2     H  995   2.722   3.744  15.582 -2.2299  1.8810 -0.2535
   65MPD2    H1  996   2.672   3.572  15.983  1.0120  0.7286  0.2907
   65MPD2    H2  997   2.891   3.920  15.942  1.3526 -0.0056 -0.4359
   65MPD2    H3  998   2.829   3.720  16.069 -0.7157  0.8922  1.3231
   65MPD2     N  999   2.597   3.551  15.722 -0.2544 -0.0882  0.3778
   65MPD2    H5 1000   2.559   3.485  15.789 -0.0905 -1.3117 -0.7137
   65MPD2    N1 1001   2.878   3.941  15.668  0.4543  0.6768 -0.0093
   65MPD2    H7 1002   2.872   3.934  15.567 -1.4810 -1.7167  0.2721
   66TCq2    C1 1003   2.927   4.066  15.715 -0.1965  0.2090 -0.1867
   66TCq2    O2 1004   2.933   4.113  15.828 -0.0133 -0.0722 -0.1766
   66TCq2    C2 1005   2.965   4.151  15.609 -0.5407  0.4938 -0.1039
   66TCq2    C3 1006   2.989   4.095  15.483  0.0436  0.2011 -0.2783
   66TCq2    C4 1007   2.993   4.172  15.373 -0.4445  0.2924  0.1716
   66TCq2    C5 1008   2.991   4.306  15.383 -0.0297 -0.3553 -0.3210
   66TCq2    C6 1009   2.946   4.356  15.498 -0.0057 -0.0566  0.3331
   66TCq2    C7 1010   2.937   4.282  15.615  0.7029 -0.2859  0.1245
   66TCq2    C8 1011   2.892   4.490  15.489 -0.4023  0.1192  0.3327
   66TCq2    O4 1012   2.936   4.553  15.392 -0.0266 -0.3622 -0.0626
   66TCq2    C9 1013   3.004   4.110  15.245  0.2602 -0.2724 -0.4878
   66TCq2    O5 1014   3.063   4.180  15.158  0.1180 -0.0018  0.2533
   66TCq2    O6 1015   2.946   3.999  15.231  0.1577  0.2256 -0.7401
   66TCq2    H2 1016   3.002   3.988  15.473  1.7097  0.4838 -1.0720
   66TCq2    H3 1017   2.995   4.357  15.287 -1.2300  1.3077  0.4996
   66TCq2    H4 1018   2.895   4.326  15.705 -1.5210 -2.1317 -0.0135
   67MPD2     C 1019   2.569   3.141  13.854 -0.0957  0.1162  0.1411
   67MPD2    C1 1020   2.508   3.134  13.977 -0.0194  0.2052  0.2687
   67MPD2    C2 1021   2.372   3.102  13.986  0.1409  0.3303  0.5207
   67MPD2    C3 1022   2.297   3.076  13.870  0.2983 -0.2039 -0.2664
   67MPD2    C4 1023   2.362   3.091  13.745 -0.0319  0.0224 -0.6747
   67MPD2    C5 1024   2.497   3.117  13.743 -0.6199  0.6538 -0.6251
   67MPD2     H 1025   2.329   3.097  14.085  0.6960  1.3850  0.8138
   67MPD2    H1 1026   2.301   3.082  13.656 -1.4242  1.0219  0.1797
   67MPD2    H2 1027   2.670   3.177  13.840 -0.4152  0.8908 -0.1579
   67MPD2    H3 1028   2.559   3.118  13.654  1.4278 -0.5564  0.7984
   67MPD2     N 1029   2.158   3.062  13.868  0.0764 -0.3537  0.2099
   67MPD2    H5 1030   2.109   3.065  13.780  1.9447  0.1056 -0.8032
   67MPD2    N1 1031   2.574   3.166  14.098 -0.2722  0.0621 -0.1408
   67MPD2    H7 1032   2.513   3.172  14.179  1.0272 -2.5592  1.0293
   68TCq2    C1 1033   2.708   3.188  14.123  0.4641 -0.1355  0.9168
   68TCq2    O2 1034   2.814   3.172  14.059  0.2639 -0.5851  0.6135
   68TCq2    C2 1035   2.721   3.236  14.258 -0.0287  0.3139  0.9055
   68TCq2    C3 1036   2.641   3.340  14.297 -0.5697  0.3500  0.1086
   68TCq2    C4 1037   2.667   3.394  14.415 -0.1959 -0.1485 -0.1102
   68TCq2    C5 1038   2.772   3.362  14.499  0.5204  0.5319  0.2106
   68TCq2    C6 1039   2.867   3.279  14.446 -0.0704  0.2723 -0.5563
   68TCq2    C7 1040   2.834   3.225  14.324  0.5473 -0.0313 -0.2067
   68TCq2    C8 1041   2.976   3.225  14.526  0.3793  0.2638 -0.0927
   68TCq2    O4 1042   3.040   3.136  14.473  0.5244 -0.4858  0.1236
   68TCq2    C9 1043   2.595   3.512  14.455 -0.2616 -0.9914  0.1748
   68TCq2    O5 1044   2.613   3.560  14.566  0.0669  0.1600  0.4301
   68TCq2    O6 1045   2.521   3.569  14.368  0.3741 -0.4050 -0.1578
   68TCq2    H2 1046   2.558   3.377  14.238 -1.0010 -2.5998 -1.1467
   68TCq2    H3 1047   2.799   3.414  14.590  2.3896  1.6718 -1.0190
   68TCq2    H4 1048   2.904   3.156  14.278 -0.8027 -0.1184 -2.1354
   69TMC2    C1 1049   0.366   4.538  12.360 -0.3269  0.3231 -0.2496
   69TMC2    C2 1050   0.228   4.528  12.355  0.2508  0.0067  0.0860
   69TMC2    C3 1051   0.166   4.520  12.236 -0.7079 -0.8463  0.1813
   69TMC2    C4 1052   0.437   4.545  12.245  0.5291  0.5601 -0.4263
   69TMC2    C5 1053   0.373   4.502  12.133  0.5117 -0.8202  0.1214
   69TMC2    C6 1054   0.238   4.508  12.120 -0.6302 -0.2970 -0.9286
   69TMC2     C 1055   0.430   4.549  12.487  0.2049  0.1204  0.8633
   69TMC2     O 1056   0.521   4.628  12.500 -0.2453 -0.3376  0.1543
   69TMC2     H 1057   0.168   4.534  12.446  1.8744  1.6215  1.0563
   69TMC2    H1 1058   0.545   4.532  12.247  0.4304 -0.5675 -1.9950
   69TMC2    H2 1059   0.178   4.476  12.035 -2.1134 -2.2622  0.8435
   69TMC2    C7 1060   0.453   4.449  12.021 -0.7353 -0.3830  0.1162
   69TMC2    C8 1061   0.024   4.539  12.215 -0.7960 -0.1648 -0.0043
   69TMC2    O1 1062   0.397   4.441  11.910 -0.1819  0.9825  0.3741
   69TMC2    O2 1063   4.680   4.518  12.116  0.2914 -0.0148 -0.0933
   69TMC2    O5 1064   4.695   4.602  12.319  0.1164  0.2690 -0.5825
   69TMC2    H5 1065   0.031   4.636  12.391  0.3915  1.9002 -1.5926
   70MPD2     C 1066   0.477   4.560  12.784 -0.1956 -0.0371  0.8403
   70MPD2    C1 1067   0.397   4.465  12.716  0.5674 -0.0668  0.2573
   70MPD2    C2 1068   0.340   4.363  12.791  0.4188  0.4126  0.2906
   70MPD2    C3 1069   0.377   4.355  12.923 -0.9080  0.6448 -0.0981
   70MPD2    C4 1070   0.468   4.435  12.979 -0.8252  0.3079  0.3881
   70MPD2    C5 1071   0.517   4.544  12.915  0.7978  0.0518 -0.1514
   70MPD2     H 1072   0.273   4.287  12.753 -0.8363  0.4375  2.4096
   70MPD2    H1 1073   0.502   4.418  13.081  0.4769 -0.5188 -0.1855
   70MPD2    H2 1074   0.520   4.647  12.737 -0.6418 -0.9006 -1.1656
   70MPD2    H3 1075   0.580   4.620  12.959 -0.6624  0.5761  1.0346
   70MPD2     N 1076   0.322   4.260  13.013  0.0872  0.1767 -0.2769
   70MPD2    H5 1077   0.358   4.263  13.108  1.3311  1.0704 -0.7903
   70MPD2    N1 1078   0.371   4.464  12.579  0.3910 -0.0305  0.4877
   70MPD2    H7 1079   0.304   4.398  12.541 -1.1579  2.2084 -0.6840
   71TMC2    C1 1080   1.986   0.892   2.184  0.5259  0.9539 -0.0051
   71TMC2    C2 1081   2.079   0.967   2.253 -0.9409  0.1230  0.1968
   71TMC2    C3 1082   2.048   1.084   2.317 -0.0546 -0.1038 -0.1089
   71TMC2    C4 1083   1.864   0.944   2.165 -0.1873 -0.1297 -0.2531
   71TMC2    C5 1084   1.834   1.068   2.223  0.4360  0.4612  0.4413
   71TMC2    C6 1085   1.921   1.136   2.311  0.2591  0.4242  0.7198
   71TMC2     C 1086   2.031   0.763   2.127  0.4329  0.2531  0.0342
   71TMC2     O 1087   2.150   0.751   2.108 -0.4575 -0.0324 -0.5145
   71TMC2     H 1088   2.175   0.919   2.270 -1.3461 -0.4458  0.8680
   71TMC2    H1 1089   1.795   0.889   2.102 -2.4594  1.8400  0.5717
   71TMC2    H2 1090   1.898   1.231   2.359 -0.9309 -0.0860  1.1656
   71TMC2    C7 1091   1.714   1.144   2.188 -0.3380 -0.1272 -0.6597
   71TMC2    C8 1092   2.122   1.136   2.429  0.7348 -0.0780  0.1951
   71TMC2    O1 1093   1.669   1.225   2.268 -0.3870 -0.2446  0.0630
   71TMC2    O2 1094   2.072   1.194   2.525  0.0747  0.2510  0.2949
   71TMC2    O5 1095   2.242   1.069   2.430  0.5809 -0.0322  0.0340
   71TMC2    H5 1096   2.276   1.058   2.339 -1.3659  0.8892 -0.8115
   72MPD2     C 1097   1.868   0.394   1.814 -0.0850 -0.5439 -0.3735
   72MPD2    C1 1098   1.970   0.484   1.808  0.1229  0.5020  0.0221
   72MPD2    C2 1099   1.992   0.577   1.912  0.8355 -0.0421 -0.3069
   72MPD2    C3 1100   1.914   0.578   2.016 -0.5149  0.2683 -0.2638
   72MPD2    C4 1101   1.809   0.492   2.023 -0.1374  0.2407  0.4470
   72MPD2    C5 1102   1.784   0.410   1.920 -0.1692 -1.2901 -0.8699
   72MPD2     H 1103   2.073   0.648   1.901  0.4089  0.5997  0.7177
   72MPD2    H1 1104   1.743   0.496   2.109 -1.4220 -1.0196 -0.4763
   72MPD2    H2 1105   1.841   0.322   1.738 -0.5502 -1.3416  0.5457
   72MPD2    H3 1106   1.706   0.336   1.920 -2.2266  0.9220  2.7349
   72MPD2     N 1107   1.919   0.681   2.107 -0.1543  0.7730  0.0409
   72MPD2    H5 1108   1.834   0.694   2.159 -0.1392 -1.4513  0.6323
   72MPD2    N1 1109   2.051   0.493   1.693 -0.1511 -1.0875  0.9103
   72MPD2    H7 1110   2.121   0.566   1.695 -1.7351  0.4840 -1.6172
   73TMC2    C1 1111   1.890   1.623  14.136  0.5588  0.0548 -0.4794
   73TMC2    C2 1112   1.802   1.620  14.243  0.0495 -0.7613 -0.1234
   73TMC2    C3 1113   1.866   1.620  14.369 -0.3524  0.3021  0.9885
   73TMC2    C4 1114   2.024   1.603  14.164 -0.1941 -0.1255  0.4512
   73TMC2    C5 1115   2.079   1.595  14.285  0.0583 -0.6458 -0.3439
   73TMC2    C6 1116   2.000   1.601  14.396 -0.1524 -0.0738  0.3932
   73TMC2     C 1117   1.868   1.737  14.056  0.0144  0.6473  0.2525
   73TMC2     O 1118   1.963   1.814  14.072  0.2525  0.1494  0.0787
   73TMC2     H 1119   1.696   1.643  14.234  0.2897  0.1445 -0.5807
   73TMC2    H1 1120   2.084   1.588  14.075 -1.5720  1.0094 -0.6679
   73TMC2    H2 1121   2.037   1.589  14.498  0.7830  1.8943  0.2890
   73TMC2    C7 1122   2.200   1.669  14.298  0.2740 -0.1599 -0.0252
   73TMC2    C8 1123   1.767   1.657  14.472  0.5515 -0.0586 -0.0161
   73TMC2    O1 1124   2.273   1.633  14.388  0.2505  0.8581  0.4809
   73TMC2    O2 1125   1.650   1.618  14.456 -0.0887  0.0305 -0.0194
   73TMC2    O5 1126   1.840   1.673  14.587  0.1109 -0.5148  1.2600
   73TMC2    H5 1127   1.924   1.722  14.575  0.6362 -1.3250  1.5885
   74MPD2     C 1128   1.628   2.115  13.789 -0.7140  0.2040 -0.2526
   74MPD2    C1 1129   1.758   2.099  13.841 -0.3271  0.1258  0.0788
   74MPD2    C2 1130   1.794   1.982  13.908  0.2884 -0.4287  1.0693
   74MPD2    C3 1131   1.707   1.882  13.936 -0.0068 -0.3196 -0.1963
   74MPD2    C4 1132   1.569   1.903  13.902  0.7033  0.1768 -0.0713
   74MPD2    C5 1133   1.533   2.016  13.825 -0.4304  0.4032 -0.3193
   74MPD2     H 1134   1.900   1.978  13.933 -0.0558 -0.7269  2.4601
   74MPD2    H1 1135   1.490   1.838  13.937 -0.2927  0.5513 -1.6178
   74MPD2    H2 1136   1.600   2.198  13.725  1.5687  0.7277 -0.6009
   74MPD2    H3 1137   1.432   2.047  13.799 -0.6625 -1.0087 -1.1064
   74MPD2     N 1138   1.745   1.761  14.003 -0.8425  0.5446 -0.1381
   74MPD2    H5 1139   1.677   1.685  14.001  0.1460 -0.4100  3.4117
   74MPD2    N1 1140   1.854   2.199  13.803 -0.6084 -0.1991  0.6961
   74MPD2    H7 1141   1.833   2.264  13.728  0.8946  0.1266  0.5473
   75TCq2    C1 1142   2.081   3.022  13.980 -0.1214 -0.2687  0.3047
   75TCq2    O2 1143   2.114   2.985  14.092 -0.1518  0.1304 -0.0871
   75TCq2    C2 1144   1.942   3.028  13.949  0.4140 -0.2576 -0.1775
   75TCq2    C3 1145   1.861   2.976  14.036  0.4336  0.7839 -0.2782
   75TCq2    C4 1146   1.726   2.986  14.030  0.0812 -0.8637 -0.3528
   75TCq2    C5 1147   1.667   3.068  13.940  0.7555 -0.7116  0.4831
   75TCq2    C6 1148   1.750   3.121  13.851  0.2123 -0.5881  1.3430
   75TCq2    C7 1149   1.885   3.091  13.841  0.9488 -0.9597  0.1798
   75TCq2    C8 1150   1.715   3.197  13.737 -0.0709 -0.4516  0.2813
   75TCq2    O4 1151   1.757   3.162  13.624 -0.1543 -0.0803 -0.2693
   75TCq2    C9 1152   1.652   2.947  14.145 -0.8812  0.6732 -0.1585
   75TCq2    O5 1153   1.718   2.895  14.243 -0.1914  0.0179  0.1593
   75TCq2    O6 1154   1.535   2.991  14.154  0.0605 -0.2924 -0.1792
   75TCq2    H2 1155   1.908   2.935  14.124  0.3252 -1.1019 -1.0989
   75TCq2    H3 1156   1.559   3.077  13.933  0.9324  1.1712  0.2110
   75TCq2    H4 1157   1.943   3.155  13.775  0.9330  0.3425  1.4308
   76MPD2     C 1158   1.021   3.802  11.117  0.8690  0.6077  0.6925
   76MPD2    C1 1159   0.951   3.803  11.233 -0.2403 -1.0140 -0.2125
   76MPD2    C2 1160   0.969   3.710  11.330  0.4575  0.5270 -0.3089
   76MPD2    C3 1161   1.067   3.622  11.314 -0.2394  0.2358  0.1783
   76MPD2    C4 1162   1.146   3.617  11.199  0.4360 -0.3569  0.4504
   76MPD2    C5 1163   1.109   3.701  11.096  0.3809  0.2690  0.0404
   76MPD2     H 1164   0.910   3.712  11.421  0.4857  0.4111 -0.2873
   76MPD2    H1 1165   1.220   3.541  11.179 -1.6285 -1.9240 -1.2691
   76MPD2    H2 1166   0.993   3.867  11.035  2.0532 -0.6762 -0.7184
   76MPD2    H3 1167   1.151   3.692  10.996  0.0183  0.9287 -0.1735
   76MPD2     N 1168   1.100   3.520  11.410 -0.1848 -0.2510 -0.5838
   76MPD2    H5 1169   1.192   3.477  11.415 -0.3884 -0.7590 -1.1879
   76MPD2    N1 1170   0.845   3.894  11.261  0.4535 -0.4811 -0.5323
   76MPD2    H7 1171   0.802   3.899  11.352  0.9268 -0.5839 -0.3061
   77TCq2    C1 1172   1.020   3.490  11.511 -0.0049  0.0280  0.3791
   77TCq2    O2 1173   0.897   3.510  11.505 -0.0512 -0.1098  0.1992
   77TCq2    C2 1174   1.074   3.412  11.611 -0.0742 -0.3068  0.1824
   77TCq2    C3 1175   0.987   3.361  11.698 -0.3562 -0.3416 -0.0430
   77TCq2    C4 1176   1.031   3.319  11.822 -0.1308  0.2844 -0.4649
   77TCq2    C5 1177   1.158   3.345  11.865 -0.2377 -0.6911  0.5632
   77TCq2    C6 1178   1.245   3.402  11.776 -0.2396  0.6108 -0.1479
   77TCq2    C7 1179   1.202   3.438  11.653  0.3357  0.7270 -0.4715
   77TCq2    C8 1180   1.388   3.422  11.800 -0.2163  0.3251 -0.5567
   77TCq2    O4 1181   1.450   3.481  11.708 -0.4180  0.2918  0.0990
   77TCq2    C9 1182   0.927   3.258  11.911 -0.0893  0.1150  0.9580
   77TCq2    O5 1183   0.950   3.269  12.035  0.4989  0.3390 -0.5232
   77TCq2    O6 1184   0.814   3.217  11.861  0.2361 -0.1196 -0.3244
   77TCq2    H2 1185   0.886   3.337  11.668 -0.4522  2.5929 -2.1556
   77TCq2    H3 1186   1.198   3.312  11.960  1.1411 -1.9624 -0.4516
   77TCq2    H4 1187   1.261   3.503  11.590  0.1286  0.3321 -1.0758
   78MPD1     C 1188   3.288   1.446   1.486 -0.5358  0.2607 -0.5875
   78MPD1    C1 1189   3.391   1.425   1.573  0.2641 -0.2965  0.5388
   78MPD1    C2 1190   3.507   1.378   1.520 -0.1388  0.5318 -0.3145
   78MPD1    C3 1191   3.521   1.371   1.375  0.0502  0.8227  0.0004
   78MPD1    C4 1192   3.424   1.419   1.299 -0.2708  0.0760  0.8487
   78MPD1    C5 1193   3.306   1.445   1.352 -0.3970  0.2276  0.0785
   78MPD1     H 1194   3.587   1.343   1.585 -0.6034  1.0230  0.5218
   78MPD1    H1 1195   3.424   1.413   1.191 -0.5316 -2.0798  0.9748
   78MPD1    H2 1196   3.186   1.468   1.517 -1.2581 -4.7817  0.6869
   78MPD1    H3 1197   3.221   1.454   1.286 -0.3250  2.4787  0.3018
   78MPD1     N 1198   3.630   1.318   1.309  0.2846 -0.1487  0.2058
   78MPD1    H5 1199   3.625   1.292   1.211 -0.1825 -0.2607  0.2579
   78MPD1    N1 1200   3.366   1.409   1.709 -0.2915 -0.3438 -0.2560
   78MPD1    H6 1201   3.439   1.426   1.778 -1.2192  0.3531  0.5384
   78MPD1    H7 1202   3.277   1.448   1.740  1.0045  1.2345  1.4642
   79TCq2    C1 1203   3.750   1.296   1.371  0.4518  0.8283  0.2960
   79TCq2    O2 1204   3.788   1.331   1.484 -0.2508 -0.1526 -0.1141
   79TCq2    C2 1205   3.837   1.223   1.277 -0.6305  0.7467 -0.0736
   79TCq2    C3 1206   3.833   1.247   1.142  0.0717  0.5120 -0.8535
   79TCq2    C4 1207   3.926   1.184   1.067  0.9895 -0.1404  0.0560
   79TCq2    C5 1208   4.008   1.091   1.113 -0.0299 -0.1393 -0.2350
   79TCq2    C6 1209   4.002   1.068   1.249  0.3249 -0.1662 -0.4745
   79TCq2    C7 1210   3.931   1.146   1.334  0.4479 -0.2006 -0.1271
   79TCq2    C8 1211   4.094   0.961   1.303 -0.6546 -0.1470  0.5777
   79TCq2    O4 1212   4.101   0.959   1.424  0.1009 -0.4082 -0.1803
   79TCq2    C9 1213   3.940   1.213   0.924  1.0700  0.3314  0.0049
   79TCq2    O5 1214   3.833   1.237   0.866  0.0984  0.2091  0.1985
   79TCq2    O6 1215   4.038   1.162   0.859  0.1120 -0.1869  0.6521
   79TCq2    H2 1216   3.768   1.320   1.097 -1.3219  0.2448  0.7191
   79TCq2    H3 1217   4.078   1.053   1.040 -1.7736 -1.2553 -1.3230
   79TCq2    H4 1218   3.938   1.156   1.442  0.6473 -0.7614 -0.0917
   80MPD2     C 1219   0.263   3.705  12.259 -0.1928  0.1218 -0.3237
   80MPD2    C1 1220   0.166   3.756  12.173  0.3889  1.2636 -0.5558
   80MPD2    C2 1221   0.055   3.809  12.231  0.3910  0.2869  0.1747
   80MPD2    C3 1222   0.042   3.824  12.368 -0.8151 -0.3198 -0.2412
   80MPD2    C4 1223   0.156   3.795  12.445 -0.4890 -0.0064 -0.3785
   80MPD2    C5 1224   0.256   3.718  12.393 -0.2025  0.6726  0.2142
   80MPD2     H 1225   4.701   3.861  12.174  1.7980  1.5643 -0.5304
   80MPD2    H1 1226   0.159   3.811  12.552 -0.9672 -1.1148 -0.1971
   80MPD2    H2 1227   0.347   3.652  12.216  0.2401 -0.2644  0.9932
   80MPD2    H3 1228   0.343   3.699  12.455  0.6532 -2.7818 -2.0645
   80MPD2     N 1229   4.654   3.883  12.436 -0.4945 -0.0963  0.3292
   80MPD2    H5 1230   4.658   3.883  12.538 -0.5925 -1.5290  0.3346
   80MPD2    N1 1231   0.172   3.735  12.034 -0.7780  0.2599 -0.1599
   80MPD2    H7 1232   0.097   3.776  11.980 -1.0101 -0.8425 -0.6796
   81TCq2    C1 1233   0.271   3.682  11.955 -0.0547 -0.6106  0.2835
   81TCq2    O2 1234   0.389   3.666  11.985  0.3201  0.3605  0.4037
   81TCq2    C2 1235   0.222   3.664  11.822 -0.5929 -0.2202 -0.3626
   81TCq2    C3 1236   0.310   3.673  11.718  0.2872 -0.5472  1.1440
   81TCq2    C4 1237   0.265   3.653  11.587  0.4748 -0.4497  0.4717
   81TCq2    C5 1238   0.129   3.625  11.567  0.4869 -0.2133 -0.3732
   81TCq2    C6 1239   0.051   3.607  11.677  1.0449 -0.1539 -0.2149
   81TCq2    C7 1240   0.091   3.627  11.806 -0.7428 -0.3001 -0.2380
   81TCq2    C8 1241   4.655   3.529  11.656  0.1722  0.1180 -0.5036
   81TCq2    O4 1242   4.598   3.542  11.549  0.8206  0.0896  0.2079
   81TCq2    C9 1243   0.348   3.652  11.476  0.6672  0.0597  0.1382
   81TCq2    O5 1244   0.292   3.661  11.363  0.7442  0.0336  0.7079
   81TCq2    O6 1245   0.460   3.596  11.499  0.1829  0.1210 -0.4922
   81TCq2    H2 1246   0.415   3.697  11.735 -0.4213  2.0140  1.9553
   81TCq2    H3 1247   0.095   3.624  11.464  1.0522 -0.7241 -0.5500
   81TCq2    H4 1248   0.021   3.622  11.889 -2.3632 -1.8630 -1.7001
   82MPD2     C 1249   3.180   3.345  10.324  0.2297  0.3469 -0.0372
   82MPD2    C1 1250   3.088   3.247  10.309  0.5671  0.4645  1.2509
   82MPD2    C2 1251   3.078   3.149  10.410  0.5187 -0.4905  0.6586
   82MPD2    C3 1252   3.154   3.145  10.522  0.1741 -0.3322 -0.1930
   82MPD2    C4 1253   3.240   3.245  10.542  0.2295 -0.3062 -0.2269
   82MPD2    C5 1254   3.246   3.345  10.443  0.0459 -0.5026  0.1909
   82MPD2     H 1255   3.005   3.071  10.388  0.1813  0.3049 -0.9932
   82MPD2    H1 1256   3.309   3.256  10.626 -0.5249 -0.3022  0.3910
   82MPD2    H2 1257   3.196   3.430  10.258 -0.7294 -0.7091 -1.6161
   82MPD2    H3 1258   3.313   3.427  10.465 -0.2560 -0.8873  2.4724
   82MPD2     N 1259   3.144   3.043  10.616 -0.3716  0.4078 -0.0401
   82MPD2    H5 1260   3.218   3.055  10.684 -0.3085  2.2980 -0.4358
   82MPD2    N1 1261   3.006   3.253  10.192 -0.4484 -0.3812  0.0921
   82MPD2    H7 1262   3.001   3.342  10.144  1.5236 -0.9530 -1.1797
   83TCq2    C1 1263   3.063   2.931  10.609  0.2239  0.6778  0.1886
   83TCq2    O2 1264   2.969   2.909  10.537  0.4525 -0.7652 -0.3016
   83TCq2    C2 1265   3.091   2.818  10.702 -0.5212  0.2568 -0.4951
   83TCq2    C3 1266   3.210   2.815  10.774  0.0373 -0.2005 -0.2268
   83TCq2    C4 1267   3.234   2.704  10.853  0.0072 -0.8402  0.0266
   83TCq2    C5 1268   3.141   2.605  10.867  0.9495 -0.7951  0.4177
   83TCq2    C6 1269   3.024   2.611  10.795  0.0873 -0.0377  0.1171
   83TCq2    C7 1270   2.999   2.712  10.714  0.7528  0.1390  0.2361
   83TCq2    C8 1271   2.908   2.544  10.853  0.5925  0.6954 -1.0321
   83TCq2    O4 1272   2.921   2.515  10.972 -0.3039 -0.4518 -0.6237
   83TCq2    C9 1273   3.353   2.693  10.930 -0.5411 -0.3119  0.7225
   83TCq2    O5 1274   3.351   2.608  11.027 -0.8267 -0.4583 -0.4189
   83TCq2    O6 1275   3.439   2.786  10.918  0.0250  0.0177  0.3630
   83TCq2    H2 1276   3.282   2.896  10.777  1.5444 -1.5097 -1.0351
   83TCq2    H3 1277   3.166   2.520  10.929 -0.7366 -3.3357 -2.3642
   83TCq2    H4 1278   2.905   2.721  10.661  1.7917  0.2621 -1.6186
   84TCq2    C1 1279   0.029   2.013  10.854 -0.3101  0.5825  0.4637
   84TCq2    O2 1280   4.678   2.032  10.757 -0.0469  0.0948 -0.1764
   84TCq2    C2 1281   4.697   2.008  10.987 -0.5378 -0.6821 -0.7368
   84TCq2    C3 1282   0.032   1.937  11.088 -1.0485 -0.3595 -0.5710
   84TCq2    C4 1283   4.673   1.918  11.201  0.4974 -0.0260 -0.0985
   84TCq2    C5 1284   4.555   1.981  11.209  0.4147  0.0604 -0.2663
   84TCq2    C6 1285   4.497   2.044  11.098 -0.4327 -0.4397  0.1033
   84TCq2    C7 1286   4.565   2.055  10.982  0.0821  0.3172 -0.5878
   84TCq2    C8 1287   4.370   2.110  11.122 -0.7475 -0.2240 -0.4558
   84TCq2    O4 1288   4.343   2.218  11.070  0.2673 -0.3749 -0.3576
   84TCq2    C9 1289   0.006   1.857  11.311 -0.4468 -0.5458  0.1510
   84TCq2    O5 1290   0.095   1.770  11.291  0.4124  0.0170  0.4363
   84TCq2    O6 1291   4.682   1.880  11.424 -0.0839 -0.1390 -0.5260
   84TCq2    H2 1292   0.133   1.900  11.076 -1.3917 -1.6852  0.6291
   84TCq2    H3 1293   4.499   1.978  11.302 -0.2555 -0.2820 -0.6761
   84TCq2    H4 1294   4.530   2.108  10.894  0.5019 -0.4372 -1.2191
   85MPD2     C 1295   0.073   0.068  16.480 -0.0590  0.3426  0.0716
   85MPD2    C1 1296   4.722   0.029  16.370 -0.2490 -0.2342  0.5223
   85MPD2    C2 1297   4.717   0.114  16.260 -0.1619 -1.3083  0.2441
   85MPD2    C3 1298   0.073   0.226  16.253 -0.5156 -0.2131  0.0977
   85MPD2    C4 1299   0.151   0.260  16.360 -0.3368 -0.7259  0.1242
   85MPD2    C5 1300   0.148   0.182  16.475  0.3279  0.1028 -0.4990
   85MPD2     H 1301   4.668   0.080  16.170  0.2555  1.9170 -1.1740
   85MPD2    H1 1302   0.225   0.339  16.354 -1.8604  0.7067  0.2371
   85MPD2    H2 1303   0.070   0.001  16.565  0.0214 -0.3112 -0.4443
   85MPD2    H3 1304   0.212   0.215  16.555  0.4073  1.8409 -1.2822
   85MPD2     N 1305   0.070   0.297  16.132 -0.3305  0.1091 -0.3014
   85MPD2    H5 1306   0.024   0.248  16.056  0.5253 -1.3418  0.1054
   85MPD2    N1 1307   4.656   4.624  16.353 -0.7454  0.1106  0.1587
   85MPD2    H7 1308   4.627   4.604  16.258 -3.3307  0.7118  0.8140
   86TCq2    C1 1309   0.127   0.421  16.096  0.0321  0.0196 -0.3143
   86TCq2    O2 1310   0.194   0.492  16.165 -0.1064 -0.2971 -0.0249
   86TCq2    C2 1311   0.104   0.444  15.951  0.2463 -0.4391  0.2654
   86TCq2    C3 1312   0.015   0.371  15.873  0.0623  0.6671  0.1677
   86TCq2    C4 1313   0.013   0.389  15.738  0.0326  0.2202 -0.3293
   86TCq2    C5 1314   0.086   0.481  15.672  0.3101 -0.0263  0.4390
   86TCq2    C6 1315   0.164   0.562  15.748  0.2203  0.4959  0.1450
   86TCq2    C7 1316   0.171   0.548  15.884 -0.0171 -0.6448  0.7758
   86TCq2    C8 1317   0.270   0.631  15.682  0.1585  0.0121  0.4075
   86TCq2    O4 1318   0.383   0.639  15.726  0.6690 -0.3070 -0.4093
   86TCq2    C9 1319   4.654   0.302  15.659 -0.5423 -0.2485 -0.1879
   86TCq2    O5 1320   4.629   0.346  15.545  0.8070  0.4469 -0.1765
   86TCq2    O6 1321   4.642   0.181  15.698  0.0609 -0.5937  0.4658
   86TCq2    H2 1322   4.680   0.282  15.896 -1.0143  0.8571 -1.7315
   86TCq2    H3 1323   0.074   0.494  15.565 -0.5061  0.7348  0.6217
   86TCq2    H4 1324   0.243   0.610  15.937 -0.4395  0.0840  0.4970
   87MPD2     C 1325   1.992   3.557   0.577  0.8525 -0.6609 -0.0732
   87MPD2    C1 1326   1.909   3.553   0.687 -1.0552  1.0153 -0.1914
   87MPD2    C2 1327   1.791   3.626   0.688 -0.4662 -1.1961  0.0563
   87MPD2    C3 1328   1.771   3.711   0.581  0.5770  0.0126 -0.2319
   87MPD2    C4 1329   1.851   3.721   0.472 -0.3025  0.3964  0.9707
   87MPD2    C5 1330   1.959   3.630   0.465  0.4550 -0.4192 -0.1082
   87MPD2     H 1331   1.719   3.639   0.769  0.3094  1.2354  0.3434
   87MPD2    H1 1332   1.825   3.786   0.390 -0.5207  0.8515  1.3992
   87MPD2    H2 1333   2.082   3.497   0.582 -1.2976 -3.6327  3.0608
   87MPD2    H3 1334   2.019   3.637   0.374 -0.1714  1.4462 -0.3835
   87MPD2     N 1335   1.651   3.791   0.572  0.2393  0.1889  0.2898
   87MPD2    H5 1336   1.634   3.843   0.486 -0.4804 -1.1496 -0.3735
   87MPD2    N1 1337   1.958   3.485   0.804  0.5784  0.5738  0.1515
   87MPD2    H7 1338   2.049   3.441   0.792  0.8504  0.8493  1.1832
   88TCq2    C1 1339   1.890   3.467   0.918 -0.1208  0.0910 -0.6333
   88TCq2    O2 1340   1.780   3.511   0.948  0.2539  0.1300  0.2288
   88TCq2    C2 1341   1.954   3.379   1.014 -0.8634  0.0524  0.2303
   88TCq2    C3 1342   1.931   3.406   1.147 -0.5666  0.3863  0.3862
   88TCq2    C4 1343   2.004   3.340   1.244  0.3485 -0.2443  0.4805
   88TCq2    C5 1344   2.082   3.232   1.211 -0.2318  0.0449 -0.0805
   88TCq2    C6 1345   2.109   3.217   1.079  0.7925 -0.7907 -0.3952
   88TCq2    C7 1346   2.041   3.284   0.974  0.9854  0.4827  0.6328
   88TCq2    C8 1347   2.234   3.153   1.044 -0.2559 -0.9468 -0.9036
   88TCq2    O4 1348   2.253   3.147   0.921 -0.3175 -0.1549  0.0004
   88TCq2    C9 1349   1.987   3.364   1.386 -0.5694 -0.2512  0.0738
   88TCq2    O5 1350   1.913   3.459   1.424  0.3501  0.2863 -0.3025
   88TCq2    O6 1351   2.057   3.297   1.468  0.2566 -0.0723 -0.0174
   88TCq2    H2 1352   1.855   3.477   1.179 -0.2890  1.0447 -0.4063
   88TCq2    H3 1353   2.122   3.175   1.294 -2.0447  0.2992  0.9485
   88TCq2    H4 1354   2.056   3.257   0.871 -2.6682 -0.8003  0.4449
   89MPD2     C 1355   2.687   1.730   2.445 -0.8403 -0.5081 -0.4075
   89MPD2    C1 1356   2.637   1.707   2.315 -0.5069  0.2786  0.0378
   89MPD2    C2 1357   2.714   1.749   2.205  0.0573  0.0290  0.0896
   89MPD2    C3 1358   2.835   1.814   2.225 -0.8464  0.1176 -0.2957
   89MPD2    C4 1359   2.880   1.830   2.354  0.4055  0.0495 -0.2299
   89MPD2    C5 1360   2.804   1.797   2.459  0.3502  0.1774 -0.4053
   89MPD2     H 1361   2.683   1.727   2.104 -1.4003 -1.2712  0.8019
   89MPD2    H1 1362   2.978   1.873   2.370  0.2831  0.0780  0.4240
   89MPD2    H2 1363   2.637   1.707   2.538  0.2976  1.1937  0.6267
   89MPD2    H3 1364   2.847   1.807   2.558 -0.6692 -2.2945  0.2855
   89MPD2     N 1365   2.893   1.874   2.112 -0.9195  0.2982 -0.4825
   89MPD2    H5 1366   2.834   1.870   2.029 -0.8968  2.0600 -0.5848
   89MPD2    N1 1367   2.511   1.648   2.295  0.0859  0.5593  0.0279
   89MPD2    H7 1368   2.489   1.627   2.198 -0.0032  0.3666  0.0892
   90TCq2    C1 1369   3.015   1.930   2.107 -0.5615 -0.6843  0.9021
   90TCq2    O2 1370   3.105   1.929   2.189 -0.2837 -0.7238 -0.6694
   90TCq2    C2 1371   3.043   1.966   1.974 -0.0209  0.3941 -0.1296
   90TCq2    C3 1372   3.180   1.998   1.952  0.1959  0.6693 -0.2520
   90TCq2    C4 1373   3.216   2.070   1.831 -0.7023 -0.1566 -0.7494
   90TCq2    C5 1374   3.118   2.087   1.739 -0.0728 -0.2302  0.0120
   90TCq2    C6 1375   2.987   2.054   1.766  0.3131  0.1171 -0.5985
   90TCq2    C7 1376   2.949   1.988   1.877 -0.0871  1.1337  0.3470
   90TCq2    C8 1377   2.881   2.089   1.671 -0.0735  0.4599 -0.0704
   90TCq2    O4 1378   2.770   2.119   1.718 -0.5220  0.3394 -0.9818
   90TCq2    C9 1379   3.352   2.093   1.799  0.5442 -0.0391  0.4244
   90TCq2    O5 1380   3.375   2.159   1.697 -0.0145 -0.4277 -0.2032
   90TCq2    O6 1381   3.434   2.048   1.882 -0.1064 -0.0491  0.3083
   90TCq2    H2 1382   3.263   1.977   2.019  0.5683  0.8593 -0.6566
   90TCq2    H3 1383   3.144   2.136   1.645  1.6790 -0.7987  0.2046
   90TCq2    H4 1384   2.844   1.964   1.891  0.0798  0.8730  1.1472
   91TMC2    C1 1385   4.555   1.371  16.260 -0.1190  0.0832 -0.0816
   91TMC2    C2 1386   4.579   1.414  16.384  0.2153  0.0448 -0.3218
   91TMC2    C3 1387   4.482   1.494  16.447 -0.2295  0.8551 -0.6624
   91TMC2    C4 1388   4.446   1.425  16.191  0.0713  0.1325 -0.6425
   91TMC2    C5 1389   4.347   1.502  16.258  0.7825 -1.0139  0.1526
   91TMC2    C6 1390   4.370   1.538  16.384 -1.0647  0.3750 -0.5925
   91TMC2     C 1391   4.642   1.277  16.198  0.7623 -0.2388  0.5428
   91TMC2     O 1392   4.618   1.253  16.080  0.1469  0.1092  0.5562
   91TMC2     H 1393   4.653   1.366  16.447  0.1027 -0.4453 -0.5634
   91TMC2    H1 1394   4.428   1.403  16.086  1.7455 -2.5969 -0.3559
   91TMC2    H2 1395   4.297   1.599  16.437  1.5614  0.4406  2.9174
   91TMC2    C7 1396   4.225   1.555  16.188  0.0260  1.3931 -0.3795
   91TMC2    C8 1397   4.505   1.516  16.589  0.6174 -0.2327  0.3069
   91TMC2    O1 1398   4.162   1.634  16.261 -0.2854  0.2727  0.5692
   91TMC2    O2 1399   4.559   1.443  16.672  0.0380  0.0317 -0.1904
   91TMC2    O5 1400   4.427   1.626  16.631 -0.0980 -0.1549 -0.5336
   91TMC2    H5 1401   4.403   1.689  16.559  0.2031 -1.5952 -1.9018
   92MPD2     C 1402   0.094   1.053  16.112 -1.0951 -0.3414  0.4621
   92MPD2    C1 1403   0.102   1.123  16.230  0.3479  0.2054 -0.7818
   92MPD2    C2 1404   0.194   1.072  16.326 -0.4060 -0.7104  0.0988
   92MPD2    C3 1405   0.268   0.958  16.300 -1.0666  0.8933  0.0369
   92MPD2    C4 1406   0.255   0.884  16.187  0.4261 -0.1622 -0.1633
   92MPD2    C5 1407   0.163   0.933  16.102  0.0910 -0.2596 -0.3694
   92MPD2     H 1408   0.203   1.125  16.420  1.0242 -1.2047  0.2378
   92MPD2    H1 1409   0.308   0.793  16.161 -0.7110 -0.7969 -0.2331
   92MPD2    H2 1410   0.035   1.073  16.023  1.6071 -2.0466 -1.7401
   92MPD2    H3 1411   0.146   0.881  16.008 -2.0753 -2.0803  1.0235
   92MPD2     N 1412   0.372   0.928  16.388 -0.2133 -0.1028 -0.1218
   92MPD2    H5 1413   0.385   0.992  16.465  1.1289 -0.9613  0.3732
   92MPD2    N1 1414   0.029   1.238  16.268  0.2989 -0.3647 -0.0574
   92MPD2    H7 1415   0.055   1.284  16.354  0.4887 -2.0709  0.7989
   93MPD2     C 1416   1.378   1.554  13.907 -0.3798  0.9986  0.3972
   93MPD2    C1 1417   1.437   1.576  13.784 -0.8514 -0.5770 -0.3195
   93MPD2    C2 1418   1.362   1.653  13.688 -0.0168  0.3637 -0.2309
   93MPD2    C3 1419   1.234   1.694  13.718 -0.6386 -0.4348 -0.4530
   93MPD2    C4 1420   1.179   1.666  13.844 -0.5270  0.4439  0.0459
   93MPD2    C5 1421   1.253   1.598  13.933 -0.7457  0.0884 -0.1452
   93MPD2     H 1422   1.406   1.675  13.591  3.3390 -0.2906  1.1500
   93MPD2    H1 1423   1.077   1.689  13.872 -0.0368  0.1003  2.0735
   93MPD2    H2 1424   1.424   1.479  13.971 -0.7692 -0.6713 -1.3005
   93MPD2    H3 1425   1.205   1.569  14.026  1.8232 -1.6829  0.6159
   93MPD2     N 1426   1.167   1.751  13.611 -0.1744  0.1093 -0.2957
   93MPD2    H5 1427   1.227   1.785  13.536  0.5245  0.3528  0.3702
   93MPD2    N1 1428   1.553   1.515  13.746  0.8352 -0.7596  0.0757
   93MPD2    H7 1429   1.575   1.508  13.647  0.5889  0.7476 -0.0950
   94TCq2    C1 1430   1.648   1.481  13.836 -0.1336  0.2701 -0.3588
   94TCq2    O2 1431   1.647   1.492  13.959 -0.6657  0.3011  0.0770
   94TCq2    C2 1432   1.759   1.423  13.760 -0.1021  0.3806  0.0257
   94TCq2    C3 1433   1.723   1.318  13.682 -0.3768  0.0790  0.2374
   94TCq2    C4 1434   1.816   1.273  13.590 -0.1326 -0.5272  0.0028
   94TCq2    C5 1435   1.943   1.323  13.587  0.0516  0.1809 -0.1131
   94TCq2    C6 1436   1.984   1.422  13.670 -0.7848  0.9589  0.3481
   94TCq2    C7 1437   1.889   1.473  13.759  0.0391 -0.5035  0.5534
   94TCq2    C8 1438   2.130   1.437  13.702 -0.5236 -0.1933  0.3637
   94TCq2    O4 1439   2.203   1.355  13.654  0.3132  0.1467 -1.0139
   94TCq2    C9 1440   1.782   1.165  13.503 -0.1654 -0.1150 -0.5415
   94TCq2    O5 1441   1.696   1.100  13.558  0.8115 -0.1470 -0.2317
   94TCq2    O6 1442   1.863   1.118  13.421 -0.2877 -0.1017 -0.2436
   94TCq2    H2 1443   1.622   1.277  13.684 -0.6054  0.7053  1.7736
   94TCq2    H3 1444   2.012   1.284  13.513  0.4411  1.0714 -0.2161
   94TCq2    H4 1445   1.915   1.556  13.823 -0.5883 -0.9695  1.4059
   95TMC2    C1 1446   1.774   3.076  16.262  0.0744  0.3985 -0.1957
   95TMC2    C2 1447   1.686   2.978  16.232 -0.2301  0.2288  0.7139
   95TMC2    C3 1448   1.621   2.924  16.342 -0.5435 -0.7319 -0.3049
   95TMC2    C4 1449   1.788   3.128  16.386 -0.5567 -0.2173 -0.1216
   95TMC2    C5 1450   1.727   3.066  16.493 -0.4389 -0.0800  0.4948
   95TMC2    C6 1451   1.636   2.973  16.466 -0.0142 -0.2317  0.1775
   95TMC2     C 1452   1.827   3.156  16.146 -0.1994  0.5367  0.7155
   95TMC2     O 1453   1.826   3.097  16.038  0.0665 -0.3254  0.0943
   95TMC2     H 1454   1.665   2.956  16.128  1.3916 -0.3499  0.5042
   95TMC2    H1 1455   1.872   3.194  16.405 -1.7184  1.3593 -0.5386
   95TMC2    H2 1456   1.597   2.911  16.546 -0.1941  0.7226  0.8329
   95TMC2    C7 1457   1.736   3.127  16.625 -0.7118  0.4977 -0.0452
   95TMC2    C8 1458   1.528   2.816  16.321 -0.3819  0.5278 -0.7486
   95TMC2    O1 1459   1.848   3.156  16.660  0.3057  0.2617  0.3003
   95TMC2    O2 1460   1.427   2.817  16.387  0.1828 -0.1054 -0.3378
   95TMC2    O5 1461   1.547   2.760  16.198  0.3945 -0.1097  0.0198
   95TMC2    H5 1462   1.640   2.777  16.172 -0.1684  0.8872 -1.3166
   96MPD2     C 1463   2.052   3.590  15.953 -0.0280 -0.5448 -0.3883
   96MPD2    C1 1464   2.053   3.456  15.909 -0.2172  0.2452 -0.2042
   96MPD2    C2 1465   1.985   3.358  15.981  0.4022 -0.1920 -0.3444
   96MPD2    C3 1466   1.933   3.381  16.106 -0.8379  0.5894  0.3803
   96MPD2    C4 1467   1.949   3.511  16.164  0.8993 -0.0760 -0.5298
   96MPD2    C5 1468   2.005   3.612  16.082  0.2115 -0.0401  0.5533
   96MPD2     H 1469   1.981   3.255  15.947 -0.2291  0.0375 -0.9646
   96MPD2    H1 1470   1.929   3.534  16.268  0.6789 -1.2414 -0.3225
   96MPD2    H2 1471   2.106   3.668  15.900 -1.0335  0.7602  0.5059
   96MPD2    H3 1472   2.004   3.704  16.139  1.5662  0.5230 -0.3667
   96MPD2     N 1473   1.858   3.288  16.188 -0.2535  0.7458  0.1792
   96MPD2    H5 1474   1.830   3.318  16.281 -1.9378  1.0380 -0.4337
   96MPD2    N1 1475   2.131   3.430  15.796 -0.2437  0.0715  0.7043
   96MPD2    H7 1476   2.158   3.518  15.753 -1.9204  0.1069 -0.2467
   97MPD2     C 1477   0.071   1.601   1.124  0.1089  0.7312  0.0207
   97MPD2    C1 1478   0.065   1.513   1.230 -0.4051  0.1272  0.2893
   97MPD2    C2 1479   0.151   1.403   1.226 -0.2967 -0.0127 -0.4748
   97MPD2    C3 1480   0.249   1.385   1.129  0.7147 -0.2698 -0.3643
   97MPD2    C4 1481   0.262   1.479   1.028 -0.3660  0.2403 -0.1127
   97MPD2    C5 1482   0.169   1.584   1.030  0.5501  0.4484  0.1340
   97MPD2     H 1483   0.132   1.324   1.298  1.5921 -0.0979 -0.0632
   97MPD2    H1 1484   0.318   1.463   0.937 -2.2687 -0.5614 -1.1588
   97MPD2    H2 1485   0.009   1.690   1.125 -0.4688  0.2864  2.2848
   97MPD2    H3 1486   0.170   1.650   0.944  0.3046 -0.5063 -0.6022
   97MPD2     N 1487   0.332   1.265   1.123  0.1731  0.5576  0.4437
   97MPD2    H5 1488   0.361   1.252   1.027  0.7640 -2.1190  0.9735
   97MPD2    N1 1489   4.684   1.530   1.330  0.1282  0.2155 -0.2467
   97MPD2    H7 1490   4.631   1.617   1.327  2.7633  1.8692  1.5984
   98TCq2    C1 1491   0.330   1.171   1.224 -0.0660  0.2881 -0.2068
   98TCq2    O2 1492   0.289   1.174   1.341 -0.1905  0.1087  0.5169
   98TCq2    C2 1493   0.419   1.056   1.202 -0.6892 -0.3480  0.7458
   98TCq2    C3 1494   0.478   0.993   1.308  0.3459 -0.1444  0.2353
   98TCq2    C4 1495   0.578   0.905   1.278  0.2027 -0.1955  0.4632
   98TCq2    C5 1496   0.600   0.854   1.158  0.3661 -0.3082  0.2876
   98TCq2    C6 1497   0.533   0.904   1.052  0.2604  0.0266  0.9062
   98TCq2    C7 1498   0.441   1.002   1.075 -0.2307  0.2959 -0.4165
   98TCq2    C8 1499   0.598   0.898   0.927  1.0391  0.1555 -0.5034
   98TCq2    O4 1500   0.531   0.899   0.824  0.1497  0.2210 -0.4726
   98TCq2    C9 1501   0.670   0.871   1.382  0.6392  0.4520 -0.0119
   98TCq2    O5 1502   0.775   0.809   1.360 -0.1975  0.2762  0.7707
   98TCq2    O6 1503   0.617   0.888   1.497 -0.0184  0.4987 -1.0171
   98TCq2    H2 1504   0.469   1.038   1.406  3.5526  2.2238 -0.5621
   98TCq2    H3 1505   0.677   0.778   1.147  0.1869 -0.7864  2.2606
   98TCq2    H4 1506   0.382   1.042   0.994 -1.7375 -2.8089 -0.8657
   99MPD2     C 1507   3.079   2.340   1.981 -0.8224 -0.2150  0.4880
   99MPD2    C1 1508   2.946   2.337   2.014  0.0110  0.1320 -0.3945
   99MPD2    C2 1509   2.859   2.386   1.918 -0.2753 -0.1955 -0.7498
   99MPD2    C3 1510   2.897   2.429   1.792 -0.4374 -0.3889  0.0643
   99MPD2    C4 1511   3.027   2.428   1.761 -0.2789  0.7141  0.7641
   99MPD2    C5 1512   3.117   2.382   1.853 -0.1913  0.6193 -0.5423
   99MPD2     H 1513   2.754   2.383   1.943  0.3241 -1.1032  1.7481
   99MPD2    H1 1514   3.064   2.442   1.660  1.0343 -2.7131  0.7848
   99MPD2    H2 1515   3.154   2.303   2.050 -1.0264 -1.7414 -0.1093
   99MPD2    H3 1516   3.224   2.380   1.833 -0.0249  0.6037  0.3853
   99MPD2     N 1517   2.797   2.467   1.706 -0.1744  0.3674  0.2728
   99MPD2    H5 1518   2.702   2.458   1.739  0.2274  1.9302  1.8469
   99MPD2    N1 1519   2.892   2.288   2.138  0.1608 -0.5457 -0.4051
   99MPD2    H7 1520   2.791   2.283   2.148 -0.0608  3.4742 -0.8714
  100TCq2    C1 1521   2.965   2.257   2.249 -0.5327 -0.1738  0.3134
  100TCq2    O2 1522   3.083   2.280   2.274  0.1166 -0.4302  0.0135
  100TCq2    C2 1523   2.875   2.239   2.357 -0.5829  0.4837  0.5494
  100TCq2    C3 1524   2.903   2.291   2.481  0.1078  0.1937  0.1485
  100TCq2    C4 1525   2.814   2.280   2.580 -0.8395  0.4967 -0.2696
  100TCq2    C5 1526   2.696   2.218   2.559 -0.4919  0.2569  0.3966
  100TCq2    C6 1527   2.670   2.159   2.436  0.8997  0.1566  0.1282
  100TCq2    C7 1528   2.760   2.168   2.330  0.2446 -0.4660  0.3990
  100TCq2    C8 1529   2.550   2.082   2.437 -0.2544 -0.4575  0.4552
  100TCq2    O4 1530   2.501   2.055   2.550  0.1759 -0.4813  0.4505
  100TCq2    C9 1531   2.841   2.338   2.706 -0.3530  0.1463 -0.6926
  100TCq2    O5 1532   2.965   2.359   2.726  0.1290  0.2471 -0.1992
  100TCq2    O6 1533   2.740   2.365   2.780  0.7862  0.1158 -0.2366
  100TCq2    H2 1534   2.990   2.354   2.494  0.3500 -0.2588  0.7000
  100TCq2    H3 1535   2.629   2.194   2.641 -0.8490 -1.0526 -0.2766
  100TCq2    H4 1536   2.743   2.114   2.237  1.3663  0.1216 -0.1441
  101MPD2     C 1537   3.504   4.084  12.946  0.1284 -0.3918 -0.4595
  101MPD2    C1 1538   3.376   4.082  12.909  1.0284 -0.4216 -0.2800
  101MPD2    C2 1539   3.281   4.031  13.001 -0.1706 -0.4952  0.3308
  101MPD2    C3 1540   3.322   3.990  13.129 -0.3484  0.5580  1.2750
  101MPD2    C4 1541   3.453   4.003  13.163 -0.0739 -0.4476  0.0558
  101MPD2    C5 1542   3.543   4.048  13.073  0.0613  0.7839  0.2240
  101MPD2     H 1543   3.178   4.019  12.968  0.3330 -1.6296 -0.8551
  101MPD2    H1 1544   3.494   3.992  13.262 -0.6522 -0.1713  0.3271
  101MPD2    H2 1545   3.577   4.128  12.879  0.0446  1.5288  0.7148
  101MPD2    H3 1546   3.649   4.047  13.099  0.0434 -1.2120  0.1858
  101MPD2     N 1547   3.225   3.926  13.213 -0.4535  0.2942 -0.3643
  101MPD2    H5 1548   3.129   3.917  13.180  0.3112 -0.6406 -2.3393
  101MPD2    N1 1549   3.339   4.134  12.784 -0.3231  0.0794 -0.0212
  101MPD2    H7 1550   3.410   4.172  12.723 -1.0660 -0.5899 -1.3058
  102TCq2    C1 1551   3.430   4.308  12.342 -0.0682 -0.0994 -0.1908
  102TCq2    O2 1552   3.535   4.288  12.408  0.2737 -0.0764 -0.1744
  102TCq2    C2 1553   3.304   4.271  12.402 -0.2043  0.0954  0.1399
  102TCq2    C3 1554   3.199   4.233  12.325 -0.7586  0.1988  0.0777
  102TCq2    C4 1555   3.095   4.172  12.389  0.4477 -0.1580  0.6915
  102TCq2    C5 1556   3.090   4.148  12.519  0.9840 -0.3254 -0.2048
  102TCq2    C6 1557   3.203   4.182  12.592 -0.9679 -0.7077 -0.1342
  102TCq2    C7 1558   3.312   4.248  12.536 -0.3737  0.4532 -0.1916
  102TCq2    C8 1559   3.209   4.127  12.726  0.0442 -0.0372 -0.1841
  102TCq2    O4 1560   3.110   4.068  12.769 -0.3384  0.4060  0.0742
  102TCq2    C9 1561   2.988   4.119  12.311  0.0816  0.1129 -0.2095
  102TCq2    O5 1562   2.966   4.180  12.204  0.3893 -0.1754 -0.6954
  102TCq2    O6 1563   2.927   4.015  12.355  0.2745 -0.2639  0.6371
  102TCq2    H2 1564   3.203   4.257  12.219  0.8792  0.3037  0.1651
  102TCq2    H3 1565   3.003   4.104  12.567  0.7917 -0.3053 -0.5423
  102TCq2    H4 1566   3.403   4.269  12.590 -0.1937 -0.3177 -0.1946
  103TMC2    C1 1567   1.755   3.360  12.511  0.2149 -0.0140 -0.2868
  103TMC2    C2 1568   1.852   3.273  12.529 -0.1164 -0.5356 -0.6758
  103TMC2    C3 1569   1.959   3.313  12.603 -0.7196  0.0638 -0.5205
  103TMC2    C4 1570   1.748   3.481  12.581 -0.2388 -0.4476 -0.4035
  103TMC2    C5 1571   1.860   3.517  12.651  1.0443  0.8623  0.0763
  103TMC2    C6 1572   1.971   3.436  12.653 -0.4790 -0.0665 -0.3188
  103TMC2     C 1573   1.686   3.364  12.386 -0.6439 -0.4876  0.2293
  103TMC2     O 1574   1.604   3.274  12.364  0.1519  0.0088  0.6253
  103TMC2     H 1575   1.847   3.174  12.487 -0.8547 -1.5285  1.7350
  103TMC2    H1 1576   1.670   3.553  12.561 -0.6620 -0.5294  1.0018
  103TMC2    H2 1577   2.069   3.470  12.684 -0.4361  0.4414 -1.0029
  103TMC2    C7 1578   1.865   3.640  12.726  0.3811  0.1757  1.1975
  103TMC2    C8 1579   2.071   3.224  12.613  0.1896  0.0703 -0.1799
  103TMC2    O1 1580   1.936   3.640  12.822 -0.0874 -0.3348  0.2637
  103TMC2    O2 1581   2.182   3.270  12.635  0.0307  0.0183 -1.5748
  103TMC2    O5 1582   2.027   3.094  12.638  0.4704 -0.3530 -0.2040
  103TMC2    H5 1583   2.100   3.032  12.658  1.0879  0.3578 -0.2745
  104MPD2     C 1584   1.779   3.555  12.089 -0.1930  0.3460 -0.6140
  104MPD2    C1 1585   1.701   3.480  12.166  0.0865  0.0737  0.3333
  104MPD2    C2 1586   1.583   3.434  12.115  0.1106 -0.2332 -0.0384
  104MPD2    C3 1587   1.553   3.450  11.977  0.1749  0.0886 -0.5542
  104MPD2    C4 1588   1.633   3.534  11.902  0.6393 -0.4601 -0.8327
  104MPD2    C5 1589   1.738   3.589  11.965 -0.0110  0.4659  0.5129
  104MPD2     H 1590   1.523   3.371  12.179  0.7585 -1.2099 -0.4009
  104MPD2    H1 1591   1.611   3.577  11.804 -0.1958  0.5819 -0.1895
  104MPD2    H2 1592   1.870   3.601  12.127 -0.4354 -0.2982  0.7174
  104MPD2    H3 1593   1.800   3.661  11.912 -0.5318  0.3350 -0.2666
  104MPD2     N 1594   1.429   3.400  11.930 -0.1592 -0.4554  0.1603
  104MPD2    H5 1595   1.373   3.355  12.001 -0.6774 -2.0487 -1.2461
  104MPD2    N1 1596   1.743   3.451  12.296 -0.3093  0.4636 -0.2521
  104MPD2    H7 1597   1.832   3.494  12.319  0.3990 -2.6729  2.9271
  105MPD2     C 1598   3.463   3.077   0.061 -0.5262  0.0611  0.0538
  105MPD2    C1 1599   3.353   3.163   0.040  0.0836  0.0607 -0.0647
  105MPD2    C2 1600   3.265   3.193   0.144  0.1928  0.1027  0.3512
  105MPD2    C3 1601   3.265   3.116   0.257 -0.1193 -0.3665 -0.0209
  105MPD2    C4 1602   3.374   3.024   0.269  0.4539  0.8087  0.1256
  105MPD2    C5 1603   3.472   3.017   0.180  0.2601  0.4919  0.8712
  105MPD2     H 1604   3.187   3.265   0.127  0.5901  0.8737  1.7636
  105MPD2    H1 1605   3.383   2.971   0.363 -0.3755  1.2591  0.4664
  105MPD2    H2 1606   3.530   3.054  17.671 -1.9422 -0.0705 -1.0862
  105MPD2    H3 1607   3.551   2.944   0.198 -0.4868 -0.2250  1.2347
  105MPD2     N 1608   3.158   3.119   0.346  0.5652 -0.3550 -0.2241
  105MPD2    H5 1609   3.078   3.178   0.325  0.5574 -0.9989 -1.9741
  105MPD2    N1 1610   3.326   3.214  17.601 -0.0217 -0.3000  0.8986
  105MPD2    H7 1611   3.241   3.270  17.599  1.4771  1.9854  1.3966
  106TCq2    C1 1612   3.145   3.049   0.466 -0.3831 -0.5342 -0.8943
  106TCq2    O2 1613   3.226   2.980   0.526 -0.5498  0.2769  0.4101
  106TCq2    C2 1614   3.014   3.060   0.529 -0.1543 -0.8000  0.0749
  106TCq2    C3 1615   2.911   3.095   0.444 -1.5501  0.0198 -0.2391
  106TCq2    C4 1616   2.786   3.099   0.496 -0.2160 -0.6264 -0.7362
  106TCq2    C5 1617   2.753   3.078   0.621 -0.8748 -0.1039  0.3575
  106TCq2    C6 1618   2.858   3.053   0.712 -0.4439 -0.1510 -0.0107
  106TCq2    C7 1619   2.990   3.032   0.665  0.1612  0.1215  0.6505
  106TCq2    C8 1620   2.850   3.029   0.857  0.3618  0.4780  0.1683
  106TCq2    O4 1621   2.947   3.024   0.925  0.8645 -0.3728  0.1824
  106TCq2    C9 1622   2.680   3.150   0.400 -0.3868 -0.3768 -0.3045
  106TCq2    O5 1623   2.563   3.177   0.451 -0.2440 -0.1119 -0.4321
  106TCq2    O6 1624   2.719   3.195   0.291 -0.4698 -0.1236  0.0992
  106TCq2    H2 1625   2.925   3.107   0.337  0.1600 -1.6832 -0.2161
  106TCq2    H3 1626   2.650   3.089   0.653 -0.8141  0.7437  0.2794
  106TCq2    H4 1627   3.069   3.010   0.735  0.2948  3.1595  1.4551
  107TMC2    C1 1628   3.626   2.687  11.284 -0.7599 -0.2532 -0.3611
  107TMC2    C2 1629   3.630   2.704  11.150 -0.2387  0.3152  0.4822
  107TMC2    C3 1630   3.699   2.611  11.081 -0.8461  0.0234 -0.2983
  107TMC2    C4 1631   3.652   2.564  11.341  0.4832  0.2635 -0.0766
  107TMC2    C5 1632   3.721   2.472  11.271 -0.1877  0.4886  0.3128
  107TMC2    C6 1633   3.738   2.490  11.136  0.3832  0.4491  0.0884
  107TMC2     C 1634   3.534   2.764  11.364 -0.2580  0.2282 -0.0618
  107TMC2     O 1635   3.550   2.782  11.483  0.5115 -0.2406 -0.5781
  107TMC2     H 1636   3.614   2.805  11.114 -1.4516  1.1657  3.3400
  107TMC2    H1 1637   3.650   2.570  11.449  3.1504 -0.0233 -0.0220
  107TMC2    H2 1638   3.782   2.415  11.071  1.1682 -0.5814  1.8040
  107TMC2    C7 1639   3.781   2.360  11.342  0.1006  0.4480 -0.3598
  107TMC2    C8 1640   3.759   2.632  10.951 -0.0521  0.7585 -0.4356
  107TMC2    O1 1641   3.729   2.321  11.442 -0.1899  0.1119 -0.6324
  107TMC2    O2 1642   3.868   2.579  10.919  0.3643 -0.2936 -0.0910
  107TMC2    O5 1643   3.688   2.714  10.876 -0.5620  0.1741  0.3315
  107TMC2    H5 1644   3.596   2.731  10.906 -1.0294 -0.6222 -0.6373
  108MPD2     C 1645   3.189   2.831  11.252  0.4493  0.5780 -0.0030
  108MPD2    C1 1646   3.288   2.805  11.350  0.2023  0.0725 -0.2595
  108MPD2    C2 1647   3.253   2.814  11.487  0.3671  0.0108 -1.1619
  108MPD2    C3 1648   3.121   2.830  11.525  0.2601 -0.5066 -0.3990
  108MPD2    C4 1649   3.026   2.837  11.423 -0.1954 -0.0700  0.4406
  108MPD2    C5 1650   3.056   2.837  11.291 -0.3373 -0.1694  0.2693
  108MPD2     H 1651   3.337   2.820  11.556 -1.8257  1.3843  1.3835
  108MPD2    H1 1652   2.921   2.849  11.447 -0.7595 -2.2016 -0.9589
  108MPD2    H2 1653   3.210   2.843  11.146 -0.8737 -0.2792 -0.3623
  108MPD2    H3 1654   2.976   2.843  11.217 -0.8800 -0.5193  0.8248
  108MPD2     N 1655   3.072   2.829  11.659  0.1855  0.0729 -0.0239
  108MPD2    H5 1656   2.971   2.815  11.667  0.0589 -0.5787 -2.6451
  108MPD2    N1 1657   3.419   2.800  11.294 -0.6446 -0.4771 -0.4411
  108MPD2    H7 1658   3.428   2.782  11.194 -0.0288 -1.2025 -0.2581
  109MPD2     C 1659   4.527   0.488   2.395  0.1741  0.1135  0.0545
  109MPD2    C1 1660   4.506   0.572   2.290  0.2890  0.0038 -0.5090
  109MPD2    C2 1661   4.513   0.709   2.319 -0.3531  0.7638 -0.1734
  109MPD2    C3 1662   4.560   0.751   2.441  0.6291  0.4039  0.5660
  109MPD2    C4 1663   4.578   0.663   2.551  0.5356  0.7496 -0.1402
  109MPD2    C5 1664   4.562   0.528   2.522 -0.6523  0.0037  0.1786
  109MPD2     H 1665   4.502   0.776   2.233 -0.7472 -2.0574 -2.3088
  109MPD2    H1 1666   4.611   0.687   2.651  0.9852 -1.2616  0.1942
  109MPD2    H2 1667   4.512   0.384   2.369  0.2740  0.2843 -0.7115
  109MPD2    H3 1668   4.570   0.455   2.602  0.8823 -0.5342 -0.4578
  109MPD2     N 1669   4.579   0.894   2.468  0.7164  0.2759  0.2153
  109MPD2    H5 1670   4.565   0.951   2.385 -0.1875  0.9367  0.8148
  109MPD2    N1 1671   4.467   0.527   2.161 -0.4064 -0.6052  0.0586
  109MPD2    H7 1672   4.474   0.426   2.151 -1.1337 -0.5485 -1.0574
  110TCq2    C1 1673   4.607   0.954   2.588 -0.2323  0.3734  0.9247
  110TCq2    O2 1674   4.638   0.898   2.692 -0.3474 -0.4653 -0.0253
  110TCq2    C2 1675   4.619   1.095   2.571  0.4221  0.5022 -0.0338
  110TCq2    C3 1676   4.645   1.171   2.688 -0.6510  0.6688  0.1726
  110TCq2    C4 1677   4.635   1.305   2.685 -0.3302  0.8475 -0.1878
  110TCq2    C5 1678   4.601   1.377   2.575  0.4309 -0.3450 -0.6227
  110TCq2    C6 1679   4.579   1.301   2.463  0.2107 -0.2508  0.2185
  110TCq2    C7 1680   4.591   1.165   2.458 -0.0957 -0.5030 -0.0317
  110TCq2    C8 1681   4.521   1.367   2.344 -0.4303 -0.3321  0.2296
  110TCq2    O4 1682   4.511   1.298   2.243 -0.6380  0.4618 -0.3477
  110TCq2    C9 1683   4.633   1.378   2.812 -0.4676 -0.1540  0.2298
  110TCq2    O5 1684   4.620   1.312   2.919 -0.0594  0.1464 -0.5464
  110TCq2    O6 1685   4.605   1.502   2.811  0.0642 -0.0028 -0.2333
  110TCq2    H2 1686   4.650   1.122   2.785  0.2226  0.6427  0.1093
  110TCq2    H3 1687   4.592   1.485   2.576  0.9694 -0.2880 -1.5512
  110TCq2    H4 1688   4.579   1.118   2.361  0.9088 -0.3520 -0.2354
  111TMC2    C1 1689   4.346   4.324  10.997 -0.2356 -0.8836 -0.2686
  111TMC2    C2 1690   4.425   4.226  10.937 -0.7543 -0.3511 -0.8287
  111TMC2    C3 1691   4.518   4.172  11.025  0.5247 -0.1936 -0.3509
  111TMC2    C4 1692   4.372   4.375  11.124  0.3233 -0.6330 -0.3723
  111TMC2    C5 1693   4.473   4.323  11.196  0.5679 -0.3529  0.5057
  111TMC2    C6 1694   4.539   4.215  11.156  0.2784  0.0857  0.0678
  111TMC2     C 1695   4.234   4.385  10.927  0.9075  0.2712  0.6252
  111TMC2     O 1696   4.205   4.496  10.961  0.7273 -0.4598  0.2764
  111TMC2     H 1697   4.412   4.194  10.835 -1.3855 -1.6116 -0.3585
  111TMC2    H1 1698   4.318   4.456  11.172  0.6542  0.8961 -2.6039
  111TMC2    H2 1699   4.621   4.168  11.208 -0.7806 -1.3464  0.4496
  111TMC2    C7 1700   4.465   4.362  11.335  0.8422  0.4637  1.1280
  111TMC2    C8 1701   4.584   4.047  10.988  0.1889  0.3018 -0.3485
  111TMC2    O1 1702   4.367   4.418  11.382 -0.0364 -0.2592 -1.0819
  111TMC2    O2 1703   4.701   4.023  11.023 -0.2879  0.0183  0.6073
  111TMC2    O5 1704   4.506   3.989  10.891  0.0852  0.2731 -0.0697
  111TMC2    H5 1705   4.415   4.024  10.897 -0.7395 -1.7525 -0.9506
  112MPD2     C 1706   3.745   4.306  10.777 -0.5464 -0.3080 -0.0266
  112MPD2    C1 1707   3.807   4.414  10.833  0.0169 -0.0737 -0.1380
  112MPD2    C2 1708   3.944   4.406  10.860  0.6304  0.3164  0.4921
  112MPD2    C3 1709   4.022   4.291  10.838  0.3542  0.1068  0.6112
  112MPD2    C4 1710   3.962   4.183  10.778  0.3242  0.5594  0.1531
  112MPD2    C5 1711   3.823   4.193  10.748 -0.4943 -0.5264  0.4237
  112MPD2     H 1712   3.987   4.500  10.893  0.3130  1.4363 -2.3080
  112MPD2    H1 1713   4.010   4.086  10.774  0.7603  0.7762  0.1723
  112MPD2    H2 1714   3.637   4.308  10.768 -0.6838  0.4953  1.9418
  112MPD2    H3 1715   3.770   4.102  10.720  0.9449 -0.4237 -2.6670
  112MPD2     N 1716   4.159   4.282  10.871 -0.0907 -0.2749 -0.0600
  112MPD2    H5 1717   4.206   4.192  10.866 -0.9618 -0.7731  0.8475
  112MPD2    N1 1718   3.756   4.536  10.863 -0.1852 -0.2556 -0.0184
  112MPD2    H7 1719   3.827   4.603  10.889 -0.0213  0.2167 -1.6670
  113MPD2     C 1720   2.343   2.310   1.361 -0.0153  0.1392 -0.0498
  113MPD2    C1 1721   2.227   2.369   1.395 -0.1792 -0.0893 -0.2437
  113MPD2    C2 1722   2.140   2.415   1.299  0.6602 -0.3626  0.0800
  113MPD2    C3 1723   2.163   2.384   1.163  1.0067  0.3288  0.3570
  113MPD2    C4 1724   2.288   2.329   1.125 -1.0217  0.3057 -0.2414
  113MPD2    C5 1725   2.377   2.302   1.229 -0.4810 -0.1276 -0.4448
  113MPD2     H 1726   2.051   2.468   1.332  0.8202  1.6650 -2.7526
  113MPD2    H1 1727   2.313   2.314   1.020  1.2691 -0.6075  0.4472
  113MPD2    H2 1728   2.421   2.303   1.436 -1.7987 -2.7304  1.5537
  113MPD2    H3 1729   2.483   2.289   1.213 -0.2416  0.7143  0.4322
  113MPD2     N 1730   2.070   2.410   1.058  0.4613 -0.0623 -0.2182
  113MPD2    H5 1731   2.085   2.353   0.976 -1.2034 -2.7903  1.3508
  113MPD2    N1 1732   2.188   2.394   1.527 -0.0423  0.4626  0.2606
  113MPD2    H7 1733   2.110   2.458   1.529  0.8944  1.6337 -0.6775
  114TCq2    C1 1734   1.955   2.477   1.069  0.0346 -0.1527 -0.2141
  114TCq2    O2 1735   1.926   2.564   1.153  0.2483 -0.2730 -0.6027
  114TCq2    C2 1736   1.864   2.441   0.962 -0.3638 -0.4341  0.8076
  114TCq2    C3 1737   1.775   2.537   0.929 -0.6758 -0.3606 -0.2196
  114TCq2    C4 1738   1.660   2.498   0.867 -0.2999 -0.2837 -0.4475
  114TCq2    C5 1739   1.630   2.369   0.841 -0.7738 -0.3957  0.0723
  114TCq2    C6 1740   1.725   2.277   0.882 -0.4665  0.3088 -0.2483
  114TCq2    C7 1741   1.842   2.313   0.937  0.1962 -0.7993 -0.2663
  114TCq2    C8 1742   1.713   2.136   0.849  0.1546 -1.0378  0.6885
  114TCq2    O4 1743   1.806   2.054   0.856  0.0957 -0.2093  0.0934
  114TCq2    C9 1744   1.566   2.602   0.833  1.2446  1.0518 -0.2600
  114TCq2    O5 1745   1.594   2.723   0.857  0.2436 -0.5164  0.1990
  114TCq2    O6 1746   1.451   2.561   0.809  0.5358  0.5028 -0.0927
  114TCq2    H2 1747   1.797   2.641   0.949 -3.1143 -0.0805  1.0457
  114TCq2    H3 1748   1.545   2.341   0.779 -0.5603 -1.4934  0.2782
  114TCq2    H4 1749   1.912   2.235   0.965  0.8795 -0.4910 -1.1112
  115TMC2    C1 1750   2.376   0.346  17.519 -0.0827  0.1531  0.0096
  115TMC2    C2 1751   2.510   0.340  17.515  0.3409  0.1795 -0.0669
  115TMC2    C3 1752   2.576   0.456  17.525  0.3799  0.0209 -0.3081
  115TMC2    C4 1753   2.314   0.468  17.508 -0.0781 -0.0315 -0.2590
  115TMC2    C5 1754   2.382   0.584  17.508 -0.2388 -0.2552  0.0577
  115TMC2    C6 1755   2.516   0.581  17.522 -0.7660  0.1237 -0.8535
  115TMC2     C 1756   2.310   0.221  17.483  0.0352  0.1115  0.3692
  115TMC2     O 1757   2.374   0.141  17.414 -0.8861 -0.0872  0.1961
  115TMC2     H 1758   2.562   0.245  17.513 -1.1376 -0.6087 -0.6070
  115TMC2    H1 1759   2.207   0.467  17.492 -0.0905  0.6772 -0.2223
  115TMC2    H2 1760   2.575   0.670  17.537 -0.9075  0.0008  0.4593
  115TMC2    C7 1761   2.309   0.706  17.489  0.0768 -1.1731  0.4694
  115TMC2    C8 1762   2.714   0.448  17.557  0.4605 -0.3799  0.8721
  115TMC2    O1 1763   2.189   0.714  17.500 -0.2223 -0.1912 -0.1612
  115TMC2    O2 1764   2.796   0.537  17.527 -0.0959 -0.1442  0.2676
  115TMC2    O5 1765   2.740   0.368  17.660 -0.7248  0.0192  0.9163
  115TMC2    H5 1766   2.665   0.307  17.674 -1.9339  1.9433  2.7404
  116MPD2     C 1767   1.861   4.680  17.491 -0.4415  0.0702 -0.0717
  116MPD2    C1 1768   1.986   4.641  17.441 -0.4109  0.2702  0.2767
  116MPD2    C2 1769   2.096   4.714  17.467  1.2253 -0.4327 -0.8319
  116MPD2    C3 1770   2.086   0.113  17.523  0.5555 -0.1898 -0.4833
  116MPD2    C4 1771   1.962   0.160  17.566  0.4730  0.2445 -0.3654
  116MPD2    C5 1772   1.852   0.080  17.552 -0.3441 -0.0207  0.0183
  116MPD2     H 1773   2.194   4.676  17.442  1.3812 -1.4703  1.2959
  116MPD2    H1 1774   1.948   0.255  17.617  1.9618 -1.6496  3.5126
  116MPD2    H2 1775   1.771   4.619  17.486 -0.6428  0.4690 -1.4581
  116MPD2    H3 1776   1.760   0.117  17.595 -0.2641  0.1728  0.0248
  116MPD2     N 1777   2.186   0.210  17.539 -0.0397 -0.0424 -0.2430
  116MPD2    H5 1778   2.169   0.284  17.606 -0.8137  0.8366 -1.4058
  116MPD2    N1 1779   1.986   4.522  17.370  0.3392 -0.4156 -0.1261
  116MPD2    H7 1780   1.895   4.497  17.334  0.2857  0.0561 -0.3068
  117TMC2    C1 1781   0.912   1.768  14.088 -0.4955 -0.0976 -0.2314
  117TMC2    C2 1782   0.912   1.666  14.179 -0.0369  0.1354 -0.0583
  117TMC2    C3 1783   1.008   1.681  14.282  0.3663  0.5792  0.8519
  117TMC2    C4 1784   1.010   1.864  14.085 -0.0928 -0.1189  0.1668
  117TMC2    C5 1785   1.110   1.860  14.174 -0.7202  0.0923 -0.5064
  117TMC2    C6 1786   1.103   1.774  14.280  0.2872 -0.2412 -0.5853
  117TMC2     C 1787   0.799   1.802  14.009 -0.3550 -0.5619 -0.2119
  117TMC2     O 1788   0.748   1.704  13.966  0.2503 -0.4937 -0.2002
  117TMC2     H 1789   0.826   1.600  14.190 -0.8883  1.2002 -0.3310
  117TMC2    H1 1790   1.014   1.922  13.993 -2.4100 -1.5338 -0.8312
  117TMC2    H2 1791   1.174   1.785  14.361 -0.3838 -2.0352  0.2321
  117TMC2    C7 1792   1.213   1.963  14.151 -0.4861  0.1453  0.1309
  117TMC2    C8 1793   0.979   1.621  14.410  0.0934  0.1251 -0.0462
  117TMC2    O1 1794   1.186   2.048  14.064  0.4408 -0.0073  0.0554
  117TMC2    O2 1795   0.951   1.689  14.508  0.0490 -0.2975  0.0251
  117TMC2    O5 1796   0.958   1.491  14.391  0.2021 -0.2847 -0.3515
  117TMC2    H5 1797   0.967   1.457  14.300 -1.1656  0.8932 -0.9318
  118MPD2     C 1798   1.553   2.011  14.281 -0.2824  0.6158  0.9818
  118MPD2    C1 1799   1.442   2.028  14.209 -0.0971  0.0804 -0.1098
  118MPD2    C2 1800   1.450   2.136  14.125  0.0631  0.1947 -0.4318
  118MPD2    C3 1801   1.558   2.217  14.107 -0.9708 -0.3024  0.5366
  118MPD2    C4 1802   1.672   2.192  14.177 -0.1103 -0.4653  0.1850
  118MPD2    C5 1803   1.668   2.083  14.263  0.2005 -0.0341 -0.2630
  118MPD2     H 1804   1.362   2.158  14.065 -0.1412  1.1035  0.1978
  118MPD2    H1 1805   1.761   2.253  14.176 -1.3508  1.3361 -0.0497
  118MPD2    H2 1806   1.560   1.925  14.347 -1.4080 -0.0469  0.2325
  118MPD2    H3 1807   1.747   2.059  14.332  0.7595  0.6299 -0.6659
  118MPD2     N 1808   1.556   2.340  14.033  0.7957  0.0016  0.0056
  118MPD2    H5 1809   1.645   2.386  14.017  0.3006  0.2401 -2.0746
  118MPD2    N1 1810   1.331   1.941  14.217 -0.5510 -0.0192 -0.2927
  118MPD2    H7 1811   1.340   1.857  14.272  0.7232  0.2493 -0.0847
  119MPD2     C 1812   3.656   3.749  12.799 -0.1576 -0.3112  0.3663
  119MPD2    C1 1813   3.577   3.651  12.862 -0.4600 -0.0102  0.0717
  119MPD2    C2 1814   3.556   3.525  12.799  0.2586  0.6115  0.4817
  119MPD2    C3 1815   3.615   3.504  12.675 -0.5597  0.0148 -0.6932
  119MPD2    C4 1816   3.664   3.616  12.603  0.1113 -0.5556  0.1728
  119MPD2    C5 1817   3.690   3.729  12.666  0.4740  0.2637 -0.7730
  119MPD2     H 1818   3.489   3.450  12.839 -1.7888  1.4553 -1.2799
  119MPD2    H1 1819   3.708   3.601  12.504 -1.1388 -0.4556 -0.3976
  119MPD2    H2 1820   3.671   3.844  12.847  0.1143 -0.3442  0.3469
  119MPD2    H3 1821   3.749   3.806  12.616  0.0797  0.8116 -0.3978
  119MPD2     N 1822   3.623   3.376  12.614 -0.4552 -0.0487 -0.4355
  119MPD2    H5 1823   3.663   3.377  12.520 -1.7378  0.2301 -0.9848
  119MPD2    N1 1824   3.524   3.696  12.982 -0.4742 -0.4838 -0.6117
  119MPD2    H7 1825   3.561   3.776  13.031  2.9505 -1.8232 -1.0448
  120TCq2    C1 1826   3.600   3.258  12.680 -0.1345 -0.1673  0.8740
  120TCq2    O2 1827   3.577   3.250  12.799  0.1811 -0.2860  0.6288
  120TCq2    C2 1828   3.651   3.135  12.613 -0.4942  0.5180  0.1037
  120TCq2    C3 1829   3.694   3.136  12.484 -0.7818  0.0200  0.2274
  120TCq2    C4 1830   3.706   3.015  12.424  0.2741  0.3839 -0.9395
  120TCq2    C5 1831   3.694   2.901  12.497 -0.0616 -0.6489  0.1835
  120TCq2    C6 1832   3.664   2.910  12.632 -0.1450  0.1297  0.4708
  120TCq2    C7 1833   3.631   3.026  12.689 -0.0355  0.1463 -0.1856
  120TCq2    C8 1834   3.658   2.778  12.699 -0.0701  0.8176 -0.4337
  120TCq2    O4 1835   3.686   2.674  12.637  0.4764 -0.2241 -0.4979
  120TCq2    C9 1836   3.758   3.016  12.293  0.1656  0.5701 -0.3462
  120TCq2    O5 1837   3.774   2.908  12.229  0.5390  0.5010 -0.2373
  120TCq2    O6 1838   3.812   3.127  12.259 -0.3828 -1.1285 -0.0306
  120TCq2    H2 1839   3.701   3.230  12.431 -0.9158  1.3532  2.6008
  120TCq2    H3 1840   3.715   2.804  12.452  0.3342  0.0137 -1.0692
  120TCq2    H4 1841   3.604   3.033  12.793 -0.6530  1.6268 -0.4407
  121TMC2    C1 1842   0.947   0.280  13.919  0.1521 -0.6092  0.4589
  121TMC2    C2 1843   1.067   0.208  13.905 -0.1680  0.5841 -0.7900
  121TMC2    C3 1844   1.058   0.070  13.916 -0.7461 -0.5279 -0.6894
  121TMC2    C4 1845   0.826   0.223  13.940 -0.4883  0.6162 -0.0245
  121TMC2    C5 1846   0.823   0.084  13.953 -0.0373  0.0350 -0.0664
  121TMC2    C6 1847   0.934   0.005  13.937  0.2540 -0.4563  0.2830
  121TMC2     C 1848   0.957   0.432  13.911  0.2995 -0.0109  0.0446
  121TMC2     O 1849   0.874   0.499  13.968  0.3318  0.2795  0.3211
  121TMC2     H 1850   1.161   0.261  13.902 -0.4872  1.1118 -1.3339
  121TMC2    H1 1851   0.749   0.287  13.982  0.9964  0.6906  2.6345
  121TMC2    H2 1852   0.939   4.621  13.918 -0.0664 -0.3449 -0.4053
  121TMC2    C7 1853   0.695   0.021  13.968 -0.7495  0.1775  0.5480
  121TMC2    C8 1854   1.182   0.002  13.877  0.1669 -0.5723 -0.2016
  121TMC2    O1 1855   0.703   4.622  13.991 -0.5131  0.0266 -0.0672
  121TMC2    O2 1856   1.283   0.054  13.827 -0.2164 -0.0269  0.0154
  121TMC2    O5 1857   1.180   4.626  13.963  0.0388 -0.1140  0.0324
  121TMC2    H5 1858   1.113   4.628  14.034  0.0491 -0.8523  0.0650
  122MPD2     C 1859   1.072   0.711  13.906  0.2008 -0.0806 -0.3801
  122MPD2    C1 1860   1.121   0.601  13.837  0.0551 -0.1751  0.2068
  122MPD2    C2 1861   1.232   0.613  13.761  0.0113  0.5687  0.7428
  122MPD2    C3 1862   1.291   0.732  13.742 -0.0856  0.5052  0.0384
  122MPD2    C4 1863   1.247   0.842  13.811  0.4087 -0.2514  0.5617
  122MPD2    C5 1864   1.138   0.831  13.900  0.1635  0.1183  0.5975
  122MPD2     H 1865   1.265   0.522  13.711 -0.6668 -1.2482  3.5825
  122MPD2    H1 1866   1.301   0.936  13.809  3.2361 -1.9597 -3.0992
  122MPD2    H2 1867   0.979   0.705  13.961 -0.6685  2.1369 -1.6145
  122MPD2    H3 1868   1.109   0.924  13.948  1.6553  0.6800  0.4339
  122MPD2     N 1869   1.398   0.751  13.654 -0.7492 -0.3860  0.2787
  122MPD2    H5 1870   1.440   0.843  13.653 -1.9982  0.1853  0.4949
  122MPD2    N1 1871   1.064   0.477  13.839 -0.0222  0.4167  0.0046
  122MPD2    H7 1872   1.123   0.405  13.800 -1.0149 -0.6848  0.5524
  123MPD2     C 1873   4.715   3.801   9.303  0.3087  0.2896  0.0827
  123MPD2    C1 1874   0.006   3.700   9.210 -0.2868  0.2680  0.7566
  123MPD2    C2 1875   0.111   3.615   9.220  0.4965 -0.2062 -0.0336
  123MPD2    C3 1876   0.210   3.637   9.311 -0.3021 -0.0569  0.5712
  123MPD2    C4 1877   0.192   3.743   9.393 -0.6187  0.7227 -0.4531
  123MPD2    C5 1878   0.084   3.820   9.398  0.1984 -0.3217  0.0752
  123MPD2     H 1879   0.121   3.525   9.160 -0.7863  0.4695 -1.2616
  123MPD2    H1 1880   0.256   3.757   9.479 -0.8074  0.9770 -0.3561
  123MPD2    H2 1881   4.635   3.874   9.291  1.9571  2.4605  2.5486
  123MPD2    H3 1882   0.089   3.907   9.463  0.1747  0.1222 -0.5073
  123MPD2     N 1883   0.322   3.544   9.318 -0.1981  0.1187  0.2585
  123MPD2    H5 1884   0.323   3.466   9.252  0.0891  0.1095  0.2760
  123MPD2    N1 1885   4.632   3.682   9.109  0.0717 -0.1140  0.2329
  123MPD2    H7 1886   4.553   3.746   9.106 -0.1126 -0.3327  0.4841
  124TCq2    C1 1887   0.434   3.566   9.389  0.1597  0.1092  0.7256
  124TCq2    O2 1888   0.465   3.664   9.449  0.5787  0.1590 -0.4738
  124TCq2    C2 1889   0.523   3.455   9.373  0.6122  0.0315 -0.5518
  124TCq2    C3 1890   0.653   3.493   9.385 -0.0452  0.5274  0.1792
  124TCq2    C4 1891   0.742   3.400   9.429 -0.0968  0.5715 -0.0769
  124TCq2    C5 1892   0.703   3.273   9.436  0.6812  0.3635 -0.5092
  124TCq2    C6 1893   0.577   3.236   9.409  0.3252  0.0526  0.3421
  124TCq2    C7 1894   0.479   3.329   9.383  0.1075  0.1329  0.5107
  124TCq2    C8 1895   0.527   3.100   9.443  0.4364 -0.6394  0.0873
  124TCq2    O4 1896   0.407   3.081   9.429  0.3968 -0.1690 -0.0523
  124TCq2    C9 1897   0.876   3.438   9.465 -0.4863  0.2671  0.5324
  124TCq2    O5 1898   0.953   3.346   9.512  0.6777 -0.2276 -0.1549
  124TCq2    O6 1899   0.909   3.538   9.397 -0.4167 -0.6597  0.3966
  124TCq2    H2 1900   0.686   3.596   9.374 -1.1716  0.8054 -0.5842
  124TCq2    H3 1901   0.781   3.198   9.440  0.1992 -0.0894  0.3613
  124TCq2    H4 1902   0.373   3.306   9.386 -0.1233  1.0557 -0.2923
  125TMC2    C1 1903   0.290   3.904   9.071  0.1719  0.9351  0.0500
  125TMC2    C2 1904   0.346   3.802   9.001 -0.0003  0.2333  0.1464
  125TMC2    C3 1905   0.458   3.750   9.059 -0.1173  0.5205  0.3577
  125TMC2    C4 1906   0.349   3.970   9.178 -0.4754  0.2340 -0.1019
  125TMC2    C5 1907   0.467   3.927   9.218 -0.1095 -0.3780  1.4604
  125TMC2    C6 1908   0.524   3.813   9.165 -0.3194  0.1020  0.2359
  125TMC2     C 1909   0.188   3.979   9.009 -0.1758  0.0502 -0.3800
  125TMC2     O 1910   0.159   4.088   9.054  0.1179 -0.9014 -0.6168
  125TMC2     H 1911   0.302   3.737   8.926  0.1415 -0.1745  0.4107
  125TMC2    H1 1912   0.305   4.061   9.217  1.4599 -0.2291  3.1938
  125TMC2    H2 1913   0.621   3.778   9.198  0.8844  0.7935 -2.5563
  125TMC2    C7 1914   0.526   4.004   9.329 -0.1957 -0.0362 -0.2671
  125TMC2    C8 1915   0.514   3.637   9.001 -0.1004  0.3009 -0.6801
  125TMC2    O1 1916   0.450   4.088   9.382 -0.4696 -0.1484  0.9730
  125TMC2    O2 1917   0.447   3.540   8.969  0.5254 -0.1252  0.2642
  125TMC2    O5 1918   0.640   3.625   9.041 -0.0913 -0.5502 -0.3634
  125TMC2    H5 1919   0.676   3.715   9.057 -1.8023 -0.4210  2.8549
  126MPD1     C 1920   4.449   3.944   8.771 -0.3389 -0.0369  0.1465
  126MPD1    C1 1921   4.548   3.893   8.687  0.6196 -0.4018 -0.5094
  126MPD1    C2 1922   4.678   3.900   8.737 -0.2288  0.4562  1.1017
  126MPD1    C3 1923   4.714   3.946   8.860 -0.0040 -0.6051  0.3112
  126MPD1    C4 1924   4.610   3.999   8.943  0.7375  0.5034 -0.7419
  126MPD1    C5 1925   4.484   3.985   8.899  0.0286 -0.1581 -0.3305
  126MPD1     H 1926   0.032   3.860   8.670  0.2970 -0.7816  2.4547
  126MPD1    H1 1927   4.626   4.036   9.044 -1.0277  0.0632 -0.2956
  126MPD1    H2 1928   4.344   3.956   8.746 -0.0613  1.4549 -0.2844
  126MPD1    H3 1929   4.404   4.022   8.962  1.1633  0.9625  0.4262
  126MPD1     N 1930   0.114   3.908   8.918 -0.0875  0.1354 -0.7861
  126MPD1    H5 1931   0.159   3.835   8.865  0.2283  0.3800 -0.8525
  126MPD1    N1 1932   4.524   3.874   8.546  0.5330  0.5085 -0.1717
  126MPD1    H6 1933   4.432   3.834   8.527  0.3186  0.0497  1.7833
  126MPD1    H7 1934   4.582   3.799   8.507 -0.7840 -1.5493  1.8433
  127MPD2     C 1935   2.330   3.519   9.510 -0.2820  0.1344 -0.0534
  127MPD2    C1 1936   2.266   3.504   9.632  0.2627 -0.2040 -0.4117
  127MPD2    C2 1937   2.269   3.605   9.726 -0.2029 -0.0182  0.7496
  127MPD2    C3 1938   2.335   3.726   9.704 -0.3349 -0.0362  0.3672
  127MPD2    C4 1939   2.405   3.731   9.585 -0.1565  0.7014 -1.1209
  127MPD2    C5 1940   2.403   3.629   9.494  0.4044  0.3482  0.1561
  127MPD2     H 1941   2.217   3.596   9.820  0.7041 -1.4632  1.1176
  127MPD2    H1 1942   2.463   3.821   9.568 -0.1464  0.7322 -0.9221
  127MPD2    H2 1943   2.330   3.445   9.430 -0.5689  0.5022 -0.3943
  127MPD2    H3 1944   2.449   3.642   9.396 -1.4183  0.7801 -0.6462
  127MPD2     N 1945   2.329   3.828   9.807  0.0916 -0.3416 -0.2454
  127MPD2    H5 1946   2.263   3.806   9.880  1.3695  1.1278  1.3537
  127MPD2    N1 1947   2.191   3.389   9.664  0.2528  0.1999 -0.2574
  127MPD2    H7 1948   2.172   3.331   9.583  0.7341 -1.7347  1.0343
  128TCq2    C1 1949   2.153   3.352   9.787 -0.6783 -0.0649  0.3348
  128TCq2    O2 1950   2.212   3.382   9.888 -0.2795  0.2340 -0.2955
  128TCq2    C2 1951   2.023   3.278   9.789  0.5229 -1.5358 -0.0314
  128TCq2    C3 1952   1.983   3.225   9.907 -0.4725 -0.1848 -0.0724
  128TCq2    C4 1953   1.898   3.121   9.922 -0.4065 -0.4176 -0.0096
  128TCq2    C5 1954   1.843   3.063   9.810  0.4961  0.5645  0.8807
  128TCq2    C6 1955   1.881   3.125   9.691  0.3095  0.2536  0.6858
  128TCq2    C7 1956   1.975   3.224   9.675  0.5298  0.5540 -0.2920
  128TCq2    C8 1957   1.850   3.043   9.573 -0.1759  0.2843 -0.2905
  128TCq2    O4 1958   1.921   3.032   9.474  0.4068  0.1135 -0.1670
  128TCq2    C9 1959   1.840   3.097  10.048  0.5636  0.0607  0.3439
  128TCq2    O5 1960   1.738   3.024  10.052  0.4050 -0.2878  0.3694
  128TCq2    O6 1961   1.878   3.161  10.147 -0.2087  0.4611  0.1807
  128TCq2    H2 1962   2.030   3.275   9.991 -1.4373  2.5387 -1.1583
  128TCq2    H3 1963   1.778   2.977   9.816  2.8664 -1.1498  2.0018
  128TCq2    H4 1964   2.003   3.252   9.574  1.2543 -1.9383 -0.7637
  129MPD2     C 1965   0.046   4.227   2.205 -0.4887 -0.0201  0.4589
  129MPD2    C1 1966   0.067   4.195   2.069  0.0398 -0.1947  0.1596
  129MPD2    C2 1967   0.037   4.290   1.973 -0.2934  0.1329 -0.0734
  129MPD2    C3 1968   4.708   4.410   2.002  0.8232 -0.6036 -0.1689
  129MPD2    C4 1969   4.681   4.438   2.136 -0.1846 -0.8741 -0.6034
  129MPD2    C5 1970   4.705   4.347   2.231  0.2667  0.1943  0.4556
  129MPD2     H 1971   0.045   4.271   1.867 -0.6238  1.3022 -0.3120
  129MPD2    H1 1972   4.645   4.535   2.169  1.8889 -1.1366  2.3941
  129MPD2    H2 1973   0.071   4.155   2.282 -1.9413  0.9789  1.8785
  129MPD2    H3 1974   4.698   4.380   2.334  0.1894 -1.3135  0.9374
  129MPD2     N 1975   4.684   4.503   1.897  0.6406  0.0649  0.2366
  129MPD2    H5 1976   4.705   4.458   1.808  1.4445  0.8745  0.0121
  129MPD2    N1 1977   0.132   4.074   2.031 -0.4858 -0.8641 -0.0689
  129MPD2    H7 1978   0.167   4.064   1.936  0.2442  1.3262 -0.0222
  130TCq2    C1 1979   0.119   3.958   2.096 -0.0938  0.9715  0.5605
  130TCq2    O2 1980   0.060   3.923   2.197  0.0704  0.0754 -0.4931
  130TCq2    C2 1981   0.189   3.845   2.034 -0.2864  0.1372 -0.2795
  130TCq2    C3 1982   0.305   3.870   1.957 -0.9326 -0.0025 -0.3201
  130TCq2    C4 1983   0.367   3.758   1.906 -0.9040 -0.7178  0.1993
  130TCq2    C5 1984   0.308   3.633   1.913  0.4314 -0.1112 -0.6399
  130TCq2    C6 1985   0.184   3.620   1.981  0.4498 -0.2231  0.5018
  130TCq2    C7 1986   0.135   3.717   2.056 -0.1850 -0.5500  0.1066
  130TCq2    C8 1987   0.119   3.493   2.003 -0.9143 -0.8023  0.2801
  130TCq2    O4 1988   0.007   3.493   2.052  0.5093  0.4839  0.3125
  130TCq2    C9 1989   0.497   3.765   1.837  0.4081 -0.9395  1.0528
  130TCq2    O5 1990   0.546   3.880   1.824 -0.3911 -0.8993 -0.6890
  130TCq2    O6 1991   0.556   3.663   1.789 -0.1021  0.0621 -0.5214
  130TCq2    H2 1992   0.356   3.964   1.939 -2.7853  0.9084 -0.8066
  130TCq2    H3 1993   0.357   3.555   1.855  0.9774  1.3404 -2.1258
  130TCq2    H4 1994   0.032   3.726   2.088  0.1236 -0.1255  0.9951
  131MPD2     C 1995   3.874   4.051   9.205  0.0353  0.1389  0.3375
  131MPD2    C1 1996   4.002   4.075   9.231 -0.2972  0.2951 -0.0848
  131MPD2    C2 1997   4.100   3.990   9.172  0.6920 -0.9243 -0.8335
  131MPD2    C3 1998   4.073   3.886   9.083 -0.0886  0.4380 -0.1360
  131MPD2    C4 1999   3.942   3.883   9.051  1.2534 -0.0639  0.5804
  131MPD2    C5 2000   3.842   3.960   9.110  0.2276 -0.2053 -0.0062
  131MPD2     H 2001   4.202   4.006   9.205  0.4114 -1.3850  0.2356
  131MPD2    H1 2002   3.904   3.790   9.010 -0.7969  0.9476  0.2105
  131MPD2    H2 2003   3.794   4.112   9.245  0.3051 -1.3489  3.1116
  131MPD2    H3 2004   3.737   3.940   9.087 -0.3060  1.9789  0.5605
  131MPD2     N 2005   4.175   3.798   9.032  0.3507  0.9000  0.4512
  131MPD2    H5 2006   4.262   3.797   9.084  0.5136  2.5309  0.1912
  131MPD2    N1 2007   4.020   4.179   9.320 -0.3466  0.1356 -0.0215
  131MPD2    H7 2008   3.944   4.238   9.353  1.9078  3.4225 -0.7085
  132TCq2    C1 2009   3.946   4.611   9.562  0.2604 -0.1195 -0.4709
  132TCq2    O2 2010   3.849   4.584   9.495  0.4040 -0.1558 -0.7196
  132TCq2    C2 2011   4.052   4.510   9.561  0.0433  0.1005  0.0696
  132TCq2    C3 2012   4.161   4.514   9.657 -0.4137  0.0138  0.1828
  132TCq2    C4 2013   4.253   4.412   9.650  0.6183 -0.9116  0.5715
  132TCq2    C5 2014   4.245   4.301   9.561 -0.1482 -0.6005  0.2203
  132TCq2    C6 2015   4.133   4.301   9.478 -0.3776 -0.1457 -0.1697
  132TCq2    C7 2016   4.034   4.403   9.474  0.5468 -0.7167  0.3124
  132TCq2    C8 2017   4.142   4.198   9.375  0.3865 -0.1459  0.9360
  132TCq2    O4 2018   4.234   4.118   9.391  0.2018 -0.1092  0.1171
  132TCq2    C9 2019   4.357   4.424   9.749 -0.5607 -0.1542 -0.2367
  132TCq2    O5 2020   4.379   4.535   9.800  0.0211  0.2722  0.1233
  132TCq2    O6 2021   4.442   4.329   9.761  0.3523 -0.3214  0.0160
  132TCq2    H2 2022   4.159   4.580   9.743  1.9638  1.8832 -1.2084
  132TCq2    H3 2023   4.322   4.225   9.564 -1.6394 -2.1566 -0.6574
  132TCq2    H4 2024   3.959   4.416   9.396  2.8422  2.4245 -1.3848
  133MPD2     C 2025   4.427   3.372   9.185 -0.9461 -0.2813  0.3107
  133MPD2    C1 2026   4.302   3.372   9.129 -0.1592 -0.7689  0.3154
  133MPD2    C2 2027   4.198   3.449   9.183  0.9152 -0.3951  0.2867
  133MPD2    C3 2028   4.217   3.535   9.289 -0.4662 -0.5393 -0.0904
  133MPD2    C4 2029   4.344   3.528   9.349  0.3833 -0.2524  0.5669
  133MPD2    C5 2030   4.442   3.456   9.295  0.0569 -0.2201  0.8759
  133MPD2     H 2031   4.099   3.448   9.138  1.2408 -0.4436 -0.4400
  133MPD2    H1 2032   4.369   3.591   9.434 -0.4095 -0.3785  0.8937
  133MPD2    H2 2033   4.510   3.312   9.151  0.0283  1.1142  0.2144
  133MPD2    H3 2034   4.534   3.454   9.353  1.2429  3.8362 -0.8989
  133MPD2     N 2035   4.120   3.620   9.345  0.0074 -0.6286 -0.0191
  133MPD2    H5 2036   4.161   3.683   9.414 -0.2749 -1.6037  1.0431
  133MPD2    N1 2037   4.283   3.295   9.014  0.5543  0.1065  0.5700
  133MPD2    H7 2038   4.360   3.239   8.980  0.7261  0.2169  0.7744
  134TCq2    C1 2039   4.173   3.292   8.928 -0.3221  0.5437  0.8615
  134TCq2    O2 2040   4.072   3.356   8.927 -0.0644 -0.0627 -0.5976
  134TCq2    C2 2041   4.196   3.216   8.805  0.0884  0.4781  0.0481
  134TCq2    C3 2042   4.321   3.186   8.768  0.3666 -0.4119  0.0811
  134TCq2    C4 2043   4.340   3.120   8.651 -0.3572  0.4639 -0.0740
  134TCq2    C5 2044   4.232   3.100   8.568  0.0980 -0.3313  0.4094
  134TCq2    C6 2045   4.106   3.137   8.607  0.5370 -0.1693 -0.6946
  134TCq2    C7 2046   4.084   3.189   8.727  0.6292 -0.3438  0.0373
  134TCq2    C8 2047   3.993   3.110   8.521  0.0881  0.3136  0.6430
  134TCq2    O4 2048   3.883   3.154   8.555  0.1987 -0.1044  0.0773
  134TCq2    C9 2049   4.478   3.106   8.597  0.2328  0.5829 -0.2120
  134TCq2    O5 2050   4.496   3.059   8.478  0.1657 -0.3060  0.0792
  134TCq2    O6 2051   4.570   3.116   8.685  0.2300  0.1647  0.5363
  134TCq2    H2 2052   4.408   3.226   8.820  2.0837 -0.4887 -2.7139
  134TCq2    H3 2053   4.253   3.090   8.462 -0.3245  1.7280  0.1292
  134TCq2    H4 2054   3.987   3.230   8.752  1.0666 -0.2734  1.6166
  135MPD2     C 2055   1.221   4.670   9.982 -0.3040 -0.2906 -1.0244
  135MPD2    C1 2056   1.104   4.655   9.915  0.6858  0.1752 -0.1320
  135MPD2    C2 2057   1.089   4.597   9.789  0.3903  0.0230 -0.8478
  135MPD2    C3 2058   1.208   4.569   9.725 -0.0273  0.1050 -0.2851
  135MPD2    C4 2059   1.325   4.589   9.789  0.3561 -0.5492 -0.2946
  135MPD2    C5 2060   1.332   4.635   9.914 -0.4361  0.7782 -0.2736
  135MPD2     H 2061   0.990   4.576   9.751  0.1497  2.3598 -1.4716
  135MPD2    H1 2062   1.414   4.579   9.728 -0.8088  0.6666 -2.1996
  135MPD2    H2 2063   1.225   4.711  10.082 -0.7220  0.3848 -1.2842
  135MPD2    H3 2064   1.431   4.648   9.958 -0.3996 -0.6769  0.0722
  135MPD2     N 2065   1.218   4.526   9.592 -0.2801 -0.1582  0.4817
  135MPD2    H5 2066   1.309   4.508   9.550  0.3666  1.9008  1.0302
  135MPD2    N1 2067   0.982   4.675   9.979 -0.2654 -0.1407 -0.5470
  135MPD2    H7 2068   0.897   4.634   9.940 -0.2157 -0.2793 -0.5086
  136TCq2    C1 2069   0.964   0.053  10.082  0.2203 -0.0943 -0.6378
  136TCq2    O2 2070   1.034   0.150  10.113  0.1289  0.5250 -0.4658
  136TCq2    C2 2071   0.831   0.060  10.139  0.2172 -0.3828  0.3380
  136TCq2    C3 2072   0.745   4.674  10.118  0.2787 -0.5085  0.4078
  136TCq2    C4 2073   0.612   4.702  10.133 -0.1219  0.4479 -0.4141
  136TCq2    C5 2074   0.566   0.097  10.182 -0.4759  0.3637  0.2158
  136TCq2    C6 2075   0.655   0.198  10.208 -0.3942 -0.9803 -0.1959
  136TCq2    C7 2076   0.788   0.183  10.186  0.6634  0.3765 -0.2901
  136TCq2    C8 2077   0.607   0.335  10.223 -0.1159 -0.7021 -0.1152
  136TCq2    O4 2078   0.664   0.429  10.169  0.2424 -0.0960 -0.3617
  136TCq2    C9 2079   0.519   4.607  10.079  0.2979  0.3607  0.3326
  136TCq2    O5 2080   0.560   4.511  10.009  0.1573  0.4444 -0.7310
  136TCq2    O6 2081   0.402   4.620  10.113  0.2044 -0.1923  0.3648
  136TCq2    H2 2082   0.776   4.578  10.078  0.0160 -0.0781 -0.8191
  136TCq2    H3 2083   0.460   0.115  10.189 -0.6230 -0.2505 -0.3964
  136TCq2    H4 2084   0.855   0.266  10.208  1.1258  0.5141 -2.2198
  137MPD2     C 2085   0.038   0.340  10.134 -0.9796 -0.1362 -0.4493
  137MPD2    C1 2086   0.129   0.261  10.064 -0.2479 -0.6542  0.1383
  137MPD2    C2 2087   0.198   0.156  10.126 -0.1170 -0.5325 -0.0635
  137MPD2    C3 2088   0.166   0.120  10.256 -0.0162  0.0334  0.4582
  137MPD2    C4 2089   0.072   0.193  10.320 -0.3561  0.4602 -0.0058
  137MPD2    C5 2090   0.006   0.295  10.262  0.5264 -0.3663  0.2931
  137MPD2     H 2091   0.276   0.111  10.065 -0.2320 -0.3158 -0.3732
  137MPD2    H1 2092   0.032   0.164  10.417 -0.4674  0.3051 -0.0968
  137MPD2    H2 2093   4.709   0.426  10.092  0.0106  1.4732  1.6388
  137MPD2    H3 2094   4.650   0.339  10.322  2.7050  0.0875  2.8254
  137MPD2     N 2095   0.232   0.003  10.316  0.1394  0.4217 -0.0522
  137MPD2    H5 2096   0.294   4.671  10.256  0.8951 -0.4387  1.5041
  137MPD2    N1 2097   0.151   0.312   9.933 -0.6860  0.0168  0.1168
  137MPD2    H7 2098   0.083   0.383   9.905 -1.1838 -1.1659 -1.6559
  138TCq2    C1 2099   0.249   0.263   9.848 -0.0822  0.1137 -0.0307
  138TCq2    O2 2100   0.327   0.173   9.873 -0.5034  0.6219  0.3605
  138TCq2    C2 2101   0.265   0.330   9.723  0.1500  0.0095  0.8631
  138TCq2    C3 2102   0.334   0.256   9.625  0.4328  0.0232 -0.0368
  138TCq2    C4 2103   0.313   0.295   9.496  0.3257 -0.3621 -0.2984
  138TCq2    C5 2104   0.221   0.389   9.461  0.3572  0.6999  0.3354
  138TCq2    C6 2105   0.152   0.445   9.556 -0.4771  0.4108 -0.4742
  138TCq2    C7 2106   0.168   0.424   9.691 -0.4141 -0.8246 -0.2765
  138TCq2    C8 2107   0.063   0.552   9.503 -0.0172  0.2064  0.1616
  138TCq2    O4 2108   0.097   0.607   9.398  0.5346 -0.4539 -0.1530
  138TCq2    C9 2109   0.388   0.235   9.391  0.3486 -0.3468  0.4140
  138TCq2    O5 2110   0.356   0.262   9.272 -0.2123  0.3298  0.6073
  138TCq2    O6 2111   0.491   0.161   9.420 -0.3588 -0.3128 -0.1748
  138TCq2    H2 2112   0.390   0.164   9.640 -0.3041 -0.2236  1.1943
  138TCq2    H3 2113   0.208   0.401   9.354  0.5616  0.9642  0.3395
  138TCq2    H4 2114   0.117   0.488   9.761 -0.1013 -2.1500  1.1640
  139TMC2    C1 2115   0.137   3.178  13.068  0.0829  0.0206 -0.0129
  139TMC2    C2 2116   0.132   3.266  12.961 -0.9736 -0.7188  0.4006
  139TMC2    C3 2117   0.024   3.348  12.951 -0.6493 -0.4444  0.3732
  139TMC2    C4 2118   0.029   3.163  13.145  0.1568  0.0912 -0.8312
  139TMC2    C5 2119   4.644   3.245  13.129  0.6043  0.0822 -0.0157
  139TMC2    C6 2120   4.639   3.333  13.027  0.5404 -0.0100  0.7978
  139TMC2     C 2121   0.269   3.140  13.122 -0.3612  0.3277 -0.1544
  139TMC2     O 2122   0.359   3.152  13.039  0.0997 -0.1189  0.1141
  139TMC2     H 2123   0.219   3.278  12.898 -0.4009 -1.7023  1.0017
  139TMC2    H1 2124   0.024   3.092  13.226  0.6179  0.1852 -0.7165
  139TMC2    H2 2125   4.558   3.403  13.007  0.2246 -0.4961  0.3785
  139TMC2    C7 2126   4.533   3.251  13.222  1.0322  0.0051 -0.3655
  139TMC2    C8 2127   0.014   3.426  12.832  0.3610 -0.0212  0.0603
  139TMC2    O1 2128   4.460   3.348  13.218  0.0398  0.5194  0.0650
  139TMC2    O2 2129   0.108   3.435  12.755 -0.1980  0.4923  0.1564
  139TMC2    O5 2130   4.619   3.398  12.772  0.1747 -0.2879  0.5136
  139TMC2    H5 2131   4.561   3.350  12.835 -0.8633 -1.5977 -1.4236
  140MPD2     C 2132   0.360   3.029  13.456 -0.4760 -0.0732 -0.5266
  140MPD2    C1 2133   0.383   3.048  13.325  0.0679 -0.8566 -0.6677
  140MPD2    C2 2134   0.512   3.050  13.276 -0.0958  0.0341 -0.9708
  140MPD2    C3 2135   0.615   3.022  13.363 -0.3067  0.1009  0.8499
  140MPD2    C4 2136   0.585   2.999  13.495  0.6190 -0.8996  0.1004
  140MPD2    C5 2137   0.459   3.003  13.537  0.2056 -0.9212  0.2053
  140MPD2     H 2138   0.526   3.071  13.171  0.3223 -1.8764 -1.2874
  140MPD2    H1 2139   0.663   2.973  13.565 -2.1660 -3.9452  2.1397
  140MPD2    H2 2140   0.257   3.015  13.487 -0.0946 -1.1898  0.2622
  140MPD2    H3 2141   0.432   2.982  13.640 -0.7700  1.9859  0.5414
  140MPD2     N 2142   0.746   3.039  13.311 -0.5065 -0.2518 -0.1093
  140MPD2    H5 2143   0.751   3.066  13.214 -0.4735  1.5357  0.3881
  140MPD2    N1 2144   0.270   3.085  13.249 -0.3711  0.0700 -0.1649
  140MPD2    H7 2145   0.182   3.084  13.301 -0.2814  2.4377  0.0468
  141TCq2    C1 2146   1.955   3.615  14.114 -0.3367  0.2159 -0.0799
  141TCq2    O2 2147   1.938   3.736  14.106 -0.1132 -0.0528 -0.0197
  141TCq2    C2 2148   1.974   3.550  14.245  0.2313  0.0680 -0.1738
  141TCq2    C3 2149   1.933   3.418  14.262  0.4250 -0.4409 -0.5743
  141TCq2    C4 2150   1.916   3.370  14.389 -0.9778 -0.0808 -0.0794
  141TCq2    C5 2151   1.954   3.445  14.497 -0.2104  1.0067  0.2460
  141TCq2    C6 2152   1.989   3.575  14.475  0.0820 -0.5913  0.0124
  141TCq2    C7 2153   2.014   3.627  14.351 -0.3324  0.6153 -0.3146
  141TCq2    C8 2154   1.978   3.661  14.595  0.1529 -0.0730  0.2028
  141TCq2    O4 2155   1.898   3.634  14.685  0.0218  0.0083 -0.0755
  141TCq2    C9 2156   1.854   3.244  14.412 -0.1137  0.5761 -0.1419
  141TCq2    O5 2157   1.793   3.198  14.316 -0.2051 -0.3617 -0.1485
  141TCq2    O6 2158   1.821   3.216  14.531 -0.4863 -0.2231  0.2220
  141TCq2    H2 2159   1.892   3.361  14.179 -0.9415  1.0138 -0.9086
  141TCq2    H3 2160   1.945   3.404  14.597 -0.2928  0.7740  0.1436
  141TCq2    H4 2161   2.032   3.734  14.346  2.5058  0.1506  0.0051
  142MPD2     C 2162   4.714   2.183  10.074  1.1508 -0.0063 -0.3272
  142MPD2    C1 2163   4.625   2.174   9.968 -0.8079  0.3147  0.5582
  142MPD2    C2 2164   4.662   2.208   9.842  0.3594 -0.0210  0.0406
  142MPD2    C3 2165   0.069   2.243   9.816 -0.1821 -0.6890  0.7254
  142MPD2    C4 2166   0.161   2.259   9.918 -0.0048 -0.2818 -0.0240
  142MPD2    C5 2167   0.114   2.235  10.047 -0.5023 -0.3492 -0.1272
  142MPD2     H 2168   4.587   2.184   9.768  0.2719  1.6210 -0.3924
  142MPD2    H1 2169   0.265   2.289   9.905  0.1974 -1.2975 -0.7177
  142MPD2    H2 2170   4.688   2.177  10.179  1.4766  0.0416 -0.2419
  142MPD2    H3 2171   0.175   2.265  10.131 -1.4148 -1.1702  0.8211
  142MPD2     N 2172   0.114   2.271   9.683  0.0367 -0.2625  0.1197
  142MPD2    H5 2173   0.204   2.314   9.668  1.2743 -1.3928  4.2510
  142MPD2    N1 2174   4.496   2.129   9.987  0.4960  0.3748 -0.2395
  142MPD2    H7 2175   4.435   2.134   9.906 -0.4908  1.8098  0.6063
  143TCq2    C1 2176   0.045   2.253   9.572  0.2262  0.0079  0.3663
  143TCq2    O2 2177   4.680   2.165   9.549 -0.0171  0.1097  0.0794
  143TCq2    C2 2178   0.079   2.343   9.467  0.3001  0.5251 -0.1865
  143TCq2    C3 2179   0.046   2.301   9.341  0.0816 -0.4206 -0.2710
  143TCq2    C4 2180   0.095   2.384   9.238 -0.5616  0.5290  0.4651
  143TCq2    C5 2181   0.158   2.503   9.262  0.5362  0.2526  0.1082
  143TCq2    C6 2182   0.182   2.541   9.388  0.2399 -0.1376 -0.6665
  143TCq2    C7 2183   0.144   2.456   9.494 -0.5290  0.3737  0.5435
  143TCq2    C8 2184   0.279   2.641   9.410 -0.0707  0.2129 -1.0376
  143TCq2    O4 2185   0.261   2.746   9.352 -0.4631  0.0916 -0.2179
  143TCq2    C9 2186   0.081   2.337   9.104  0.0444  0.3008 -0.2142
  143TCq2    O5 2187   0.010   2.239   9.086  0.2493  0.2166 -0.0282
  143TCq2    O6 2188   0.147   2.406   9.018 -0.2266 -0.0836  0.2776
  143TCq2    H2 2189   0.006   2.206   9.307  1.4558 -1.3872  0.8398
  143TCq2    H3 2190   0.198   2.567   9.184  1.0070  0.6037  0.6332
  143TCq2    H4 2191   0.164   2.493   9.594  0.4670 -1.1310  0.8949
  144MPD2     C 2192   1.874   2.417   0.533  0.8618  0.2685 -0.7067
  144MPD2    C1 2193   1.803   2.298   0.521 -0.0230  0.5189 -0.5110
  144MPD2    C2 2194   1.874   2.178   0.541 -0.1969 -0.1155 -0.3285
  144MPD2    C3 2195   2.005   2.184   0.590 -0.0577 -0.1821  0.1706
  144MPD2    C4 2196   2.057   2.306   0.620  0.2700  1.0001  0.1978
  144MPD2    C5 2197   1.995   2.423   0.596  0.0373  0.4542  0.4741
  144MPD2     H 2198   1.829   2.081   0.526 -2.6660  0.6348  2.1746
  144MPD2    H1 2199   2.155   2.313   0.666  0.7539  4.7403 -1.4038
  144MPD2    H2 2200   1.828   2.515   0.530  2.5960  1.0644 -1.5167
  144MPD2    H3 2201   2.033   2.520   0.627 -0.3010  0.7828 -0.1486
  144MPD2     N 2202   2.085   2.067   0.615  0.3987 -0.1722  0.2435
  144MPD2    H5 2203   2.179   2.095   0.641 -0.4150  0.7240  2.1745
  144MPD2    N1 2204   1.666   2.298   0.474  0.4194 -0.4777 -0.3447
  144MPD2    H7 2205   1.626   2.207   0.457 -0.7516 -0.3337  1.6715
  145TCq2    C1 2206   2.067   1.936   0.585 -0.7825  0.4923  0.0874
  145TCq2    O2 2207   1.965   1.883   0.540 -0.1634  0.3267  0.1251
  145TCq2    C2 2208   2.190   1.861   0.604 -0.6146  0.1595  0.1941
  145TCq2    C3 2209   2.238   1.780   0.498  0.3682 -0.1380 -0.0044
  145TCq2    C4 2210   2.365   1.731   0.494 -0.3359  0.2342 -0.1849
  145TCq2    C5 2211   2.455   1.774   0.581 -0.4859 -0.2772  0.1803
  145TCq2    C6 2212   2.415   1.861   0.687  0.1207 -0.4790 -0.4200
  145TCq2    C7 2213   2.282   1.896   0.702 -1.0010 -0.1695 -0.2553
  145TCq2    C8 2214   2.504   1.876   0.795  0.1708  0.2047  1.4776
  145TCq2    O4 2215   2.626   1.857   0.782  0.0700 -0.1650  0.2735
  145TCq2    C9 2216   2.399   1.638   0.393 -0.1312 -0.4711 -0.3942
  145TCq2    O5 2217   2.357   1.654   0.276 -0.4064  0.3038 -0.8032
  145TCq2    O6 2218   2.494   1.556   0.427 -0.5855  0.1189 -0.0059
  145TCq2    H2 2219   2.170   1.757   0.417  0.0636 -0.5603  0.3671
  145TCq2    H3 2220   2.556   1.735   0.574 -1.0448 -1.4408 -1.3968
  145TCq2    H4 2221   2.255   1.978   0.769  1.3086  0.2652  0.1461
  146TMC2    C1 2222   4.608   0.046  11.755 -0.5041 -0.5677  0.6217
  146TMC2    C2 2223   4.652   4.709  11.642  0.1138 -0.3723 -0.2968
  146TMC2    C3 2224   0.072   4.701  11.630 -0.4138  0.1992  0.2321
  146TMC2    C4 2225   4.692   0.089  11.859 -0.1343  0.5386 -0.0302
  146TMC2    C5 2226   0.103   0.080  11.835 -0.1910  0.2937  0.2502
  146TMC2    C6 2227   0.158   0.018  11.726  0.4358 -0.3216  0.3692
  146TMC2     C 2228   4.466   0.062  11.764  0.2446 -0.1846 -0.1905
  146TMC2     O 2229   4.402   0.049  11.661  0.0884 -0.1222  0.2958
  146TMC2     H 2230   4.584   4.675  11.565  0.5375  0.3019 -0.9678
  146TMC2    H1 2231   4.664   0.169  11.926  0.2766 -0.5260  1.3929
  146TMC2    H2 2232   0.265   0.020  11.707 -0.2751  1.8546 -3.5505
  146TMC2    C7 2233   0.197   0.139  11.921 -0.0310  0.1543 -0.3918
  146TMC2    C8 2234   0.118   4.707  11.491  0.1163 -0.6177  0.3746
  146TMC2    O1 2235   0.301   0.175  11.874  0.0725  0.2698  0.3117
  146TMC2    O2 2236   0.041   0.010  11.403 -0.3056  0.6239 -0.0628
  146TMC2    O5 2237   0.210   4.605  11.484 -0.2890  0.0920  0.2264
  146TMC2    H5 2238   0.258   4.584  11.567 -1.8351 -1.7893  0.6314
  147MPD2     C 2239   0.384   0.240  12.390 -0.2721  0.5098 -0.5990
  147MPD2    C1 2240   0.262   0.178  12.408 -0.3601  0.0610 -0.0102
  147MPD2    C2 2241   0.189   0.139  12.299  0.3626 -0.8995 -0.0344
  147MPD2    C3 2242   0.237   0.161  12.169  0.2572  0.1518  0.3156
  147MPD2    C4 2243   0.362   0.230  12.156 -0.2739  0.2873 -0.5959
  147MPD2    C5 2244   0.432   0.274  12.265  0.1525 -1.2499 -0.1941
  147MPD2     H 2245   0.083   0.118  12.301  0.3398 -0.7243  0.7164
  147MPD2    H1 2246   0.409   0.255  12.061 -0.5907  2.3354 -0.2052
  147MPD2    H2 2247   0.437   0.272  12.479  1.3134  1.1751 -1.7804
  147MPD2    H3 2248   0.525   0.328  12.253 -0.8647  0.0720 -2.1712
  147MPD2     N 2249   0.161   0.116  12.058 -0.3223  0.0765  0.2851
  147MPD2    H5 2250   0.074   0.067  12.074  0.8884 -2.5492 -1.0338
  147MPD2    N1 2251   0.231   0.144  12.540 -0.3991 -1.2112  0.4181
  147MPD2    H7 2252   0.298   0.163  12.614  0.6440 -0.1592 -0.7882
  148MPD2     C 2253   3.324   3.961  10.227  1.1392 -0.3766 -0.7372
  148MPD2    C1 2254   3.333   3.841  10.295 -0.5259  0.1539 -0.0116
  148MPD2    C2 2255   3.387   3.730  10.234  0.3747  1.0037 -0.3338
  148MPD2    C3 2256   3.400   3.722  10.097 -0.8473  0.1678  0.4711
  148MPD2    C4 2257   3.375   3.841  10.023 -0.0281 -0.0360  0.5586
  148MPD2    C5 2258   3.348   3.960  10.091  0.1457  0.0284 -0.0705
  148MPD2     H 2259   3.403   3.643  10.295  0.4783 -0.3838 -2.3309
  148MPD2    H1 2260   3.395   3.844   9.917 -1.0940 -0.6892  0.3416
  148MPD2    H2 2261   3.308   4.054  10.280 -1.9527 -0.8727 -0.8069
  148MPD2    H3 2262   3.348   4.058  10.046 -5.3875  0.1579  0.2745
  148MPD2     N 2263   3.409   3.608  10.026 -0.0805 -0.3522 -0.1823
  148MPD2    H5 2264   3.390   3.618   9.927 -0.1977 -3.1573 -0.4502
  148MPD2    N1 2265   3.297   3.825  10.432  0.3309 -0.1840 -0.1879
  148MPD2    H7 2266   3.317   3.737  10.479  2.1551 -0.2478 -1.1000
  149TCq2    C1 2267   3.235   3.914  10.510 -0.2907  0.1887  0.0753
  149TCq2    O2 2268   3.177   4.016  10.479  0.4120  0.1850  0.9606
  149TCq2    C2 2269   3.221   3.865  10.649  0.3897  0.0724  1.0567
  149TCq2    C3 2270   3.205   3.950  10.748  0.2421 -0.2037  0.2215
  149TCq2    C4 2271   3.234   3.904  10.871 -0.7685  0.0260  0.2592
  149TCq2    C5 2272   3.288   3.777  10.895 -0.2309  0.4763  0.5420
  149TCq2    C6 2273   3.293   3.695  10.788  0.0071 -0.7586 -0.5572
  149TCq2    C7 2274   3.256   3.736  10.665 -0.1803 -0.1607  0.6132
  149TCq2    C8 2275   3.333   3.556  10.788  0.0751 -1.0694  0.1957
  149TCq2    O4 2276   3.374   3.504  10.684 -0.4861  0.8546  0.3486
  149TCq2    C9 2277   3.257   4.006  10.973 -0.1676 -0.3901 -0.0762
  149TCq2    O5 2278   3.251   4.129  10.946 -0.1643 -0.2351 -0.0166
  149TCq2    O6 2279   3.324   3.965  11.071  0.5213  0.5011  0.2722
  149TCq2    H2 2280   3.176   4.053  10.732 -0.9437 -0.5286  0.2150
  149TCq2    H3 2281   3.312   3.749  10.997 -0.5423 -1.5810  0.0624
  149TCq2    H4 2282   3.248   3.660  10.588 -3.1441  1.6198 -0.8249
  150MPD2     C 2283   0.164   3.186  11.772 -0.0000  0.2527  0.7673
  150MPD2    C1 2284   0.217   3.239  11.656  0.2180 -0.1332  0.2359
  150MPD2    C2 2285   0.326   3.319  11.657  0.0332 -0.4747  0.1775
  150MPD2    C3 2286   0.399   3.341  11.770  1.0299  0.1715  0.1062
  150MPD2    C4 2287   0.344   3.285  11.889 -0.1586 -0.3418 -0.6294
  150MPD2    C5 2288   0.230   3.209  11.889  0.4456  0.3831 -0.1261
  150MPD2     H 2289   0.365   3.352  11.561 -0.9805  0.0614 -0.0479
  150MPD2    H1 2290   0.385   3.316  11.985  0.5372 -1.7846 -0.4543
  150MPD2    H2 2291   0.077   3.123  11.777 -0.4103  0.8108  0.6486
  150MPD2    H3 2292   0.197   3.158  11.978 -2.2725 -1.0494 -1.9636
  150MPD2     N 2293   0.516   3.426  11.760 -0.3917  0.2192  0.3885
  150MPD2    H5 2294   0.524   3.483  11.677 -0.4308 -0.9244 -0.3975
  150MPD2    N1 2295   0.152   3.205  11.534 -0.0039  0.0494  0.3222
  150MPD2    H7 2296   0.078   3.137  11.547 -1.1010  1.3841  0.9919
  151TCq2    C1 2297   0.602   3.445  11.864  1.1056  0.8555 -0.1891
  151TCq2    O2 2298   0.607   3.382  11.968  0.0945  0.0503 -0.2444
  151TCq2    C2 2299   0.689   3.561  11.845 -0.0253 -0.6671 -0.4861
  151TCq2    C3 2300   0.684   3.632  11.728  0.6047 -0.1324  0.4545
  151TCq2    C4 2301   0.781   3.725  11.710 -0.5243 -0.4648 -0.0241
  151TCq2    C5 2302   0.884   3.743  11.792 -0.4221 -0.2841  0.2811
  151TCq2    C6 2303   0.890   3.663  11.906  0.1001  0.0110 -0.0042
  151TCq2    C7 2304   0.787   3.589  11.939 -0.0208  0.0837  0.0755
  151TCq2    C8 2305   0.990   3.703  12.003 -0.0741 -1.1791 -0.2164
  151TCq2    O4 2306   1.029   3.818  11.997  0.0007  0.0001 -0.2501
  151TCq2    C9 2307   0.759   3.817  11.599  0.2839  0.0008 -0.3175
  151TCq2    O5 2308   0.826   3.923  11.596 -1.2090  0.1943 -0.0277
  151TCq2    O6 2309   0.699   3.767  11.501  0.5824  0.2532  0.2207
  151TCq2    H2 2310   0.607   3.621  11.652  0.4715  1.0024  0.4265
  151TCq2    H3 2311   0.969   3.804  11.765  0.0317 -0.0936  2.1130
  151TCq2    H4 2312   0.777   3.545  12.038  1.3748  1.1808  0.7066
  152MPD2     C 2313   0.337   2.550  12.582  0.1955 -0.3401 -0.4857
  152MPD2    C1 2314   0.359   2.667  12.518  0.1315  0.2636  0.1505
  152MPD2    C2 2315   0.249   2.740  12.473 -0.9183 -0.4616  0.1383
  152MPD2    C3 2316   0.120   2.682  12.476 -0.0213 -0.3635  0.5244
  152MPD2    C4 2317   0.103   2.557  12.534 -0.1819  0.5052 -0.4840
  152MPD2    C5 2318   0.210   2.498  12.598 -0.1049  0.8477 -0.2543
  152MPD2     H 2319   0.244   2.836  12.422 -3.2564 -0.6935 -0.0597
  152MPD2    H1 2320   0.006   2.509  12.529  0.8789 -1.6512 -0.1830
  152MPD2    H2 2321   0.417   2.491  12.626  0.6348 -0.2514 -1.1685
  152MPD2    H3 2322   0.202   2.407  12.656  2.3994  0.2206 -0.8805
  152MPD2     N 2323   0.022   2.763  12.426  0.4135  0.3764 -0.1227
  152MPD2    H5 2324   0.046   2.851  12.381  0.7047  1.6117  2.4068
  152MPD2    N1 2325   0.487   2.731  12.518 -0.1407  0.3158  0.6056
  152MPD2    H7 2326   0.563   2.676  12.557 -0.6958 -0.1908  0.9628
  153TCq2    C1 2327   0.513   2.857  12.477  0.3403  1.0083  0.4092
  153TCq2    O2 2328   0.434   2.947  12.445 -0.4832  0.1373  0.2483
  153TCq2    C2 2329   0.655   2.887  12.486  0.7329  0.0795 -0.2812
  153TCq2    C3 2330   0.746   2.789  12.454 -0.2694  0.7475 -0.8281
  153TCq2    C4 2331   0.875   2.819  12.485  0.0682 -0.1360  0.0039
  153TCq2    C5 2332   0.908   2.945  12.523 -0.1523  1.1877  0.1332
  153TCq2    C6 2333   0.819   3.041  12.534 -0.0960 -0.9885 -0.7704
  153TCq2    C7 2334   0.692   3.012  12.519 -0.9292 -0.0399 -0.2698
  153TCq2    C8 2335   0.854   3.183  12.532  0.3516  0.1553  0.6351
  153TCq2    O4 2336   0.769   3.248  12.477 -0.2066  0.3122  0.0362
  153TCq2    C9 2337   0.982   2.717  12.471 -0.7331  0.5489 -0.1012
  153TCq2    O5 2338   1.100   2.754  12.451  0.0048 -0.2727  0.1812
  153TCq2    O6 2339   0.944   2.597  12.486 -0.1589 -0.0820  0.2821
  153TCq2    H2 2340   0.730   2.692  12.410 -0.2002 -0.4934  1.8763
  153TCq2    H3 2341   1.012   2.962  12.552 -0.5065  0.1631  2.0258
  153TCq2    H4 2342   0.620   3.093  12.511 -2.2385 -1.0556  1.4448
  154MPD2     C 2343   1.858   3.230   0.479 -0.3683  0.1845  0.1587
  154MPD2    C1 2344   1.737   3.290   0.511  0.2046 -0.8786 -0.0516
  154MPD2    C2 2345   1.697   3.283   0.643  1.2652  0.4138  0.5212
  154MPD2    C3 2346   1.766   3.193   0.734 -0.2308 -0.4619 -0.4031
  154MPD2    C4 2347   1.884   3.140   0.697 -0.1363  0.1386 -0.0357
  154MPD2    C5 2348   1.935   3.160   0.571  0.0850 -0.1776  0.7824
  154MPD2     H 2349   1.605   3.326   0.680 -0.2458 -0.0255 -2.7292
  154MPD2    H1 2350   1.937   3.079   0.770 -0.8072  0.0425  0.3697
  154MPD2    H2 2351   1.899   3.256   0.382 -0.0383 -0.0744  0.2280
  154MPD2    H3 2352   2.034   3.124   0.544  1.0185  2.3626  0.8283
  154MPD2     N 2353   1.711   3.189   0.864  0.0081  0.1334  0.3028
  154MPD2    H5 2354   1.642   3.261   0.882  1.8008  2.5172 -2.3186
  154MPD2    N1 2355   1.678   3.379   0.419  0.1542  0.0747  0.3731
  154MPD2    H7 2356   1.732   3.391   0.334  2.4260 -1.6650  1.5554
  155TCq2    C1 2357   1.562   3.446   0.429  0.1350  0.5071  0.7303
  155TCq2    O2 2358   1.491   3.450   0.529  0.4847  0.8001 -0.1969
  155TCq2    C2 2359   1.533   3.527   0.320  0.6895 -0.1441  0.5136
  155TCq2    C3 2360   1.621   3.542   0.222  0.0360 -0.5061 -0.1088
  155TCq2    C4 2361   1.593   3.640   0.128  0.2139 -0.2656 -0.3197
  155TCq2    C5 2362   1.477   3.710   0.128  0.3920  0.4636  0.5056
  155TCq2    C6 2363   1.382   3.686   0.230 -0.8522  0.7042 -0.1354
  155TCq2    C7 2364   1.420   3.607   0.331  0.6320 -0.3227 -0.7134
  155TCq2    C8 2365   1.299   3.806   0.260 -0.1752  0.0802  0.7140
  155TCq2    O4 2366   1.319   3.910   0.204 -0.5098  0.3820 -0.4699
  155TCq2    C9 2367   1.688   3.655   0.020  0.4348 -0.2770  0.0546
  155TCq2    O5 2368   1.651   3.722  17.608 -0.0686 -1.2951 -0.0181
  155TCq2    O6 2369   1.803   3.617   0.044  0.0218  0.2058 -0.1275
  155TCq2    H2 2370   1.715   3.491   0.206 -1.3097 -2.8827 -0.4857
  155TCq2    H3 2371   1.463   3.786   0.052 -1.2949 -0.4078 -0.0677
  155TCq2    H4 2372   1.362   3.608   0.422  1.2340  3.0271 -0.3737
  156MPD2     C 2373   0.372   0.483  12.724 -0.1164 -0.0638  1.0447
  156MPD2    C1 2374   0.381   0.536  12.598 -0.5326 -0.5213  0.2090
  156MPD2    C2 2375   0.514   0.572  12.566 -0.2701 -0.3240 -0.1846
  156MPD2    C3 2376   0.622   0.547  12.642  0.1527  0.1565  0.5004
  156MPD2    C4 2377   0.606   0.489  12.765 -0.3655  0.6414 -0.1719
  156MPD2    C5 2378   0.480   0.460  12.808  0.9910  0.5093 -0.4902
  156MPD2     H 2379   0.526   0.596  12.461  0.6816  0.0321  0.0039
  156MPD2    H1 2380   0.686   0.442  12.820  0.6514  1.0631 -1.2835
  156MPD2    H2 2381   0.276   0.439  12.747 -1.6423  2.6052 -0.3469
  156MPD2    H3 2382   0.463   0.409  12.903  2.4659  1.3478  0.2235
  156MPD2     N 2383   0.749   0.583  12.602 -0.6115  0.3857  0.3044
  156MPD2    H5 2384   0.822   0.564  12.670 -0.2761 -1.1327 -0.4647
  156MPD2    N1 2385   0.273   0.531  12.509  0.2750 -0.3953 -0.9469
  156MPD2    H7 2386   0.185   0.502  12.549 -1.0205 -0.1080 -3.5903
  157TCq2    C1 2387   0.283   0.586  12.383 -1.1467 -0.1336  0.1838
  157TCq2    O2 2388   0.378   0.610  12.302 -0.0280 -0.1330 -1.0138
  157TCq2    C2 2389   0.162   0.610  12.318  0.5398  0.9406 -0.4535
  157TCq2    C3 2390   0.062   0.512  12.317 -0.0316 -0.2570  0.6140
  157TCq2    C4 2391   4.668   0.530  12.243  0.1579  0.3743  0.2916
  157TCq2    C5 2392   4.654   0.638  12.159  0.0194  0.7210 -0.3710
  157TCq2    C6 2393   0.024   0.740  12.176  0.0265  0.5044 -0.2331
  157TCq2    C7 2394   0.141   0.727  12.249 -0.2098  0.0076  0.4815
  157TCq2    C8 2395   0.035   0.829  12.061  0.6538 -0.6454 -0.0816
  157TCq2    O4 2396   0.145   0.871  12.029  0.0080 -0.5090  0.1874
  157TCq2    C9 2397   4.581   0.417  12.228  0.6578 -0.3483 -0.4910
  157TCq2    O5 2398   4.599   0.318  12.305 -0.0699  0.0165  0.5135
  157TCq2    O6 2399   4.499   0.424  12.136 -0.0826  0.8565 -0.1111
  157TCq2    H2 2400   0.082   0.421  12.372  3.1651 -0.9581 -1.6761
  157TCq2    H3 2401   4.591   0.633  12.071 -0.2280 -1.1041 -0.0877
  157TCq2    H4 2402   0.212   0.810  12.246 -1.0598  0.7857  2.2416
  158TMC2    C1 2403   0.879   4.024  13.813  0.0788  0.1394  0.1324
  158TMC2    C2 2404   0.960   4.125  13.767 -0.0057  0.1140 -0.3316
  158TMC2    C3 2405   0.896   4.220  13.693 -0.5987  0.2283 -0.2891
  158TMC2    C4 2406   0.744   4.011  13.783 -0.4401  0.7869 -0.0892
  158TMC2    C5 2407   0.690   4.116  13.709 -0.3374 -0.5135  0.7078
  158TMC2    C6 2408   0.772   4.211  13.657  0.1930  0.4791  0.4710
  158TMC2     C 2409   0.957   3.920  13.867  0.0060  0.3634 -0.9238
  158TMC2     O 2410   1.078   3.925  13.856 -0.1831 -0.0103 -0.4626
  158TMC2     H 2411   1.068   4.121  13.777  0.0056  0.6779 -0.2038
  158TMC2    H1 2412   0.688   3.918  13.794  2.2049 -1.0170 -1.8848
  158TMC2    H2 2413   0.740   4.300  13.604  0.1201 -1.1889 -2.2641
  158TMC2    C7 2414   0.559   4.108  13.633  0.3975  1.0243  0.8709
  158TMC2    C8 2415   0.978   4.322  13.619 -0.9702 -0.5356 -0.3827
  158TMC2    O1 2416   0.550   4.184  13.540 -0.1808  0.2591 -0.3974
  158TMC2    O2 2417   0.968   4.327  13.499  0.6857  0.3171 -0.0176
  158TMC2    O5 2418   0.960   4.429  13.699  0.5118 -0.1397 -0.4913
  158TMC2    H5 2419   0.942   4.406  13.793  1.2915 -2.0276 -0.7877
  159MPD2     C 2420   1.026   3.508  14.153 -0.4451 -0.5736  0.0954
  159MPD2    C1 2421   0.900   3.561  14.184  0.4725 -0.9456 -0.4776
  159MPD2    C2 2422   0.861   3.673  14.117  0.0454 -1.4632 -0.0956
  159MPD2    C3 2423   0.936   3.740  14.018 -0.2497  0.8676 -0.9665
  159MPD2    C4 2424   1.054   3.676  13.982  0.0746  0.0319 -0.1105
  159MPD2    C5 2425   1.100   3.569  14.050 -1.0234  0.1134 -0.1879
  159MPD2     H 2426   0.774   3.729  14.149  1.7968  1.3453 -0.2634
  159MPD2    H1 2427   1.123   3.716  13.908 -1.7150  1.7663 -0.8576
  159MPD2    H2 2428   1.074   3.432  14.214  2.6437  0.8147 -0.5869
  159MPD2    H3 2429   1.194   3.522  14.025 -0.6372  1.8357 -1.9635
  159MPD2     N 2430   0.882   3.842  13.950 -0.0779 -0.6979  0.3431
  159MPD2    H5 2431   0.789   3.872  13.979  0.7542  2.7069 -0.4999
  159MPD2    N1 2432   0.819   3.505  14.288  0.0812 -0.2998  0.0445
  159MPD2    H7 2433   0.860   3.431  14.344  3.3284  0.5445 -1.2514
  160TMC2    C1 2434   0.678   1.808   1.817  0.0190 -0.3855 -0.5212
  160TMC2    C2 2435   0.750   1.699   1.856  0.2951  0.4112  0.9898
  160TMC2    C3 2436   0.882   1.688   1.840 -0.0299  0.6210 -0.1847
  160TMC2    C4 2437   0.741   1.902   1.736 -0.2818  0.4793  0.1882
  160TMC2    C5 2438   0.873   1.877   1.713 -0.0204 -0.2722 -0.1764
  160TMC2    C6 2439   0.946   1.771   1.756  0.1186 -0.0078 -0.0877
  160TMC2     C 2440   0.543   1.824   1.868  0.0684  0.7130  0.2922
  160TMC2     O 2441   0.511   1.746   1.958  0.3809  0.1007  0.3517
  160TMC2     H 2442   0.704   1.619   1.913  1.5086 -1.8984 -1.2651
  160TMC2    H1 2443   0.701   2.002   1.719  1.0319  0.5984 -2.1892
  160TMC2    H2 2444   1.044   1.755   1.713 -0.8015 -0.7838 -1.8842
  160TMC2    C7 2445   0.936   1.967   1.613  0.0739 -0.1758 -0.9281
  160TMC2    C8 2446   0.946   1.565   1.879 -0.5625 -1.0039 -0.0108
  160TMC2    O1 2447   1.059   1.974   1.612  0.3261  0.0629 -0.6081
  160TMC2    O2 2448   0.891   1.460   1.866 -0.0185  0.4724 -0.2068
  160TMC2    O5 2449   1.075   1.582   1.874 -0.1172  0.5266 -0.0283
  160TMC2    H5 2450   1.108   1.672   1.897  0.0612  0.5244 -0.2728
  161MPD2     C 2451   0.270   1.923   1.912 -0.5002 -0.2594  0.0119
  161MPD2    C1 2452   0.342   1.961   1.802  0.5644  0.3293 -0.7008
  161MPD2    C2 2453   0.284   2.041   1.709  0.0876  0.2148  0.0002
  161MPD2    C3 2454   0.158   2.096   1.731 -0.0426  0.3429  0.6765
  161MPD2    C4 2455   0.097   2.084   1.851 -0.3404 -0.8761  0.4206
  161MPD2    C5 2456   0.157   1.994   1.941 -0.3056 -0.2031 -0.0825
  161MPD2     H 2457   0.333   2.056   1.613 -1.6409 -2.8448 -1.3457
  161MPD2    H1 2458   0.009   2.137   1.885 -1.8582 -2.3486 -1.2139
  161MPD2    H2 2459   0.318   1.860   1.986 -0.1697  0.5586  0.4865
  161MPD2    H3 2460   0.104   1.969   2.032 -0.2827 -0.9037 -0.2641
  161MPD2     N 2461   0.102   2.185   1.638 -0.1109 -0.3760 -0.3126
  161MPD2    H5 2462   0.020   2.237   1.668  2.0454  2.7275  0.2208
  161MPD2    N1 2463   0.473   1.905   1.779 -0.5034 -0.0536  0.5585
  161MPD2    H7 2464   0.524   1.921   1.693 -0.6457 -0.9339  0.3115
  162TMC2    C1 2465   3.612   3.898   1.479 -0.2491 -0.1923 -0.0676
  162TMC2    C2 2466   3.532   3.991   1.538  0.0618 -0.0696  0.7045
  162TMC2    C3 2467   3.527   3.990   1.676  0.3091 -0.1024  0.8449
  162TMC2    C4 2468   3.705   3.823   1.547 -0.5662 -0.1136  0.1913
  162TMC2    C5 2469   3.713   3.846   1.685  0.0560  0.2432 -0.4279
  162TMC2    C6 2470   3.630   3.933   1.751 -0.8776  0.1545 -0.4002
  162TMC2     C 2471   3.638   3.902   1.339  0.0150 -0.4402 -0.3429
  162TMC2     O 2472   3.665   3.797   1.286 -0.1766  0.3556 -0.6487
  162TMC2     H 2473   3.459   4.040   1.476 -0.2773 -0.5657  0.7123
  162TMC2    H1 2474   3.788   3.769   1.502  0.2647 -0.0968  1.7033
  162TMC2    H2 2475   3.627   3.946   1.859 -1.5226 -1.6598 -0.1997
  162TMC2    C7 2476   3.839   3.836   1.755  0.0023 -0.4060 -0.0657
  162TMC2    C8 2477   3.456   4.107   1.728  0.9841 -0.2941 -1.1755
  162TMC2    O1 2478   3.875   3.941   1.808  0.2030  0.6726 -0.0692
  162TMC2    O2 2479   3.426   4.194   1.648  0.4919  0.4110 -0.6406
  162TMC2    O5 2480   3.428   4.106   1.861  0.0930  0.0398 -0.2437
  162TMC2    H5 2481   3.444   4.019   1.903 -2.0488  0.3804  1.3157
  163MPD2     C 2482   3.587   4.164   0.896  0.0246  0.0055  1.0575
  163MPD2    C1 2483   3.609   4.032   0.917  0.3601  0.3589  0.2527
  163MPD2    C2 2484   3.633   3.981   1.045  0.3447 -0.4862 -0.4159
  163MPD2    C3 2485   3.610   4.070   1.149  0.3483  0.0545 -0.3844
  163MPD2    C4 2486   3.568   4.207   1.130  0.4229 -0.3989  0.4800
  163MPD2    C5 2487   3.579   4.256   1.002  0.2333  0.4490  0.4693
  163MPD2     H 2488   3.672   3.885   1.076  0.8204 -0.1348  0.0642
  163MPD2    H1 2489   3.546   4.270   1.215  1.8988  0.9589 -0.1383
  163MPD2    H2 2490   3.568   4.203   0.797 -2.0235 -2.0593  0.6314
  163MPD2    H3 2491   3.542   4.355   0.978  0.5799  0.4971  0.1442
  163MPD2     N 2492   3.613   4.025   1.285 -0.0196 -0.1252 -0.4599
  163MPD2    H5 2493   3.592   4.101   1.349  1.5693  3.2046 -3.9117
  163MPD2    N1 2494   3.618   3.947   0.804  0.2227  0.1765 -0.1365
  163MPD2    H7 2495   3.602   3.990   0.713 -2.4361 -0.7553 -0.0983
  164TCq2    C1 2496   3.830   3.160  11.394  0.3133 -0.4179 -0.2057
  164TCq2    O2 2497   3.833   3.042  11.412 -0.0794  0.3767 -0.1785
  164TCq2    C2 2498   3.814   3.247  11.503  0.2499  0.2617 -0.5557
  164TCq2    C3 2499   3.842   3.199  11.630  0.0331 -0.3000  0.5419
  164TCq2    C4 2500   3.808   3.271  11.739 -0.2891 -0.4601 -0.3113
  164TCq2    C5 2501   3.743   3.390  11.729  0.5397 -0.8807 -0.4148
  164TCq2    C6 2502   3.703   3.424  11.600  0.6106 -0.3236 -0.7327
  164TCq2    C7 2503   3.741   3.359  11.481 -0.5872 -0.1466 -0.2106
  164TCq2    C8 2504   3.643   3.548  11.586  0.2909 -0.3487  0.1756
  164TCq2    O4 2505   3.669   3.636  11.669 -0.6967  0.1613  0.7489
  164TCq2    C9 2506   3.869   3.236  11.861  0.3043 -0.7149 -0.4768
  164TCq2    O5 2507   3.920   3.121  11.863  0.3609 -0.8329  0.1384
  164TCq2    O6 2508   3.865   3.311  11.958  0.3661  0.8259  0.1590
  164TCq2    H2 2509   3.894   3.105  11.644  2.1697  0.8980  0.6041
  164TCq2    H3 2510   3.723   3.445  11.820 -1.3984 -0.0427 -1.3525
  164TCq2    H4 2511   3.693   3.383  11.387  0.1464 -2.6373 -1.2172
  165MPD2     C 2512   0.151   1.487   2.414 -0.2487  0.6288  0.5068
  165MPD2    C1 2513   0.146   1.393   2.306  0.4813  0.0440 -0.0408
  165MPD2    C2 2514   0.112   1.440   2.181  0.3290 -0.1506 -0.0261
  165MPD2    C3 2515   0.085   1.579   2.159 -0.5711 -0.6799 -0.1703
  165MPD2    C4 2516   0.063   1.660   2.270 -0.1624  0.5583 -0.2701
  165MPD2    C5 2517   0.105   1.621   2.393  0.4451  0.5845  0.8207
  165MPD2     H 2518   0.102   1.370   2.099  0.6834  2.3914 -2.2263
  165MPD2    H1 2519   0.028   1.762   2.257  0.8628  1.2408  2.2826
  165MPD2    H2 2520   0.171   1.454   2.515  1.5155 -0.3621 -0.1638
  165MPD2    H3 2521   0.108   1.691   2.476 -1.1608  0.5113  0.9330
  165MPD2     N 2522   0.061   1.625   2.029  0.4999 -0.4350 -0.4775
  165MPD2    H5 2523   0.018   1.717   2.016 -0.0674 -0.3472  1.9709
  165MPD2    N1 2524   0.163   1.252   2.338 -0.1533  0.3297  0.4416
  165MPD2    H7 2525   0.178   1.235   2.437 -3.1967  1.1408  1.0384
  166TCq2    C1 2526   0.115   1.576   1.912 -0.5799  0.6744  0.6408
  166TCq2    O2 2527   0.200   1.489   1.900 -0.5546 -0.2029 -0.4209
  166TCq2    C2 2528   0.078   1.655   1.793  0.4891 -0.1722 -0.1813
  166TCq2    C3 2529   4.677   1.719   1.795  0.1724 -0.2254 -0.5521
  166TCq2    C4 2530   4.656   1.803   1.694 -0.6061  0.0519 -0.0701
  166TCq2    C5 2531   0.021   1.822   1.592  0.3179  0.2693  0.1177
  166TCq2    C6 2532   0.141   1.755   1.590 -0.2045  0.0977 -0.3957
  166TCq2    C7 2533   0.166   1.662   1.689 -0.3621  1.0886  0.5928
  166TCq2    C8 2534   0.228   1.768   1.476 -0.4968  1.2858 -0.0215
  166TCq2    O4 2535   0.337   1.711   1.487 -0.0534  0.4061 -0.4093
  166TCq2    C9 2536   4.526   1.868   1.679 -0.1323 -0.2689 -0.2689
  166TCq2    O5 2537   4.494   1.896   1.561 -0.3189  0.2123  0.0628
  166TCq2    O6 2538   4.446   1.867   1.778  0.1639  0.3467  0.3886
  166TCq2    H2 2539   4.600   1.702   1.870 -0.4486 -2.1109 -1.6082
  166TCq2    H3 2540   0.002   1.901   1.521 -2.7512 -0.8190 -0.2556
  166TCq2    H4 2541   0.261   1.608   1.693 -1.4088 -0.8348 -0.2595
  167TMC2    C1 2542   3.312   3.708  12.563  0.6236  0.4033  0.4258
  167TMC2    C2 2543   3.252   3.767  12.673 -0.4012  0.4010 -0.2280
  167TMC2    C3 2544   3.167   3.686  12.750 -0.1776  0.5154 -0.1082
  167TMC2    C4 2545   3.307   3.567  12.542  0.1982  0.6497  0.1564
  167TMC2    C5 2546   3.231   3.487  12.629 -0.0022  0.2356 -0.3897
  167TMC2    C6 2547   3.157   3.549  12.728  0.2763 -0.0762 -0.0120
  167TMC2     C 2548   3.353   3.802  12.456  0.4812  0.8240 -0.0497
  167TMC2     O 2549   3.387   3.913  12.477 -0.5277  0.0922 -0.1434
  167TMC2     H 2550   3.252   3.875  12.682  3.9817  0.4566 -1.0708
  167TMC2    H1 2551   3.383   3.533  12.472 -0.3315 -0.4215  0.1030
  167TMC2    H2 2552   3.098   3.486  12.792  3.1888 -2.9368 -0.1154
  167TMC2    C7 2553   3.236   3.345  12.630  0.1190  0.2324  0.1940
  167TMC2    C8 2554   3.102   3.744  12.859 -0.2864  0.3240 -0.2371
  167TMC2    O1 2555   3.194   3.285  12.732  0.0535  0.2776  0.0246
  167TMC2    O2 2556   3.112   3.686  12.963 -0.0925  0.0707  0.5173
  167TMC2    O5 2557   2.986   3.802  12.808 -0.2890 -0.3301 -0.1569
  167TMC2    H5 2558   2.985   3.822  12.712  0.9132 -1.4483 -0.3940
  168MPD2     C 2559   3.405   3.927  12.187 -0.8640 -0.1338 -0.7533
  168MPD2    C1 2560   3.382   3.794  12.211  0.0404  0.3366 -0.3536
  168MPD2    C2 2561   3.392   3.712  12.104  0.0042  0.3292 -0.1621
  168MPD2    C3 2562   3.395   3.760  11.976 -0.1060  0.3945  0.5278
  168MPD2    C4 2563   3.407   3.896  11.957  0.3361  0.2502  1.0148
  168MPD2    C5 2564   3.414   3.976  12.062  0.4265  0.6199 -0.0333
  168MPD2     H 2565   3.380   3.607  12.126  1.3479 -0.2170 -1.9896
  168MPD2    H1 2566   3.415   3.937  11.857 -0.7269  0.1718  0.8928
  168MPD2    H2 2567   3.398   4.003  12.264 -2.3170  0.7992 -1.8056
  168MPD2    H3 2568   3.435   4.082  12.056  1.2888  0.5811  2.3289
  168MPD2     N 2569   3.369   3.678  11.864 -0.3440  0.1051 -0.6245
  168MPD2    H5 2570   3.343   3.726  11.778 -2.2556  2.1954  1.1196
  168MPD2    N1 2571   3.352   3.733  12.335  0.0131  0.5246  0.3349
  168MPD2    H7 2572   3.324   3.635  12.331 -0.8963  0.6557  2.9765
  169MPD1     C 2573   2.046   1.509   9.606 -0.8602  0.5017  0.1818
  169MPD1    C1 2574   1.966   1.617   9.610 -0.4668 -0.0398 -0.9674
  169MPD1    C2 2575   1.918   1.657   9.488 -0.7760 -1.1249  0.0861
  169MPD1    C3 2576   1.922   1.572   9.375  0.0621  0.3092  0.4334
  169MPD1    C4 2577   2.006   1.463   9.376  0.5541 -0.1781 -0.3174
  169MPD1    C5 2578   2.060   1.426   9.494  0.6050 -0.3549 -0.0198
  169MPD1     H 2579   1.865   1.751   9.482 -0.3145 -0.7492  2.0289
  169MPD1    H1 2580   2.036   1.403   9.291  0.3175  1.3891 -1.4995
  169MPD1    H2 2581   2.097   1.489   9.699  1.1023 -1.2836 -1.2728
  169MPD1    H3 2582   2.124   1.339   9.506 -0.1225 -0.6442  1.7405
  169MPD1     N 2583   1.842   1.609   9.263  0.6163 -0.1674  0.1821
  169MPD1    H5 2584   1.785   1.693   9.267  0.1182 -0.4611 -0.6475
  169MPD1    N1 2585   1.955   1.690   9.727  0.6519  0.0655 -0.3465
  169MPD1    H6 2586   1.876   1.754   9.718  0.2042 -0.1925  1.7422
  169MPD1    H7 2587   1.948   1.646   9.819 -3.2345 -0.1018 -0.7110
  170MPD1     C 2588   4.635   1.764  12.629 -0.8099  0.1984 -0.0375
  170MPD1    C1 2589   4.512   1.721  12.591 -0.3786  0.8986  0.1642
  170MPD1    C2 2590   4.404   1.731  12.678 -0.0871  0.2016  0.4232
  170MPD1    C3 2591   4.418   1.792  12.802 -0.4066 -0.0528  0.4832
  170MPD1    C4 2592   4.544   1.851  12.830 -0.0676 -0.5149  0.0297
  170MPD1    C5 2593   4.651   1.825  12.748  0.0469  0.3030  0.1461
  170MPD1     H 2594   4.306   1.699  12.644  0.3888 -0.6719 -0.1375
  170MPD1    H1 2595   4.561   1.901  12.925  0.0623 -0.9339  0.2280
  170MPD1    H2 2596   4.721   1.757  12.563 -0.6772 -1.2704  0.2953
  170MPD1    H3 2597   0.027   1.871  12.760 -0.4397  0.7438  2.3114
  170MPD1     N 2598   4.307   1.800  12.887 -0.3301 -0.5216 -0.0284
  170MPD1    H5 2599   4.212   1.783  12.854 -0.8082  1.4677  0.3572
  170MPD1    N1 2600   4.499   1.652  12.473 -0.3514 -1.1458 -0.7605
  170MPD1    H6 2601   4.551   1.689  12.394  0.4058 -3.1496 -1.1856
  170MPD1    H7 2602   4.401   1.654  12.446 -0.2322  0.2510 -1.0945
  171MPD1     C 2603   2.701   2.720  15.350  1.1645  0.1613 -0.0717
  171MPD1    C1 2604   2.652   2.605  15.298  1.0716  0.1040 -0.2704
  171MPD1    C2 2605   2.684   2.484  15.366  0.2642 -0.0369  0.0418
  171MPD1    C3 2606   2.776   2.483  15.474  0.1602  0.1359  0.6011
  171MPD1    C4 2607   2.828   2.602  15.519 -0.2727  1.0345  0.6476
  171MPD1    C5 2608   2.790   2.715  15.453 -0.0921  0.1010  0.6412
  171MPD1     H 2609   2.643   2.390  15.331  1.6321 -0.8266  0.5699
  171MPD1    H1 2610   2.905   2.608  15.595 -0.5471  0.4604  0.9775
  171MPD1    H2 2611   2.671   2.813  15.304 -1.5648 -1.2960 -1.2312
  171MPD1    H3 2612   2.841   2.805  15.486 -0.9991  0.7321  0.3379
  171MPD1     N 2613   2.828   2.362  15.542 -0.1002 -0.8047  0.2077
  171MPD1    H5 2614   2.902   2.384  15.608 -0.3620  1.8632 -0.3922
  171MPD1    N1 2615   2.550   2.620  15.205  0.0700  0.0335  0.5204
  171MPD1    H6 2616   2.537   2.530  15.159  0.7847 -0.0023  0.3807
  171MPD1    H7 2617   2.580   2.683  15.131  0.0164  2.3075  2.4204
  172MPD1     C 2618   1.204   1.882   0.216 -0.6895 -0.4568  0.1270
  172MPD1    C1 2619   1.286   1.890   0.331  0.9530  0.1917 -0.1505
  172MPD1    C2 2620   1.421   1.877   0.312 -0.2905  0.2506  0.0676
  172MPD1    C3 2621   1.481   1.875   0.189 -0.3164  0.3882  0.0734
  172MPD1    C4 2622   1.399   1.869   0.076 -0.0270 -0.2630  0.2175
  172MPD1    C5 2623   1.260   1.874   0.094  0.4580 -0.2001  0.4681
  172MPD1     H 2624   1.486   1.864   0.398  0.8355 -0.7121 -0.9455
  172MPD1    H1 2625   1.430   1.866  17.663  0.8198 -1.1743  0.4979
  172MPD1    H2 2626   1.096   1.888   0.220 -0.6060  0.5841  1.0250
  172MPD1    H3 2627   1.198   1.885   0.005  0.4795  1.3237  0.6503
  172MPD1     N 2628   1.621   1.882   0.175 -0.9718 -0.1173 -0.4502
  172MPD1    H5 2629   1.659   1.867   0.082 -0.1319  1.7302 -0.3982
  172MPD1    N1 2630   1.223   1.899   0.460 -0.3370 -0.7860 -1.2148
  172MPD1    H6 2631   1.125   1.928   0.460  0.7439  2.9169  0.1844
  172MPD1    H7 2632   1.273   1.860   0.540  1.0238 -0.4364 -1.8918
  173MPD1     C 2633   4.026   0.411  13.885 -0.5830  0.1562 -0.7422
  173MPD1    C1 2634   3.974   0.483  13.990 -0.6787 -0.2465 -0.4707
  173MPD1    C2 2635   3.886   0.581  13.962 -0.4471  0.4985  0.0995
  173MPD1    C3 2636   3.850   0.607  13.832 -0.2712  0.7304 -0.6413
  173MPD1    C4 2637   3.880   0.518  13.734 -0.6254 -0.4571 -0.1817
  173MPD1    C5 2638   3.975   0.426  13.764  0.1707 -0.4193  0.1476
  173MPD1     H 2639   3.855   0.647  14.043 -0.1817 -1.0265  1.4330
  173MPD1    H1 2640   3.862   0.540  13.629  0.2984 -1.7146 -0.6024
  173MPD1    H2 2641   4.102   0.334  13.897 -0.1192  0.5483 -1.1366
  173MPD1    H3 2642   4.020   0.376  13.679 -1.3768  0.2622 -1.0732
  173MPD1     N 2643   3.764   0.721  13.806  0.1918  0.5561  0.3383
  173MPD1    H5 2644   3.759   0.788  13.882 -1.9906  0.0036  0.6837
  173MPD1    N1 2645   4.018   0.463  14.124  0.2308  0.3271 -0.0078
  173MPD1    H6 2646   3.950   0.484  14.197 -0.5389  0.6786 -0.8167
  173MPD1    H7 2647   4.052   0.368  14.128 -2.6284 -0.7435 -0.9196
  174MPD1     C 2648   3.636   1.621  13.264  0.6032  0.1273  0.1732
  174MPD1    C1 2649   3.591   1.502  13.211  0.3413  0.3236 -0.2221
  174MPD1    C2 2650   3.588   1.391  13.293  0.3946 -0.5842 -0.3678
  174MPD1    C3 2651   3.591   1.405  13.430  0.2180  0.2609  0.0038
  174MPD1    C4 2652   3.628   1.529  13.482  0.4245 -0.4084 -0.1200
  174MPD1    C5 2653   3.658   1.629  13.397 -0.1220 -0.5918  0.6251
  174MPD1     H 2654   3.578   1.295  13.242 -1.6209  0.7732 -2.5039
  174MPD1    H1 2655   3.637   1.544  13.589 -0.5369  1.1313 -0.2632
  174MPD1    H2 2656   3.656   1.709  13.204  2.0113 -0.9428 -0.9358
  174MPD1    H3 2657   3.679   1.728  13.436  0.0651  0.2317 -1.6024
  174MPD1     N 2658   3.571   1.300  13.524 -0.4394 -0.0324  0.2985
  174MPD1    H5 2659   3.583   1.314  13.624  1.7468 -0.9719  0.1629
  174MPD1    N1 2660   3.612   1.490  13.073  0.1458  0.2086  0.0254
  174MPD1    H6 2661   3.550   1.421  13.032  1.5305 -1.0044  0.0006
  174MPD1    H7 2662   3.601   1.579  13.025  0.1653 -0.4142 -1.1242
  175MPD1     C 2663   1.368   2.259  15.201  0.6484 -0.1309 -0.2570
  175MPD1    C1 2664   1.418   2.137  15.248  0.0378 -0.0142 -0.2496
  175MPD1    C2 2665   1.471   2.129  15.376 -0.3726  0.1930  0.0205
  175MPD1    C3 2666   1.487   2.243  15.448  0.4207  0.6619 -0.3726
  175MPD1    C4 2667   1.443   2.361  15.401 -0.0923  0.2378  0.6641
  175MPD1    C5 2668   1.379   2.368  15.278 -0.3716  0.5893 -0.2596
  175MPD1     H 2669   1.495   2.031  15.418 -0.7857  0.4677  0.8845
  175MPD1    H1 2670   1.447   2.460  15.445 -1.3737  0.9402 -0.7587
  175MPD1    H2 2671   1.325   2.268  15.102  0.7111 -0.3695 -0.3064
  175MPD1    H3 2672   1.357   2.464  15.232  2.4013  0.5088 -1.7456
  175MPD1     N 2673   1.537   2.242  15.579  0.2084  0.2552 -0.3025
  175MPD1    H5 2674   1.526   2.330  15.629  1.6077  0.7019 -0.7882
  175MPD1    N1 2675   1.390   2.016  15.177  0.1666  0.0815  0.3959
  175MPD1    H6 2676   1.392   2.032  15.077  1.8028  1.4639  0.6509
  175MPD1    H7 2677   1.449   1.935  15.197 -1.2534 -0.4260  2.5235
  176MPD1     C 2678   3.212   1.523   0.787  0.2545  0.7635 -1.0182
  176MPD1    C1 2679   3.267   1.412   0.857 -0.1391  0.4023  0.2327
  176MPD1    C2 2680   3.332   1.309   0.786  0.1650 -0.6565  0.3743
  176MPD1    C3 2681   3.333   1.308   0.649 -0.4535  0.0499  0.8501
  176MPD1    C4 2682   3.271   1.412   0.579  0.4987  0.9231 -0.0885
  176MPD1    C5 2683   3.218   1.516   0.651  0.1443 -0.2375  0.3400
  176MPD1     H 2684   3.380   1.237   0.851  2.3440  0.7483  0.3263
  176MPD1    H1 2685   3.257   1.411   0.471 -0.2431  0.0915  0.0104
  176MPD1    H2 2686   3.163   1.607   0.834 -0.3059 -1.0451  1.6288
  176MPD1    H3 2687   3.165   1.597   0.602  1.9560  0.2289 -0.8590
  176MPD1     N 2688   3.384   1.196   0.581 -0.6884  0.3932  0.1728
  176MPD1    H5 2689   3.412   1.122   0.644 -1.7502  0.9303  1.2457
  176MPD1    N1 2690   3.256   1.402   0.997 -0.9432 -0.4333 -0.6237
  176MPD1    H6 2691   3.173   1.442   1.041 -1.5054 -0.0741 -1.9929
  176MPD1    H7 2692   3.295   1.318   1.040  1.4412  2.0055  2.0027
  177MPD1     C 2693   2.080   3.619  10.561 -0.3382 -0.5581  0.3460
  177MPD1    C1 2694   2.070   3.581  10.434 -0.3101 -0.4817  0.0384
  177MPD1    C2 2695   2.113   3.665  10.335 -0.5566 -0.2855  0.1600
  177MPD1    C3 2696   2.167   3.789  10.356  0.1497  0.0977  0.2806
  177MPD1    C4 2697   2.179   3.829  10.482  0.0295  0.1374  0.2356
  177MPD1    C5 2698   2.128   3.750  10.582  0.0212 -0.4856 -0.2210
  177MPD1     H 2699   2.095   3.647  10.230 -3.4682  0.5936  0.5152
  177MPD1    H1 2700   2.216   3.927  10.512 -1.2952  0.6865  0.0841
  177MPD1    H2 2701   2.049   3.558  10.645 -0.3014 -0.2990  0.5488
  177MPD1    H3 2702   2.122   3.782  10.685  0.3522  1.7866 -0.9028
  177MPD1     N 2703   2.199   3.873  10.248  0.2387  0.0428 -0.4110
  177MPD1    H5 2704   2.196   3.830  10.156 -1.7390 -0.8761  0.0763
  177MPD1    N1 2705   2.006   3.459  10.402  0.3363  0.1552 -0.3606
  177MPD1    H6 2706   2.015   3.396  10.481  0.5502  0.6241 -0.0154
  177MPD1    H7 2707   2.040   3.415  10.316 -0.3111 -0.0086 -0.5380
  178MPD1     C 2708   3.979   0.085   0.311  0.1187 -0.2492 -0.1125
  178MPD1    C1 2709   3.910   0.163   0.222 -0.9312 -0.4062  0.0687
  178MPD1    C2 2710   3.965   0.169   0.095  0.4325  0.5772 -0.2963
  178MPD1    C3 2711   4.094   0.131   0.061 -0.2115 -0.0717  0.2751
  178MPD1    C4 2712   4.167   0.063   0.154 -0.4775 -0.0534  0.8669
  178MPD1    C5 2713   4.107   0.038   0.278 -0.1740  0.2723  0.6692
  178MPD1     H 2714   3.909   0.222   0.020  0.1624 -1.8198 -1.7798
  178MPD1    H1 2715   4.271   0.035   0.149 -0.2489  0.8616  0.4515
  178MPD1    H2 2716   3.934   0.063   0.407 -1.3238  1.2395 -0.4588
  178MPD1    H3 2717   4.158   4.712   0.359 -1.9896 -4.4315 -1.0067
  178MPD1     N 2718   4.148   0.150  17.625 -0.1889  0.2276  0.1828
  178MPD1    H5 2719   4.243   0.114  17.615 -0.7980 -1.9781  2.2565
  178MPD1    N1 2720   3.778   0.204   0.248  0.3801 -0.1588  0.0482
  178MPD1    H6 2721   3.759   0.230   0.344  0.3039 -0.6389  0.1619
  178MPD1    H7 2722   3.748   0.286   0.195  1.6710  0.6592  0.6087
  179MPD1     C 2723   4.454   2.499  15.739  0.6122 -0.2607 -0.5908
  179MPD1    C1 2724   4.365   2.531  15.636  0.7066 -0.1179  0.5552
  179MPD1    C2 2725   4.258   2.621  15.670  0.0266 -0.0826 -0.6237
  179MPD1    C3 2726   4.243   2.676  15.805  1.0105 -0.3077  0.0614
  179MPD1    C4 2727   4.334   2.642  15.898 -0.5010  0.8456  0.0846
  179MPD1    C5 2728   4.435   2.550  15.867 -1.4726  0.3088 -0.0835
  179MPD1     H 2729   4.187   2.648  15.593  0.4021  1.2493 -0.5106
  179MPD1    H1 2730   4.322   2.675  16.001  3.0607 -1.2821  1.1893
  179MPD1    H2 2731   4.549   2.449  15.726 -0.1435 -0.9116 -3.8749
  179MPD1    H3 2732   4.511   2.530  15.941 -0.2271 -0.2212 -1.5147
  179MPD1     N 2733   4.145   2.770  15.846 -0.0194 -0.4009 -0.0028
  179MPD1    H5 2734   4.141   2.804  15.942 -0.5337 -0.5243  0.0183
  179MPD1    N1 2735   4.393   2.501  15.499  0.6230  0.2361 -0.5837
  179MPD1    H6 2736   4.445   2.414  15.492  2.3368  1.3454 -1.6347
  179MPD1    H7 2737   4.308   2.495  15.443  0.9855 -1.3501 -0.9663
  180MPD1     C 2738   3.047   0.158  14.677  0.4067  0.7087  0.5038
  180MPD1    C1 2739   3.105   0.134  14.551 -0.7243 -0.5627 -0.1639
  180MPD1    C2 2740   3.241   0.152  14.541 -0.4312  0.2599  0.1079
  180MPD1    C3 2741   3.320   0.204  14.642  0.0819  0.3596  0.0159
  180MPD1    C4 2742   3.258   0.249  14.757 -0.1311 -0.6456  0.4672
  180MPD1    C5 2743   3.121   0.229  14.769  0.1132  0.2412  0.1915
  180MPD1     H 2744   3.288   0.097  14.460 -0.1628  1.0362 -0.2572
  180MPD1    H1 2745   3.314   0.299  14.835  0.1815  3.8521 -2.6819
  180MPD1    H2 2746   2.939   0.152  14.687  0.2897  1.1536 -0.4765
  180MPD1    H3 2747   3.071   0.237  14.865  1.9198 -1.3732  1.2620
  180MPD1     N 2748   3.455   0.243  14.618 -0.3626  0.1269  0.3216
  180MPD1    H5 2749   3.491   0.224  14.525  2.9796  0.4771  1.5461
  180MPD1    N1 2750   3.046   0.061  14.449  0.0889 -0.8012  0.0589
  180MPD1    H6 2751   2.950   0.090  14.430 -0.1418 -2.1757 -0.8794
  180MPD1    H7 2752   3.082   0.080  14.356  1.7558 -0.8262  0.7008
  181MPD1     C 2753   4.555   0.946  10.084  0.0937 -0.0340 -0.9499
  181MPD1    C1 2754   4.625   0.942   9.963 -0.2939  0.5919  0.5559
  181MPD1    C2 2755   0.024   1.001   9.960  0.3523 -0.1174  0.0500
  181MPD1    C3 2756   0.079   1.071  10.066  0.3710  0.8629  0.1803
  181MPD1    C4 2757   0.012   1.075  10.187  0.0628 -0.1487  0.1088
  181MPD1    C5 2758   4.611   1.009  10.192 -0.3464  0.0356 -0.5349
  181MPD1     H 2759   0.077   0.992   9.866 -2.1844 -0.3877 -1.3522
  181MPD1    H1 2760   0.035   1.148  10.264 -1.3138  0.1959  0.1861
  181MPD1    H2 2761   4.462   0.892  10.096  1.4137 -1.9932  0.5629
  181MPD1    H3 2762   4.550   1.009  10.281  0.6948  3.7445  0.1899
  181MPD1     N 2763   0.200   1.145  10.061 -0.6805 -0.7192  0.0030
  181MPD1    H5 2764   0.247   1.186  10.141  0.8414 -1.2782 -0.6043
  181MPD1    N1 2765   4.590   0.852   9.861  0.1240 -0.9692  0.0793
  181MPD1    H6 2766   4.491   0.845   9.837  0.5089 -1.0959 -1.4419
  181MPD1    H7 2767   4.642   0.882   9.779  1.1943 -0.4828  0.9460
  182MPD1     C 2768   1.630   0.760   0.741 -0.6810  0.7230 -0.2022
  182MPD1    C1 2769   1.583   0.676   0.639 -0.4885  0.5934 -1.0862
  182MPD1    C2 2770   1.582   0.722   0.508  0.6600  0.1924  0.7198
  182MPD1    C3 2771   1.653   0.840   0.472  0.4275  0.1364 -0.2157
  182MPD1    C4 2772   1.700   0.918   0.576 -0.0857  0.3938 -0.1600
  182MPD1    C5 2773   1.682   0.880   0.701 -0.0338  0.2854  0.4433
  182MPD1     H 2774   1.535   0.665   0.429  0.2880  0.0831  1.0224
  182MPD1    H1 2775   1.762   1.006   0.565 -0.2018  0.5540  0.4311
  182MPD1    H2 2776   1.619   0.735   0.846 -2.3056 -0.3923 -0.6366
  182MPD1    H3 2777   1.721   0.945   0.779 -2.9098  0.0368  2.0779
  182MPD1     N 2778   1.655   0.899   0.346  0.5411 -0.2890  0.2324
  182MPD1    H5 2779   1.692   0.993   0.333  0.4882 -0.0501  1.8661
  182MPD1    N1 2780   1.524   0.553   0.671 -0.1365 -0.0025  0.3119
  182MPD1    H6 2781   1.553   0.513   0.760  1.1130 -1.5423 -0.7743
  182MPD1    H7 2782   1.557   0.487   0.600  0.9098  1.7245 -0.7836
  183MPD1     C 2783   2.512   0.089   9.530 -0.0075  0.0779  0.1544
  183MPD1    C1 2784   2.541   0.152   9.648  0.1857  0.1992 -0.4296
  183MPD1    C2 2785   2.444   0.232   9.699  0.8310 -0.5857 -0.1425
  183MPD1    C3 2786   2.321   0.228   9.645 -0.7415 -1.4467  0.1765
  183MPD1    C4 2787   2.287   0.148   9.536  0.1810 -0.3351 -0.5376
  183MPD1    C5 2788   2.388   0.073   9.479  0.0502  0.4393  0.6200
  183MPD1     H 2789   2.472   0.294   9.783  1.8381 -1.5507  0.2366
  183MPD1    H1 2790   2.192   0.148   9.485  1.7826 -2.0387 -3.5352
  183MPD1    H2 2791   2.593   0.034   9.482  0.2817  1.7613 -1.2950
  183MPD1    H3 2792   2.362   0.016   9.391 -0.1002  0.1029  0.8803
  183MPD1     N 2793   2.225   0.314   9.704 -0.1243  0.1093 -0.3789
  183MPD1    H5 2794   2.257   0.368   9.783 -0.3624  0.5654 -0.5944
  183MPD1    N1 2795   2.679   0.165   9.687 -0.1089  0.0591 -0.0615
  183MPD1    H6 2796   2.736   0.082   9.671 -1.0372 -0.3535 -1.2087
  183MPD1    H7 2797   2.686   0.180   9.788  0.8616  1.0796 -0.2774
  184MPD1     C 2798   1.566   3.153   9.353 -0.8438  0.3891 -0.2385
  184MPD1    C1 2799   1.673   3.214   9.288 -0.2506  0.9729  0.2920
  184MPD1    C2 2800   1.730   3.326   9.349 -0.3272  0.4664  0.0760
  184MPD1    C3 2801   1.680   3.373   9.472  0.0885  0.1643 -0.6949
  184MPD1    C4 2802   1.576   3.312   9.534  0.0231 -0.3157 -0.0802
  184MPD1    C5 2803   1.527   3.201   9.478 -0.0928 -0.1817  0.5597
  184MPD1     H 2804   1.813   3.384   9.310  0.0396 -0.2241 -0.1875
  184MPD1    H1 2805   1.537   3.348   9.629 -4.4367 -1.5966 -1.4398
  184MPD1    H2 2806   1.513   3.072   9.306  0.5832  0.5421 -2.1284
  184MPD1    H3 2807   1.442   3.146   9.518 -1.2141  1.3965  0.3276
  184MPD1     N 2808   1.734   3.485   9.549  0.9080  0.0682 -0.2797
  184MPD1    H5 2809   1.689   3.505   9.638 -3.4047 -0.2777 -2.3868
  184MPD1    N1 2810   1.716   3.151   9.171 -0.2135 -0.4769 -0.3678
  184MPD1    H6 2811   1.680   3.057   9.159  0.7855 -0.8961 -0.0334
  184MPD1    H7 2812   1.818   3.150   9.172 -0.2135 -0.0961  1.3568
  185MPD1     C 2813   2.370   4.175   9.223  0.9370 -0.3765 -0.7244
  185MPD1    C1 2814   2.344   4.226   9.349  0.2384  0.1320 -0.3760
  185MPD1    C2 2815   2.254   4.157   9.437  0.0397  0.2392  0.5793
  185MPD1    C3 2816   2.208   4.028   9.397  0.0919  0.1269 -0.2410
  185MPD1    C4 2817   2.237   3.978   9.268 -0.2174  0.2114 -0.4855
  185MPD1    C5 2818   2.314   4.056   9.184  0.1451 -0.0999  0.3414
  185MPD1     H 2819   2.236   4.188   9.539  1.4249  0.5771  0.7107
  185MPD1    H1 2820   2.211   3.878   9.235 -0.1196 -0.2195  0.7476
  185MPD1    H2 2821   2.421   4.236   9.150 -0.4641 -0.3748 -1.6992
  185MPD1    H3 2822   2.340   4.025   9.084 -0.1548 -0.0919  0.2630
  185MPD1     N 2823   2.131   3.947   9.480 -0.0302 -0.0105  0.0139
  185MPD1    H5 2824   2.107   3.859   9.434  0.6472 -1.4444  2.4181
  185MPD1    N1 2825   2.392   4.354   9.387  0.1842  0.1694  0.3702
  185MPD1    H6 2826   2.405   4.360   9.487  0.8415  0.6570  0.2508
  185MPD1    H7 2827   2.484   4.363   9.344 -0.1863  0.1143 -0.4396
  186MPD1     C 2828   0.052   2.609  16.267  0.2218  0.0299 -0.1395
  186MPD1    C1 2829   0.094   2.732  16.225  0.3250 -0.7590 -0.1584
  186MPD1    C2 2830   4.719   2.835  16.228 -0.1759 -1.0833 -0.4420
  186MPD1    C3 2831   4.588   2.815  16.252  0.5066 -0.4067 -0.4082
  186MPD1    C4 2832   4.546   2.689  16.284 -0.4445  0.1837 -0.6438
  186MPD1    C5 2833   4.642   2.588  16.304 -0.3772  0.6503  0.2875
  186MPD1     H 2834   0.029   2.936  16.207 -2.2030 -0.6314 -1.3891
  186MPD1    H1 2835   4.444   2.658  16.306  0.1374  0.8770  2.9658
  186MPD1    H2 2836   0.116   2.521  16.272 -0.6624 -0.4501  2.4520
  186MPD1    H3 2837   4.605   2.488  16.326 -0.6501  0.5827 -0.4597
  186MPD1     N 2838   4.499   2.928  16.264 -0.1317  0.2728 -0.2544
  186MPD1    H5 2839   4.420   2.902  16.322 -0.6836 -0.1555 -1.2028
  186MPD1    N1 2840   0.233   2.760  16.219  0.2294 -0.1072 -0.3304
  186MPD1    H6 2841   0.248   2.847  16.168  2.0186  0.7174  1.5901
  186MPD1    H7 2842   0.261   2.764  16.317 -1.1317  2.8156 -0.0578
  187MPD1     C 2843   3.035   0.947   0.406  0.3492  0.9882 -0.0953
  187MPD1    C1 2844   3.083   1.067   0.371  0.4485  0.3279  0.2154
  187MPD1    C2 2845   3.130   1.074   0.243  0.1514  0.3240  0.1492
  187MPD1    C3 2846   3.139   0.967   0.154  0.3738  0.0932 -0.0648
  187MPD1    C4 2847   3.105   0.842   0.202  0.2402 -0.2702 -0.1677
  187MPD1    C5 2848   3.057   0.837   0.333  0.0936  0.4596  0.2087
  187MPD1     H 2849   3.161   1.173   0.209  2.2659 -0.2418  0.4567
  187MPD1    H1 2850   3.125   0.753   0.145 -0.0610 -1.3245  1.3657
  187MPD1    H2 2851   2.995   0.931   0.505  1.8827  1.4805  0.6010
  187MPD1    H3 2852   3.043   0.737   0.371 -0.2928 -0.4507 -2.3574
  187MPD1     N 2853   3.178   0.973   0.017 -0.8371 -0.3090 -0.0803
  187MPD1    H5 2854   3.202   0.886  17.662  2.6093  1.8582 -2.4537
  187MPD1    N1 2855   3.051   1.184   0.449 -0.4812  0.5928 -0.0702
  187MPD1    H6 2856   3.116   1.258   0.424 -0.4442 -0.0366 -1.8692
  187MPD1    H7 2857   3.037   1.168   0.548 -1.6945  1.3101 -0.1199
  188MPD1     C 2858   3.303   0.550  10.524  0.0535  0.7320 -0.5691
  188MPD1    C1 2859   3.238   0.461  10.607  0.2693 -0.2571 -0.4923
  188MPD1    C2 2860   3.247   0.328  10.583  0.9715 -0.3318  0.1174
  188MPD1    C3 2861   3.316   0.283  10.469 -0.4745 -0.2642  0.8152
  188MPD1    C4 2862   3.354   0.374  10.367  0.0067 -0.3375  0.3974
  188MPD1    C5 2863   3.356   0.508  10.406 -0.0876  0.5766  0.8799
  188MPD1     H 2864   3.235   0.258  10.665 -0.8521  1.0179  0.9963
  188MPD1    H1 2865   3.405   0.335  10.279 -1.5015 -3.2636  0.8115
  188MPD1    H2 2866   3.281   0.655  10.542 -1.0759  0.2594  0.8054
  188MPD1    H3 2867   3.399   0.579  10.335  0.4319 -0.1776  0.4381
  188MPD1     N 2868   3.342   0.145  10.443 -0.1577 -0.4023 -0.9211
  188MPD1    H5 2869   3.392   0.123  10.357  2.7577  0.3462  0.5970
  188MPD1    N1 2870   3.212   0.501  10.742 -0.3623 -0.4351  0.1583
  188MPD1    H6 2871   3.141   0.441  10.783 -0.4513 -1.2676 -1.1990
  188MPD1    H7 2872   3.179   0.598  10.748 -3.1003 -1.2957 -0.8939
  189MPD1     C 2873   1.323   0.556  17.538 -0.2103 -0.4510 -0.0883
  189MPD1    C1 2874   1.355   0.610  17.666 -0.4621  0.2192  1.1513
  189MPD1    C2 2875   1.270   0.701   0.032  0.0913 -0.5226 -0.6739
  189MPD1    C3 2876   1.162   0.755  17.651 -0.7548  0.6601 -0.3236
  189MPD1    C4 2877   1.136   0.708  17.527 -0.2396  0.1261 -0.1728
  189MPD1    C5 2878   1.216   0.610  17.468  0.3127 -0.0709 -0.5266
  189MPD1     H 2879   1.291   0.741   0.131 -2.7420 -2.1073  0.5935
  189MPD1    H1 2880   1.048   0.730  17.467 -1.2979 -0.1774  1.2688
  189MPD1    H2 2881   1.380   0.475  17.493  1.8082  0.2627  1.1913
  189MPD1    H3 2882   1.187   0.584  17.367 -0.8185 -1.6176  0.1915
  189MPD1     N 2883   1.083   0.855   0.015 -0.5451 -0.2874 -0.6119
  189MPD1    H5 2884   1.098   0.871   0.114  1.9160  0.1884 -1.0572
  189MPD1    N1 2885   1.457   0.560   0.045  0.5755  0.3107  0.1142
  189MPD1    H6 2886   1.542   0.544  17.683 -0.4481  0.7330 -1.6709
  189MPD1    H7 2887   1.492   0.621   0.119 -1.6828  2.6108 -0.7214
  190MPD1     C 2888   3.902   0.129  15.408  0.2105  1.0715  1.0649
  190MPD1    C1 2889   3.946   0.010  15.354 -0.9944  0.2587 -0.0522
  190MPD1    C2 2890   3.993   4.642  15.447  0.5120  0.4804  0.7780
  190MPD1    C3 2891   4.013   4.671  15.579 -0.4262 -0.0500 -0.0652
  190MPD1    C4 2892   3.973   0.071  15.626  0.1546 -0.1354  0.2522
  190MPD1    C5 2893   3.922   0.165  15.544 -0.1910  0.1298  0.2209
  190MPD1     H 2894   4.001   4.537  15.421 -1.6626  0.1860  1.3106
  190MPD1    H1 2895   3.980   0.086  15.733  1.9029 -0.6495  0.2159
  190MPD1    H2 2896   3.844   0.202  15.352 -1.7707 -0.4283  1.1640
  190MPD1    H3 2897   3.875   0.250  15.591 -0.7650  0.6663 -1.3253
  190MPD1     N 2898   4.082   4.587  15.670 -0.3143  0.4493  0.0464
  190MPD1    H5 2899   4.085   4.613  15.768  0.8299  0.5968 -0.0310
  190MPD1    N1 2900   3.903   4.701  15.225  0.6656 -0.2852  0.0285
  190MPD1    H6 2901   3.962   4.629  15.183  0.2586 -0.4907 -0.1922
  190MPD1    H7 2902   3.908   0.066  15.173  1.7218 -0.4916 -0.2208
  191MPD1     C 2903   3.519   1.746  12.684 -0.0037  0.0549  0.3568
  191MPD1    C1 2904   3.406   1.667  12.662  0.0493 -0.1154 -0.5792
  191MPD1    C2 2905   3.302   1.719  12.588 -0.5278  0.2462  0.2306
  191MPD1    C3 2906   3.320   1.836  12.514 -0.1386 -0.6195  0.4531
  191MPD1    C4 2907   3.438   1.909  12.523  0.2379  0.1618  0.0952
  191MPD1    C5 2908   3.533   1.866  12.615 -0.6199  0.1290  0.4300
  191MPD1     H 2909   3.211   1.662  12.572 -0.5050  0.5711 -1.0895
  191MPD1    H1 2910   3.449   2.011  12.488  2.7155 -0.0707  0.1939
  191MPD1    H2 2911   3.603   1.718  12.746 -0.0445  0.0810  0.4242
  191MPD1    H3 2912   3.616   1.929  12.644 -0.5328  0.3472 -0.3002
  191MPD1     N 2913   3.209   1.878  12.433  0.0423  0.3589  0.0491
  191MPD1    H5 2914   3.122   1.833  12.458 -0.5319  0.7353 -1.2738
  191MPD1    N1 2915   3.400   1.543  12.731  0.0189 -0.3915  0.0572
  191MPD1    H6 2916   3.480   1.481  12.734 -0.3029 -0.8700 -1.2451
  191MPD1    H7 2917   3.336   1.483  12.679 -0.9989  0.4239  0.3789
  192MPD1     C 2918   2.579   2.139  12.865 -0.0789  0.6944  0.2594
  192MPD1    C1 2919   2.569   2.242  12.771  0.1286  0.3737 -0.0094
  192MPD1    C2 2920   2.631   2.228  12.647 -0.6492  0.3164  0.1843
  192MPD1    C3 2921   2.702   2.108  12.613  0.2791 -0.2840 -0.7670
  192MPD1    C4 2922   2.694   2.000  12.699  0.2546  1.0239  0.7497
  192MPD1    C5 2923   2.639   2.016  12.828 -0.1888  0.5313  0.0810
  192MPD1     H 2924   2.611   2.294  12.564 -1.4293 -1.7527 -1.2863
  192MPD1    H1 2925   2.747   1.907  12.681 -0.3824  0.6664  0.7429
  192MPD1    H2 2926   2.530   2.146  12.961  1.1670 -2.1939  1.1171
  192MPD1    H3 2927   2.645   1.934  12.899  2.3786  2.4409  2.0483
  192MPD1     N 2928   2.775   2.102  12.495  0.2463  0.2860  0.3565
  192MPD1    H5 2929   2.821   2.014  12.477  2.9076  1.5089  1.0924
  192MPD1    N1 2930   2.500   2.361  12.799  0.2194 -0.1246 -0.0620
  192MPD1    H6 2931   2.502   2.377  12.900  2.6546  3.2288 -0.6124
  192MPD1    H7 2932   2.552   2.434  12.750 -0.5457  1.1209  0.9573
  193MPD1     C 2933   2.550   1.964  16.026  0.6177  0.9606  0.9586
  193MPD1    C1 2934   2.496   2.055  16.118  0.2316 -0.6777  0.2588
  193MPD1    C2 2935   2.573   2.124  16.203  0.3618 -0.0845  0.4123
  193MPD1    C3 2936   2.708   2.083  16.217  0.3932  0.2495 -0.1463
  193MPD1    C4 2937   2.755   1.989  16.131  0.2932  0.4873 -0.1028
  193MPD1    C5 2938   2.678   1.934  16.033 -0.4246  0.7894  0.6127
  193MPD1     H 2939   2.530   2.206  16.260  1.7104  0.1678  1.0661
  193MPD1    H1 2940   2.855   1.948  16.138  0.4632  0.8099 -0.6096
  193MPD1    H2 2941   2.490   1.931  15.942 -2.0896  0.2996  3.1436
  193MPD1    H3 2942   2.714   1.861  15.962 -0.5796  2.2167 -0.9524
  193MPD1     N 2943   2.804   2.132  16.312  0.3016  0.7201 -0.9029
  193MPD1    H5 2944   2.894   2.085  16.313 -1.6847 -3.0478  0.5898
  193MPD1    N1 2945   2.363   2.100  16.110  0.0671 -0.0257 -0.4764
  193MPD1    H6 2946   2.304   2.021  16.084  1.8580 -1.3425 -0.5350
  193MPD1    H7 2947   2.333   2.139  16.198  0.5458 -0.2428 -0.2170
  194MPD1     C 2948   1.595   4.143  16.667  0.0602 -0.2863 -0.3723
  194MPD1    C1 2949   1.462   4.111  16.658  0.4247  0.2384  0.6190
  194MPD1    C2 2950   1.403   4.041  16.759 -0.4082  0.8425  0.7548
  194MPD1    C3 2951   1.482   3.970  16.850 -0.2129 -0.4542 -0.1385
  194MPD1    C4 2952   1.615   3.986  16.834  0.3960  0.1056  0.9964
  194MPD1    C5 2953   1.675   4.074  16.755  0.2037 -0.6727 -0.0643
  194MPD1     H 2954   1.297   4.026  16.747 -0.4227 -0.6313  2.8363
  194MPD1    H1 2955   1.671   3.934  16.911  0.3993  0.9853  1.5917
  194MPD1    H2 2956   1.655   4.213  16.609 -0.1183  0.9186  0.8789
  194MPD1    H3 2957   1.782   4.081  16.744  0.4409  0.8337  3.2450
  194MPD1     N 2958   1.427   3.883  16.951 -0.9244 -0.6497  0.4612
  194MPD1    H5 2959   1.492   3.833  17.010  0.8217 -0.7353 -1.5439
  194MPD1    N1 2960   1.381   4.186  16.575  0.4704 -1.1185 -0.3875
  194MPD1    H6 2961   1.294   4.133  16.571  0.4416 -1.0196 -0.9992
  194MPD1    H7 2962   1.417   4.199  16.481  0.7120  0.7051 -0.0422
  195MPD1     C 2963   2.425   1.513   0.932  0.3578  0.4975 -0.0919
  195MPD1    C1 2964   2.558   1.477   0.947 -0.1209 -0.4550  0.1191
  195MPD1    C2 2965   2.582   1.342   0.957  0.3897 -0.3837  0.5497
  195MPD1    C3 2966   2.489   1.245   0.922  0.0970 -0.6922  0.4137
  195MPD1    C4 2967   2.358   1.289   0.898 -0.1110  0.1915 -0.1120
  195MPD1    C5 2968   2.333   1.423   0.900 -0.0635 -1.2762  0.2280
  195MPD1     H 2969   2.681   1.307   0.985  0.3019 -0.5831  0.6089
  195MPD1    H1 2970   2.281   1.214   0.881  1.4957 -1.3909 -0.4483
  195MPD1    H2 2971   2.395   1.618   0.933  2.0449  0.9647  1.0223
  195MPD1    H3 2972   2.231   1.451   0.877  0.2387 -0.3902  0.0032
  195MPD1     N 2973   2.510   1.105   0.921 -0.2618  0.7396 -0.4318
  195MPD1    H5 2974   2.425   1.049   0.918  0.3316 -0.0748 -1.7704
  195MPD1    N1 2975   2.654   1.572   0.969 -0.0360  0.6819  0.4411
  195MPD1    H6 2976   2.621   1.660   0.929  1.0103  0.7731 -0.2224
  195MPD1    H7 2977   2.752   1.565   0.941 -0.1733 -0.4181  0.2463
  196MPD1     C 2978   2.364   4.653   0.804 -0.5074  0.3412  0.5441
  196MPD1    C1 2979   2.342   4.613   0.934  0.0505 -0.4402 -0.4741
  196MPD1    C2 2980   2.325   4.716   1.034 -0.1269  0.7817 -0.1980
  196MPD1    C3 2981   2.324   0.132   1.005 -0.0232 -0.3524 -0.0206
  196MPD1    C4 2982   2.354   0.167   0.874 -0.6633  0.4034  0.1260
  196MPD1    C5 2983   2.376   0.062   0.779  0.5452 -0.2305  0.5653
  196MPD1     H 2984   2.311   4.686   1.137 -1.6134 -1.8745 -1.1843
  196MPD1    H1 2985   2.355   0.269   0.838 -0.1053  0.1983 -0.4523
  196MPD1    H2 2986   2.373   4.584   0.721 -0.7460 -0.2496  1.0050
  196MPD1    H3 2987   2.407   0.099   0.682  0.8096  0.7227  1.0151
  196MPD1     N 2988   2.301   0.238   1.096  0.4406 -0.5003  0.2053
  196MPD1    H5 2989   2.298   0.328   1.049  4.2678 -0.7794 -0.5535
  196MPD1    N1 2990   2.326   4.480   0.965  0.3422 -0.3406  0.3299
  196MPD1    H6 2991   2.350   4.420   0.886  1.0038  0.5456 -0.1420
  196MPD1    H7 2992   2.389   4.446   1.038  1.0198  0.6838  0.2166
  197MPD1     C 2993   1.435   2.473  17.246 -0.6285  0.7933  0.2606
  197MPD1    C1 2994   1.527   2.458  17.345  0.0465 -0.1351  0.3942
  197MPD1    C2 2995   1.659   2.496  17.323 -0.0063  0.3137  0.4918
  197MPD1    C3 2996   1.696   2.537  17.202 -0.0142  0.8247 -0.9378
  197MPD1    C4 2997   1.599   2.544  17.105  0.5591  0.0947 -0.3115
  197MPD1    C5 2998   1.474   2.525  17.131 -0.5499  0.5191  0.3537
  197MPD1     H 2999   1.732   2.481  17.402 -0.3205  0.2272  0.7660
  197MPD1    H1 3000   1.638   2.580  17.010 -0.8501  2.2849 -0.0747
  197MPD1    H2 3001   1.332   2.446  17.266  0.0280 -0.6236  1.7747
  197MPD1    H3 3002   1.401   2.560  17.058 -1.2324 -2.2633 -0.2695
  197MPD1     N 3003   1.828   2.579  17.173  0.6504 -0.2280 -0.1357
  197MPD1    H5 3004   1.841   2.608  17.077 -0.6536  0.9303  0.0396
  197MPD1    N1 3005   1.481   2.412  17.470 -0.1956 -0.3534 -0.7393
  197MPD1    H6 3006   1.546   2.337  17.492 -0.9205 -1.4254 -2.2557
  197MPD1    H7 3007   1.393   2.362  17.463  1.0800 -2.6152 -0.5158
  198MPD1     C 3008   3.084   0.915  15.760 -0.1357 -0.1276  0.2120
  198MPD1    C1 3009   3.161   0.980  15.851 -0.4657 -0.0840 -0.0962
  198MPD1    C2 3010   3.287   1.023  15.809 -0.0951  0.3272 -0.6468
  198MPD1    C3 3011   3.331   1.003  15.682 -0.7429  0.0391 -0.7572
  198MPD1    C4 3012   3.249   0.932  15.593 -0.4915 -0.1736 -0.1985
  198MPD1    C5 3013   3.125   0.896  15.634 -0.1447  0.0639  0.2991
  198MPD1     H 3014   3.359   1.080  15.867  1.0698  0.0778 -1.8634
  198MPD1    H1 3015   3.277   0.921  15.489 -1.2992  1.9457 -0.6251
  198MPD1    H2 3016   2.987   0.877  15.790  0.4272 -2.3416 -0.7850
  198MPD1    H3 3017   3.056   0.840  15.571  1.7514 -0.9753 -0.8395
  198MPD1     N 3018   3.458   1.063  15.653 -0.4026  0.2437  0.2120
  198MPD1    H5 3019   3.522   1.097  15.725  0.4146 -0.6976 -0.0744
  198MPD1    N1 3020   3.124   0.980  15.989 -0.3699  0.4387  0.4500
  198MPD1    H6 3021   3.024   0.976  16.006 -0.8036 -1.0439 -2.4189
  198MPD1    H7 3022   3.161   1.047  16.056  0.6281 -0.8998  1.2387
  199MPD1     C 3023   1.226   1.049  10.035  0.1723 -0.4626  0.3051
  199MPD1    C1 3024   1.095   1.006  10.027 -0.2186 -0.1510  0.7071
  199MPD1    C2 3025   1.041   0.974   9.904 -0.0166 -0.0257  0.2263
  199MPD1    C3 3026   1.118   0.977   9.786  0.0518 -0.2657 -0.2488
  199MPD1    C4 3027   1.249   1.010   9.800 -0.2717 -0.1753 -0.5459
  199MPD1    C5 3028   1.305   1.049   9.926 -0.3171 -1.0250 -0.6335
  199MPD1     H 3029   0.945   0.924   9.897  0.4781 -1.2657  2.5411
  199MPD1    H1 3030   1.316   1.015   9.715 -1.4368  0.9632 -1.4081
  199MPD1    H2 3031   1.268   1.078  10.130  0.5005 -0.0808  0.0477
  199MPD1    H3 3032   1.407   1.084   9.935  0.0067 -2.4569  1.2958
  199MPD1     N 3033   1.072   0.946   9.655 -0.5626 -0.3451  0.0580
  199MPD1    H5 3034   1.137   0.959   9.578 -0.2110 -1.7230  0.1369
  199MPD1    N1 3035   1.010   1.021  10.138 -0.8234 -0.1285  0.2912
  199MPD1    H6 3036   0.923   0.968  10.128 -0.3029 -0.9355  0.0589
  199MPD1    H7 3037   1.052   1.011  10.231 -1.2269 -1.4782  0.3289
  200MPD1     C 3038   4.609   1.752  14.522 -0.5590 -0.7545  0.0857
  200MPD1    C1 3039   4.688   1.841  14.461 -0.4397  0.7470  0.3367
  200MPD1    C2 3040   0.033   1.930  14.542  0.5000  0.2225 -0.4270
  200MPD1    C3 3041   0.012   1.946  14.676  0.1474 -0.5321  0.1327
  200MPD1    C4 3042   4.649   1.855  14.735  0.3248  0.1969  0.9076
  200MPD1    C5 3043   4.596   1.755  14.658  0.0028  0.1531 -0.1041
  200MPD1     H 3044   0.111   1.990  14.496 -0.0263  1.2055 -0.0376
  200MPD1    H1 3045   4.626   1.846  14.841  2.4330  0.6058  1.3909
  200MPD1    H2 3046   4.557   1.676  14.465 -0.3340 -0.4961 -0.4598
  200MPD1    H3 3047   4.528   1.685  14.705  0.6022  0.0887  0.6568
  200MPD1     N 3048   0.082   2.053  14.736  0.4763  0.4133 -0.2067
  200MPD1    H5 3049   0.145   2.102  14.674  0.5434  0.9673  0.2991
  200MPD1    N1 3050   4.710   1.834  14.320  0.0124  0.0553 -0.1861
  200MPD1    H6 3051   4.638   1.786  14.267  2.0065  1.2774 -3.9729
  200MPD1    H7 3052   4.718   1.930  14.290  0.4798 -0.4174 -1.5702
  201MPD1     C 3053   2.130   1.470  12.904  0.6564 -0.4919  0.3385
  201MPD1    C1 3054   2.229   1.423  12.984 -0.9513 -0.3588 -0.1017
  201MPD1    C2 3055   2.274   1.296  12.961 -0.8590  0.4158  0.0167
  201MPD1    C3 3056   2.246   1.229  12.850 -0.4097  0.3469  0.1803
  201MPD1    C4 3057   2.159   1.288  12.759  0.4920 -0.6383 -0.5437
  201MPD1    C5 3058   2.100   1.402  12.787  0.6415  0.4370  0.5707
  201MPD1     H 3059   2.332   1.246  13.037  0.1338  0.2886 -0.8248
  201MPD1    H1 3060   2.124   1.226  12.678 -0.0027  0.2664 -1.0142
  201MPD1    H2 3061   2.076   1.561  12.929  0.7343 -0.5891  0.8558
  201MPD1    H3 3062   2.029   1.442  12.715 -1.0710 -3.1409  0.2989
  201MPD1     N 3063   2.283   1.092  12.845 -0.1204 -0.0572  0.1125
  201MPD1    H5 3064   2.325   1.055  12.930 -0.6273  0.0270  0.3993
  201MPD1    N1 3065   2.275   1.481  13.107  0.7743  0.0227  0.1873
  201MPD1    H6 3066   2.249   1.580  13.110 -0.9896 -0.3949 -1.1383
  201MPD1    H7 3067   2.374   1.481  13.128  0.7551  0.9530  0.2832
  202MPD1     C 3068   3.021   1.008  10.025  0.6500  0.3656  0.0038
  202MPD1    C1 3069   3.076   0.901   9.956  0.1220 -0.6076 -0.0545
  202MPD1    C2 3070   3.052   0.776  10.017 -0.0373  0.4006  0.0278
  202MPD1    C3 3071   2.988   0.767  10.143 -0.8971 -0.5379  0.6059
  202MPD1    C4 3072   2.946   0.882  10.203 -0.4502  0.7034  0.4883
  202MPD1    C5 3073   2.968   1.001  10.145 -0.6055 -0.3327 -0.0455
  202MPD1     H 3074   3.067   0.685   9.960  3.2643  0.5619  0.6679
  202MPD1    H1 3075   2.887   0.880  10.293  0.1447 -0.1844  0.8563
  202MPD1    H2 3076   3.030   1.108   9.984  2.3402 -0.2189 -1.0635
  202MPD1    H3 3077   2.929   1.086  10.199  0.0158 -1.0567  1.5229
  202MPD1     N 3078   2.949   0.648  10.204 -0.1476 -0.2215 -0.0130
  202MPD1    H5 3079   2.917   0.656  10.300 -0.8415 -1.5979 -0.1279
  202MPD1    N1 3080   3.083   0.906   9.816 -0.5509  0.2174 -0.7590
  202MPD1    H6 3081   3.126   0.995   9.790 -1.6048  1.4632  1.7125
  202MPD1    H7 3082   3.143   0.830   9.785  0.1383  1.1639 -1.7410
  203MPD1     C 3083   0.944   2.291  12.611 -0.0444  0.2440  0.1016
  203MPD1    C1 3084   0.995   2.223  12.506 -0.0638 -0.4419 -0.6167
  203MPD1    C2 3085   1.072   2.106  12.529 -0.5684  0.6212 -0.2178
  203MPD1    C3 3086   1.089   2.056  12.658  0.0288  0.0032  0.4253
  203MPD1    C4 3087   1.032   2.128  12.761 -0.0386 -0.5398  0.2899
  203MPD1    C5 3088   0.952   2.238  12.737 -0.1042 -0.0654 -0.2394
  203MPD1     H 3089   1.117   2.054  12.445 -1.7613  1.5656 -1.4376
  203MPD1    H1 3090   1.036   2.114  12.869 -1.0146 -1.4071  0.2066
  203MPD1    H2 3091   0.888   2.381  12.587  0.0276  0.4498  0.7164
  203MPD1    H3 3092   0.917   2.300  12.820 -0.5094 -0.9830  0.2779
  203MPD1     N 3093   1.146   1.929  12.667 -0.0547  0.1977  0.0801
  203MPD1    H5 3094   1.182   1.890  12.581 -0.6039 -0.8777  0.3334
  203MPD1    N1 3095   0.993   2.284  12.381 -0.0180  0.1326 -0.2175
  203MPD1    H6 3096   0.911   2.343  12.372  0.6140  1.1129  0.3357
  203MPD1    H7 3097   0.999   2.228  12.297  2.8435 -0.5266  0.4064
  204MPD1     C 3098   0.841   2.555   0.043  0.2397  0.1830  0.1924
  204MPD1    C1 3099   0.908   2.563  17.614  0.8144  0.3121 -0.7467
  204MPD1    C2 3100   0.845   2.518  17.494 -0.2444 -0.0730  0.1176
  204MPD1    C3 3101   0.720   2.463  17.510  0.1345 -0.1424 -0.1490
  204MPD1    C4 3102   0.654   2.457  17.631 -0.5367 -0.1105 -0.1057
  204MPD1    C5 3103   0.721   2.491   0.057  0.5328 -0.0693 -0.0532
  204MPD1     H 3104   0.888   2.515  17.395  2.7443  1.5900  1.3727
  204MPD1    H1 3105   0.551   2.423  17.635 -0.4552 -0.2075  1.2880
  204MPD1    H2 3106   0.894   2.582   0.133  1.2542  0.9031 -0.6281
  204MPD1    H3 3107   0.675   2.492   0.155  0.5474  1.6292 -0.0667
  204MPD1     N 3108   0.653   2.418  17.386 -0.1758 -0.2894 -0.6776
  204MPD1    H5 3109   0.706   2.416  17.300  4.1054  0.8470  1.9286
  204MPD1    N1 3110   1.020   2.643  17.604  0.0051 -0.0052 -0.0067
  204MPD1    H6 3111   1.077   2.655  17.688 -0.5584  1.3387  0.1794
  204MPD1    H7 3112   1.083   2.603  17.535 -1.0166 -1.0346 -0.3332
  205MPD1     C 3113   1.405   1.313  16.780  0.2067 -0.5637  0.9388
  205MPD1    C1 3114   1.360   1.425  16.843 -0.5121  0.5999 -0.7421
  205MPD1    C2 3115   1.223   1.435  16.871 -0.5222 -0.0014  0.0519
  205MPD1    C3 3116   1.134   1.341  16.819 -0.2772  0.7548 -0.0230
  205MPD1    C4 3117   1.188   1.236  16.756  0.4155 -0.7387 -0.0008
  205MPD1    C5 3118   1.320   1.213  16.742 -1.2322  0.4377 -0.2924
  205MPD1     H 3119   1.199   1.515  16.941  0.1389  1.7258 -1.6929
  205MPD1    H1 3120   1.120   1.169  16.704 -1.0556  0.9484 -0.2709
  205MPD1    H2 3121   1.508   1.308  16.748  0.0270 -1.6752  0.4965
  205MPD1    H3 3122   1.362   1.126  16.693  0.8887  1.2476  0.0554
  205MPD1     N 3123   0.995   1.359  16.838 -0.0327 -0.4790 -0.2840
  205MPD1    H5 3124   0.932   1.289  16.801 -0.1774 -1.0791  1.0851
  205MPD1    N1 3125   1.449   1.504  16.916 -0.1646 -0.1724 -0.0724
  205MPD1    H6 3126   1.541   1.508  16.872  0.2524  0.3400  0.8517
  205MPD1    H7 3127   1.422   1.599  16.941 -0.1862 -0.2866  0.3373
  206MPD1     C 3128   0.681   4.607  17.082 -0.5798  0.6184  0.0731
  206MPD1    C1 3129   0.800   4.587  17.025  0.5007  0.6259 -0.0401
  206MPD1    C2 3130   0.806   4.557  16.887  0.1068 -0.3233  0.4785
  206MPD1    C3 3131   0.699   4.575  16.808 -0.1662  0.0272  0.2114
  206MPD1    C4 3132   0.585   4.622  16.867  0.2461  0.4141 -0.4633
  206MPD1    C5 3133   0.571   4.627  17.005 -0.1829  0.4601  0.3365
  206MPD1     H 3134   0.904   4.538  16.844  0.0818  2.1805 -0.6915
  206MPD1    H1 3135   0.490   4.639  16.818 -0.2439 -0.7266  0.0700
  206MPD1    H2 3136   0.671   4.632  17.187 -0.6370  0.9750 -0.0189
  206MPD1    H3 3137   0.480   4.661  17.054  0.2531 -0.1392  1.5674
  206MPD1     N 3138   0.693   4.549  16.671  0.6184  0.6321 -0.4151
  206MPD1    H5 3139   0.609   4.579  16.622 -0.8283 -1.1352  0.9651
  206MPD1    N1 3140   0.914   4.568  17.109  0.5669 -0.3213 -0.0513
  206MPD1    H6 3141   0.907   4.631  17.189 -1.5877 -0.8446  0.1701
  206MPD1    H7 3142   0.996   4.611  17.066 -0.5980 -1.1296 -3.0629
  207MPD1     C 3143   3.769   1.629   9.584  0.0169  0.0548  0.9332
  207MPD1    C1 3144   3.813   1.746   9.539 -0.4545  0.0040 -0.5101
  207MPD1    C2 3145   3.881   1.833   9.627  0.4221 -0.5560  0.0008
  207MPD1    C3 3146   3.882   1.798   9.768  0.1123 -0.0096  0.2845
  207MPD1    C4 3147   3.822   1.684   9.806  0.4904 -0.4551  0.3143
  207MPD1    C5 3148   3.777   1.597   9.716  0.2018  0.1909 -0.6010
  207MPD1     H 3149   3.917   1.931   9.597 -0.2100 -0.3762 -0.1885
  207MPD1    H1 3150   3.812   1.647   9.907 -2.0691  0.3832  0.3726
  207MPD1    H2 3151   3.730   1.552   9.519  1.5981 -0.3585  0.4885
  207MPD1    H3 3152   3.744   1.500   9.751 -0.0282  0.5294  0.1373
  207MPD1     N 3153   3.932   1.876   9.873 -0.1010 -0.7160 -0.0466
  207MPD1    H5 3154   3.907   1.845   9.966 -0.4838 -0.6390 -0.1229
  207MPD1    N1 3155   3.800   1.778   9.405  0.0875 -0.7774 -0.2691
  207MPD1    H6 3156   3.765   1.874   9.405 -1.0588 -1.1908  0.7802
  207MPD1    H7 3157   3.731   1.714   9.366 -1.1875 -0.2180  1.0533
  208MPD1     C 3158   1.257   0.161  16.160  0.0011 -0.8026  0.0826
  208MPD1    C1 3159   1.131   0.195  16.210  0.5203  0.0196 -0.1022
  208MPD1    C2 3160   1.117   0.265  16.327 -0.3185 -0.0572  0.9611
  208MPD1    C3 3161   1.227   0.281  16.408  0.0596 -0.7570  0.3557
  208MPD1    C4 3162   1.353   0.248  16.358  0.0864  0.7025  0.4854
  208MPD1    C5 3163   1.365   0.194  16.239  0.6839  0.7182  0.8728
  208MPD1     H 3164   1.016   0.282  16.362 -1.5430 -2.9029 -1.2174
  208MPD1    H1 3165   1.447   0.253  16.411  1.4426  0.1498 -1.8514
  208MPD1    H2 3166   1.275   0.117  16.063  1.5625 -0.1478  0.0679
  208MPD1    H3 3167   1.465   0.172  16.205  0.2147  1.0911 -0.7365
  208MPD1     N 3168   1.209   0.342  16.531 -0.4816  0.5793  1.1078
  208MPD1    H5 3169   1.115   0.376  16.549  0.7164  3.6628  1.5822
  208MPD1    N1 3170   1.016   0.177  16.126 -0.0882  0.3644 -0.0288
  208MPD1    H6 3171   0.934   0.181  16.187 -0.5795 -0.6397 -0.6180
  208MPD1    H7 3172   1.006   0.086  16.083  1.5010 -0.8697  2.2384
  209MPD1     C 3173   3.333   1.046  10.414 -0.3491  0.5825  0.3745
  209MPD1    C1 3174   3.310   1.177  10.373  0.3166  0.2425  0.0093
  209MPD1    C2 3175   3.359   1.272  10.454 -1.1191  0.4586  0.5491
  209MPD1    C3 3176   3.409   1.255  10.583 -0.0546 -0.5245 -0.2773
  209MPD1    C4 3177   3.399   1.122  10.632  0.0951 -0.5847 -0.0004
  209MPD1    C5 3178   3.367   1.022  10.545 -0.4184 -0.1488 -0.3658
  209MPD1     H 3179   3.351   1.371  10.410 -0.3525  0.1613 -0.2425
  209MPD1    H1 3180   3.432   1.103  10.734  3.0311 -2.1205 -1.2639
  209MPD1    H2 3181   3.319   0.956  10.355 -1.1319 -0.1173  1.6107
  209MPD1    H3 3182   3.358   0.921  10.584 -1.2863  0.1215  0.1265
  209MPD1     N 3183   3.470   1.363  10.649 -0.5760 -0.9166  0.6694
  209MPD1    H5 3184   3.480   1.444  10.589 -1.2838 -1.2323  0.1270
  209MPD1    N1 3185   3.261   1.211  10.244  0.2033  0.4850 -0.2943
  209MPD1    H6 3186   3.214   1.302  10.244 -3.5367 -1.4671 -1.1181
  209MPD1    H7 3187   3.202   1.139  10.203  0.2048 -0.8728  2.1119
  210MPD1     C 3188   3.620   1.831  11.637 -0.1042 -0.3624  0.4007
  210MPD1    C1 3189   3.552   1.716  11.608 -0.0551 -0.2260  0.5348
  210MPD1    C2 3190   3.552   1.681  11.473  0.5303 -0.1198 -0.0365
  210MPD1    C3 3191   3.611   1.759  11.373  0.7067  0.2127 -0.5194
  210MPD1    C4 3192   3.664   1.881  11.405 -0.1718  1.2620  0.5405
  210MPD1    C5 3193   3.674   1.907  11.534 -0.2977 -0.3124 -0.4811
  210MPD1     H 3194   3.511   1.584  11.448  0.6513 -0.0090 -0.6641
  210MPD1    H1 3195   3.714   1.941  11.329 -0.3027  0.1259 -0.4426
  210MPD1    H2 3196   3.632   1.857  11.741  1.0170 -1.6879  0.5878
  210MPD1    H3 3197   3.726   2.001  11.549 -0.1733 -0.7782  2.0073
  210MPD1     N 3198   3.604   1.733  11.233 -0.6424 -0.5031  0.5007
  210MPD1    H5 3199   3.619   1.818  11.180 -0.3478 -1.9197 -1.6608
  210MPD1    N1 3200   3.502   1.631  11.706 -0.2963 -0.6467 -0.2563
  210MPD1    H6 3201   3.474   1.680  11.792  0.6875 -1.9499  0.8029
  210MPD1    H7 3202   3.417   1.589  11.670  0.2824 -1.4557 -0.6718
  211MPD1     C 3203   1.414   0.694  16.489  0.2723  0.3209 -0.2860
  211MPD1    C1 3204   1.382   0.755  16.605 -0.3631  0.2766  0.1341
  211MPD1    C2 3205   1.249   0.789  16.637  0.0193  0.0190  0.5380
  211MPD1    C3 3206   1.149   0.738  16.562  0.1052  0.0778 -0.8632
  211MPD1    C4 3207   1.182   0.676  16.449 -0.3603  0.7685 -0.1646
  211MPD1    C5 3208   1.313   0.651  16.410 -0.0390 -0.2306 -0.0599
  211MPD1     H 3209   1.233   0.821  16.740  1.8787  0.1845  0.7729
  211MPD1    H1 3210   1.106   0.645  16.378  2.2632 -1.1880 -2.1166
  211MPD1    H2 3211   1.513   0.658  16.463 -0.0280 -0.9646  0.3706
  211MPD1    H3 3212   1.339   0.598  16.319 -2.4441 -1.6533  0.0943
  211MPD1     N 3213   1.019   0.773  16.595  0.6481 -0.5334 -0.1699
  211MPD1    H5 3214   1.019   0.848  16.663 -1.7461 -0.5546 -0.1612
  211MPD1    N1 3215   1.481   0.804  16.694  0.3740 -0.0454  0.3094
  211MPD1    H6 3216   1.548   0.728  16.702 -0.5189 -1.1128 -2.4378
  211MPD1    H7 3217   1.452   0.827  16.789 -0.0288  0.5187  0.0534
  212MPD1     C 3218   0.403   4.293  16.483  0.6411 -0.1265 -0.1428
  212MPD1    C1 3219   0.287   4.329  16.543 -0.4065  1.0173 -0.2038
  212MPD1    C2 3220   0.232   4.237  16.634  0.6119  0.4802 -0.0945
  212MPD1    C3 3221   0.295   4.129  16.678 -1.0695 -0.1887  0.8359
  212MPD1    C4 3222   0.417   4.099  16.624  0.3326 -0.1946  0.1307
  212MPD1    C5 3223   0.469   4.183  16.528  0.0894 -0.4763  0.2628
  212MPD1     H 3224   0.130   4.258  16.665  0.4180  0.3164 -0.6324
  212MPD1    H1 3225   0.476   4.011  16.647  0.2705 -0.4819 -0.8186
  212MPD1    H2 3226   0.452   4.356  16.410 -1.5511  1.2461 -0.4161
  212MPD1    H3 3227   0.562   4.152  16.484  0.1323 -0.8943  0.6428
  212MPD1     N 3228   0.239   4.039  16.773 -0.1325 -0.3495  0.3179
  212MPD1    H5 3229   0.297   3.956  16.784  2.0097  1.1128  0.1049
  212MPD1    N1 3230   0.222   4.443  16.494  0.1944 -0.6509  0.3594
  212MPD1    H6 3231   0.296   4.509  16.469  2.1707 -3.7418 -1.9470
  212MPD1    H7 3232   0.164   4.490  16.563  2.2737  1.1934  0.8770
  213MPD1     C 3233   3.176   0.199  15.629  0.1034  0.0838 -0.1440
  213MPD1    C1 3234   3.145   0.120  15.522 -0.4891 -0.3189  0.0476
  213MPD1    C2 3235   3.049   0.170  15.437 -0.1520  0.1120  0.3501
  213MPD1    C3 3236   2.992   0.294  15.434  0.0185 -0.0372 -0.1651
  213MPD1    C4 3237   3.041   0.377  15.536  0.4286 -0.0240 -0.3495
  213MPD1    C5 3238   3.123   0.325  15.637  0.1329  0.5291 -0.0876
  213MPD1     H 3239   3.020   0.105  15.356  1.6903  0.2314 -0.4044
  213MPD1    H1 3240   2.991   0.472  15.543 -2.7467 -1.5952 -1.5911
  213MPD1    H2 3241   3.229   0.158  15.714  1.5497  2.3108  0.0261
  213MPD1    H3 3242   3.151   0.383  15.724  1.2540 -2.1029  1.3114
  213MPD1     N 3243   2.900   0.329  15.330 -0.0216  0.4802  0.0170
  213MPD1    H5 3244   2.871   0.251  15.272  2.6320  0.6170 -1.5079
  213MPD1    N1 3245   3.140   4.706  15.540  0.0658 -0.2282  0.0492
  213MPD1    H6 3246   3.107   4.651  15.461  1.2408 -0.6947 -0.1159
  213MPD1    H7 3247   3.228   4.664  15.569 -1.2779 -0.8702  3.1926
  214MPD1     C 3248   2.347   4.633  14.859 -0.4651 -0.4181 -0.0272
  214MPD1    C1 3249   2.400   4.710  14.760 -0.5734 -0.1740  1.1394
  214MPD1    C2 3250   2.495   0.077  14.805  0.1023 -0.8358  0.2489
  214MPD1    C3 3251   2.555   0.078  14.929  0.7602 -0.0564 -0.3615
  214MPD1    C4 3252   2.503   4.717  15.026  0.0073 -1.0031 -0.0452
  214MPD1    C5 3253   2.401   4.633  14.989 -0.4757 -0.5085  0.4524
  214MPD1     H 3254   2.536   0.147  14.733 -1.0172 -1.6335 -1.1682
  214MPD1    H1 3255   2.532   0.010  15.129 -1.1394  0.3956  0.0709
  214MPD1    H2 3256   2.255   4.578  14.844  0.2345 -2.1885  2.1493
  214MPD1    H3 3257   2.345   4.580  15.066 -1.7791 -3.3035 -2.3785
  214MPD1     N 3258   2.661   0.165  14.961 -0.0982  0.7147  0.1192
  214MPD1    H5 3259   2.687   0.161  15.059 -2.7568  0.6503  0.8136
  214MPD1    N1 3260   2.341   4.719  14.634 -0.2840 -0.2875  0.1014
  214MPD1    H6 3261   2.283   4.643  14.598  0.0092  0.0707 -1.1504
  214MPD1    H7 3262   2.404   0.030  14.560  0.0065 -0.6746  0.1759
  215MPD1     C 3263   2.685   0.989  11.702 -0.6596  0.2843 -0.7052
  215MPD1    C1 3264   2.622   1.085  11.775  0.3288  0.0184 -0.1764
  215MPD1    C2 3265   2.620   1.213  11.727 -0.5055 -0.5269  0.2326
  215MPD1    C3 3266   2.689   1.249  11.616  0.2050  0.1534  0.3841
  215MPD1    C4 3267   2.763   1.150  11.548  1.2050  0.0397  0.4300
  215MPD1    C5 3268   2.762   1.023  11.589 -0.1680  0.3485  0.2285
  215MPD1     H 3269   2.561   1.286  11.781 -0.8331  0.9084 -2.0439
  215MPD1    H1 3270   2.823   1.168  11.459 -0.7141 -0.3355 -0.9298
  215MPD1    H2 3271   2.677   0.882  11.719  0.4669  0.4710  0.9357
  215MPD1    H3 3272   2.812   0.942  11.538 -1.1461  0.2147 -0.5250
  215MPD1     N 3273   2.695   1.382  11.566  0.5062  0.0343  0.0068
  215MPD1    H5 3274   2.645   1.449  11.624  2.3983 -0.1498  1.8460
  215MPD1    N1 3275   2.547   1.036  11.878 -0.1674  0.1320  0.1768
  215MPD1    H6 3276   2.606   0.967  11.923 -0.0417  1.2311  1.6854
  215MPD1    H7 3277   2.545   1.110  11.947  0.3677 -0.6627  1.0402
  216MPD1     C 3278   0.420   2.849  16.850  0.5713 -0.1027  0.0620
  216MPD1    C1 3279   0.298   2.847  16.917 -0.2323 -0.0421 -0.4724
  216MPD1    C2 3280   0.309   2.826  17.060 -0.2652  0.2952 -0.4232
  216MPD1    C3 3281   0.423   2.789  17.117  0.0081 -0.9849 -0.4552
  216MPD1    C4 3282   0.543   2.782  17.038 -0.1185 -0.1924 -0.0246
  216MPD1    C5 3283   0.538   2.819  16.907 -0.1484  0.1815 -0.1422
  216MPD1     H 3284   0.222   2.843  17.123  0.1201 -1.4489  0.5937
  216MPD1    H1 3285   0.636   2.744  17.079  0.0648 -0.8743 -1.0604
  216MPD1    H2 3286   0.421   2.851  16.741  1.9047 -2.2588  0.0368
  216MPD1    H3 3287   0.629   2.802  16.849 -0.5223 -1.2018 -0.3195
  216MPD1     N 3288   0.426   2.773  17.256  0.1731  0.4832 -0.3896
  216MPD1    H5 3289   0.337   2.763  17.302  0.7357 -0.3018  0.5231
  216MPD1    N1 3290   0.175   2.888  16.859  0.0389 -0.1510  0.0452
  216MPD1    H6 3291   0.093   2.860  16.912 -1.8478  2.7208 -1.3665
  216MPD1    H7 3292   0.164   2.850  16.765 -2.4678 -1.2665  0.7832
  217MPD1     C 3293   0.620   4.061   8.933 -0.2523  0.1155  0.0012
  217MPD1    C1 3294   0.743   4.003   8.940  0.3103 -0.6469 -0.3487
  217MPD1    C2 3295   0.846   4.069   9.009 -0.5174 -0.3928 -0.2945
  217MPD1    C3 3296   0.829   4.198   9.045  0.0641  0.7148  0.7362
  217MPD1    C4 3297   0.705   4.262   9.031  0.6084  1.2408  0.0940
  217MPD1    C5 3298   0.606   4.187   8.978  0.4802  0.0966  0.3288
  217MPD1     H 3299   0.938   4.015   9.024  0.7757  1.0358 -3.1470
  217MPD1    H1 3300   0.681   4.365   9.056 -0.9065  0.7884  0.4651
  217MPD1    H2 3301   0.537   4.002   8.896 -0.4089 -0.9456  2.0939
  217MPD1    H3 3302   0.506   4.229   8.977  0.2196 -0.5309  0.1106
  217MPD1     N 3303   0.934   4.273   9.106  0.5449  0.1169 -0.3054
  217MPD1    H5 3304   0.909   4.367   9.135  2.1680  0.6152 -0.5027
  217MPD1    N1 3305   0.757   3.868   8.907  0.1315 -0.0267 -0.4881
  217MPD1    H6 3306   0.702   3.837   8.826  2.2406 -0.1563 -1.8602
  217MPD1    H7 3307   0.856   3.852   8.893  0.0912 -0.0151 -0.7825
  218MPD1     C 3308   2.469   1.436  13.367 -0.1412 -0.5114  0.5237
  218MPD1    C1 3309   2.488   1.322  13.290 -0.1342 -0.7861  0.4717
  218MPD1    C2 3310   2.565   1.333  13.173  0.4955  0.4190  0.0104
  218MPD1    C3 3311   2.601   1.455  13.123 -0.4102 -0.4530  0.0415
  218MPD1    C4 3312   2.576   1.573  13.197 -0.1882  0.2319  0.0431
  218MPD1    C5 3313   2.511   1.557  13.318 -0.7544 -0.1017  0.1624
  218MPD1     H 3314   2.593   1.250  13.108 -0.0216 -0.0608  0.3983
  218MPD1    H1 3315   2.613   1.672  13.175  0.2184 -1.2413 -5.7178
  218MPD1    H2 3316   2.427   1.433  13.466 -0.9746  0.0608  0.1888
  218MPD1    H3 3317   2.502   1.648  13.377 -0.1976 -0.9365  1.5197
  218MPD1     N 3318   2.667   1.448  12.995  0.5673  0.0373 -0.2077
  218MPD1    H5 3319   2.690   1.358  12.955 -2.3757 -0.8739  0.1256
  218MPD1    N1 3320   2.464   1.198  13.354  0.4211 -0.3744 -0.7273
  218MPD1    H6 3321   2.391   1.212  13.424 -0.9858  1.4331 -2.5217
  218MPD1    H7 3322   2.458   1.116  13.294 -1.0257 -0.1828 -0.8602
  219MPD1     C 3323   2.645   1.778  12.053  0.1887 -0.5084  0.2840
  219MPD1    C1 3324   2.766   1.825  12.101 -0.2008 -0.9892  0.0549
  219MPD1    C2 3325   2.800   1.795  12.227 -0.1526  0.2299  0.0457
  219MPD1    C3 3326   2.712   1.721  12.311 -0.5823  0.8432 -0.1370
  219MPD1    C4 3327   2.589   1.681  12.267 -0.3582 -0.3167  0.1488
  219MPD1    C5 3328   2.561   1.707  12.133  0.4754  0.1565  0.2241
  219MPD1     H 3329   2.900   1.824  12.260 -0.5526  2.0535 -0.3567
  219MPD1    H1 3330   2.523   1.609  12.314 -0.9308 -0.1553 -0.4137
  219MPD1    H2 3331   2.613   1.796  11.951 -1.1222 -1.1304  0.5776
  219MPD1    H3 3332   2.470   1.663  12.093  0.6139 -1.3926  1.6085
  219MPD1     N 3333   2.749   1.668  12.436  0.1699  0.6361 -0.1228
  219MPD1    H5 3334   2.688   1.596  12.471 -0.9236  0.6340 -2.0030
  219MPD1    N1 3335   2.846   1.903  12.021 -0.5868  0.4468  0.5788
  219MPD1    H6 3336   2.821   1.882  11.925  0.3510 -1.4999  0.7710
  219MPD1    H7 3337   2.943   1.887  12.050  0.1698  1.5262 -1.3806
  220MPD1     C 3338   2.552   1.983   9.747  0.9689  0.0273 -0.5585
  220MPD1    C1 3339   2.638   2.043   9.839 -0.6968 -0.5328 -0.3687
  220MPD1    C2 3340   2.699   1.961   9.932 -0.3463  0.5017  0.0686
  220MPD1    C3 3341   2.662   1.822   9.934 -0.0738 -0.4339  0.4861
  220MPD1    C4 3342   2.582   1.767   9.835 -0.9267 -0.7681 -0.3741
  220MPD1    C5 3343   2.537   1.847   9.739 -0.1412 -0.1368  0.2850
  220MPD1     H 3344   2.770   2.010   9.998 -1.6709  2.3015  0.1869
  220MPD1    H1 3345   2.559   1.662   9.821  0.6885 -1.0705 -0.7621
  220MPD1    H2 3346   2.502   2.043   9.672  2.0619 -1.1915 -2.2588
  220MPD1    H3 3347   2.484   1.808   9.653  1.6176  0.6095 -1.1244
  220MPD1     N 3348   2.729   1.743  10.032  0.5931 -0.1484 -0.7648
  220MPD1    H5 3349   2.796   1.794  10.089  0.3544 -0.7349  0.0339
  220MPD1    N1 3350   2.685   2.176   9.825 -0.2002  0.1034 -0.2183
  220MPD1    H6 3351   2.690   2.218   9.918  2.1621  0.6836 -0.6076
  220MPD1    H7 3352   2.623   2.239   9.774 -0.9477 -0.0805  0.4442
  221MPD1     C 3353   0.487   1.279  16.174  0.3262 -0.2301 -0.0749
  221MPD1    C1 3354   0.609   1.272  16.234 -0.8113  0.1606 -0.2434
  221MPD1    C2 3355   0.683   1.161  16.214 -0.1294  0.2156  0.0745
  221MPD1    C3 3356   0.629   1.057  16.146 -0.4424  0.3222  0.0655
  221MPD1    C4 3357   0.508   1.064  16.077  0.1052  0.7977  0.7680
  221MPD1    C5 3358   0.431   1.176  16.109 -0.3739 -0.4043  0.0675
  221MPD1     H 3359   0.781   1.159  16.259  0.4125 -0.2344 -1.1248
  221MPD1    H1 3360   0.471   0.974  16.030  2.4927  0.0757  0.2302
  221MPD1    H2 3361   0.427   1.364  16.204  1.6954  0.2161  1.3650
  221MPD1    H3 3362   0.329   1.172  16.074 -0.3793  0.6774 -0.0430
  221MPD1     N 3363   0.695   0.932  16.139 -0.1937 -0.1803 -0.0239
  221MPD1    H5 3364   0.641   0.859  16.095  0.4224 -0.0768 -0.9459
  221MPD1    N1 3365   0.676   1.391  16.292  0.0267  0.2176 -0.4595
  221MPD1    H6 3366   0.618   1.453  16.347  0.8327 -0.8601  1.5858
  221MPD1    H7 3367   0.771   1.371  16.320  0.2993  2.4203  0.1314
  222MPD1     C 3368   0.120   0.123  16.867  0.4016 -0.1865  0.3645
  222MPD1    C1 3369   0.048   0.152  16.984  0.0140 -0.2333  0.0847
  222MPD1    C2 3370   0.068   0.072  17.101  0.8651  0.2868 -0.5787
  222MPD1    C3 3371   0.140   4.673  17.091 -0.2164  0.0016  0.2725
  222MPD1    C4 3372   0.204   4.647  16.975  0.6855 -0.0120 -0.2880
  222MPD1    C5 3373   0.194   0.009  16.861  0.0668 -0.6131 -0.0860
  222MPD1     H 3374   0.020   0.104  17.193  0.0551 -0.3676 -0.7735
  222MPD1    H1 3375   0.268   4.560  16.966 -0.2321 -0.5985 -1.2230
  222MPD1    H2 3376   0.117   0.178  16.773  0.3632 -1.4202 -0.3596
  222MPD1    H3 3377   0.250   4.720  16.769 -1.7813 -0.3489 -1.2301
  222MPD1     N 3378   0.155   4.586  17.198 -0.0169  0.0713  0.3395
  222MPD1    H5 3379   0.212   4.503  17.192 -0.2299  0.0236 -1.0878
  222MPD1    N1 3380   4.714   0.281  16.993  0.3539 -0.1955  0.1557
  222MPD1    H6 3381   4.636   0.288  17.058  0.5035 -0.4325  0.3611
  222MPD1    H7 3382   4.679   0.316  16.904  0.2315  0.5047  0.4739
  223MPD1     C 3383   0.831   4.100  17.239 -0.0312 -0.0251 -0.7179
  223MPD1    C1 3384   0.795   4.228  17.204  0.0493 -0.6270 -0.1525
  223MPD1    C2 3385   0.677   4.280  17.250 -0.1017 -1.0095 -0.3542
  223MPD1    C3 3386   0.597   4.209  17.333  0.1827 -0.1780 -0.1570
  223MPD1    C4 3387   0.637   4.083  17.365 -0.5444  0.3465 -0.2270
  223MPD1    C5 3388   0.747   4.024  17.316 -0.0128  0.0844 -0.5052
  223MPD1     H 3389   0.639   4.377  17.221 -3.2789 -2.6188 -1.5321
  223MPD1    H1 3390   0.575   4.021  17.429 -0.6041  2.5963  1.8501
  223MPD1    H2 3391   0.908   4.044  17.187  0.7451  2.2177 -1.9606
  223MPD1    H3 3392   0.766   3.918  17.334  0.9494  0.2760 -0.3867
  223MPD1     N 3393   0.468   4.253  17.358  0.1712  0.0997 -0.8118
  223MPD1    H5 3394   0.454   4.345  17.318 -2.3625  1.2553  2.6687
  223MPD1    N1 3395   0.866   4.290  17.098  0.1977 -0.4554 -0.1122
  223MPD1    H6 3396   0.867   4.392  17.108 -2.5072 -0.2332 -2.0019
  223MPD1    H7 3397   0.965   4.272  17.106  0.1548 -0.6203  0.0516
  224MPD1     C 3398   1.049   4.625   9.044 -0.1823 -0.3099 -0.4844
  224MPD1    C1 3399   0.933   4.640   9.118  0.0194  0.2204  0.8529
  224MPD1    C2 3400   0.945   4.717   9.237 -0.1844 -0.5478  0.9330
  224MPD1    C3 3401   1.059   0.058   9.275  0.0837  0.5296 -0.3905
  224MPD1    C4 3402   1.168   0.048   9.187  0.8576  0.8884  0.2735
  224MPD1    C5 3403   1.158   4.699   9.069  0.6083  0.0111 -0.1249
  224MPD1     H 3404   0.858   0.017   9.298 -0.9314  0.9052 -0.6566
  224MPD1    H1 3405   1.257   0.107   9.207  1.4201 -0.2673  1.1742
  224MPD1    H2 3406   1.049   4.552   8.963  0.9024  0.0970 -0.8366
  224MPD1    H3 3407   1.239   4.692   8.998 -0.5890 -0.8624 -1.4059
  224MPD1     N 3408   1.083   0.113   9.403 -0.4642 -0.2288  0.3655
  224MPD1    H5 3409   1.177   0.144   9.424  0.2922  0.4630 -3.9992
  224MPD1    N1 3410   0.822   4.563   9.098  0.0178  0.4187  0.0992
  224MPD1    H6 3411   0.748   4.621   9.137 -0.3192 -0.0131  0.1024
  224MPD1    H7 3412   0.808   4.555   8.997 -1.7063  0.8826  0.2953
  225MPD1     C 3413   2.993   2.878  12.861 -0.4778 -0.3993  0.7004
  225MPD1    C1 3414   2.901   2.781  12.885  0.2084  0.5804  0.4143
  225MPD1    C2 3415   2.792   2.759  12.806  0.5774  0.3515  0.1714
  225MPD1    C3 3416   2.786   2.820  12.683 -0.0550 -0.6108 -0.0160
  225MPD1    C4 3417   2.888   2.910  12.652 -0.2726 -0.8124  0.1908
  225MPD1    C5 3418   2.990   2.941  12.733 -0.3607 -0.5500  0.5394
  225MPD1     H 3419   2.728   2.682  12.848 -0.7813  2.5108  2.1050
  225MPD1    H1 3420   2.907   2.939  12.549  2.6819 -0.2553  0.8914
  225MPD1    H2 3421   3.077   2.909  12.923 -0.4610 -2.0105  1.4857
  225MPD1    H3 3422   3.068   3.011  12.706 -0.4814 -0.0150  1.5597
  225MPD1     N 3423   2.690   2.783  12.588 -0.3496 -0.1192 -0.4013
  225MPD1    H5 3424   2.691   2.830  12.498  1.3572  0.5436 -0.0300
  225MPD1    N1 3425   2.911   2.712  13.002  0.1331  0.6748 -0.1729
  225MPD1    H6 3426   2.872   2.619  12.986  0.3372  0.7381 -1.0173
  225MPD1    H7 3427   2.847   2.760  13.065 -1.1885  0.0168 -1.0083
  226MPD1     C 3428   0.356   0.736   9.753 -0.2163 -0.2556  0.0778
  226MPD1    C1 3429   0.465   0.681   9.822  0.6872 -0.0459 -0.6774
  226MPD1    C2 3430   0.577   0.654   9.751  0.4928 -0.7392 -0.5288
  226MPD1    C3 3431   0.586   0.661   9.616  0.3978 -0.0138  0.0628
  226MPD1    C4 3432   0.478   0.719   9.548 -0.1355  0.4087 -0.2944
  226MPD1    C5 3433   0.365   0.756   9.617 -0.2908  0.0266  0.1916
  226MPD1     H 3434   0.662   0.614   9.806 -0.3936 -1.9261 -0.0239
  226MPD1    H1 3435   0.485   0.737   9.441  0.8350  1.4990 -0.0455
  226MPD1    H2 3436   0.266   0.773   9.801 -0.2852 -0.6197  0.2279
  226MPD1    H3 3437   0.285   0.807   9.564  0.2530  0.1502 -0.5178
  226MPD1     N 3438   0.708   0.621   9.553 -0.0130 -0.4440  0.0380
  226MPD1    H5 3439   0.782   0.582   9.609  0.1161  1.1906  1.0018
  226MPD1    N1 3440   0.459   0.695   9.964  0.3389  0.4658 -0.0450
  226MPD1    H6 3441   0.530   0.652  10.023  0.7371  1.3785  0.1356
  226MPD1    H7 3442   0.370   0.664  10.002  1.5886 -2.9909  0.0761
  227MPD1     C 3443   0.749   0.092   8.752  0.8234  0.1796  0.3377
  227MPD1    C1 3444   0.679   0.091   8.871  0.3802  0.5878  0.0776
  227MPD1    C2 3445   0.721   0.175   8.973  0.4208 -0.3959  0.0879
  227MPD1    C3 3446   0.835   0.252   8.970  0.2060  0.1467  0.1554
  227MPD1    C4 3447   0.915   0.245   8.855 -0.3530  0.3903  0.4145
  227MPD1    C5 3448   0.870   0.166   8.746  0.2982 -0.6556  0.5281
  227MPD1     H 3449   0.655   0.180   9.059 -0.2522 -0.9438 -0.4029
  227MPD1    H1 3450   1.009   0.298   8.839 -0.7074  0.7087 -0.5878
  227MPD1    H2 3451   0.711   0.043   8.663  0.0284  1.1156  0.1717
  227MPD1    H3 3452   0.934   0.151   8.660 -0.1329 -2.1919  0.4838
  227MPD1     N 3453   0.874   0.329   9.084 -1.0238 -0.0420 -0.2653
  227MPD1    H5 3454   0.805   0.313   9.157 -0.9698 -5.3574 -1.3352
  227MPD1    N1 3455   0.556   0.027   8.884 -0.4628 -0.8337 -0.1919
  227MPD1    H6 3456   0.567   4.660   8.835  0.4147  0.1459 -1.7712
  227MPD1    H7 3457   0.543   0.005   8.982  0.0915 -0.9545 -0.1466
  228MPD1     C 3458   0.783   0.291  13.163  0.3365 -0.7365  0.3130
  228MPD1    C1 3459   0.791   0.238  13.039 -0.1552  0.0514 -0.2375
  228MPD1    C2 3460   0.683   0.193  12.974  0.6524  0.6055 -0.2085
  228MPD1    C3 3461   0.563   0.189  13.041 -0.4930  0.4924 -0.0637
  228MPD1    C4 3462   0.544   0.243  13.166 -0.3926 -0.0561  0.1497
  228MPD1    C5 3463   0.657   0.281  13.226 -0.5123 -0.3462  0.6253
  228MPD1     H 3464   0.691   0.154  12.874  0.7534  1.5964 -0.5831
  228MPD1    H1 3465   0.452   0.241  13.223 -0.8695 -2.0799 -0.7039
  228MPD1    H2 3466   0.870   0.315  13.223  0.3642  2.5913 -1.0203
  228MPD1    H3 3467   0.647   0.321  13.326  0.9021 -1.9871  1.4157
  228MPD1     N 3468   0.452   0.148  12.966 -0.6458  0.1228  0.1409
  228MPD1    H5 3469   0.467   0.146  12.866  2.4916  0.8625  0.6072
  228MPD1    N1 3470   0.916   0.244  12.968 -0.6336  0.1122  0.0924
  228MPD1    H6 3471   0.994   0.225  13.031 -0.8633 -0.0853  0.3156
  228MPD1    H7 3472   0.926   0.175  12.894 -0.3961  1.1613 -0.8386
  229MPD1     C 3473   3.672   3.812  14.640  0.1710 -1.0060 -0.1429
  229MPD1    C1 3474   3.764   3.841  14.737  0.1134 -0.4080 -0.3205
  229MPD1    C2 3475   3.796   3.740  14.830  0.4167  0.3875  0.2844
  229MPD1    C3 3476   3.759   3.614  14.808 -0.3530  0.2138 -0.1441
  229MPD1    C4 3477   3.685   3.584  14.699  0.2395 -0.5329  0.6223
  229MPD1    C5 3478   3.630   3.678  14.615  0.2742  0.2151  0.0125
  229MPD1     H 3479   3.856   3.770  14.915  0.2250  1.7812 -0.0771
  229MPD1    H1 3480   3.671   3.479  14.674 -0.3873  0.4025 -3.0219
  229MPD1    H2 3481   3.636   3.894  14.579 -0.2035  0.0450  1.4826
  229MPD1    H3 3482   3.564   3.646  14.535  1.6737  1.8638 -1.7961
  229MPD1     N 3483   3.803   3.501  14.890  0.0184  0.3634 -0.1799
  229MPD1    H5 3484   3.777   3.408  14.859 -2.3679  0.9868 -0.1159
  229MPD1    N1 3485   3.803   3.966  14.765  0.1407 -0.0524 -0.4384
  229MPD1    H6 3486   3.796   4.019  14.678 -3.4317  2.4285  1.3906
  229MPD1    H7 3487   3.894   3.980  14.809 -0.1594 -0.4900  0.3079
  230MPD1     C 3488   4.081   3.188  15.922  0.5212 -0.3254 -0.3035
  230MPD1    C1 3489   4.154   3.114  15.831  0.0102 -0.3610  0.2403
  230MPD1    C2 3490   4.135   3.144  15.699 -0.3501 -0.1364  0.4494
  230MPD1    C3 3491   4.033   3.219  15.650  0.3162  0.5221  0.6315
  230MPD1    C4 3492   3.934   3.262  15.734 -0.0322 -0.6751 -0.1917
  230MPD1    C5 3493   3.970   3.258  15.869 -0.5444 -0.1866 -0.4099
  230MPD1     H 3494   4.205   3.099  15.629  0.4206  0.0358  1.1189
  230MPD1    H1 3495   3.839   3.307  15.707 -0.5484 -0.4284  2.0796
  230MPD1    H2 3496   4.103   3.189  16.028  1.0999 -1.6053 -0.4082
  230MPD1    H3 3497   3.904   3.316  15.933 -2.6572 -0.0869 -2.6800
  230MPD1     N 3498   4.022   3.240  15.510 -0.0856 -0.1514  0.3277
  230MPD1    H5 3499   4.091   3.197  15.450 -0.4521  0.9912 -0.9245
  230MPD1    N1 3500   4.275   3.053  15.877  0.7791  0.0401 -0.1120
  230MPD1    H6 3501   4.272   3.006  15.967  0.5064 -0.4792 -0.3936
  230MPD1    H7 3502   4.310   2.981  15.814 -3.8254  0.4696 -3.2284
  231MPD1     C 3503   2.406   0.489  15.160  0.1389  0.0055 -0.3629
  231MPD1    C1 3504   2.387   0.405  15.053  0.1175 -0.4442  0.5496
  231MPD1    C2 3505   2.423   0.448  14.927  0.6409  0.1893 -0.3150
  231MPD1    C3 3506   2.520   0.554  14.928  0.4996  0.0353 -0.2898
  231MPD1    C4 3507   2.553   0.624  15.042  0.1077 -0.1376 -0.3835
  231MPD1    C5 3508   2.503   0.588  15.165  0.8904  0.6651 -0.4834
  231MPD1     H 3509   2.400   0.396  14.835  1.4836  2.1586 -1.6311
  231MPD1    H1 3510   2.631   0.700  15.049  0.5201 -0.6087  0.1411
  231MPD1    H2 3511   2.352   0.475  15.252  0.1622 -0.0937 -0.3643
  231MPD1    H3 3512   2.532   0.639  15.257  0.2476 -0.0972  0.1419
  231MPD1     N 3513   2.578   0.586  14.801 -0.2444 -0.2654 -0.3249
  231MPD1    H5 3514   2.550   0.541  14.714  1.6102  0.0508 -1.0693
  231MPD1    N1 3515   2.300   0.295  15.086 -0.7812  0.3613  0.0066
  231MPD1    H6 3516   2.316   0.246  15.174  0.4234 -0.9269 -0.9322
  231MPD1    H7 3517   2.304   0.225  15.012  1.6611 -1.6132  2.0372
  232MPD1     C 3518   4.112   2.031  17.270  0.0657 -0.3751  0.2293
  232MPD1    C1 3519   4.105   2.043  17.408 -0.0136  0.3832 -0.1586
  232MPD1    C2 3520   4.004   2.116  17.460 -0.0244 -0.0832  0.1624
  232MPD1    C3 3521   3.916   2.197  17.385 -0.1734 -0.3189 -0.2065
  232MPD1    C4 3522   3.937   2.199  17.249 -0.3947  0.2708  1.3186
  232MPD1    C5 3523   4.035   2.119  17.192 -0.0852 -0.6341 -0.8389
  232MPD1     H 3524   3.985   2.110  17.567  0.6514 -1.6080  0.2014
  232MPD1    H1 3525   3.878   2.260  17.182  2.4090 -0.4789 -1.8233
  232MPD1    H2 3526   4.188   1.963  17.234  1.5686  0.5985  1.5124
  232MPD1    H3 3527   4.052   2.115  17.085  1.5355 -3.4274 -0.4757
  232MPD1     N 3528   3.812   2.277  17.442  0.2661 -0.0437 -0.0741
  232MPD1    H5 3529   3.811   2.264  17.543  0.6975 -2.1257 -0.3378
  232MPD1    N1 3530   4.164   1.944  17.483 -0.2727  0.1685  0.6913
  232MPD1    H6 3531   4.178   1.968  17.582 -2.4289  2.5769  0.4194
  232MPD1    H7 3532   4.254   1.922  17.440 -0.6837 -1.3305  0.6236
  233MPD1     C 3533   4.666   0.892   0.645  0.4947 -0.0189  0.3327
  233MPD1    C1 3534   4.710   0.980   0.550  0.0457 -0.1976 -0.0837
  233MPD1    C2 3535   0.113   1.031   0.553  0.1447 -0.5953 -0.9585
  233MPD1    C3 3536   0.210   0.981   0.628  0.4470 -0.1725 -0.2534
  233MPD1    C4 3537   0.176   0.878   0.713  0.2057 -0.5698  0.0045
  233MPD1    C5 3538   0.045   0.844   0.726 -0.5455 -0.9506 -0.8652
  233MPD1     H 3539   0.142   1.109   0.483  0.2849  2.0926  2.0889
  233MPD1    H1 3540   0.248   0.837   0.782 -2.6017  0.2695  3.4329
  233MPD1    H2 3541   4.566   0.854   0.663 -0.2500  1.6580 -0.3113
  233MPD1    H3 3542   0.008   0.774   0.800 -2.3924  2.1226  1.1022
  233MPD1     N 3543   0.338   1.036   0.629 -0.6689  0.1245  0.0000
  233MPD1    H5 3544   0.399   0.997   0.700  0.2655 -0.9368 -1.3874
  233MPD1    N1 3545   4.615   1.048   0.472 -0.0010 -0.3282 -0.0386
  233MPD1    H6 3546   4.652   1.097   0.391  0.3171 -1.9078 -0.8611
  233MPD1    H7 3547   4.542   0.978   0.454  0.2211 -1.5667  4.0086
  234MPD1     C 3548   2.773   4.460  10.021  0.1017  1.2022 -0.7892
  234MPD1    C1 3549   2.724   4.587  10.014 -0.1103  0.5559 -0.3732
  234MPD1    C2 3550   2.602   4.612   9.961  0.1136  0.0258  0.4580
  234MPD1    C3 3551   2.542   4.511   9.889  0.9431 -0.5300 -0.1002
  234MPD1    C4 3552   2.588   4.376   9.889  0.2037  0.0684  0.0122
  234MPD1    C5 3553   2.705   4.349   9.959  0.2223  0.5109  0.0311
  234MPD1     H 3554   2.561   4.712   9.953  0.9343  0.3389  0.1605
  234MPD1    H1 3555   2.536   4.301   9.830  0.5546 -0.4608  0.3794
  234MPD1    H2 3556   2.863   4.433  10.074 -1.1509  2.4915  1.9858
  234MPD1    H3 3557   2.750   4.251   9.965  0.7642  0.7193 -0.6547
  234MPD1     N 3558   2.432   4.550   9.817  0.0626  0.0953  0.3546
  234MPD1    H5 3559   2.397   4.644   9.834  2.8697  1.3037 -0.5674
  234MPD1    N1 3560   2.775   4.687  10.099 -0.0236  0.6521 -0.4595
  234MPD1    H6 3561   2.750   0.052  10.052 -1.1164 -1.0940 -3.0880
  234MPD1    H7 3562   2.875   4.692  10.115 -0.1172  0.4663  0.2311
  235MPD1     C 3563   4.193   3.247   8.164 -0.3844 -0.0110  0.2195
  235MPD1    C1 3564   4.096   3.301   8.245  0.8115  0.0639 -0.5702
  235MPD1    C2 3565   4.122   3.374   8.358 -0.3113  0.1270  0.2105
  235MPD1    C3 3566   4.254   3.385   8.408  0.0856  0.1440 -0.5717
  235MPD1    C4 3567   4.353   3.329   8.328  0.0224 -0.6730  0.8604
  235MPD1    C5 3568   4.323   3.277   8.204  0.1755 -0.4229  0.0039
  235MPD1     H 3569   4.040   3.421   8.411 -0.0481 -0.5888  1.2537
  235MPD1    H1 3570   4.458   3.339   8.352  0.3300  3.2826 -2.1444
  235MPD1    H2 3571   4.175   3.194   8.071 -0.0067  1.2427 -0.5658
  235MPD1    H3 3572   4.399   3.229   8.145  1.0809 -0.8834  1.5438
  235MPD1     N 3573   4.285   3.459   8.529  0.0348  0.2111  0.0177
  235MPD1    H5 3574   4.210   3.505   8.579 -0.0222 -0.4410  0.5412
  235MPD1    N1 3575   3.959   3.282   8.205  0.1140  0.4557 -0.3776
  235MPD1    H6 3576   3.933   3.186   8.186 -1.3258  0.4747  1.5792
  235MPD1    H7 3577   3.894   3.324   8.270 -0.1605  1.7008 -1.4469
  236MPD1     C 3578   3.475   3.564   9.194 -0.3709 -0.3477 -0.0532
  236MPD1    C1 3579   3.550   3.457   9.226  0.3228  0.4728  0.4461
  236MPD1    C2 3580   3.520   3.399   9.352  0.2339 -0.2604 -0.2636
  236MPD1    C3 3581   3.432   3.460   9.437 -0.5490  0.1486 -0.8719
  236MPD1    C4 3582   3.376   3.581   9.404 -0.0701  0.1134  0.0318
  236MPD1    C5 3583   3.396   3.625   9.286  0.4935 -0.0424 -0.2606
  236MPD1     H 3584   3.575   3.314   9.391  0.0126 -0.6026 -0.7002
  236MPD1    H1 3585   3.317   3.643   9.471  0.9892  0.1469  0.9294
  236MPD1    H2 3586   3.489   3.609   9.097 -1.1782  0.0474  0.0161
  236MPD1    H3 3587   3.348   3.719   9.262 -1.1461 -0.7079  0.4306
  236MPD1     N 3588   3.413   3.422   9.569 -0.1058 -0.0302  0.4101
  236MPD1    H5 3589   3.363   3.482   9.634 -0.3066  0.6896 -0.4147
  236MPD1    N1 3590   3.617   3.377   9.128 -0.0805 -0.4976 -0.1089
  236MPD1    H6 3591   3.692   3.321   9.168 -0.4668 -0.7274  0.2965
  236MPD1    H7 3592   3.649   3.419   9.042 -0.2906 -0.8723 -0.3701
  237MPD1     C 3593   2.907   1.243  14.619 -0.2780 -0.0122 -0.4487
  237MPD1    C1 3594   2.893   1.371  14.568 -0.6165  0.2498  0.6013
  237MPD1    C2 3595   2.782   1.446  14.610  0.6595 -0.3221  0.0651
  237MPD1    C3 3596   2.711   1.411  14.724 -0.7303  0.3732  1.2841
  237MPD1    C4 3597   2.743   1.293  14.784  0.2165 -0.4010 -0.3257
  237MPD1    C5 3598   2.833   1.209  14.727  0.6384 -0.6317  0.4620
  237MPD1     H 3599   2.757   1.536  14.553  0.9711  0.4494  1.1444
  237MPD1    H1 3600   2.681   1.248  14.861  0.9544  0.4856  0.7876
  237MPD1    H2 3601   2.978   1.169  14.584  0.9229  2.1900 -2.7087
  237MPD1    H3 3602   2.832   1.110  14.772  1.6482 -0.7617  0.1856
  237MPD1     N 3603   2.601   1.482  14.774 -0.1080 -0.3130  0.2403
  237MPD1    H5 3604   2.553   1.442  14.853 -1.0317  0.8254  0.2534
  237MPD1    N1 3605   2.963   1.405  14.453 -0.3733  0.0362  0.0645
  237MPD1    H6 3606   2.977   1.505  14.443  0.2978 -0.1283 -0.6505
  237MPD1    H7 3607   3.053   1.360  14.469  0.1367  0.6061 -1.1740
  238MPD1     C 3608   4.303   1.094  15.632  0.5688 -0.0710  0.1974
  238MPD1    C1 3609   4.165   1.081  15.626 -0.1463 -0.3479 -0.4443
  238MPD1    C2 3610   4.117   0.988  15.535 -0.3788  0.1443 -0.4538
  238MPD1    C3 3611   4.194   0.940  15.433  1.2021 -0.0389  0.0483
  238MPD1    C4 3612   4.332   0.955  15.447  0.0808 -0.1671  0.1085
  238MPD1    C5 3613   4.385   1.025  15.547  0.5645  0.2318  0.2597
  238MPD1     H 3614   4.009   0.987  15.530 -0.4442  0.4133  0.9656
  238MPD1    H1 3615   4.402   0.909  15.377 -1.9745 -3.5268  0.3134
  238MPD1    H2 3616   4.346   1.168  15.698  4.0239 -1.5987 -0.3414
  238MPD1    H3 3617   4.492   1.027  15.564  0.7072  0.0598 -0.6598
  238MPD1     N 3618   4.139   0.864  15.324  0.5512 -0.1352 -0.3185
  238MPD1    H5 3619   4.195   0.841  15.243 -2.0815 -2.7840 -1.3915
  238MPD1    N1 3620   4.083   1.139  15.726 -0.3437  0.3611 -0.0985
  238MPD1    H6 3621   3.999   1.088  15.753 -1.4368  0.5555 -3.2256
  238MPD1    H7 3622   4.138   1.171  15.805 -0.1020  0.2495 -0.2220
  239MPD1     C 3623   4.454   2.277  14.809 -0.0907  0.1776 -0.5076
  239MPD1    C1 3624   4.350   2.192  14.840  0.3637  0.3606 -0.6407
  239MPD1    C2 3625   4.316   2.085  14.751 -0.2009  0.5196  0.0532
  239MPD1    C3 3626   4.385   2.061  14.631 -0.6857 -0.0099 -0.1531
  239MPD1    C4 3627   4.491   2.150  14.604  0.0380 -0.1949 -0.2283
  239MPD1    C5 3628   4.526   2.248  14.698  0.1059  0.3487 -0.1062
  239MPD1     H 3629   4.231   2.021  14.775 -0.1383  0.6226  0.5424
  239MPD1    H1 3630   4.536   2.163  14.507  1.5136 -1.9485  0.2224
  239MPD1    H2 3631   4.490   2.359  14.870  1.3520  0.2048 -1.3852
  239MPD1    H3 3632   4.615   2.306  14.676  0.5564 -0.0886  0.5865
  239MPD1     N 3633   4.336   1.969  14.532 -0.2815 -0.1610 -0.3934
  239MPD1    H5 3634   4.392   1.958  14.449  0.4824  1.4439 -0.0902
  239MPD1    N1 3635   4.288   2.215  14.965 -0.5761 -0.2634  0.1502
  239MPD1    H6 3636   4.194   2.176  14.976 -0.2631 -0.6810  1.3944
  239MPD1    H7 3637   4.304   2.310  14.997 -2.4619  0.5892 -1.4439
  240MPD1     C 3638   4.367   1.436  14.550  0.1795  0.6511  0.3965
  240MPD1    C1 3639   4.276   1.471  14.651 -0.1281  0.3608  0.0176
  240MPD1    C2 3640   4.155   1.404  14.655 -0.3720  0.6913  0.1060
  240MPD1    C3 3641   4.120   1.312  14.559 -0.0765 -0.7427  0.7326
  240MPD1    C4 3642   4.207   1.276  14.458  1.0360  0.2787  0.4209
  240MPD1    C5 3643   4.327   1.346  14.453 -0.0386  0.4079 -0.1590
  240MPD1     H 3644   4.092   1.417  14.743  0.6388 -0.4440  0.9962
  240MPD1    H1 3645   4.193   1.199  14.383 -1.2963  1.1367 -0.0056
  240MPD1    H2 3646   4.473   1.459  14.551  0.3856 -0.2297 -2.5588
  240MPD1    H3 3647   4.401   1.306  14.385 -0.1332 -0.8282  0.4686
  240MPD1     N 3648   3.991   1.264  14.563  0.1728  0.8265 -0.0319
  240MPD1    H5 3649   3.931   1.300  14.636 -0.5654 -0.4028 -0.0285
  240MPD1    N1 3650   4.315   1.548  14.763 -0.4600 -0.1362  0.2407
  240MPD1    H6 3651   4.376   1.623  14.732 -0.7295 -0.0824 -0.1560
  240MPD1    H7 3652   4.228   1.587  14.800  0.8717  1.0954  2.0857
  241MPD1     C 3653   3.494   1.297  15.237  0.2462 -0.3266  0.4211
  241MPD1    C1 3654   3.432   1.198  15.165 -0.4703  0.1071  0.3346
  241MPD1    C2 3655   3.442   1.200  15.027  0.1156  0.1013  0.3794
  241MPD1    C3 3656   3.548   1.269  14.966  0.1130 -0.0225  0.3247
  241MPD1    C4 3657   3.613   1.366  15.042  0.2773 -0.0153 -0.7177
  241MPD1    C5 3658   3.578   1.389  15.177  0.2113  0.1581 -0.2190
  241MPD1     H 3659   3.367   1.148  14.970  0.0015 -0.6274  1.1982
  241MPD1    H1 3660   3.701   1.415  15.001  1.1775  1.0964  2.5066
  241MPD1    H2 3661   3.481   1.310  15.344 -0.3144 -1.9228  0.5508
  241MPD1    H3 3662   3.636   1.470  15.218 -0.2607  0.9984 -1.1806
  241MPD1     N 3663   3.596   1.237  14.835 -0.1224 -0.1597 -0.0276
  241MPD1    H5 3664   3.670   1.300  14.805  0.7460 -0.9190  0.5113
  241MPD1    N1 3665   3.333   1.120  15.223  0.1777  0.3873 -0.1046
  241MPD1    H6 3666   3.324   1.034  15.170 -0.6030  0.3543  0.0819
  241MPD1    H7 3667   3.353   1.093  15.319 -0.2036 -0.8245 -0.3603
  242MPD1     C 3668   3.508   0.292  15.653  0.0672  0.4300  0.3649
  242MPD1    C1 3669   3.583   0.211  15.736  0.1021  0.0508  0.4641
  242MPD1    C2 3670   3.626   0.090  15.686 -0.2338  0.3965  0.0012
  242MPD1    C3 3671   3.608   0.056  15.549 -0.6110  0.3581 -0.6698
  242MPD1    C4 3672   3.539   0.145  15.468  0.1630 -0.1562 -0.3639
  242MPD1    C5 3673   3.496   0.258  15.525  0.1233 -0.3817  0.3938
  242MPD1     H 3674   3.676   0.015  15.745  0.9417  1.1733 -0.0052
  242MPD1    H1 3675   3.500   0.115  15.371 -1.5249  2.1184 -0.3788
  242MPD1    H2 3676   3.473   0.389  15.684 -2.4024  0.1555 -1.5918
  242MPD1    H3 3677   3.430   0.322  15.467 -0.1439 -1.1733 -0.1664
  242MPD1     N 3678   3.641   4.651  15.491 -0.3832  0.6373 -0.5900
  242MPD1    H5 3679   3.629   4.639  15.391  1.2459 -0.3120 -0.6843
  242MPD1    N1 3680   3.591   0.238  15.873  0.3148 -0.3632 -0.2575
  242MPD1    H6 3681   3.679   0.205  15.912  0.6919 -1.4234 -2.0020
  242MPD1    H7 3682   3.577   0.337  15.893 -1.6508 -0.8070  0.6006
  243MPD1     C 3683   4.192   2.093   0.512 -0.5228  0.0537  0.9480
  243MPD1    C1 3684   4.327   2.102   0.538 -0.9260  0.3002  0.3397
  243MPD1    C2 3685   4.408   2.067   0.433 -0.4917 -0.3450 -0.3089
  243MPD1    C3 3686   4.354   2.043   0.313  0.1960  0.3251  0.6557
  243MPD1    C4 3687   4.215   2.029   0.293  0.3442  0.0869 -0.1166
  243MPD1    C5 3688   4.137   2.062   0.396  0.4169  0.2917 -0.2402
  243MPD1     H 3689   4.513   2.045   0.453 -0.2387  0.7552 -0.4644
  243MPD1    H1 3690   4.170   1.985   0.205 -0.0455 -0.4070  0.3368
  243MPD1    H2 3691   4.128   2.127   0.593 -0.4173 -0.7923  1.3793
  243MPD1    H3 3692   4.030   2.048   0.392  0.4313 -0.0513  0.5319
  243MPD1     N 3693   4.445   2.009   0.213 -0.6088  0.9190  0.1570
  243MPD1    H5 3694   4.541   1.996   0.243 -1.4488  0.7503  2.7537
  243MPD1    N1 3695   4.372   2.113   0.672  0.3762  0.0071 -0.8114
  243MPD1    H6 3696   4.469   2.141   0.689  0.7094 -0.2861 -2.2278
  243MPD1    H7 3697   4.314   2.181   0.721 -1.2574 -1.9536 -0.0560
  244MPD1     C 3698   0.566   1.587   0.274  0.2080 -0.3370  0.0639
  244MPD1    C1 3699   0.587   1.649   0.148  0.0560  0.7281  0.1782
  244MPD1    C2 3700   0.476   1.713   0.088 -0.3339 -0.8678  0.0858
  244MPD1    C3 3701   0.347   1.704   0.140  0.0695 -0.1561 -0.4272
  244MPD1    C4 3702   0.331   1.634   0.263 -0.1555 -0.1256  0.3057
  244MPD1    C5 3703   0.440   1.586   0.329 -0.2190 -0.2956 -0.2179
  244MPD1     H 3704   0.499   1.772  17.691 -0.1679 -1.5157 -0.3090
  244MPD1    H1 3705   0.244   1.638   0.327 -0.1561  0.6448  0.2559
  244MPD1    H2 3706   0.636   1.545   0.344  0.0455  1.0777  1.0815
  244MPD1    H3 3707   0.428   1.539   0.426  0.7039 -2.0224 -0.9337
  244MPD1     N 3708   0.238   1.762   0.071  0.3984  0.1695 -0.3775
  244MPD1    H5 3709   0.262   1.811  17.677 -2.6710 -0.7277 -1.7541
  244MPD1    N1 3710   0.723   1.674   0.109 -0.7978 -0.3145  0.4569
  244MPD1    H6 3711   0.798   1.612   0.136  0.9689  2.4403  1.8681
  244MPD1    H7 3712   0.723   1.691   0.008  1.1366  1.4939  0.7677
  245MPD1     C 3713   2.049   2.897  13.322 -0.5598  0.0384  0.1259
  245MPD1    C1 3714   2.008   3.016  13.379 -0.1298  0.1045 -0.4082
  245MPD1    C2 3715   2.097   3.121  13.383  0.1556  0.4164  0.2325
  245MPD1    C3 3716   2.227   3.114  13.333 -0.2829  0.0820 -1.1214
  245MPD1    C4 3717   2.267   2.996  13.278  0.7080  0.2919  0.8950
  245MPD1    C5 3718   2.178   2.893  13.282  0.1156  0.5873  0.5126
  245MPD1     H 3719   2.069   3.213  13.433 -2.2421 -0.0558 -0.2505
  245MPD1    H1 3720   2.362   2.972  13.232  0.7532  0.9750  0.6255
  245MPD1    H2 3721   1.990   2.808  13.305  0.7695 -0.8448  0.1877
  245MPD1    H3 3722   2.220   2.807  13.230  4.5231  2.4968  0.9275
  245MPD1     N 3723   2.324   3.212  13.347 -0.3524  0.9510 -0.0817
  245MPD1    H5 3724   2.294   3.308  13.364 -0.1029  1.0320 -0.0959
  245MPD1    N1 3725   1.880   3.020  13.431  0.0244  0.8491  0.0814
  245MPD1    H6 3726   1.851   3.091  13.498  1.9616 -0.4404  2.2619
  245MPD1    H7 3727   1.842   2.928  13.454  0.8738  0.0916 -1.4992
  246MPD1     C 3728   3.785   2.844   8.136  0.0076 -0.1180 -0.4661
  246MPD1    C1 3729   3.897   2.777   8.178  0.5454  0.7397 -0.1622
  246MPD1    C2 3730   3.966   2.832   8.282 -0.3919 -0.6005  0.6155
  246MPD1    C3 3731   3.933   2.955   8.339  0.4857 -0.1353  0.5743
  246MPD1    C4 3732   3.823   3.019   8.291 -0.0784  0.0465 -0.1996
  246MPD1    C5 3733   3.739   2.953   8.209 -0.1628  0.0782 -0.2450
  246MPD1     H 3734   4.057   2.782   8.313 -2.1018 -2.8956  1.9473
  246MPD1    H1 3735   3.775   3.102   8.341 -3.8140 -1.2288 -1.6966
  246MPD1    H2 3736   3.730   2.812   8.048  1.9204 -1.8033 -1.0515
  246MPD1    H3 3737   3.658   3.009   8.165  0.3039  0.1491 -1.0137
  246MPD1     N 3738   4.019   3.005   8.441  0.1658  0.0619  0.6076
  246MPD1    H5 3739   4.100   2.948   8.462  1.2695  2.2606  2.2955
  246MPD1    N1 3740   3.935   2.668   8.097 -0.0073  0.3595  0.1365
  246MPD1    H6 3741   3.855   2.609   8.073  1.3239 -1.3318 -0.1035
  246MPD1    H7 3742   4.004   2.602   8.131 -1.7606 -1.2153  0.6391
  247MPD1     C 3743   1.559   3.244  17.095 -0.6194 -0.4821 -0.3613
  247MPD1    C1 3744   1.685   3.242  17.039  0.0752  0.2560 -0.1028
  247MPD1    C2 3745   1.702   3.205  16.907  0.3043  0.3632  0.5755
  247MPD1    C3 3746   1.594   3.163  16.826  0.1000 -0.7899  0.4386
  247MPD1    C4 3747   1.477   3.145  16.894  0.5615 -0.3077 -0.6018
  247MPD1    C5 3748   1.460   3.189  17.022  0.6726 -0.0198  0.2761
  247MPD1     H 3749   1.801   3.220  16.867  1.0656 -2.1531  1.5688
  247MPD1    H1 3750   1.384   3.115  16.847  0.5415 -1.7089  0.3535
  247MPD1    H2 3751   1.543   3.280  17.196  0.2291 -0.4434 -0.2353
  247MPD1    H3 3752   1.360   3.175  17.063  0.5740 -2.5570 -0.8651
  247MPD1     N 3753   1.614   3.125  16.691  0.0952  0.3240 -0.4629
  247MPD1    H5 3754   1.535   3.087  16.639  0.9089 -1.5164 -0.3800
  247MPD1    N1 3755   1.781   3.324  17.105 -0.0492 -0.2239  0.1248
  247MPD1    H6 3756   1.878   3.299  17.088  0.2920  1.1145  0.1450
  247MPD1    H7 3757   1.766   3.319  17.205  0.1797 -0.6750  0.1396
  248MPD1     C 3758   0.966   4.004   0.600  0.3955 -0.4033 -0.1684
  248MPD1    C1 3759   0.941   3.872   0.599  0.0791  0.1129  0.0002
  248MPD1    C2 3760   1.030   3.797   0.526  0.1306 -0.0847  0.1000
  248MPD1    C3 3761   1.117   3.851   0.429  0.4312  1.1239 -0.0224
  248MPD1    C4 3762   1.135   3.985   0.422  0.5421  0.2279  0.6911
  248MPD1    C5 3763   1.066   4.058   0.519  0.0294  0.2494  0.4016
  248MPD1     H 3764   1.032   3.691   0.544  3.8694 -0.6547 -3.6558
  248MPD1    H1 3765   1.208   4.039   0.363  0.1932 -0.0237  0.0220
  248MPD1    H2 3766   0.915   4.065   0.674  1.8858 -0.9161  1.2664
  248MPD1    H3 3767   1.077   4.166   0.518  2.9707 -0.0256  3.0445
  248MPD1     N 3768   1.201   3.771   0.347 -0.0992 -0.1091 -0.8787
  248MPD1    H5 3769   1.193   3.671   0.361  1.7595 -0.4240 -2.1545
  248MPD1    N1 3770   0.853   3.808   0.689  0.2111  0.0006 -0.3152
  248MPD1    H6 3771   0.819   3.719   0.650  0.7936  0.4431 -1.8556
  248MPD1    H7 3772   0.778   3.861   0.730 -0.5809 -1.9628  0.7763
  249MPD1     C 3773   4.135   1.530   9.869  0.1127 -0.3544  0.3687
  249MPD1    C1 3774   4.203   1.593   9.771 -0.2772 -1.0344 -0.9120
  249MPD1    C2 3775   4.321   1.662   9.806 -0.1848  0.1010  0.0191
  249MPD1    C3 3776   4.365   1.670   9.938 -0.0355  0.1950  0.1400
  249MPD1    C4 3777   4.298   1.602  10.038  0.7165 -0.2160  0.3372
  249MPD1    C5 3778   4.181   1.535   9.999  0.1411  0.2476  0.3256
  249MPD1     H 3779   4.373   1.724   9.733  0.5741  1.0715  1.3681
  249MPD1    H1 3780   4.321   1.606  10.143  1.4482  0.9657  0.1295
  249MPD1    H2 3781   4.044   1.474   9.849 -0.0999  0.8591 -2.0354
  249MPD1    H3 3782   4.124   1.479  10.072  1.5768 -0.8230  0.6264
  249MPD1     N 3783   4.491   1.734   9.951  0.7753 -0.4397  0.3299
  249MPD1    H5 3784   4.532   1.759   9.862  0.2587  0.7834  0.4384
  249MPD1    N1 3785   4.150   1.585   9.639 -0.1064  0.4410  0.4779
  249MPD1    H6 3786   4.048   1.589   9.638 -0.0558  0.9285 -2.4075
  249MPD1    H7 3787   4.195   1.656   9.581 -1.8409  0.4666 -0.8359
  250MPD2     C 3788   0.803   2.252  13.065 -0.4121  0.2386 -0.1452
  250MPD2    C1 3789   0.689   2.265  12.994 -0.3789 -0.1673 -0.2171
  250MPD2    C2 3790   0.626   2.152  12.940 -0.1958  0.3423  0.3599
  250MPD2    C3 3791   0.673   2.026  12.971 -0.2310  0.2811  0.2165
  250MPD2    C4 3792   0.801   2.015  13.038  0.0048 -0.1395  0.2325
  250MPD2    C5 3793   0.867   2.128  13.071 -0.0492 -0.2520  0.0653
  250MPD2     H 3794   0.534   2.172  12.885 -0.5732 -1.3853  0.3673
  250MPD2    H1 3795   0.854   1.925  13.067 -1.3231 -1.2489 -0.7995
  250MPD2    H2 3796   0.859   2.341  13.093 -0.9437  0.5192  0.0254
  250MPD2    H3 3797   0.965   2.126  13.116 -0.4801 -1.2799  0.9703
  250MPD2     N 3798   0.606   1.903  12.930 -0.0995 -0.1627  0.2878
  250MPD2    H5 3799   0.652   1.815  12.951 -0.3758 -0.7217 -1.4338
  250MPD2    N1 3800   0.636   2.399  12.997 -0.3327  0.4102  0.6989
  250MPD2    H7 3801   0.680   2.472  13.052  3.2330 -0.8442 -0.4382
  251TMC3    C1 3802   0.501   2.583  12.936 -0.3151 -0.7890 -0.7790
  251TMC3    C2 3803   0.371   2.614  12.907 -0.9042 -0.1929  0.7544
  251TMC3    C3 3804   0.354   2.746  12.891  0.5063 -0.6493  0.0606
  251TMC3    C4 3805   0.604   2.673  12.952 -0.4560  0.8208 -0.1533
  251TMC3    C5 3806   0.573   2.804  12.935  0.2525  0.3265  0.3315
  251TMC3    C6 3807   0.448   2.841  12.896  0.1225 -0.0877 -0.9030
  251TMC3     C 3808   0.524   2.440  12.935  0.6021 -1.5943  0.2878
  251TMC3     O 3809   0.436   2.370  12.875  0.8426 -0.5736  0.4172
  251TMC3     H 3810   0.291   2.542  12.895  0.1725 -0.9767 -1.7758
  251TMC3    H1 3811   0.710   2.651  12.962 -0.8571 -0.4599  1.2528
  251TMC3    H2 3812   0.413   2.944  12.897  1.3174  0.2968  0.1233
  251TMC3    C7 3813   0.679   2.902  12.948  0.1452  0.0258 -0.4540
  251TMC3    C8 3814   0.224   2.776  12.845 -0.3514 -0.4539 -0.2625
  251TMC3    O1 3815   0.770   2.872  13.026  0.1974  0.2681  0.2851
  251TMC3    O2 3816   0.134   2.697  12.866  0.3542  0.0851  0.3059
  252TMC3    C1 3817   1.705   1.594   9.073 -0.4729  0.2230  0.0745
  252TMC3    C2 3818   1.723   1.729   9.046 -0.0652 -0.1496 -0.3825
  252TMC3    C3 3819   1.649   1.784   8.945 -0.4094 -0.1150  0.4227
  252TMC3    C4 3820   1.606   1.522   9.017  0.7811  0.1934  0.1046
  252TMC3    C5 3821   1.522   1.589   8.924 -0.4026  0.4178 -0.0033
  252TMC3    C6 3822   1.554   1.717   8.878  0.2001  0.1498 -0.2106
  252TMC3     C 3823   1.811   1.528   9.150 -0.0848  0.0785  0.4315
  252TMC3     O 3824   1.857   1.416   9.120  0.0899  0.0938  0.7154
  252TMC3     H 3825   1.818   1.776   9.068 -0.9980  1.9050 -0.7247
  252TMC3    H1 3826   1.586   1.420   9.046  0.0396  0.2461 -0.2176
  252TMC3    H2 3827   1.491   1.764   8.803 -2.2960 -0.3694  1.5580
  252TMC3    C7 3828   1.407   1.521   8.856 -1.2325 -0.2811 -0.5259
  252TMC3    C8 3829   1.659   1.927   8.915  0.8461  0.2411  0.4399
  252TMC3    O1 3830   1.352   1.576   8.763  0.3696 -0.5734  0.3137
  252TMC3    O2 3831   1.647   1.960   8.800 -0.4514  0.2079 -0.6079
  253MPD2     C 3832   1.739   1.898  14.876  0.6529  0.3939  0.0208
  253MPD2    C1 3833   1.616   1.842  14.911  0.1775 -0.6839  1.1900
  253MPD2    C2 3834   1.595   1.796  15.041 -0.7855  0.6335  0.3673
  253MPD2    C3 3835   1.686   1.820  15.141  0.7907 -0.2761  0.3440
  253MPD2    C4 3836   1.804   1.874  15.104  0.2146 -0.2423  0.1713
  253MPD2    C5 3837   1.833   1.913  14.977 -0.2343  0.1267  0.2117
  253MPD2     H 3838   1.501   1.744  15.062 -0.2380  0.0488  1.3821
  253MPD2    H1 3839   1.879   1.888  15.181  1.3074 -2.2456 -0.5462
  253MPD2    H2 3840   1.770   1.915  14.773 -1.8082 -0.0305 -0.7921
  253MPD2    H3 3841   1.935   1.943  14.957 -0.4930  0.7416 -0.2070
  253MPD2     N 3842   1.658   1.793  15.278  0.8660  0.4654  0.2994
  253MPD2    H5 3843   1.723   1.815  15.354 -0.7793 -0.1879  1.9059
  253MPD2    N1 3844   1.508   1.842  14.821  0.1103 -0.5188  1.1924
  253MPD2    H7 3845   1.420   1.798  14.845  2.0295 -3.0498  3.4982
  254TMC3    C1 3846   1.530   1.732  15.475 -0.2157  0.8415 -0.6498
  254TMC3    C2 3847   1.410   1.769  15.521 -0.3312 -0.1594  0.0470
  254TMC3    C3 3848   1.396   1.761  15.657  0.2295 -0.0014 -0.0160
  254TMC3    C4 3849   1.642   1.684  15.549 -0.1884  0.5241 -0.4692
  254TMC3    C5 3850   1.614   1.680  15.681 -0.3426 -0.4193  0.1716
  254TMC3    C6 3851   1.494   1.706  15.738  0.2399  0.0246 -0.4372
  254TMC3     C 3852   1.538   1.746  15.332 -0.0968  0.5101  0.3592
  254TMC3     O 3853   1.435   1.713  15.278 -0.2317  0.0652  0.8156
  254TMC3     H 3854   1.330   1.811  15.462 -0.2906 -0.3043 -0.1118
  254TMC3    H1 3855   1.741   1.672  15.505 -1.9665 -0.6693 -4.1024
  254TMC3    H2 3856   1.487   1.718  15.846  1.0288 -1.0977 -0.2583
  254TMC3    C7 3857   1.725   1.669  15.772 -0.4786  0.1782 -0.1601
  254TMC3    C8 3858   1.302   1.852  15.725 -0.9244  0.1617 -0.6476
  254TMC3    O1 3859   1.692   1.664  15.890  0.0400 -0.3402 -0.3680
  254TMC3    O2 3860   1.283   1.841  15.847  0.2127  0.0562  0.1262
  255MPD2     C 3861   0.213   0.196  11.164 -0.8406  0.5332 -0.3978
  255MPD2    C1 3862   0.145   0.204  11.047  0.8430 -0.5219 -0.1884
  255MPD2    C2 3863   0.181   0.128  10.940  0.5412  0.1467  0.3559
  255MPD2    C3 3864   0.278   0.032  10.960 -0.7002  0.6298  0.3716
  255MPD2    C4 3865   0.341   0.013  11.083 -0.3186 -0.8152  1.0798
  255MPD2    C5 3866   0.308   0.107  11.178 -0.3761 -0.2646 -1.2840
  255MPD2     H 3867   0.131   0.144  10.845 -1.0382 -0.9260  1.0048
  255MPD2    H1 3868   0.413   4.659  11.108  0.1927 -0.7494 -0.2215
  255MPD2    H2 3869   0.203   0.268  11.244  1.2982 -0.4907  0.7836
  255MPD2    H3 3870   0.347   0.109  11.279 -1.8766 -2.8545 -0.6691
  255MPD2     N 3871   0.315   4.682  10.846 -0.1957 -0.3693  0.6305
  255MPD2    H5 3872   0.269   4.705  10.759  0.3151  1.1648  0.7698
  255MPD2    N1 3873   0.065   0.322  11.032  0.4385  0.0585  0.0797
  255MPD2    H7 3874   0.076   0.404  11.090 -1.9120  1.1825 -1.0772
  256TMC3    C1 3875   4.679   0.473  10.902  0.1713  0.4353  0.3826
  256TMC3    C2 3876   0.063   0.528  10.837  0.3685  0.4563  0.5992
  256TMC3    C3 3877   0.032   0.636  10.760  0.2544 -0.6684 -0.1015
  256TMC3    C4 3878   4.549   0.509  10.885  0.4964 -0.6858 -0.0531
  256TMC3    C5 3879   4.525   0.612  10.810  0.6536  0.3502  0.5095
  256TMC3    C6 3880   4.629   0.685  10.756  0.0618  1.0251 -0.2540
  256TMC3     C 3881   4.695   0.334  10.934 -0.0029 -0.4725  0.6775
  256TMC3     O 3882   4.656   0.260  10.844  0.1351 -0.4269 -0.0641
  256TMC3     H 3883   0.165   0.492  10.839 -0.0248 -0.7299 -0.4046
  256TMC3    H1 3884   4.471   0.439  10.912  0.7054 -1.1466 -0.6290
  256TMC3    H2 3885   4.615   0.782  10.711 -0.2078  0.2513 -1.8314
  256TMC3    C7 3886   4.399   0.632  10.743  0.5545 -0.2112 -0.5724
  256TMC3    C8 3887   0.130   0.695  10.676 -0.5355 -0.1210  0.2211
  256TMC3    O1 3888   4.397   0.718  10.657  0.5677  0.3264 -0.1227
  256TMC3    O2 3889   0.123   0.814  10.643 -0.3651  0.3102  0.1571
  257MPD2     C 3890   3.648   2.246  12.652  0.8102  0.4686  0.1396
  257MPD2    C1 3891   3.785   2.232  12.622  0.1255  0.3244  0.1235
  257MPD2    C2 3892   3.868   2.166  12.714  1.0089  0.0377 -0.0716
  257MPD2    C3 3893   3.809   2.115  12.829  0.0226  0.5238  0.0716
  257MPD2    C4 3894   3.673   2.131  12.855  0.0669 -0.2489 -0.3169
  257MPD2    C5 3895   3.595   2.204  12.770 -0.5462  0.5736 -0.2649
  257MPD2     H 3896   3.973   2.146  12.700  0.9836 -1.6402  2.0568
  257MPD2    H1 3897   3.617   2.098  12.942 -0.9050 -0.4319 -1.0087
  257MPD2    H2 3898   3.592   2.295  12.574  0.7798  0.0174 -0.1201
  257MPD2    H3 3899   3.489   2.225  12.785 -0.8188 -0.9713  0.0132
  257MPD2     N 3900   3.895   2.037  12.915 -0.0829 -0.7822 -0.2256
  257MPD2    H5 3901   3.988   2.052  12.879 -0.3017 -0.4339 -0.6454
  257MPD2    N1 3902   3.832   2.294  12.513  0.3535 -0.6104 -0.5668
  257MPD2    H7 3903   3.766   2.336  12.449  3.2473  3.3713 -0.9668
  258TMC3    C1 3904   3.961   1.884  13.090 -0.5616 -0.4540  0.4541
  258TMC3    C2 3905   4.073   1.863  13.017 -0.6999  0.4731 -0.5029
  258TMC3    C3 3906   4.190   1.829  13.084  0.0413 -0.2322  0.0964
  258TMC3    C4 3907   3.956   1.839  13.225  0.5024  0.0048  0.4198
  258TMC3    C5 3908   4.071   1.787  13.279 -1.2580 -0.7324 -0.1696
  258TMC3    C6 3909   4.194   1.806  13.217  0.7976  0.2424  0.0025
  258TMC3     C 3910   3.851   1.946  13.019  0.4022  1.1505  0.4595
  258TMC3     O 3911   3.738   1.924  13.063 -0.8244 -0.3062 -0.0994
  258TMC3     H 3912   4.076   1.890  12.912  0.9394 -0.2557 -0.6432
  258TMC3    H1 3913   3.863   1.855  13.279  0.4137  1.6512 -0.2074
  258TMC3    H2 3914   4.290   1.783  13.262  0.1020  0.1133  1.4380
  258TMC3    C7 3915   4.069   1.731  13.412  0.5340  1.2102  0.6514
  258TMC3    C8 3916   4.317   1.822  13.020  0.5454  0.3443  0.0599
  258TMC3    O1 3917   3.967   1.756  13.477  0.6814 -0.4478  0.1768
  258TMC3    O2 3918   4.417   1.819  13.093 -0.2402 -0.1521  0.3820
  259MPD2     C 3919   2.971   3.127   1.463  0.2724  0.5265 -0.3300
  259MPD2    C1 3920   3.042   3.008   1.474 -0.5300 -0.0747  0.4054
  259MPD2    C2 3921   3.125   2.984   1.366 -0.2162 -0.2592  0.1139
  259MPD2    C3 3922   3.129   3.054   1.245  0.9588 -0.4341  0.1185
  259MPD2    C4 3923   3.053   3.176   1.239 -1.0442  0.0896  0.0949
  259MPD2    C5 3924   2.979   3.208   1.353  0.2360  0.2770  0.2238
  259MPD2     H 3925   3.182   2.892   1.358  1.0398  0.6725 -1.9911
  259MPD2    H1 3926   3.043   3.229   1.145  0.4708 -0.3937 -0.3387
  259MPD2    H2 3927   2.914   3.168   1.546 -3.0347  0.5142 -2.6053
  259MPD2    H3 3928   2.923   3.301   1.353  2.6656  1.7492 -0.0724
  259MPD2     N 3929   3.192   2.989   1.132  0.0480  0.2944 -0.5477
  259MPD2    H5 3930   3.212   2.890   1.135  0.8710  0.4137 -2.0324
  259MPD2    N1 3931   3.040   2.929   1.589 -0.6141  0.0398 -0.7208
  259MPD2    H7 3932   2.980   2.961   1.664  0.3910  0.6997 -0.2002
  260TMC3    C1 3933   3.289   2.965   0.920 -0.2049  0.0294  0.6900
  260TMC3    C2 3934   3.388   2.999   0.834  0.4724  0.5451  0.2488
  260TMC3    C3 3935   3.431   2.898   0.747  0.5283  0.0305  0.1521
  260TMC3    C4 3936   3.223   2.841   0.917 -0.3854 -0.1573 -0.6026
  260TMC3    C5 3937   3.273   2.752   0.825 -0.6072 -0.2372  0.1211
  260TMC3    C6 3938   3.375   2.775   0.739  0.0555  0.1293 -0.1898
  260TMC3     C 3939   3.220   3.057   1.016  0.0435  0.2727 -0.6789
  260TMC3     O 3940   3.214   3.179   1.001  0.5378 -0.0648  0.1289
  260TMC3     H 3941   3.429   3.099   0.833  0.1115  0.6753 -1.8267
  260TMC3    H1 3942   3.120   2.831   0.951  0.6912 -0.8106  2.5216
  260TMC3    H2 3943   3.423   2.693   0.686  1.4706  1.0796 -0.3610
  260TMC3    C7 3944   3.175   2.675   0.743  0.4743 -0.5357 -0.3739
  260TMC3    C8 3945   3.533   2.945   0.655  0.3800  0.2550  0.0530
  260TMC3    O1 3946   3.222   2.617   0.648  0.1104  0.5616 -0.7541
  260TMC3    O2 3947   3.596   3.042   0.694  0.6522  0.1549 -0.4180
  261MPD2     C 3948   0.099   1.714  12.285  0.7959  0.6242 -0.0913
  261MPD2    C1 3949   0.219   1.783  12.326 -0.4483 -0.2657 -1.1371
  261MPD2    C2 3950   0.275   1.875  12.234  0.4091 -0.0439 -0.1626
  261MPD2    C3 3951   0.207   1.919  12.122 -0.7380 -0.3055 -0.9718
  261MPD2    C4 3952   0.097   1.848  12.085  0.7954  0.1382  0.6992
  261MPD2    C5 3953   0.045   1.749  12.164  0.0447  0.0999 -0.3568
  261MPD2     H 3954   0.368   1.926  12.256 -0.5726  2.0089 -0.6904
  261MPD2    H1 3955   0.045   1.861  11.991 -1.9379  0.8232  2.3017
  261MPD2    H2 3956   0.062   1.633  12.347 -1.3650  1.0657 -0.8004
  261MPD2    H3 3957   4.682   1.693  12.127 -0.0682  0.6198 -0.8672
  261MPD2     N 3958   0.255   2.032  12.044  0.2037  0.1138 -0.6233
  261MPD2    H5 3959   0.343   2.068  12.079  0.0172  0.2311 -0.2746
  261MPD2    N1 3960   0.281   1.754  12.450 -0.8278  0.5304  0.1764
  261MPD2    H7 3961   0.355   1.818  12.475  0.7742 -1.2044 -0.1023
  262TMC3    C1 3962   0.250   2.215  11.883  0.1092  0.1769  0.0578
  262TMC3    C2 3963   0.165   2.305  11.824 -0.9886  0.2593 -0.6617
  262TMC3    C3 3964   0.223   2.421  11.774 -0.5792  0.0683  0.4205
  262TMC3    C4 3965   0.389   2.229  11.874 -0.3925 -1.1218  0.4238
  262TMC3    C5 3966   0.435   2.333  11.796 -0.0527 -1.1156  0.5784
  262TMC3    C6 3967   0.350   2.435  11.757 -0.1752 -0.1143  0.1424
  262TMC3     C 3968   0.189   2.090  11.940  0.1903 -0.5679 -0.0136
  262TMC3     O 3969   0.081   2.062  11.896 -0.2606 -0.4774 -0.3613
  262TMC3     H 3970   0.062   2.281  11.805 -0.5771 -1.4922 -0.6636
  262TMC3    H1 3971   0.458   2.155  11.911 -0.2216  0.4334  3.2417
  262TMC3    H2 3972   0.375   2.539  11.738 -2.4891  0.2401 -0.9334
  262TMC3    C7 3973   0.525   2.290  11.697 -1.0622  0.2627 -1.3313
  262TMC3    C8 3974   0.151   2.484  11.668  0.6254  0.0102  0.7322
  262TMC3    O1 3975   0.564   2.176  11.700  0.3266 -0.0371  0.5682
  262TMC3    O2 3976   0.220   2.517  11.571 -0.6915  0.2434 -0.0042
  263MPD2     C 3977   0.888   0.987  11.389  0.5913  0.3802 -0.0037
  263MPD2    C1 3978   0.962   1.103  11.417 -0.0680 -0.0226 -0.2065
  263MPD2    C2 3979   1.009   1.175  11.308 -0.2203 -0.2454  0.4067
  263MPD2    C3 3980   0.998   1.127  11.179  0.2771  0.0091  0.5861
  263MPD2    C4 3981   0.922   1.009  11.160 -0.5130  0.0541 -0.0659
  263MPD2    C5 3982   0.864   0.946  11.262 -0.2427  0.3138  0.3353
  263MPD2     H 3983   1.087   1.250  11.321 -0.4910  0.4882 -2.0187
  263MPD2    H1 3984   0.901   0.974  11.060 -0.6373  1.1501 -0.4311
  263MPD2    H2 3985   0.841   0.931  11.470 -2.0339  0.3030 -1.5948
  263MPD2    H3 3986   0.793   0.866  11.247 -0.2821  0.5777 -0.8977
  263MPD2     N 3987   1.046   1.195  11.065  0.2775  0.4370  0.1291
  263MPD2    H5 3988   1.082   1.287  11.091  2.9013 -0.9698  1.4795
  263MPD2    N1 3989   0.992   1.135  11.552 -0.1393 -0.3959 -0.6042
  263MPD2    H7 3990   0.945   1.083  11.625  2.3401 -0.7049  0.7556
  264TMC3    C1 3991   1.126   1.247  10.842 -0.0307  0.2644  0.0437
  264TMC3    C2 3992   1.089   1.378  10.854  0.2414 -0.2941 -0.0958
  264TMC3    C3 3993   1.138   1.462  10.756 -0.7414  0.0518 -0.7306
  264TMC3    C4 3994   1.210   1.198  10.757 -0.2713  0.0307 -0.1040
  264TMC3    C5 3995   1.250   1.278  10.654  0.0144 -0.2795  0.3018
  264TMC3    C6 3996   1.207   1.408  10.650 -0.7159 -0.0147  0.1052
  264TMC3     C 3997   1.075   1.147  10.937  0.7536  0.1651  0.2317
  264TMC3     O 3998   1.063   1.031  10.896  0.1504 -0.2789 -0.4716
  264TMC3     H 3999   1.031   1.407  10.942 -0.5856  0.1948 -0.8023
  264TMC3    H1 4000   1.249   1.099  10.773  0.4053 -0.0963 -2.4466
  264TMC3    H2 4001   1.242   1.476  10.573  0.9370 -0.0466  0.8353
  264TMC3    C7 4002   1.372   1.233  10.585  0.3040  0.8911  0.9668
  264TMC3    C8 4003   1.130   1.608  10.763 -0.1364 -0.6887 -0.9907
  264TMC3    O1 4004   1.450   1.158  10.640  0.1241  0.0335  0.9121
  264TMC3    O2 4005   1.189   1.662  10.670  0.5039  0.4924 -0.3177
  265MPD2     C 4006   3.067   1.468  15.645 -0.2598  0.3200 -0.3535
  265MPD2    C1 4007   3.064   1.581  15.570  0.0011 -0.2826 -0.1017
  265MPD2    C2 4008   3.119   1.580  15.439 -0.1815 -0.1363  0.0890
  265MPD2    C3 4009   3.165   1.463  15.380  0.3206 -0.4632 -0.1281
  265MPD2    C4 4010   3.188   1.356  15.467 -0.3014  0.4305  0.2334
  265MPD2    C5 4011   3.134   1.361  15.596 -0.1200  0.4707 -0.4035
  265MPD2     H 4012   3.114   1.675  15.387  0.2960 -0.0393  0.2220
  265MPD2    H1 4013   3.238   1.266  15.435  0.4108  1.0006 -0.2665
  265MPD2    H2 4014   3.022   1.472  15.744  2.0881  2.0661  0.6292
  265MPD2    H3 4015   3.141   1.275  15.662  1.5928 -1.1228 -2.6919
  265MPD2     N 4016   3.222   1.457  15.248 -0.2664  0.1081 -0.1901
  265MPD2    H5 4017   3.243   1.365  15.212  0.7558  0.2695 -0.0022
  265MPD2    N1 4018   3.017   1.701  15.632  0.7342 -0.0575  0.2331
  265MPD2    H7 4019   3.004   1.707  15.732 -0.8378  2.0111 -0.0905
  266TMC3    C1 4020   2.928   1.918  15.623 -0.2528 -0.0017 -0.4684
  266TMC3    C2 4021   2.947   1.929  15.757  0.9177 -0.1225  0.3028
  266TMC3    C3 4022   2.924   2.057  15.804  0.7350 -0.4042 -0.5511
  266TMC3    C4 4023   2.874   2.017  15.544  1.2527  0.0267 -0.7050
  266TMC3    C5 4024   2.854   2.134  15.601 -0.4544  0.0277  0.0086
  266TMC3    C6 4025   2.877   2.160  15.728 -0.2134 -0.3330  0.0062
  266TMC3     C 4026   2.966   1.802  15.550  0.5374  0.3132  0.1880
  266TMC3     O 4027   2.927   1.793  15.433  0.0777  0.1319  0.0284
  266TMC3     H 4028   2.990   1.848  15.814  2.9055  0.3231 -0.5675
  266TMC3    H1 4029   2.856   1.998  15.439 -0.7369  1.6261 -0.6577
  266TMC3    H2 4030   2.830   2.246  15.774 -2.1756 -1.3516 -0.0623
  266TMC3    C7 4031   2.781   2.233  15.517 -0.1926 -0.5873 -0.3434
  266TMC3    C8 4032   3.003   2.101  15.907 -0.0381  0.7695  0.8625
  266TMC3    O1 4033   2.718   2.186  15.425 -0.3464  0.2927 -0.2768
  266TMC3    O2 4034   3.098   2.025  15.935  0.3641  0.3466  0.2186
  267MPD2     C 4035   0.893   2.811   0.560  0.5022  0.2173 -1.6795
  267MPD2    C1 4036   0.902   2.908   0.467  0.4190  0.3273  0.4019
  267MPD2    C2 4037   0.831   2.899   0.351 -0.3832  0.3678 -0.0643
  267MPD2    C3 4038   0.736   2.797   0.335 -0.3457  0.1039  0.2744
  267MPD2    C4 4039   0.709   2.716   0.440  0.2852 -0.1340 -0.7412
  267MPD2    C5 4040   0.795   2.715   0.552 -0.0255 -0.3061 -0.0205
  267MPD2     H 4041   0.854   2.961   0.265  1.4045  1.5714  1.2697
  267MPD2    H1 4042   0.622   2.651   0.437  2.3186 -2.9726  0.9611
  267MPD2    H2 4043   0.962   2.806   0.644 -2.0753  0.6594  0.4490
  267MPD2    H3 4044   0.781   2.645   0.633  1.0355 -0.1886  0.2557
  267MPD2     N 4045   0.649   2.783   0.220 -0.6974 -0.8606 -0.5700
  267MPD2    H5 4046   0.568   2.724   0.235 -1.1085  0.0947  0.9878
  267MPD2    N1 4047   1.006   3.008   0.485  0.2079  0.1277 -0.1120
  267MPD2    H7 4048   1.063   2.989   0.567  1.4325  0.3603 -0.9116
  268TMC3    C1 4049   1.171   3.170   0.429 -0.0063 -0.2223 -0.4268
  268TMC3    C2 4050   1.250   3.165   0.320 -0.1979  0.1675 -0.0870
  268TMC3    C3 4051   1.378   3.129   0.331  0.0372 -0.4142  0.0144
  268TMC3    C4 4052   1.225   3.153   0.552 -0.3669 -0.3829  0.6040
  268TMC3    C5 4053   1.356   3.118   0.560 -0.6261  0.1191 -0.2741
  268TMC3    C6 4054   1.428   3.089   0.448 -0.3140 -0.9552 -0.1548
  268TMC3     C 4055   1.039   3.116   0.406  0.0302 -0.0881 -0.3481
  268TMC3     O 4056   0.985   3.163   0.307  0.0901 -0.1363 -0.0786
  268TMC3     H 4057   1.199   3.169   0.224  1.5807  1.5967 -0.9681
  268TMC3    H1 4058   1.164   3.137   0.641  1.2145  0.9803  1.9141
  268TMC3    H2 4059   1.533   3.064   0.448 -0.8109 -2.9878  2.7285
  268TMC3    C7 4060   1.410   3.099   0.694  0.1525  0.1929  0.4712
  268TMC3    C8 4061   1.482   3.144   0.224  0.0263  0.1073 -0.4938
  268TMC3    O1 4062   1.493   3.014   0.728  0.0247 -0.5129 -0.2606
  268TMC3    O2 4063   1.589   3.086   0.241  0.1626  0.4085 -0.2524
  269MPD2     C 4064   0.889   1.725  15.645  0.5822  0.2806 -0.0616
  269MPD2    C1 4065   0.768   1.750  15.696  0.2447 -0.1256 -0.3354
  269MPD2    C2 4066   0.709   1.875  15.691  0.1601 -0.1609  0.2085
  269MPD2    C3 4067   0.773   1.978  15.624  0.2667  0.0738 -0.1260
  269MPD2    C4 4068   0.896   1.947  15.565  0.2153  0.0512 -0.3601
  269MPD2    C5 4069   0.956   1.823  15.578 -0.8953  0.2878  0.0011
  269MPD2     H 4070   0.608   1.896  15.724 -0.4072 -1.2804 -0.7790
  269MPD2    H1 4071   0.946   2.016  15.499  1.3580  0.8367  1.3210
  269MPD2    H2 4072   0.947   1.634  15.645 -0.9757 -0.6938  0.4666
  269MPD2    H3 4073   1.054   1.807  15.532 -0.7535  1.2067 -0.0222
  269MPD2     N 4074   0.693   2.102  15.616  0.1533 -0.1026  0.2738
  269MPD2    H5 4075   0.634   2.115  15.698  1.3958  1.1483  0.9760
  269MPD2    N1 4076   0.697   1.631  15.737  0.3012 -0.7726  0.2932
  269MPD2    H7 4077   0.750   1.545  15.748  0.5780 -1.0965 -3.5273
  270TMC3    C1 4078   0.532   1.479  15.792 -0.7802  0.0687  0.5704
  270TMC3    C2 4079   0.457   1.418  15.703 -0.3706  0.1700  0.5467
  270TMC3    C3 4080   0.471   1.288  15.671 -0.1409 -0.5700 -0.1991
  270TMC3    C4 4081   0.633   1.418  15.857  0.2274 -0.0980 -0.4963
  270TMC3    C5 4082   0.655   1.289  15.822 -0.9184  0.2737 -0.7980
  270TMC3    C6 4083   0.585   1.229  15.725 -0.2686 -0.8167  0.7064
  270TMC3     C 4084   0.560   1.618  15.755  0.4684 -0.0966  0.0051
  270TMC3     O 4085   0.469   1.692  15.718 -0.3735 -0.2499  0.4677
  270TMC3     H 4086   0.388   1.469  15.637 -0.4581 -1.5890 -0.7345
  270TMC3    H1 4087   0.699   1.463  15.930  1.4661 -2.7201 -0.0001
  270TMC3    H2 4088   0.620   1.135  15.683  1.9339  1.2766 -2.1784
  270TMC3    C7 4089   0.790   1.232  15.828  0.3624 -0.2106 -0.2286
  270TMC3    C8 4090   0.460   1.252  15.529 -0.0557 -0.7837 -0.3056
  270TMC3    O1 4091   0.886   1.307  15.821  0.1342  0.5848 -0.0888
  270TMC3    O2 4092   0.554   1.206  15.463  0.1685  0.2445  0.7278
  271MPD2     C 4093   0.188   1.874  13.850  0.2771  0.6746  0.2869
  271MPD2    C1 4094   0.125   1.856  13.970 -0.5003  0.9867  1.0192
  271MPD2    C2 4095   0.017   1.940  14.005  0.1241 -0.0008 -0.1663
  271MPD2    C3 4096   4.690   2.038  13.915 -0.5040 -0.2808  0.5688
  271MPD2    C4 4097   0.034   2.049  13.795  0.2404  0.7192 -0.5754
  271MPD2    C5 4098   0.137   1.968  13.766 -0.3112  0.0585  0.4345
  271MPD2     H 4099   4.685   1.918  14.095 -0.0145  2.7044  0.3949
  271MPD2    H1 4100   0.007   2.126  13.723 -4.4108 -0.8438 -0.4938
  271MPD2    H2 4101   0.266   1.804  13.821  0.5729  0.5725  1.3387
  271MPD2    H3 4102   0.193   1.984  13.675 -1.8463 -1.0866 -0.7255
  271MPD2     N 4103   4.574   2.115  13.927 -0.1761 -0.0234 -0.5289
  271MPD2    H5 4104   4.547   2.160  13.841  1.4460 -0.8709 -1.4947
  271MPD2    N1 4105   0.162   1.758  14.062 -0.3900  0.1718  0.0906
  271MPD2    H7 4106   0.127   1.758  14.158  2.0664 -0.5723  0.9618
  272TMC3    C1 4107   0.284   1.582  14.163 -0.2468 -1.4058 -0.3534
  272TMC3    C2 4108   0.405   1.515  14.173 -0.0772  0.2442  0.0221
  272TMC3    C3 4109   0.436   1.439  14.280  0.2769  0.3069  0.5284
  272TMC3    C4 4110   0.187   1.554  14.252 -0.5255 -0.3952  0.4591
  272TMC3    C5 4111   0.222   1.477  14.356 -0.2309 -0.8244 -0.2406
  272TMC3    C6 4112   0.348   1.419  14.379 -0.7339  0.5725 -0.3168
  272TMC3     C 4113   0.255   1.655  14.040  0.0179  0.0057 -0.3572
  272TMC3     O 4114   0.330   1.630  13.945  0.4868 -0.3513 -0.1919
  272TMC3     H 4115   0.470   1.506  14.087 -1.5692  0.4211 -1.1210
  272TMC3    H1 4116   0.089   1.595  14.228  0.7783  1.8048 -1.0624
  272TMC3    H2 4117   0.351   1.346  14.459 -0.1541 -0.8957 -1.6917
  272TMC3    C7 4118   0.126   1.474  14.468  0.2087  0.4333  0.2789
  272TMC3    C8 4119   0.566   1.380  14.279 -0.1450  0.1712  1.1975
  272TMC3    O1 4120   0.007   1.465  14.442  0.4982 -0.2449  0.6073
  272TMC3    O2 4121   0.636   1.418  14.186  0.1964  0.4970 -0.1811
  273MPD2     C 4122   1.881   4.415  12.116  0.6906 -0.2244 -0.5588
  273MPD2    C1 4123   1.948   4.536  12.094  0.5171 -0.1292  0.6461
  273MPD2    C2 4124   1.903   4.622  11.999  0.0358 -0.1544 -0.0381
  273MPD2    C3 4125   1.788   4.586  11.927 -0.3917 -0.0451  0.1089
  273MPD2    C4 4126   1.725   4.463  11.949 -0.4700 -0.2594  0.0774
  273MPD2    C5 4127   1.770   4.374  12.045 -0.9576 -0.2493  0.4398
  273MPD2     H 4128   1.958   4.712  11.975 -1.4918  1.5175  2.7883
  273MPD2    H1 4129   1.642   4.435  11.885 -0.6457  1.4730 -0.4433
  273MPD2    H2 4130   1.928   4.344  12.183  1.2401 -1.4179 -2.1820
  273MPD2    H3 4131   1.718   4.281  12.065 -3.5822  1.0053 -0.5810
  273MPD2     N 4132   1.734   4.674  11.821 -0.0340  0.6064 -0.4976
  273MPD2    H5 4133   1.685   4.637  11.740  0.2103  0.6445 -0.6629
  273MPD2    N1 4134   2.065   4.559  12.169 -0.1136  0.1214 -0.5664
  273MPD2    H7 4135   2.069   4.494  12.247  0.5725  1.4251  0.4900
  274TMC3    C1 4136   1.724   0.147  11.701 -0.0698 -0.4003  0.2225
  274TMC3    C2 4137   1.599   0.113  11.643  0.1469 -0.4226  0.2344
  274TMC3    C3 4138   1.550   0.192  11.537 -0.5373  0.4187  0.2451
  274TMC3    C4 4139   1.791   0.257  11.652 -0.7683 -0.0205  0.7997
  274TMC3    C5 4140   1.730   0.340  11.557 -0.4376 -0.6869 -0.0435
  274TMC3    C6 4141   1.613   0.307  11.490 -0.0415 -0.3257  0.1025
  274TMC3     C 4142   1.764   0.080  11.822  0.4810 -0.3366  0.8271
  274TMC3     O 4143   1.811   0.149  11.910 -0.0720  0.1827  0.3487
  274TMC3     H 4144   1.533   0.034  11.676 -2.9586  1.8016 -0.5997
  274TMC3    H1 4145   1.874   0.296  11.710  0.1796 -0.5452 -0.2026
  274TMC3    H2 4146   1.564   0.384  11.432  2.5185  0.2765 -1.2578
  274TMC3    C7 4147   1.767   0.480  11.571 -0.6464  1.1713  0.0493
  274TMC3    C8 4148   1.435   0.151  11.466  0.5979 -0.0268 -0.2797
  274TMC3    O1 4149   1.882   0.504  11.594  0.3885 -0.7551 -0.7553
  274TMC3    O2 4150   1.344   0.097  11.527 -0.4784  0.0519  0.2996
  275MPD2     C 4151   1.571   2.622  14.417  0.8376 -0.7921 -0.1088
  275MPD2    C1 4152   1.500   2.620  14.535  0.2741 -0.3338 -0.3254
  275MPD2    C2 4153   1.378   2.555  14.555 -0.3952 -0.5482  0.3411
  275MPD2    C3 4154   1.329   2.490  14.441  0.2103 -0.0252 -0.5323
  275MPD2    C4 4155   1.401   2.488  14.326 -0.0682  0.6544 -0.4075
  275MPD2    C5 4156   1.522   2.549  14.314 -0.3310  0.1533  0.3853
  275MPD2     H 4157   1.331   2.559  14.652 -1.0049 -0.6911  0.0502
  275MPD2    H1 4158   1.357   2.447  14.236 -0.6729  0.8093 -0.1822
  275MPD2    H2 4159   1.669   2.668  14.407  0.9243 -1.4664 -2.4706
  275MPD2    H3 4160   1.574   2.534  14.220  1.0992 -1.1992  1.3817
  275MPD2     N 4161   1.199   2.425  14.437  0.0736  0.0589 -0.9345
  275MPD2    H5 4162   1.172   2.375  14.353 -2.0876  1.3084 -0.9722
  275MPD2    N1 4163   1.543   2.690  14.652  0.0352 -0.4045 -0.3474
  275MPD2    H7 4164   1.482   2.679  14.732  0.0746  2.9153  0.1537
  276TMC3    C1 4165   1.632   2.846  14.786  0.2069 -0.1664 -0.6994
  276TMC3    C2 4166   1.514   2.845  14.849  1.0092 -0.0601 -0.2074
  276TMC3    C3 4167   1.504   2.872  14.981  0.4167  0.0612 -0.2648
  276TMC3    C4 4168   1.747   2.853  14.857  0.4152 -0.1983  0.4021
  276TMC3    C5 4169   1.735   2.878  14.995  0.1453  0.4853 -0.0917
  276TMC3    C6 4170   1.614   2.892  15.065  0.2909 -0.0325  0.8128
  276TMC3     C 4171   1.641   2.779  14.663  0.4931  0.3631  0.4381
  276TMC3     O 4172   1.718   2.825  14.577 -0.0336  0.0834  0.5706
  276TMC3     H 4173   1.431   2.845  14.779 -0.2983  0.6898  1.3396
  276TMC3    H1 4174   1.845   2.835  14.813  0.2190 -2.1663  0.7594
  276TMC3    H2 4175   1.600   2.910  15.171 -0.5481 -2.3054  1.0700
  276TMC3    C7 4176   1.855   2.896  15.071  0.4718 -0.5719 -0.1154
  276TMC3    C8 4177   1.374   2.821  15.039  1.0466 -0.5629  0.3600
  276TMC3    O1 4178   1.834   2.945  15.185  0.0502  0.0008  0.3118
  276TMC3    O2 4179   1.299   2.905  15.085 -0.1404  0.4830 -0.4107
  277MPD2     C 4180   3.201   1.637  12.996  0.0700 -0.2284  0.1041
  277MPD2    C1 4181   3.088   1.696  13.038 -0.0190 -0.4039 -0.2363
  277MPD2    C2 4182   3.019   1.639  13.142  0.1709 -0.4307  0.2021
  277MPD2    C3 4183   3.063   1.521  13.197  0.5867 -0.1669 -1.0763
  277MPD2    C4 4184   3.176   1.461  13.153  0.2196 -0.2294  0.1648
  277MPD2    C5 4185   3.251   1.525  13.060 -0.1592 -0.3294 -0.2800
  277MPD2     H 4186   2.920   1.677  13.166  0.4288 -0.1925  0.8864
  277MPD2    H1 4187   3.214   1.372  13.201  0.2550 -0.4992 -0.3700
  277MPD2    H2 4188   3.260   1.679  12.915  1.6704 -3.3703 -0.3453
  277MPD2    H3 4189   3.349   1.483  13.039 -0.5942 -1.4881  0.0124
  277MPD2     N 4190   2.981   1.469  13.303 -0.0257 -0.0513 -0.1085
  277MPD2    H5 4191   2.903   1.524  13.336  0.8389  0.4105  1.1453
  277MPD2    N1 4192   3.053   1.817  12.979  0.0314  0.2984 -0.0960
  277MPD2    H7 4193   3.122   1.859  12.917  1.5061 -0.7616  0.8318
  278TMC3    C1 4194   2.894   1.311  13.463  0.4972 -0.4431  0.1085
  278TMC3    C2 4195   2.845   1.186  13.466 -1.2109 -0.4583  0.3914
  278TMC3    C3 4196   2.790   1.156  13.585 -0.2338 -0.6475 -0.0348
  278TMC3    C4 4197   2.890   1.405  13.567 -0.0769  0.0763  0.3265
  278TMC3    C5 4198   2.831   1.372  13.682 -0.3274 -0.7269  0.3442
  278TMC3    C6 4199   2.787   1.242  13.698  0.2682  0.6978 -0.1425
  278TMC3     C 4200   2.969   1.337  13.336  0.1505  0.3693 -0.0461
  278TMC3     O 4201   3.001   1.240  13.267 -0.6692  0.0306  0.4359
  278TMC3     H 4202   2.855   1.111  13.389 -2.9832  0.1279 -0.4119
  278TMC3    H1 4203   2.926   1.504  13.541  2.1860 -0.8843 -0.2308
  278TMC3    H2 4204   2.751   1.208  13.794 -0.7545  1.3765 -0.2804
  278TMC3    C7 4205   2.771   1.471  13.759  0.0087  0.2905  0.0539
  278TMC3    C8 4206   2.729   1.021  13.589  0.2742 -0.5347  0.1551
  278TMC3    O1 4207   2.837   1.563  13.801  0.1622  0.2018 -0.3672
  278TMC3    O2 4208   2.740   0.950  13.688 -0.2174 -0.1114 -0.2474
  279MPD2     C 4209   2.023   1.571  17.576 -0.1047  0.6054 -0.1068
  279MPD2    C1 4210   2.095   1.679  17.615  0.2927  0.0155  0.1818
  279MPD2    C2 4211   2.176   1.747  17.527 -0.0695  0.0508 -0.1957
  279MPD2    C3 4212   2.188   1.703  17.399 -0.0321 -0.0175  0.6603
  279MPD2    C4 4213   2.109   1.595  17.354 -0.4787 -0.0222 -0.5459
  279MPD2    C5 4214   2.023   1.533  17.446 -0.4710 -0.2775 -0.4855
  279MPD2     H 4215   2.228   1.836  17.559 -0.6831  0.5042 -0.4572
  279MPD2    H1 4216   2.111   1.557  17.252 -0.4973 -0.2506 -0.4602
  279MPD2    H2 4217   1.976   1.520  17.660 -0.4397 -0.0617 -0.6993
  279MPD2    H3 4218   1.959   1.449  17.419 -0.9894 -0.3192  0.8704
  279MPD2     N 4219   2.260   1.772  17.294 -0.5372 -0.2824  0.2857
  279MPD2    H5 4220   2.247   1.745  17.197  0.6607 -1.6314  0.5100
  279MPD2    N1 4221   2.070   1.720   0.058 -0.2182  0.5166  0.3653
  279MPD2    H7 4222   2.011   1.666   0.121 -0.8890  0.4766 -0.2991
  280TMC3    C1 4223   2.052   1.886   0.216 -0.1001 -0.0622  0.1819
  280TMC3    C2 4224   1.922   1.874   0.201  0.1426 -0.0069 -0.4275
  280TMC3    C3 4225   1.836   1.985   0.215 -0.2741 -0.2446  0.1604
  280TMC3    C4 4226   2.114   2.003   0.246 -0.2207 -0.4770 -0.2065
  280TMC3    C5 4227   2.028   2.113   0.261  0.0070  0.4139  0.2048
  280TMC3    C6 4228   1.891   2.103   0.251  0.1168  0.2130 -0.0418
  280TMC3     C 4229   2.142   1.815   0.122  0.0488 -0.0218  0.0586
  280TMC3     O 4230   2.248   1.874   0.086  0.2715 -0.1525 -0.4706
  280TMC3     H 4231   1.883   1.777   0.171 -1.8812  0.9747 -0.9537
  280TMC3    H1 4232   2.222   2.012   0.252 -0.1987 -1.5778  1.2272
  280TMC3    H2 4233   1.826   2.188   0.272  0.9266  0.6683  0.6257
  280TMC3    C7 4234   2.086   2.250   0.257  0.0218  0.0685  0.3480
  280TMC3    C8 4235   1.698   1.958   0.263 -0.4137  0.3212 -0.0397
  280TMC3    O1 4236   2.201   2.255   0.290 -0.2187  0.1060  0.0251
  280TMC3    O2 4237   1.660   2.026   0.359  0.2443  0.0083 -0.2654
  281TMC3    C1 4238   0.986   3.039  13.317  0.5284 -0.9179  0.6170
  281TMC3    C2 4239   0.984   3.118  13.206  0.3760 -0.0327 -0.2666
  281TMC3    C3 4240   1.074   3.097  13.112 -0.3870  0.8580  0.7113
  281TMC3    C4 4241   1.070   2.931  13.331  0.5950  0.2066 -0.1900
  281TMC3    C5 4242   1.171   2.920  13.238  0.2612 -0.4865  0.0007
  281TMC3    C6 4243   1.160   2.992  13.124  0.1384 -0.0684  0.4332
  281TMC3     C 4244   0.862   3.005  13.378 -0.4384 -0.2921 -0.8046
  281TMC3     O 4245   0.878   2.961  13.490  0.0814  0.3258 -0.1796
  281TMC3     H 4246   0.925   3.208  13.213  0.1641 -0.1122 -1.0504
  281TMC3    H1 4247   1.077   2.870  13.421 -0.9571 -0.3904 -0.4654
  281TMC3    H2 4248   1.236   2.982  13.047 -0.4417  3.3414 -0.5683
  281TMC3    C7 4249   1.264   2.813  13.248  0.1946  1.0462  0.0825
  281TMC3    C8 4250   1.124   3.217  13.048 -0.0919  0.0289  0.6125
  281TMC3    O1 4251   1.375   2.834  13.198 -0.5117 -0.4439 -0.3990
  281TMC3    O2 4252   1.233   3.247  13.093  0.4649  0.4195  0.0348
  282MPD2     C 4253   3.149   3.134  15.003 -0.0674 -0.1953 -0.3578
  282MPD2    C1 4254   3.079   3.249  15.006  0.1631 -0.3980  0.6556
  282MPD2    C2 4255   3.016   3.294  14.893 -0.4037 -0.8403  0.8871
  282MPD2    C3 4256   3.040   3.227  14.773 -0.2618  0.1747 -0.8494
  282MPD2    C4 4257   3.118   3.120  14.770 -0.5627  0.3417 -0.0351
  282MPD2    C5 4258   3.169   3.066  14.885  0.5852 -0.4198 -0.7163
  282MPD2     H 4259   2.943   3.372  14.909  0.0087  0.2160 -2.2202
  282MPD2    H1 4260   3.148   3.062  14.683 -2.6725 -0.4260 -0.2455
  282MPD2    H2 4261   3.197   3.091  15.090  1.9438 -0.5996 -1.6705
  282MPD2    H3 4262   3.219   2.970  14.875  0.4823 -0.3612 -1.7894
  282MPD2     N 4263   2.972   3.270  14.660  0.7335  0.4393 -0.1682
  282MPD2    H5 4264   2.902   3.342  14.673  1.0867  0.3089  2.4382
  282MPD2    N1 4265   3.067   3.320  15.129  0.2964 -0.1363 -0.2637
  282MPD2    H7 4266   3.082   3.268  15.215  1.8805  1.0912  0.2086
  283TMC3    C1 4267   3.058   3.492  15.278 -0.0044 -0.7607  0.4041
  283TMC3    C2 4268   3.152   3.578  15.315 -0.4926 -0.1228 -0.2849
  283TMC3    C3 4269   3.168   3.602  15.448 -0.3000  0.6174 -0.0905
  283TMC3    C4 4270   2.989   3.411  15.367  0.1629  0.1734 -0.0409
  283TMC3    C5 4271   3.018   3.429  15.499 -0.1730 -0.1780  0.0667
  283TMC3    C6 4272   3.102   3.526  15.543  0.3072  0.1662 -0.1698
  283TMC3     C 4273   3.039   3.456  15.142  0.1721  0.4321 -0.1252
  283TMC3     O 4274   3.030   3.534  15.048  0.9044  0.3793 -0.0305
  283TMC3     H 4275   3.203   3.629  15.234  0.4523 -0.7477 -0.0740
  283TMC3    H1 4276   2.917   3.341  15.326 -0.3453 -0.5471  2.0745
  283TMC3    H2 4277   3.103   3.546  15.650 -1.4250  0.5857 -0.2303
  283TMC3    C7 4278   2.933   3.359  15.601 -0.2175  0.7789  0.4914
  283TMC3    C8 4279   3.254   3.701  15.510  0.8592  0.4296 -0.7195
  283TMC3    O1 4280   2.932   3.396  15.715 -0.7598 -0.2137  0.1218
  283TMC3    O2 4281   3.280   3.699  15.630  0.1693  0.1089 -0.1458
  284MPD2     C 4282   1.019   2.969  11.596  0.1679 -0.5784 -0.6163
  284MPD2    C1 4283   1.137   3.041  11.579 -0.0409 -0.2845  0.0668
  284MPD2    C2 4284   1.231   3.034  11.673  1.0459 -0.1936 -1.4156
  284MPD2    C3 4285   1.210   2.966  11.795 -0.1036 -0.4881  0.3666
  284MPD2    C4 4286   1.092   2.905  11.817 -0.3695  0.1691 -0.4810
  284MPD2    C5 4287   1.001   2.904  11.716 -0.1413  0.2156 -0.5131
  284MPD2     H 4288   1.324   3.084  11.651  1.5028 -0.9730 -1.2614
  284MPD2    H1 4289   1.067   2.867  11.915  0.1892  2.1907  0.4418
  284MPD2    H2 4290   0.947   2.968  11.515  1.3845 -2.1766 -1.6888
  284MPD2    H3 4291   0.910   2.848  11.734 -0.2990  0.3197 -0.9749
  284MPD2     N 4292   1.304   2.957  11.901 -0.2491 -0.2388 -0.6398
  284MPD2    H5 4293   1.289   2.897  11.982  1.5915  1.2321  0.7984
  284MPD2    N1 4294   1.178   3.096  11.458 -0.3902  0.4542 -0.5218
  284MPD2    H7 4295   1.272   3.135  11.451  0.8488 -2.3319  0.4533
  285TMC3    C1 4296   1.198   3.130  11.230  0.1160 -0.1615 -0.3716
  285TMC3    C2 4297   1.194   3.066  11.108 -0.0758 -0.4053 -0.3773
  285TMC3    C3 4298   1.293   3.108  11.024 -0.4911 -0.0605 -0.5128
  285TMC3    C4 4299   1.273   3.237  11.263  0.9128  0.2535  0.5375
  285TMC3    C5 4300   1.364   3.281  11.173  0.5144  0.3235 -0.2281
  285TMC3    C6 4301   1.383   3.206  11.063 -0.3375  0.1515  0.5426
  285TMC3     C 4302   1.114   3.079  11.335 -0.0623  0.2318  0.5639
  285TMC3     O 4303   1.004   3.037  11.307 -0.3396 -0.0889 -0.1546
  285TMC3     H 4304   1.149   2.968  11.097 -0.0712 -0.2407 -1.8676
  285TMC3    H1 4305   1.257   3.292  11.355 -2.1326  0.1805  0.0668
  285TMC3    H2 4306   1.466   3.235  11.000  0.1328  1.6882  1.8607
  285TMC3    C7 4307   1.434   3.400  11.197 -0.3698 -0.1595 -0.6029
  285TMC3    C8 4308   1.337   2.995  10.938 -0.1218 -0.3949 -0.3303
  285TMC3    O1 4309   1.471   3.422  11.310  0.6890  0.3100 -0.2066
  285TMC3    O2 4310   1.253   2.914  10.895 -0.0018 -0.7307  0.4026
  286MPD2     C 4311   1.148   1.587   1.492  0.1310  0.2318 -0.5764
  286MPD2    C1 4312   1.211   1.579   1.371  0.5056 -0.3056  0.0787
  286MPD2    C2 4313   1.342   1.570   1.349  0.4710 -0.2096 -0.2589
  286MPD2    C3 4314   1.424   1.531   1.451  0.4727  0.0913 -0.3726
  286MPD2    C4 4315   1.369   1.524   1.575 -0.5961 -0.8031  0.7090
  286MPD2    C5 4316   1.230   1.548   1.591  0.0319  0.0624 -0.2896
  286MPD2     H 4317   1.384   1.594   1.252 -0.1855  1.3190 -0.1714
  286MPD2    H1 4318   1.430   1.499   1.661 -0.9712 -2.2912  0.5403
  286MPD2    H2 4319   1.042   1.597   1.510  0.1178 -2.2042  0.7425
  286MPD2    H3 4320   1.182   1.539   1.688 -1.2720 -0.1401 -0.9534
  286MPD2     N 4321   1.568   1.500   1.431 -0.0891  0.1682 -0.4826
  286MPD2    H5 4322   1.618   1.487   1.519  1.7611 -0.4944 -1.6328
  286MPD2    N1 4323   1.143   1.619   1.256  0.1066  0.7071  0.4176
  286MPD2    H7 4324   1.201   1.631   1.174  1.1659  1.8459  1.3334
  287TMC3    C1 4325   1.761   1.440   1.312 -0.5041 -0.3440  0.2314
  287TMC3    C2 4326   1.804   1.396   1.189  0.2479 -0.5205  0.0057
  287TMC3    C3 4327   1.901   1.300   1.192  0.5393 -0.1964 -0.1540
  287TMC3    C4 4328   1.808   1.395   1.436  0.2293  0.2171 -0.4585
  287TMC3    C5 4329   1.914   1.304   1.426  0.2357  0.2771 -0.5185
  287TMC3    C6 4330   1.961   1.260   1.308  0.2724 -0.4366  0.7883
  287TMC3     C 4331   1.636   1.512   1.307 -0.4314  0.6800  0.0810
  287TMC3     O 4332   1.594   1.542   1.192 -0.1228  0.2206  0.0258
  287TMC3     H 4333   1.754   1.430   1.099 -0.8295  2.8885  1.8552
  287TMC3    H1 4334   1.775   1.432   1.532  1.4430  0.0089  0.0390
  287TMC3    H2 4335   2.043   1.188   1.300 -0.3725 -0.9544 -1.2541
  287TMC3    C7 4336   1.987   1.303   1.551  0.2612 -0.1826 -0.1443
  287TMC3    C8 4337   1.946   1.245   1.069  0.6812 -0.5114 -0.5063
  287TMC3    O1 4338   1.944   1.360   1.648  0.1149 -1.2004 -0.1188
  287TMC3    O2 4339   1.964   1.124   1.075 -0.1614 -0.0238 -0.1946
  288TMC3    C1 4340   3.566   1.076  13.592 -0.0040  0.7772 -0.5520
  288TMC3    C2 4341   3.501   1.117  13.713  0.2195 -0.1244  0.0283
  288TMC3    C3 4342   3.521   1.047  13.825 -0.8148 -0.5632  0.4845
  288TMC3    C4 4343   3.635   0.956  13.585 -0.1569  0.1057 -0.3782
  288TMC3    C5 4344   3.646   0.892  13.703  0.1722 -0.1437 -0.2540
  288TMC3    C6 4345   3.586   0.931  13.823 -0.4753 -0.1470 -0.2097
  288TMC3     C 4346   3.557   1.167  13.482 -0.1375 -0.2041 -0.4283
  288TMC3     O 4347   3.547   1.113  13.374 -0.2014  0.6155 -0.2820
  288TMC3     H 4348   3.442   1.208  13.709 -1.7236 -1.4397 -1.5178
  288TMC3    H1 4349   3.688   0.925  13.495  2.3817 -0.5011  1.3315
  288TMC3    H2 4350   3.591   0.878  13.918 -1.7640  2.1609  1.1275
  288TMC3    C7 4351   3.715   0.764  13.690  0.2567  0.4586  0.0351
  288TMC3    C8 4352   3.448   1.104  13.941 -0.0861 -0.0168  0.1759
  288TMC3    O1 4353   3.715   0.714  13.577  0.0493 -0.3660 -0.1121
  288TMC3    O2 4354   3.460   1.226  13.961 -0.4280  0.2843  0.7734
  289MPD2     C 4355   3.361   0.598  14.503 -0.0283  0.4260 -0.1631
  289MPD2    C1 4356   3.428   0.673  14.405 -0.0130 -0.5319  0.4935
  289MPD2    C2 4357   3.402   0.662  14.268 -0.4909  0.7684 -0.9472
  289MPD2    C3 4358   3.308   0.562  14.226 -0.3894 -0.3207  0.3833
  289MPD2    C4 4359   3.242   0.484  14.320  0.4459 -0.1312 -0.0978
  289MPD2    C5 4360   3.270   0.511  14.460  0.0337 -0.1423  0.1616
  289MPD2     H 4361   3.459   0.719  14.196 -0.9486  2.2144 -0.1517
  289MPD2    H1 4362   3.170   0.409  14.290  0.2179  1.0148 -2.4260
  289MPD2    H2 4363   3.380   0.620  14.607 -1.1460  0.5179  0.0252
  289MPD2    H3 4364   3.211   0.458  14.534  1.4293  0.2960  1.5847
  289MPD2     N 4365   3.276   0.548  14.089 -0.3906  0.3352  0.1001
  289MPD2    H5 4366   3.192   0.494  14.073  0.8955 -2.1197  1.7668
  289MPD2    N1 4367   3.514   0.773  14.458  0.4486 -0.1189 -0.3247
  289MPD2    H7 4368   3.527   0.784  14.558  0.2101 -2.4142 -0.0432
  290TMC3    C1 4369   3.232   0.639  13.874 -0.9755  0.0155  0.3121
  290TMC3    C2 4370   3.209   0.754  13.818  0.0446  0.2533  0.3596
  290TMC3    C3 4371   3.111   0.762  13.723 -0.1115 -0.2656  0.6378
  290TMC3    C4 4372   3.169   0.521  13.831  0.7643  0.0041 -1.0562
  290TMC3    C5 4373   3.083   0.528  13.732 -0.2632 -0.3627  0.2154
  290TMC3    C6 4374   3.050   0.649  13.679  0.4104  0.2745  0.5259
  290TMC3     C 4375   3.319   0.631  13.991  0.4080  0.7882 -0.0713
  290TMC3     O 4376   3.419   0.701  13.981 -0.1711 -0.4790  0.2102
  290TMC3     H 4377   3.269   0.837  13.856 -0.3119  0.3500  0.7111
  290TMC3    H1 4378   3.192   0.432  13.888  0.3909  0.8269  0.3925
  290TMC3    H2 4379   2.961   0.661  13.618  0.3387 -1.1556  0.3582
  290TMC3    C7 4380   3.012   0.414  13.682 -0.8253  0.0103  0.1886
  290TMC3    C8 4381   3.104   0.897  13.653  0.0121 -0.3290 -0.1847
  290TMC3    O1 4382   2.971   0.424  13.563 -0.0657  0.5790 -0.4215
  290TMC3    O2 4383   3.105   0.894  13.530 -0.1562  0.0715 -0.0348
  291MPD2     C 4384   2.302   0.610   0.219 -0.3388  0.5213  0.7457
  291MPD2    C1 4385   2.268   0.527   0.322  0.7285  0.2485  0.6913
  291MPD2    C2 4386   2.310   0.566   0.450  0.6961  0.4553  0.1058
  291MPD2    C3 4387   2.367   0.690   0.478 -0.8742  0.4845  0.8617
  291MPD2    C4 4388   2.408   0.764   0.371 -0.7641  0.0553 -0.4103
  291MPD2    C5 4389   2.377   0.726   0.246 -0.0142  0.1201 -0.5276
  291MPD2     H 4390   2.281   0.505   0.535 -1.8141  0.6946 -0.5856
  291MPD2    H1 4391   2.469   0.851   0.393  0.9706 -1.0813 -0.7438
  291MPD2    H2 4392   2.282   0.595   0.113  1.1361  3.3832  0.0646
  291MPD2    H3 4393   2.402   0.798   0.169 -1.7410  4.1657  2.6858
  291MPD2     N 4394   2.410   0.730   0.604 -1.5228  0.2642  0.1553
  291MPD2    H5 4395   2.464   0.815   0.616  0.7420 -1.0625 -0.5517
  291MPD2    N1 4396   2.187   0.406   0.310 -0.1739  0.2894 -0.4418
  291MPD2    H7 4397   2.158   0.358   0.394 -2.0825  1.4103 -0.4604
  292TMC3    C1 4398   2.104   0.214   0.230  0.1544 -0.8574  0.5099
  292TMC3    C2 4399   1.999   0.214   0.318 -0.3434  0.3794 -0.7058
  292TMC3    C3 4400   1.925   0.098   0.337 -0.1514  0.1276  0.1319
  292TMC3    C4 4401   2.150   0.101   0.167  0.2597 -0.0476 -0.1800
  292TMC3    C5 4402   2.062   4.720   0.176  0.1534  0.0389  0.2562
  292TMC3    C6 4403   1.951   4.712   0.257 -0.4668  0.5858 -0.1334
  292TMC3     C 4404   2.149   0.348   0.193  0.0332  0.8478 -0.0159
  292TMC3     O 4405   2.160   0.371   0.074  0.4184 -1.0978 -0.0417
  292TMC3     H 4406   1.958   0.306   0.357 -0.6757 -0.7299  1.5365
  292TMC3    H1 4407   2.232   0.111   0.096 -0.5590 -0.1055 -1.1443
  292TMC3    H2 4408   1.907   4.614   0.272  1.4913 -0.2643  0.0272
  292TMC3    C7 4409   2.099   4.599   0.099 -0.3904  0.1669  0.4854
  292TMC3    C8 4410   1.821   0.098   0.445 -0.1403 -0.8035 -0.3602
  292TMC3    O1 4411   2.215   4.581   0.058 -0.5031 -0.4626 -0.0459
  292TMC3    O2 4412   1.803   0.204   0.503 -0.2310  0.0706  0.7753
  293MPD2     C 4413   4.499   2.224  12.618  0.2691  0.0418  0.1198
  293MPD2    C1 4414   4.388   2.166  12.673 -0.6830  0.2164  0.4252
  293MPD2    C2 4415   4.375   2.175  12.811  0.5113 -0.4401 -0.6997
  293MPD2    C3 4416   4.474   2.232  12.889 -0.1600 -0.0872  0.0935
  293MPD2    C4 4417   4.584   2.292  12.826 -0.2260  0.1562 -0.5085
  293MPD2    C5 4418   4.599   2.287  12.689 -0.3781 -0.1004 -0.9803
  293MPD2     H 4419   4.283   2.146  12.862  1.4441 -0.9311  0.6933
  293MPD2    H1 4420   4.665   2.331  12.886 -2.9225 -1.1698  3.9447
  293MPD2    H2 4421   4.521   2.230  12.512 -3.1417  3.8751 -0.3889
  293MPD2    H3 4422   4.682   2.329  12.635  0.3494  0.2516  0.4056
  293MPD2     N 4423   4.454   2.221  13.029  0.3777  0.3119  0.0931
  293MPD2    H5 4424   4.384   2.154  13.059 -1.0842  1.9342  0.2755
  293MPD2    N1 4425   4.306   2.098  12.589 -0.3296  0.0867 -0.1412
  293MPD2    H7 4426   4.331   2.102  12.490  1.6408 -2.5086  0.2693
  294TMC3    C1 4427   4.128   1.955  12.513  0.3275  0.6150 -0.2944
  294TMC3    C2 4428   4.026   1.872  12.564  0.2606  0.5160 -0.3568
  294TMC3    C3 4429   3.921   1.846  12.483  1.2107 -0.5019 -0.3157
  294TMC3    C4 4430   4.132   2.006  12.387  0.0520 -0.2676  0.2171
  294TMC3    C5 4431   4.014   1.980  12.318 -0.7741 -0.0902  0.2595
  294TMC3    C6 4432   3.910   1.903  12.361  0.1037  0.7950  0.1695
  294TMC3     C 4433   4.197   2.024  12.619  0.4740  0.2555  0.5054
  294TMC3     O 4434   4.160   2.004  12.734 -0.4945 -0.3637  0.3375
  294TMC3     H 4435   4.031   1.833  12.665  0.9032  0.4554 -0.4143
  294TMC3    H1 4436   4.211   2.072  12.353 -0.6821  0.3605 -0.2848
  294TMC3    H2 4437   3.813   1.899  12.312  0.0457  3.4995  0.0614
  294TMC3    C7 4438   4.011   2.012  12.173 -0.3503  0.3080 -0.0113
  294TMC3    C8 4439   3.850   1.725  12.514 -0.0212 -0.5370 -0.2204
  294TMC3    O1 4440   3.915   1.968  12.114 -0.4123 -0.6469  0.5380
  294TMC3    O2 4441   3.869   1.687  12.628 -0.4306  0.2472 -0.2709
  295MPD2     C 4442   4.343   4.194   1.185  0.2139  0.2001  0.1130
  295MPD2    C1 4443   4.359   4.329   1.146  0.2713  0.6273  0.3171
  295MPD2    C2 4444   4.406   4.421   1.242  0.4100 -0.3144  0.0479
  295MPD2    C3 4445   4.429   4.381   1.371  0.3755 -0.4463 -0.4521
  295MPD2    C4 4446   4.408   4.247   1.409  0.7647 -0.3758 -0.0326
  295MPD2    C5 4447   4.371   4.162   1.312 -0.2993 -0.0926 -0.4190
  295MPD2     H 4448   4.439   4.518   1.206 -0.8889 -0.0662 -0.4504
  295MPD2    H1 4449   4.425   4.212   1.511  1.2650  0.6642  0.2446
  295MPD2    H2 4450   4.304   4.115   1.123  0.1313 -0.5858  1.1760
  295MPD2    H3 4451   4.350   4.061   1.345 -1.7598  0.2532 -0.3258
  295MPD2     N 4452   4.473   4.467   1.475 -0.1458 -1.1079 -0.2553
  295MPD2    H5 4453   4.501   4.412   1.555  2.5522  0.4649 -0.1221
  295MPD2    N1 4454   4.346   4.374   1.010 -0.8152  0.2124  0.2221
  295MPD2    H7 4455   4.354   4.474   0.993 -0.0794 -0.0910 -1.1563
  296TMC3    C1 4456   4.573   4.672   1.550  0.3385 -0.4970  0.6960
  296TMC3    C2 4457   4.579   0.086   1.539  0.1696 -0.5512  0.1760
  296TMC3    C3 4458   4.614   0.157   1.649 -0.2228  0.0810  0.3014
  296TMC3    C4 4459   4.590   4.611   1.666 -0.9139  0.8854  0.4420
  296TMC3    C5 4460   4.612   4.689   1.776 -0.1636 -0.0210 -0.5238
  296TMC3    C6 4461   4.624   0.100   1.772  0.0447 -0.2658  0.2398
  296TMC3     C 4462   4.491   4.600   1.454 -0.4351 -0.2515  0.0440
  296TMC3     O 4463   4.440   4.675   1.374  0.3571 -0.2264 -0.1842
  296TMC3     H 4464   4.556   0.136   1.445 -0.7671 -2.7973 -0.7957
  296TMC3    H1 4465   4.566   4.507   1.681 -1.1272  1.0004  0.9106
  296TMC3    H2 4466   4.654   0.158   1.858  0.0012  0.0701  0.0265
  296TMC3    C7 4467   4.633   4.627   1.903  0.1302  0.0660 -0.3840
  296TMC3    C8 4468   4.637   0.305   1.624 -0.1546 -0.4771  0.2175
  296TMC3    O1 4469   4.604   4.704   1.994 -0.3591  0.2632 -0.1946
  296TMC3    O2 4470   4.585   0.358   1.524  0.4372 -0.6152 -0.4293
  297MPD2     C 4471   2.066   2.191  16.283  0.1494 -0.1125 -0.0737
  297MPD2    C1 4472   2.042   2.274  16.179 -0.5096  0.3966  0.2653
  297MPD2    C2 4473   2.128   2.382  16.163  0.4015  0.0126 -0.9267
  297MPD2    C3 4474   2.228   2.412  16.249  0.6353  0.8647  0.3633
  297MPD2    C4 4475   2.255   2.323  16.352 -0.1542  0.4377  0.7252
  297MPD2    C5 4476   2.174   2.213  16.367 -0.2701 -0.2714 -0.7102
  297MPD2     H 4477   2.112   2.442  16.074 -2.0017 -0.5303 -0.8359
  297MPD2    H1 4478   2.341   2.338  16.417 -0.1353 -1.9952  1.2438
  297MPD2    H2 4479   2.000   2.108  16.303 -1.0402  1.0957  1.0300
  297MPD2    H3 4480   2.187   2.143  16.448 -2.7267  1.5013  1.2232
  297MPD2     N 4481   2.312   2.526  16.238 -0.3113  0.4684 -0.3295
  297MPD2    H5 4482   2.391   2.528  16.301 -0.9684  0.2417  0.5073
  297MPD2    N1 4483   1.929   2.263  16.093 -0.6529  0.1268 -0.4561
  297MPD2    H7 4484   1.894   2.347  16.048  4.0729  2.1111 -0.3910
  298TMC3    C1 4485   1.738   2.162  15.996  0.2796  0.4891  0.1592
  298TMC3    C2 4486   1.713   2.119  15.865  0.5040  0.4670 -0.2756
  298TMC3    C3 4487   1.608   2.170  15.794  0.0782  0.2114 -0.1635
  298TMC3    C4 4488   1.655   2.261  16.051  0.3098 -0.0678 -0.6098
  298TMC3    C5 4489   1.557   2.319  15.964  0.3956 -0.0590 -0.2886
  298TMC3    C6 4490   1.531   2.272  15.838  0.0303  0.6350  0.1655
  298TMC3     C 4491   1.866   2.140  16.060 -0.2758 -0.5263 -0.6940
  298TMC3     O 4492   1.917   2.029  16.041  0.2881  0.0887  0.2782
  298TMC3     H 4493   1.786   2.056  15.817  0.3324  1.1571 -1.4310
  298TMC3    H1 4494   1.670   2.290  16.155  2.1722 -1.1228 -0.5970
  298TMC3    H2 4495   1.449   2.318  15.784  0.4326  2.2410  0.9228
  298TMC3    C7 4496   1.488   2.434  16.017  0.7380 -0.2963  0.2684
  298TMC3    C8 4497   1.601   2.141  15.649 -0.3510  0.3244 -0.3896
  298TMC3    O1 4498   1.496   2.444  16.137  0.2250  0.4455  0.1217
  298TMC3    O2 4499   1.640   2.036  15.598  0.3303  0.2014  0.2868
  299MPD2     C 4500   2.562   1.701  10.673 -0.2195 -0.0968  0.1648
  299MPD2    C1 4501   2.591   1.797  10.579  0.1552  0.6257 -0.3426
  299MPD2    C2 4502   2.555   1.782  10.443 -0.1967 -0.2317 -0.5242
  299MPD2    C3 4503   2.483   1.666  10.404 -0.8958 -0.3514 -0.0856
  299MPD2    C4 4504   2.467   1.572  10.498  0.0311  0.3753  0.3311
  299MPD2    C5 4505   2.487   1.595  10.632 -0.6429 -0.1369 -0.5182
  299MPD2     H 4506   2.567   1.865  10.375  0.7717  0.5888  0.6384
  299MPD2    H1 4507   2.409   1.483  10.476 -0.1967  0.2685  1.3582
  299MPD2    H2 4508   2.592   1.711  10.777  0.8694 -0.3649 -0.1203
  299MPD2    H3 4509   2.460   1.514  10.700 -4.1386  0.3686 -1.2791
  299MPD2     N 4510   2.409   1.659  10.286 -0.3426  0.2813 -0.3002
  299MPD2    H5 4511   2.367   1.570  10.262 -0.7868  0.5166 -0.3929
  299MPD2    N1 4512   2.665   1.905  10.630 -0.2585 -0.4978 -0.4634
  299MPD2    H7 4513   2.689   1.898  10.728  2.1114 -0.9663 -1.0943
  300TMC3    C1 4514   2.280   1.743  10.095  0.0110 -0.0297 -0.1003
  300TMC3    C2 4515   2.263   1.850  10.013  0.2740  0.2282  0.3879
  300TMC3    C3 4516   2.147   1.913   9.986 -0.2651 -0.0640 -0.0719
  300TMC3    C4 4517   2.162   1.711  10.163 -0.6900 -1.0274 -0.4757
  300TMC3    C5 4518   2.044   1.782  10.146  0.2434 -0.0022  0.8039
  300TMC3    C6 4519   2.034   1.883  10.059  0.3132 -0.1238 -0.5754
  300TMC3     C 4520   2.390   1.762  10.196  0.5233 -0.1332  0.3445
  300TMC3     O 4521   2.428   1.878  10.205  0.3421 -0.5832  0.2356
  300TMC3     H 4522   2.349   1.896   9.966  0.4308  1.0285  1.4779
  300TMC3    H1 4523   2.156   1.620  10.220  1.5179 -0.6469  0.3465
  300TMC3    H2 4524   1.942   1.932  10.029  0.1025 -0.5447 -0.6221
  300TMC3    C7 4525   1.919   1.736  10.209 -0.0369 -0.5234 -0.8732
  300TMC3    C8 4526   2.173   2.053   9.961 -0.2469  0.5533  0.4102
  300TMC3    O1 4527   1.896   1.619  10.231  0.0116  0.3590 -0.3345
  300TMC3    O2 4528   2.155   2.132  10.052 -0.2471 -0.3139 -0.2990
  301MPD2     C 4529   4.615   3.058   1.628 -0.4536 -0.4902  0.1095
  301MPD2    C1 4530   4.500   2.985   1.607  0.0405 -0.0709 -0.5214
  301MPD2    C2 4531   4.499   2.854   1.596 -0.4364 -0.2096 -0.6086
  301MPD2    C3 4532   4.622   2.789   1.586 -0.2403 -0.0309 -0.5785
  301MPD2    C4 4533   0.019   2.861   1.597 -0.3492 -0.2192  0.1888
  301MPD2    C5 4534   0.010   2.992   1.620  0.0842 -0.2542  0.4644
  301MPD2     H 4535   4.408   2.796   1.589 -0.3232 -0.1798 -2.2972
  301MPD2    H1 4536   0.110   2.805   1.582  0.7544  1.8934 -0.9495
  301MPD2    H2 4537   4.615   3.166   1.641  0.8438 -0.3753 -0.9348
  301MPD2    H3 4538   0.101   3.050   1.636 -1.0564  0.9577  2.5784
  301MPD2     N 4539   4.639   2.649   1.554  0.0698 -0.2110 -0.3941
  301MPD2    H5 4540   0.011   2.611   1.561  0.7714  1.6438  0.2045
  301MPD2    N1 4541   4.377   3.051   1.583  0.6097  0.3176  0.3014
  301MPD2    H7 4542   4.296   2.996   1.560  0.8131  0.3988 -0.6073
  302TMC3    C1 4543   4.593   2.436   1.463  0.4223 -0.5474  0.1347
  302TMC3    C2 4544   4.708   2.388   1.509 -0.0618  0.0510  0.7447
  302TMC3    C3 4545   0.048   2.293   1.437  0.4846 -0.1542  0.3215
  302TMC3    C4 4546   4.527   2.384   1.354  0.1017  0.0603  0.1386
  302TMC3    C5 4547   4.593   2.286   1.282  0.1998 -0.1157  0.2662
  302TMC3    C6 4548   4.708   2.235   1.335 -0.1711 -0.0168  0.1576
  302TMC3     C 4549   4.542   2.562   1.513 -0.1843  0.1620  0.0926
  302TMC3     O 4550   4.424   2.578   1.498  0.5697 -0.0732 -0.5828
  302TMC3     H 4551   0.034   2.434   1.595 -1.6976  0.5172  1.4072
  302TMC3    H1 4552   4.430   2.417   1.321  0.2213 -1.1454 -1.4587
  302TMC3    H2 4553   0.030   2.154   1.277 -0.0918 -0.1769  0.4409
  302TMC3    C7 4554   4.518   2.220   1.175  0.0053 -0.2015  0.1378
  302TMC3    C8 4555   0.142   2.211   1.506  0.6314  0.1914  0.0334
  302TMC3    O1 4556   4.547   2.104   1.152 -0.5389 -0.0995 -0.1439
  302TMC3    O2 4557   0.239   2.162   1.447  0.1821  0.2327 -0.3846
  303MPD2     C 4558   0.440   1.523  10.269  0.2044 -0.0778 -0.6221
  303MPD2    C1 4559   0.309   1.512  10.316  0.2895 -0.3788  0.1129
  303MPD2    C2 4560   0.205   1.486  10.229  0.0326 -0.1746 -0.2686
  303MPD2    C3 4561   0.221   1.481  10.092  0.2546 -0.6164 -0.4497
  303MPD2    C4 4562   0.352   1.498  10.042 -0.4965 -0.7766 -0.6105
  303MPD2    C5 4563   0.458   1.519  10.129  0.6147  0.9428  0.3529
  303MPD2     H 4564   0.105   1.473  10.270 -0.4303  0.0758 -1.3150
  303MPD2    H1 4565   0.379   1.495   9.937  1.9245  2.2583 -0.1001
  303MPD2    H2 4566   0.522   1.542  10.337  0.8434 -0.0176 -1.4190
  303MPD2    H3 4567   0.557   1.543  10.092 -0.1002  0.4283 -1.8830
  303MPD2     N 4568   0.113   1.448  10.000 -0.5626 -0.5116 -0.6106
  303MPD2    H5 4569   0.141   1.450   9.902  0.5084  0.6337 -0.2765
  303MPD2    N1 4570   0.286   1.521  10.451 -0.0802 -0.3141 -0.7216
  303MPD2    H7 4571   0.370   1.516  10.508 -1.8889 -0.6529  1.9237
  304TMC3    C1 4572   0.201   1.548  10.669 -0.0989 -0.6025  0.1052
  304TMC3    C2 4573   0.121   1.614  10.758 -0.3760 -0.4117 -0.5523
  304TMC3    C3 4574   0.122   1.587  10.892 -0.3329 -0.0984 -0.4644
  304TMC3    C4 4575   0.258   1.429  10.717 -0.1618  0.1145 -0.2615
  304TMC3    C5 4576   0.242   1.396  10.850  0.5969 -0.5541  0.2433
  304TMC3    C6 4577   0.193   1.480  10.946 -0.6392 -0.1111 -0.1733
  304TMC3     C 4578   0.174   1.553  10.525 -0.5610 -0.4066  0.5887
  304TMC3     O 4579   0.067   1.602  10.487  0.0330 -0.4124  0.0610
  304TMC3     H 4580   0.070   1.706  10.729  0.6793  0.5340  0.6205
  304TMC3    H1 4581   0.308   1.359  10.652  1.0391 -0.0214  0.8205
  304TMC3    H2 4582   0.186   1.453  11.051  0.0811 -2.4337 -0.7211
  304TMC3    C7 4583   0.173   1.269  10.849 -0.0942  0.6635 -0.1548
  304TMC3    C8 4584   4.713   1.606  10.945 -0.4305  0.4323  0.4069
  304TMC3    O1 4585   0.122   1.240  10.742 -0.3387 -0.3597  0.5926
  304TMC3    O2 4586   4.614   1.608  10.872 -0.0675 -0.3549  0.3015
  305MPD2     C 4587   3.101   3.448  14.210  0.2602 -0.5454 -0.4447
  305MPD2    C1 4588   3.104   3.585  14.180  0.7404 -0.1451 -0.6756
  305MPD2    C2 4589   3.115   3.632  14.051 -0.6514 -0.6189 -0.4517
  305MPD2    C3 4590   3.117   3.544  13.947 -0.6264  0.0249  0.1880
  305MPD2    C4 4591   3.113   3.415  13.977 -0.1726  0.2360  0.0837
  305MPD2    C5 4592   3.100   3.363  14.104  0.6178 -0.4718  1.0527
  305MPD2     H 4593   3.125   3.737  14.029 -3.1563  0.0703  1.7459
  305MPD2    H1 4594   3.101   3.339  13.900 -0.3579  2.4556 -2.0679
  305MPD2    H2 4595   3.114   3.413  14.312 -1.9431 -2.4121 -0.7886
  305MPD2    H3 4596   3.102   3.257  14.125 -0.9032 -0.8239 -0.5953
  305MPD2     N 4597   3.124   3.575  13.811  0.1398  0.3803  0.0211
  305MPD2    H5 4598   3.094   3.500  13.751  1.2014 -0.5842  0.6933
  305MPD2    N1 4599   3.123   3.677  14.293  0.5697  0.1674 -0.2920
  305MPD2    H7 4600   3.130   3.632  14.383  1.6722  1.7618  0.4174
  306TMC3    C1 4601   3.185   3.861  14.421 -0.0425  0.0580 -0.5166
  306TMC3    C2 4602   3.167   3.785  14.534  0.3831 -0.2928  0.2676
  306TMC3    C3 4603   3.208   3.828  14.661 -0.0411 -0.6133  0.7779
  306TMC3    C4 4604   3.235   3.985  14.434  0.2054  1.1259 -0.2823
  306TMC3    C5 4605   3.264   4.033  14.561 -0.2597  0.6717 -0.0135
  306TMC3    C6 4606   3.257   3.956  14.676  0.5202 -0.1454  0.3606
  306TMC3     C 4607   3.147   3.813  14.291  0.2235  0.5470  0.2651
  306TMC3     O 4608   3.155   3.889  14.195  0.0087 -0.3105  0.1857
  306TMC3     H 4609   3.117   3.689  14.526 -1.8391  0.6764  2.6680
  306TMC3    H1 4610   3.257   4.057  14.356  1.1031 -0.2800 -1.3244
  306TMC3    H2 4611   3.273   3.994  14.776  0.6153  0.2373  0.2034
  306TMC3    C7 4612   3.315   4.168  14.575 -0.0292  0.0490  0.8142
  306TMC3    C8 4613   3.222   3.732  14.764 -0.3647  0.7925  0.1063
  306TMC3    O1 4614   3.308   4.242  14.479  0.7805 -0.1794 -1.2468
  306TMC3    O2 4615   3.172   3.621  14.743  0.0439  0.1935  0.1644
  307MPD2     C 4616   1.212   1.457   0.647  0.0901  0.1787 -1.0584
  307MPD2    C1 4617   1.165   1.519   0.533 -0.1162  0.0170 -0.4374
  307MPD2    C2 4618   1.037   1.570   0.523  0.0942 -0.3350 -0.4312
  307MPD2    C3 4619   0.946   1.568   0.628  0.7968 -0.2156  0.7673
  307MPD2    C4 4620   0.996   1.519   0.742  0.8416  0.5874  0.7065
  307MPD2    C5 4621   1.123   1.463   0.748 -0.5577 -0.3662 -0.1508
  307MPD2     H 4622   1.018   1.628   0.433 -0.3888  0.9670  0.5111
  307MPD2    H1 4623   0.934   1.509   0.830 -1.9254 -1.7586 -1.5263
  307MPD2    H2 4624   1.310   1.412   0.657 -0.5963 -1.7137 -2.7064
  307MPD2    H3 4625   1.148   1.424   0.845  2.9309  0.2241 -0.8081
  307MPD2     N 4626   0.813   1.620   0.619  0.4959 -0.2250  0.3264
  307MPD2    H5 4627   0.789   1.672   0.534 -1.1672 -0.5014  0.6173
  307MPD2    N1 4628   1.251   1.524   0.418  0.3918  0.6936 -0.0598
  307MPD2    H7 4629   1.209   1.563   0.335  0.2758  0.7686  0.0330
  308TMC3    C1 4630   0.343   1.628   0.680 -0.1484  0.3747 -0.8490
  308TMC3    C2 4631   0.331   1.756   0.643 -0.2073  1.0631 -0.0508
  308TMC3    C3 4632   0.445   1.820   0.612  0.4436  0.4319  0.2963
  308TMC3    C4 4633   0.468   1.573   0.703 -0.3955 -0.2052  0.2983
  308TMC3    C5 4634   0.583   1.648   0.671  0.0106  0.0649 -0.1133
  308TMC3    C6 4635   0.575   1.772   0.624 -0.3278  0.2720 -0.5781
  308TMC3     C 4636   0.246   1.528   0.664 -0.4284 -0.3356  0.3413
  308TMC3     O 4637   0.292   1.416   0.647 -0.7721  0.2614 -0.0165
  308TMC3     H 4638   0.235   1.797   0.612 -1.0829 -0.6836  0.3903
  308TMC3    H1 4639   0.476   1.478   0.753 -1.8515  1.2430  3.2895
  308TMC3    H2 4640   0.668   1.827   0.619 -0.0345 -0.2618 -0.9498
  308TMC3    C7 4641   0.712   1.611   0.719  0.6263  0.0502  0.2217
  308TMC3    C8 4642   0.428   1.955   0.570 -0.2495  0.7413  0.1023
  308TMC3    O1 4643   0.707   1.543   0.826 -0.1957 -0.0821 -0.1300
  308TMC3    O2 4644   0.337   2.020   0.622 -0.5045  0.3421 -0.3334
  309MPD2     C 4645   4.332   1.547  17.148 -0.6432  0.0172 -0.0311
  309MPD2    C1 4646   4.327   1.646  17.054  0.3241 -0.0830 -0.1344
  309MPD2    C2 4647   4.206   1.714  17.040  0.2178 -0.6137 -0.3469
  309MPD2    C3 4648   4.088   1.678  17.112  0.3065 -0.2712 -1.0219
  309MPD2    C4 4649   4.106   1.578  17.207 -0.1461  1.1555 -0.0051
  309MPD2    C5 4650   4.223   1.510  17.217 -0.0845  0.2548  0.2820
  309MPD2     H 4651   4.203   1.792  16.965  2.1579 -0.3086 -0.1034
  309MPD2    H1 4652   4.023   1.555  17.272 -0.0401  1.4505  0.2340
  309MPD2    H2 4653   4.418   1.488  17.176  1.0249  1.9518 -1.0800
  309MPD2    H3 4654   4.225   1.428  17.288  0.1692 -0.2039 -0.2633
  309MPD2     N 4655   3.961   1.738  17.107  0.4102  0.2499 -0.4087
  309MPD2    H5 4656   3.898   1.708  17.180 -1.7072 -1.0095 -2.7632
  309MPD2    N1 4657   4.443   1.685  16.979 -0.1490 -0.1822  0.5704
  309MPD2    H7 4658   4.432   1.750  16.902 -0.0410 -1.1581 -0.2660
  310TMC3    C1 4659   4.659   1.676  16.875 -0.1051 -0.1479 -1.2606
  310TMC3    C2 4660   4.667   1.812  16.872 -0.8843 -0.3011  0.2323
  310TMC3    C3 4661   0.057   1.878  16.831  0.3215 -0.1897  0.3672
  310TMC3    C4 4662   0.047   1.604  16.845  0.9371 -0.1276  0.2769
  310TMC3    C5 4663   0.158   1.673  16.797  0.0599 -0.1421  0.1188
  310TMC3    C6 4664   0.168   1.809  16.785  0.1997 -0.1930 -0.7209
  310TMC3     C 4665   4.563   1.614  16.971 -0.2426 -0.1029 -0.3321
  310TMC3     O 4666   4.588   1.503  17.022  0.4939 -0.3897 -0.1996
  310TMC3     H 4667   4.588   1.878  16.907 -0.2841 -0.4805  1.9328
  310TMC3    H1 4668   0.037   1.497  16.855  1.3421 -0.2642 -0.7405
  310TMC3    H2 4669   0.255   1.855  16.741  0.3987 -0.0226 -0.1553
  310TMC3    C7 4670   0.260   1.584  16.742 -0.1930 -0.1879  0.0672
  310TMC3    C8 4671   0.046   2.012  16.775 -0.0489  0.6911  0.5403
  310TMC3    O1 4672   0.219   1.470  16.718 -0.0146  0.2130 -0.5836
  310TMC3    O2 4673   4.651   2.045  16.752  0.9750  0.1083 -0.0161
  311MPD2     C 4674   2.332   3.261  12.945  0.6388 -0.3013 -0.8507
  311MPD2    C1 4675   2.310   3.392  12.922 -0.4623 -0.3030 -0.6737
  311MPD2    C2 4676   2.181   3.442  12.936  0.0353 -0.6010  0.3592
  311MPD2    C3 4677   2.076   3.358  12.976 -0.1044  0.2650 -0.4262
  311MPD2    C4 4678   2.106   3.228  13.018 -0.0786 -0.1230  0.2894
  311MPD2    C5 4679   2.234   3.182  12.993  0.0347 -0.1291 -0.1022
  311MPD2     H 4680   2.166   3.547  12.915  1.0856 -0.5106  0.0598
  311MPD2    H1 4681   2.031   3.155  13.045 -0.2192 -0.0141  0.1902
  311MPD2    H2 4682   2.426   3.207  12.938  0.8647  0.1911 -1.5297
  311MPD2    H3 4683   2.255   3.077  13.009  0.4682 -0.0508 -0.1517
  311MPD2     N 4684   1.944   3.407  12.986 -0.5754 -0.0513  0.1650
  311MPD2    H5 4685   1.930   3.501  12.952  0.1730 -0.0527 -0.1452
  311MPD2    N1 4686   2.416   3.478  12.882  0.4128 -0.2356 -0.1784
  311MPD2    H7 4687   2.391   3.573  12.857 -2.0905 -1.5036 -2.4281
  312TMC3    C1 4688   1.717   3.408  12.973  0.0932  0.6591  0.0463
  312TMC3    C2 4689   1.635   3.391  12.870 -0.0515 -0.7125  0.0765
  312TMC3    C3 4690   1.514   3.455  12.877 -0.1225 -0.3228  0.1198
  312TMC3    C4 4691   1.695   3.493  13.081  0.1346 -0.1180  0.6295
  312TMC3    C5 4692   1.567   3.545  13.089  0.1032 -0.3000  0.2203
  312TMC3    C6 4693   1.472   3.525  12.989 -0.1251  0.7740 -0.5041
  312TMC3     C 4694   1.836   3.326  12.980 -0.4055 -0.0726 -0.2733
  312TMC3     O 4695   1.826   3.211  12.937  0.1432 -0.0660 -0.6749
  312TMC3     H 4696   1.659   3.318  12.794 -2.2545 -0.1647 -1.1475
  312TMC3    H1 4697   1.775   3.530  13.144  0.8331 -0.7932  0.1388
  312TMC3    H2 4698   1.370   3.556  13.009 -0.1508  1.0557 -1.0716
  312TMC3    C7 4699   1.511   3.564  13.223 -1.1847  0.5914 -0.4960
  312TMC3    C8 4700   1.412   3.403  12.791  0.0064  0.7678 -0.3841
  312TMC3    O1 4701   1.426   3.654  13.235 -0.3593 -0.2275  0.9144
  312TMC3    O2 4702   1.422   3.290  12.745 -0.3267 -0.1050 -0.2663
  313MPD2     C 4703   1.890   2.275   9.935 -0.2867  0.2420  0.6118
  313MPD2    C1 4704   1.775   2.269  10.018  0.4857  0.4820 -0.4676
  313MPD2    C2 4705   1.692   2.166   9.994 -0.8842 -0.5924  0.1598
  313MPD2    C3 4706   1.708   2.082   9.887  0.3925 -0.0179 -0.3673
  313MPD2    C4 4707   1.812   2.107   9.790 -0.0664 -0.1122 -0.2853
  313MPD2    C5 4708   1.902   2.205   9.818  0.3543 -0.1410 -0.1949
  313MPD2     H 4709   1.605   2.149  10.056 -1.1866 -1.3729 -0.4816
  313MPD2    H1 4710   1.801   2.046   9.701 -0.4620  2.2833 -1.8745
  313MPD2    H2 4711   1.967   2.348   9.955  0.4596 -0.1077 -1.0304
  313MPD2    H3 4712   1.973   2.231   9.740 -3.2996  1.8837 -2.8056
  313MPD2     N 4713   1.626   1.968   9.881 -0.6967 -0.3187  0.8919
  313MPD2    H5 4714   1.549   1.959   9.947  1.8157  0.3201  3.8686
  313MPD2    N1 4715   1.752   2.345  10.131 -0.5409  0.0643 -0.5775
  313MPD2    H7 4716   1.675   2.329  10.195 -1.0304 -0.3179 -1.2641
  314TMC3    C1 4717   1.752   2.548  10.256  0.2610  0.2489  0.1161
  314TMC3    C2 4718   1.817   2.658  10.302 -0.7681 -0.5824  0.8989
  314TMC3    C3 4719   1.737   2.766  10.336 -0.9422 -0.1096 -0.0613
  314TMC3    C4 4720   1.616   2.531  10.264  0.4646  0.0954  0.6268
  314TMC3    C5 4721   1.542   2.644  10.277 -0.1196 -0.6787 -0.2152
  314TMC3    C6 4722   1.605   2.762  10.304 -0.8171  0.4921 -0.4634
  314TMC3     C 4723   1.823   2.464  10.156  0.1086  0.3253 -0.0265
  314TMC3     O 4724   1.929   2.507  10.111  0.3926  0.0178 -0.0238
  314TMC3     H 4725   1.925   2.655  10.300 -0.8010 -1.0624 -0.2776
  314TMC3    H1 4726   1.568   2.435  10.246  0.4853  0.1975  0.0083
  314TMC3    H2 4727   1.547   2.853  10.315 -1.2014 -0.1945  3.0632
  314TMC3    C7 4728   1.399   2.643  10.282 -0.1278  0.1267  0.3100
  314TMC3    C8 4729   1.797   2.893  10.384  0.5070  0.4199 -0.0126
  314TMC3    O1 4730   1.344   2.721  10.361  0.5890 -0.3243  0.4191
  314TMC3    O2 4731   1.719   2.987  10.403 -0.0464  0.0571  0.3374
  315MPD2     C 4732   1.121   2.807   0.165  0.2709 -0.9105  0.2409
  315MPD2    C1 4733   1.244   2.747   0.191 -0.0043  0.0067  0.7845
  315MPD2    C2 4734   1.352   2.783   0.117 -0.8213 -0.5174 -0.2061
  315MPD2    C3 4735   1.340   2.875   0.014 -0.4360 -0.6579  0.2756
  315MPD2    C4 4736   1.224   2.951  17.687 -0.9261 -0.0428 -0.1341
  315MPD2    C5 4737   1.109   2.910   0.069  0.2359  0.2685 -0.0403
  315MPD2     H 4738   1.444   2.730   0.136 -1.5188 -2.2030 -1.5245
  315MPD2    H1 4739   1.199   3.012  17.601  0.5378  2.0514  0.9304
  315MPD2    H2 4740   1.037   2.784   0.228  0.0489 -0.6028  0.0570
  315MPD2    H3 4741   1.009   2.948   0.054 -0.2770 -0.5918  1.2153
  315MPD2     N 4742   1.448   2.884  17.621  0.3313  0.5272 -0.3571
  315MPD2    H5 4743   1.517   2.810  17.630 -0.1148  0.0537 -0.7794
  315MPD2    N1 4744   1.268   2.646   0.286 -0.5050 -0.8041  0.1516
  315MPD2    H7 4745   1.365   2.615   0.291 -0.0633  0.1373 -2.4731
  316TMC3    C1 4746   1.596   2.926  17.444 -0.2077  0.1880  0.2526
  316TMC3    C2 4747   1.704   2.893  17.527  0.9281 -0.2588  0.6473
  316TMC3    C3 4748   1.827   2.890  17.473 -0.2394  0.1034  0.3445
  316TMC3    C4 4749   1.622   2.970  17.314 -0.3578 -0.2729  0.3351
  316TMC3    C5 4750   1.745   2.951  17.257 -0.7142  0.3637 -0.3206
  316TMC3    C6 4751   1.850   2.905  17.336  0.0586 -0.2991  0.6156
  316TMC3     C 4752   1.463   2.958  17.509  0.7888 -0.0600 -0.7374
  316TMC3     O 4753   1.396   3.043  17.448 -0.7687 -0.0336 -0.1326
  316TMC3     H 4754   1.699   2.893  17.635 -0.4870 -0.0764  0.5911
  316TMC3    H1 4755   1.534   3.001  17.259  0.3996  0.2008 -0.5805
  316TMC3    H2 4756   1.950   2.889  17.298  0.9740  1.9585  2.0382
  316TMC3    C7 4757   1.755   2.917  17.109  0.0998  0.4967  0.4250
  316TMC3    C8 4758   1.942   2.841  17.559  0.4602 -0.3926  0.2152
  316TMC3    O1 4759   1.871   2.889  17.072  0.4896  0.2198  0.2972
  316TMC3    O2 4760   2.052   2.878  17.523 -0.4531  0.1783 -0.2148
  317MPD2     C 4761   4.170   0.053  11.852  0.8057  0.3385  0.0189
  317MPD2    C1 4762   4.284   0.078  11.935 -0.7825 -0.3634 -0.2767
  317MPD2    C2 4763   4.259   0.094  12.075 -0.5892 -0.2340  0.3065
  317MPD2    C3 4764   4.131   0.076  12.125  0.3842 -0.5098  0.7150
  317MPD2    C4 4765   4.027   0.057  12.039 -0.4148  0.1408 -0.3062
  317MPD2    C5 4766   4.040   0.050  11.905  0.0322  0.7715 -0.2381
  317MPD2     H 4767   4.337   0.102  12.149  0.2264 -0.2937 -0.5483
  317MPD2    H1 4768   3.927   0.040  12.077 -0.0521  0.8306  0.9405
  317MPD2    H2 4769   4.190   0.028  11.749 -0.5725  0.4652 -0.2843
  317MPD2    H3 4770   3.953   0.026  11.845  0.0992  1.4108 -0.5919
  317MPD2     N 4771   4.118   0.080  12.271  0.5124 -0.4738  0.0321
  317MPD2    H5 4772   4.206   0.097  12.319  0.8836  0.1754 -0.8725
  317MPD2    N1 4773   4.420   0.083  11.891  0.0154  0.2238  0.6912
  317MPD2    H7 4774   4.493   0.101  11.960  1.4283  0.1381 -0.7910
  318TMC3    C1 4775   4.016   0.043  12.487 -0.6281  0.2894 -0.2547
  318TMC3    C2 4776   3.933   4.674  12.549 -0.0419 -0.0335 -0.0715
  318TMC3    C3 4777   3.964   4.652  12.682  0.6209 -0.1387 -0.0549
  318TMC3    C4 4778   4.130   0.085  12.542  0.3870 -0.0368  0.2826
  318TMC3    C5 4779   4.148   0.065  12.675 -0.5810 -0.6924 -0.0190
  318TMC3    C6 4780   4.063   4.713  12.747  1.0083  0.4698 -0.9042
  318TMC3     C 4781   4.002   0.053  12.342 -0.6260 -0.2869  0.3181
  318TMC3     O 4782   3.890   0.033  12.292 -0.0286  0.2716 -0.4040
  318TMC3     H 4783   3.852   4.619  12.503 -1.5385  1.5822  0.6524
  318TMC3    H1 4784   4.194   0.161  12.500 -0.6515  0.6720 -0.0158
  318TMC3    H2 4785   4.069   4.703  12.855  0.6125 -0.9826 -1.0272
  318TMC3    C7 4786   4.230   0.164  12.744  0.4140 -0.6491  0.5772
  318TMC3    C8 4787   3.863   4.589  12.765  0.0969  0.2594 -0.2207
  318TMC3    O1 4788   4.238   0.278  12.700 -0.7712  0.0482 -0.1494
  318TMC3    O2 4789   3.896   4.521  12.860 -0.2570  0.0173 -0.1798
  319MPD2     C 4790   3.681   1.540  16.961 -0.1945 -0.0597 -0.2460
  319MPD2    C1 4791   3.765   1.429  16.932 -0.4397 -0.5990  0.3652
  319MPD2    C2 4792   3.799   1.405  16.800 -0.6987 -0.1959  0.1150
  319MPD2    C3 4793   3.756   1.494  16.699  0.5798  0.5909  0.1408
  319MPD2    C4 4794   3.688   1.610  16.738  0.3161  0.1337  0.5275
  319MPD2    C5 4795   3.648   1.627  16.866  1.0582  0.4558 -0.0839
  319MPD2     H 4796   3.868   1.324  16.785 -0.0819  0.3168  0.1712
  319MPD2    H1 4797   3.651   1.673  16.657 -2.8206  0.0713  1.9078
  319MPD2    H2 4798   3.637   1.569  17.055  0.2334  1.2283 -0.4433
  319MPD2    H3 4799   3.592   1.715  16.894 -0.9783 -0.5726 -0.9475
  319MPD2     N 4800   3.790   1.481  16.566 -0.0083 -0.0355  0.3634
  319MPD2    H5 4801   3.781   1.563  16.507  0.6195 -0.3357 -0.1567
  319MPD2    N1 4802   3.829   1.355  17.033  0.4089  0.0661  0.4262
  319MPD2    H7 4803   3.892   1.284  16.997  0.5237  1.3252 -1.8417
  320TMC3    C1 4804   3.849   1.382  16.361 -0.6361  0.2444 -0.0103
  320TMC3    C2 4805   3.757   1.466  16.302  0.1594 -0.0418 -0.3189
  320TMC3    C3 4806   3.733   1.460  16.168 -0.3258 -0.0063  0.4314
  320TMC3    C4 4807   3.893   1.273  16.297 -0.0407  0.3373  0.8086
  320TMC3    C5 4808   3.864   1.258  16.170 -0.3559 -0.0066 -1.0175
  320TMC3    C6 4809   3.779   1.349  16.104  0.4858 -0.0470  0.2690
  320TMC3     C 4810   3.845   1.369  16.507 -0.7560 -0.0117 -0.9869
  320TMC3     O 4811   3.879   1.259  16.552  0.3195  0.2648 -0.1107
  320TMC3     H 4812   3.738   1.563  16.345 -2.5849 -1.1633  0.9569
  320TMC3    H1 4813   3.949   1.191  16.342  0.0986  0.0844  0.1759
  320TMC3    H2 4814   3.751   1.322  16.002  1.3038 -1.6830  0.4851
  320TMC3    C7 4815   3.951   1.178  16.092 -0.1159  1.0207 -0.0563
  320TMC3    C8 4816   3.653   1.561  16.107  0.5461 -0.3356 -0.3777
  320TMC3    O1 4817   3.920   1.148  15.975 -0.2575  0.0304 -0.0893
  320TMC3    O2 4818   3.643   1.672  16.160  0.6298  0.5683  0.1791
  321TMC3    C1 4819   3.894   1.274  17.237 -0.3256 -0.2790  0.4121
  321TMC3    C2 4820   3.911   1.152  17.182 -0.1959  0.3455  0.3052
  321TMC3    C3 4821   4.005   1.066  17.232  0.6363 -0.4051 -1.3893
  321TMC3    C4 4822   3.943   1.309  17.357 -0.1877 -0.1191 -0.0089
  321TMC3    C5 4823   4.042   1.223  17.399  0.4218 -0.3683  0.2123
  321TMC3    C6 4824   4.079   1.107  17.340 -0.4955  0.1171 -0.1073
  321TMC3     C 4825   3.814   1.368  17.166 -0.5133 -0.0447  0.3461
  321TMC3     O 4826   3.785   1.469  17.229  0.3847 -0.1242 -0.3393
  321TMC3     H 4827   3.845   1.113  17.106  0.6044  0.1431 -0.2758
  321TMC3    H1 4828   3.931   1.406  17.404  2.6848  1.2278 -2.0389
  321TMC3    H2 4829   4.167   1.052  17.371 -1.6307 -1.4925  0.2911
  321TMC3    C7 4830   4.042   1.198  17.537 -0.4428  0.2956  0.0989
  321TMC3    C8 4831   3.961   0.930  17.248 -0.1530  0.4913  0.3037
  321TMC3    O1 4832   4.061   1.080  17.558  0.1963 -0.1915 -0.2501
  321TMC3    O2 4833   3.904   0.872  17.154 -0.1096  1.0656 -0.2073
  322MPD2     C 4834   2.752   2.543  13.715 -0.0664  0.2046  0.2106
  322MPD2    C1 4835   2.840   2.552  13.821 -0.4252  0.3250 -0.4161
  322MPD2    C2 4836   2.904   2.435  13.853 -0.5943  0.3099 -0.1297
  322MPD2    C3 4837   2.868   2.310  13.804 -0.2946 -0.1476 -0.4143
  322MPD2    C4 4838   2.777   2.302  13.700  0.0735 -0.1298  0.3224
  322MPD2    C5 4839   2.717   2.418  13.661  0.3829 -0.6650  0.0221
  322MPD2     H 4840   2.981   2.428  13.930  0.3532  1.5641 -0.9726
  322MPD2    H1 4841   2.747   2.210  13.650  1.2284 -0.5690  0.4515
  322MPD2    H2 4842   2.705   2.629  13.669 -0.3643  0.6797  1.4272
  322MPD2    H3 4843   2.655   2.405  13.573 -0.1243  0.4355  0.2171
  322MPD2     N 4844   2.933   2.194  13.855  0.3675 -0.4017  0.6487
  322MPD2    H5 4845   3.011   2.203  13.919  0.2068  0.0823  0.7794
  322MPD2    N1 4846   2.870   2.674  13.885  0.5737 -0.2411 -0.4581
  322MPD2    H7 4847   2.853   2.758  13.830  1.1456  0.8238  0.9768
  323TMC3    C1 4848   2.987   2.832  14.016  0.1471  0.2368  0.1311
  323TMC3    C2 4849   3.050   2.890  13.908 -0.1185  0.2899  0.0410
  323TMC3    C3 4850   3.172   2.953  13.930 -0.0756  0.2359 -0.4123
  323TMC3    C4 4851   3.019   2.861  14.147 -0.4513 -0.1987  1.0616
  323TMC3    C5 4852   3.144   2.916  14.161  0.2814 -0.3805 -0.3847
  323TMC3    C6 4853   3.219   2.974  14.063  0.0358  0.5009 -0.8836
  323TMC3     C 4854   2.949   2.693  13.996 -0.0611 -0.5058 -0.9405
  323TMC3     O 4855   2.950   2.619  14.097 -0.0825  0.3991 -0.2934
  323TMC3     H 4856   3.012   2.864  13.810  1.9834  1.0128 -0.9581
  323TMC3    H1 4857   2.957   2.816  14.224 -1.1145 -0.0750  0.5890
  323TMC3    H2 4858   3.308   3.028  14.089  0.4766 -0.2643 -0.7927
  323TMC3    C7 4859   3.223   2.848  14.267 -0.5271 -0.4519  0.4566
  323TMC3    C8 4860   3.248   3.014  13.818 -0.3715  0.0528  0.0453
  323TMC3    O1 4861   3.341   2.814  14.239  0.1295 -0.0129 -0.0700
  323TMC3    O2 4862   3.321   3.110  13.848 -0.2576 -0.0666 -0.7027
  324MPD2     C 4863   4.722   3.724  14.416  0.1183 -0.1855 -0.5830
  324MPD2    C1 4864   0.065   3.800  14.509 -0.2471  0.5560  0.0734
  324MPD2    C2 4865   4.708   3.871  14.596 -0.3428  0.5898 -0.1913
  324MPD2    C3 4866   4.568   3.863  14.594 -0.2039  0.3289  0.1429
  324MPD2    C4 4867   4.509   3.780  14.501 -0.0971 -0.2905  0.0465
  324MPD2    C5 4868   4.587   3.710  14.416  0.6215 -0.5708 -0.1934
  324MPD2     H 4869   0.034   3.924  14.678  0.1444 -0.2271  0.0479
  324MPD2    H1 4870   4.404   3.754  14.505 -0.0767 -0.2895  0.5969
  324MPD2    H2 4871   0.053   3.664  14.343  2.6404  1.6404 -0.2141
  324MPD2    H3 4872   4.532   3.639  14.354 -1.6491  1.3519 -0.3890
  324MPD2     N 4873   4.493   3.935  14.685 -0.7997 -0.2683 -0.3668
  324MPD2    H5 4874   4.393   3.933  14.666 -1.3112 -1.4981  2.5827
  324MPD2    N1 4875   0.209   3.800  14.534  0.2382  0.6110  0.2686
  324MPD2    H7 4876   0.244   3.855  14.613 -0.5563 -2.1236  2.5151
  325TMC3    C1 4877   4.411   4.088  14.828  0.2932  0.0979 -0.0877
  325TMC3    C2 4878   4.291   4.036  14.796 -0.0037  0.5419 -0.5419
  325TMC3    C3 4879   4.189   4.121  14.763 -0.7293 -0.3383  0.1293
  325TMC3    C4 4880   4.437   4.221  14.835  0.0015  0.2720 -0.3580
  325TMC3    C5 4881   4.332   4.307  14.804 -0.9020  0.9466  1.6554
  325TMC3    C6 4882   4.210   4.257  14.761  0.4617 -0.2867 -0.7113
  325TMC3     C 4883   4.524   3.999  14.799 -1.0358 -0.7422 -0.1525
  325TMC3     O 4884   4.630   4.005  14.863 -0.1302 -0.0433 -0.2736
  325TMC3     H 4885   4.287   3.928  14.791 -1.2704  0.6366 -1.8045
  325TMC3    H1 4886   4.536   4.262  14.852 -0.9061  2.6851 -0.8162
  325TMC3    H2 4887   4.145   4.323  14.705 -0.7148 -1.3813 -0.6280
  325TMC3    C7 4888   4.381   4.436  14.755 -0.1574 -0.6020  0.4136
  325TMC3    C8 4889   4.117   4.076  14.644 -0.0935 -0.3640 -0.3238
  325TMC3    O1 4890   4.502   4.443  14.738 -0.9220 -0.1068 -0.0565
  325TMC3    O2 4891   4.091   4.162  14.559 -0.3129  0.2075 -0.4110
  326MPD2     C 4892   0.813   0.534  11.660 -0.1663 -0.5778 -0.0302
  326MPD2    C1 4893   0.855   0.511  11.531  0.3521  0.0597  0.2378
  326MPD2    C2 4894   0.958   0.587  11.473  0.6704  0.0884 -0.7557
  326MPD2    C3 4895   1.023   0.684  11.552  0.0862 -0.3499  0.1337
  326MPD2    C4 4896   0.987   0.707  11.680  1.1046 -0.1045 -0.2324
  326MPD2    C5 4897   0.879   0.634  11.728 -1.0468  0.4422  0.3409
  326MPD2     H 4898   0.988   0.560  11.373 -1.3940  2.0377 -1.9205
  326MPD2    H1 4899   1.035   0.779  11.745  2.3804  0.0117 -1.3025
  326MPD2    H2 4900   0.731   0.478  11.702 -1.5579  1.4790  0.0105
  326MPD2    H3 4901   0.845   0.653  11.829 -1.0646  2.0584  0.0316
  326MPD2     N 4902   1.137   0.758  11.498  0.4056  0.0242 -1.0333
  326MPD2    H5 4903   1.188   0.811  11.568 -0.4258 -1.7635  0.9375
  326MPD2    N1 4904   0.806   0.402  11.459 -0.2506 -0.5809 -0.1645
  326MPD2    H7 4905   0.840   0.395  11.363  3.3006 -0.0112  1.0499
  327TMC3    C1 4906   0.665   0.256  11.359  0.2906 -1.5383 -0.0819
  327TMC3    C2 4907   0.581   0.312  11.277 -0.6379 -0.4904  1.1521
  327TMC3    C3 4908   0.585   0.276  11.145  0.1930  0.0302  0.0144
  327TMC3    C4 4909   0.744   0.153  11.325 -0.1534  0.0896  1.1428
  327TMC3    C5 4910   0.741   0.113  11.195  0.1732  0.2051  0.1732
  327TMC3    C6 4911   0.655   0.163  11.106 -0.0313  0.0517  0.1203
  327TMC3     C 4912   0.693   0.323  11.486 -0.2142 -0.7495  0.2857
  327TMC3     O 4913   0.629   0.304  11.590 -0.1890 -0.1339 -0.0591
  327TMC3     H 4914   0.538   0.407  11.309 -0.8141 -0.0920 -0.2620
  327TMC3    H1 4915   0.807   0.110  11.402  1.6526 -0.1205 -0.4546
  327TMC3    H2 4916   0.657   0.134  11.002 -0.8795  0.2495  0.0441
  327TMC3    C7 4917   0.871   0.084  11.133 -0.1796  0.0539 -0.3279
  327TMC3    C8 4918   0.544   0.367  11.040 -0.1067 -0.6322  0.5278
  327TMC3    O1 4919   0.874   0.084  11.013 -0.7929  0.1219  0.3630
  327TMC3    O2 4920   0.622   0.355  10.942 -0.1508  0.0697  0.0955
  328MPD2     C 4921   3.627   1.111  17.535 -0.0144  0.1937  0.2805
  328MPD2    C1 4922   3.585   0.989  17.578  0.3119 -0.2603  0.3989
  328MPD2    C2 4923   3.549   0.880  17.489  0.1616  0.0629  0.0175
  328MPD2    C3 4924   3.566   0.911  17.355 -0.0617  0.1107  0.5435
  328MPD2    C4 4925   3.616   1.026  17.313 -0.0519  0.2365  0.8095
  328MPD2    C5 4926   3.642   1.131  17.402 -0.0165 -0.1172 -0.3653
  328MPD2     H 4927   3.498   0.788  17.517 -0.0365  0.2954  0.4100
  328MPD2    H1 4928   3.616   1.046  17.206 -2.1585 -1.6244  0.4328
  328MPD2    H2 4929   3.666   1.188  17.600 -0.3198  0.6838 -0.1151
  328MPD2    H3 4930   3.671   1.231  17.373 -1.0981  0.8740  2.0076
  328MPD2     N 4931   3.531   0.828  17.251 -0.1230 -0.3123 -0.2255
  328MPD2    H5 4932   3.558   0.859  17.158 -0.1454 -0.2204 -0.2018
  328MPD2    N1 4933   3.570   0.977   0.023 -0.0523  0.1201 -0.0512
  328MPD2    H7 4934   3.597   1.065   0.066 -1.5426  0.2139  0.6615
  329TMC3    C1 4935   3.509   0.896   0.232 -0.7395 -0.1143  0.5698
  329TMC3    C2 4936   3.502   0.788   0.322  0.1023 -0.0694 -0.6412
  329TMC3    C3 4937   3.454   0.808   0.449 -0.2866 -0.4095 -0.6387
  329TMC3    C4 4938   3.501   1.021   0.277 -0.4325  0.6507 -0.8061
  329TMC3    C5 4939   3.453   1.038   0.407  0.0384  0.3102 -0.3779
  329TMC3    C6 4940   3.422   0.935   0.489  0.1353  0.6383  0.5956
  329TMC3     C 4941   3.533   0.867   0.095  0.7812  0.2989 -0.1827
  329TMC3     O 4942   3.530   0.751   0.061 -0.2720 -0.5859  0.2779
  329TMC3     H 4943   3.528   0.687   0.292 -1.7954 -0.2797 -1.5819
  329TMC3    H1 4944   3.489   1.104   0.209  1.0463  1.5404  0.0410
  329TMC3    H2 4945   3.397   0.948   0.594 -0.2946 -2.5918  0.8970
  329TMC3    C7 4946   3.406   1.177   0.440 -0.0562 -0.1287 -0.5496
  329TMC3    C8 4947   3.414   0.690   0.524  0.0657  0.3073  0.0232
  329TMC3    O1 4948   3.382   1.258   0.350 -0.1674  0.7664  0.5379
  329TMC3    O2 4949   3.451   0.577   0.491 -0.1338 -0.2894  0.5277
  330TMC3    C1 4950   2.225   4.238   9.990 -0.2191  0.1197  0.5328
  330TMC3    C2 4951   2.261   4.157   9.885 -0.2517  0.3479 -0.3993
  330TMC3    C3 4952   2.315   4.031   9.909 -0.2196  0.2864 -0.3561
  330TMC3    C4 4953   2.243   4.192  10.118 -0.2578 -0.0855  0.6344
  330TMC3    C5 4954   2.294   4.063  10.140 -0.2943  1.2048 -0.1855
  330TMC3    C6 4955   2.319   3.974  10.035 -0.1346 -0.3108 -0.0800
  330TMC3     C 4956   2.116   4.326   9.962 -0.3834 -0.3143 -0.2983
  330TMC3     O 4957   2.098   4.414  10.042  0.3682  0.1925 -0.1278
  330TMC3     H 4958   2.262   4.206   9.788 -0.7689 -1.4622 -1.3238
  330TMC3    H1 4959   2.224   4.255  10.204  0.4017 -1.2762  1.6542
  330TMC3    H2 4960   2.361   3.874  10.046 -1.2913 -0.5435  2.1047
  330TMC3    C7 4961   2.253   3.999  10.262 -0.1928  0.2997  0.1206
  330TMC3    C8 4962   2.373   3.956   9.800 -0.4101 -0.8210 -0.3192
  330TMC3    O1 4963   2.263   4.076  10.359  0.6528 -0.6749  0.6518
  330TMC3    O2 4964   2.464   4.003   9.734  0.1273 -0.0307  0.0890
  331MPD2     C 4965   3.993   3.441  12.674 -0.0423 -0.0637 -0.1292
  331MPD2    C1 4966   4.111   3.476  12.605  0.0279 -0.5232 -0.2222
  331MPD2    C2 4967   4.188   3.378  12.544 -0.1382 -0.1125 -0.1158
  331MPD2    C3 4968   4.156   3.247  12.556  0.5067  0.0744 -0.4864
  331MPD2    C4 4969   4.042   3.210  12.630  0.4163 -0.2838 -0.1442
  331MPD2    C5 4970   3.964   3.308  12.690 -0.5000  0.7380  0.8778
  331MPD2     H 4971   4.283   3.402  12.498 -0.6285  0.1567 -0.9922
  331MPD2    H1 4972   4.010   3.106  12.636 -0.9153  0.2179  1.6767
  331MPD2    H2 4973   3.922   3.505  12.725 -0.5362 -1.3615  0.7880
  331MPD2    H3 4974   3.878   3.277  12.747 -0.6882 -2.7781 -1.3716
  331MPD2     N 4975   4.241   3.158  12.490 -0.3962 -1.0016  0.6244
  331MPD2    H5 4976   4.314   3.194  12.430 -1.5692 -1.0498 -0.8288
  331MPD2    N1 4977   4.157   3.613  12.617  0.0175  0.1817 -0.5048
  331MPD2    H7 4978   4.105   3.682  12.669 -0.8769  0.3141 -1.5657
  332TMC3    C1 4979   4.333   2.964  12.399  0.3054 -0.1334  0.0309
  332TMC3    C2 4980   4.368   3.037  12.286  0.5289  0.3468  0.2249
  332TMC3    C3 4981   4.484   2.994  12.225 -0.1290 -0.0686 -0.0132
  332TMC3    C4 4982   4.404   2.859  12.453  0.5959  0.4081 -0.9210
  332TMC3    C5 4983   4.523   2.835  12.389 -0.2388  0.3614 -0.5654
  332TMC3    C6 4984   4.568   2.903  12.274  0.2027  0.3647 -0.7577
  332TMC3     C 4985   4.233   3.017  12.491  0.4721  0.0238 -0.2776
  332TMC3     O 4986   4.181   2.940  12.572  0.9742  0.2080  0.6145
  332TMC3     H 4987   4.296   3.109  12.249  0.1229 -0.3705 -0.4051
  332TMC3    H1 4988   4.376   2.807  12.544  0.2951 -0.0948 -1.3068
  332TMC3    H2 4989   4.663   2.875  12.228  0.7497 -0.1560  0.7009
  332TMC3    C7 4990   4.614   2.734  12.442 -0.0363  0.2293  0.1351
  332TMC3    C8 4991   4.525   3.060  12.104 -0.3557 -0.0088  0.2100
  332TMC3    O1 4992   4.561   2.645  12.507 -0.2809  0.2548  0.1132
  332TMC3    O2 4993   4.643   3.068  12.080  0.1633  0.2515  0.3750
  333MPD2     C 4994   4.317   3.615  10.929 -0.0288  0.2597 -0.0454
  333MPD2    C1 4995   4.371   3.545  10.824 -0.0458 -0.0405 -0.1761
  333MPD2    C2 4996   4.372   3.405  10.817 -0.1465 -0.6690  0.7338
  333MPD2    C3 4997   4.298   3.342  10.919  0.2271  0.1549  0.1567
  333MPD2    C4 4998   4.238   3.411  11.020  0.6040 -0.0481  0.0272
  333MPD2    C5 4999   4.247   3.541  11.017  0.0741 -0.2619 -0.3081
  333MPD2     H 5000   4.391   3.353  10.724  1.8026  0.8325  0.2886
  333MPD2    H1 5001   4.187   3.374  11.109 -2.5826  0.6532 -1.4888
  333MPD2    H2 5002   4.317   3.722  10.944 -1.3981  0.4353 -1.2948
  333MPD2    H3 5003   4.202   3.595  11.099  1.3574  0.6535 -0.2195
  333MPD2     N 5004   4.278   3.201  10.900  0.6916 -0.0044  0.2808
  333MPD2    H5 5005   4.319   3.157  10.818 -0.5916 -0.3584 -0.1805
  333MPD2    N1 5006   4.435   3.632  10.726  0.2168 -0.2535 -0.0997
  333MPD2    H7 5007   4.431   3.731  10.746  0.6351 -0.2520 -0.0340
  334TMC3    C1 5008   4.556   3.690  10.524 -0.9562 -0.0967  0.4057
  334TMC3    C2 5009   4.671   3.663  10.456 -0.5693  0.0347 -0.0277
  334TMC3    C3 5010   0.023   3.770  10.410 -0.5479  0.7935  0.0020
  334TMC3    C4 5011   4.507   3.822  10.542  0.4706 -0.1795  0.5279
  334TMC3    C5 5012   4.577   3.921  10.481  0.8321  0.6655  0.1785
  334TMC3    C6 5013   4.701   3.900  10.430 -0.8436 -0.6247 -0.1027
  334TMC3     C 5014   4.504   3.589  10.615 -0.3598 -0.0735 -0.2930
  334TMC3     O 5015   4.533   3.476  10.583  1.0745  0.0191 -0.4899
  334TMC3     H 5016   4.700   3.561  10.433 -1.7819  0.2699 -2.7064
  334TMC3    H1 5017   4.418   3.838  10.602 -0.7198  0.0427 -1.3082
  334TMC3    H2 5018   0.012   3.989  10.378  2.5310 -0.5489  2.1980
  334TMC3    C7 5019   4.530   4.061  10.496 -0.0186  0.5172 -0.1118
  334TMC3    C8 5020   0.136   3.749  10.328  1.0084  0.2283  0.4984
  334TMC3    O1 5021   4.601   4.158  10.486  0.3869 -0.2157  0.1681
  334TMC3    O2 5022   0.149   3.631  10.296 -0.7432  0.5054 -0.2096
  335TMC3    C1 5023   4.147   0.179  17.397  0.3096  0.2828  0.2814
  335TMC3    C2 5024   4.111   0.094  17.290  0.3288  0.3189  0.4048
  335TMC3    C3 5025   4.199   0.082  17.187 -0.9557 -0.1581 -0.7139
  335TMC3    C4 5026   4.260   0.252  17.400  0.5647  0.0888  0.3021
  335TMC3    C5 5027   4.335   0.239  17.290  0.2250 -0.6353  0.2148
  335TMC3    C6 5028   4.305   0.160  17.183 -0.2812 -0.4070  0.0921
  335TMC3     C 5029   4.067   0.168  17.514  0.1656  0.0335  0.7343
  335TMC3     O 5030   3.942   0.173  17.500  0.2754 -0.5083 -0.2978
  335TMC3     H 5031   4.020   0.034  17.294  0.5763 -0.2268 -2.2680
  335TMC3    H1 5032   4.278   0.319  17.483 -1.4566  0.0867  0.7313
  335TMC3    H2 5033   4.370   0.154  17.097 -1.0247 -1.9022 -0.3646
  335TMC3    C7 5034   4.470   0.294  17.293  0.2967 -0.0410 -0.4699
  335TMC3    C8 5035   4.195   4.701  17.084  0.2255 -0.1064  1.5316
  335TMC3    O1 5036   4.520   0.302  17.180 -0.0925  0.2292  0.1304
  335TMC3    O2 5037   4.238   0.008  16.971 -0.1227  0.0056 -0.1432
  336MPD2     C 5038   3.782   2.774  16.480 -0.0928 -0.5143  0.7858
  336MPD2    C1 5039   3.852   2.713  16.379 -0.3876 -0.2006 -0.6305
  336MPD2    C2 5040   3.916   2.594  16.406 -0.1131  0.1190 -0.9977
  336MPD2    C3 5041   3.901   2.536  16.533  0.5154 -0.4290  0.0148
  336MPD2    C4 5042   3.839   2.606  16.636  0.0644 -0.3465 -0.8616
  336MPD2    C5 5043   3.778   2.730  16.608 -0.2789 -0.0854 -0.2919
  336MPD2     H 5044   3.970   2.538  16.331 -0.6761  1.0009 -2.0555
  336MPD2    H1 5045   3.820   2.564  16.735  1.6587 -0.8431 -0.7598
  336MPD2    H2 5046   3.719   2.861  16.461 -1.3134 -1.3981  0.8456
  336MPD2    H3 5047   3.735   2.792  16.685  0.6629  1.0450 -0.6796
  336MPD2     N 5048   3.947   2.408  16.568  0.6349 -0.4345 -0.3957
  336MPD2    H5 5049   3.915   2.372  16.657 -0.9991 -2.5260 -1.8382
  336MPD2    N1 5050   3.849   2.760  16.243 -0.2560 -0.1854 -0.3294
  336MPD2    H7 5051   3.883   2.694  16.175  0.1095  1.4816 -1.7606
  337TMC3    C1 5052   3.826   2.914  16.058  0.0952 -1.2152  0.5132
  337TMC3    C2 5053   3.739   2.997  16.003  0.2136  0.2283  0.1181
  337TMC3    C3 5054   3.729   2.995  15.865 -0.8669 -0.4552 -0.0584
  337TMC3    C4 5055   3.911   2.837  15.988  0.2063 -0.3240 -0.8622
  337TMC3    C5 5056   3.911   2.850  15.851 -0.0989 -0.4646  0.2316
  337TMC3    C6 5057   3.822   2.931  15.788  0.0610  0.0512 -0.0942
  337TMC3     C 5058   3.806   2.888  16.202  0.0136  0.1622  0.1104
  337TMC3     O 5059   3.766   2.986  16.263  1.0769 -0.5146  0.3842
  337TMC3     H 5060   3.664   3.043  16.067 -0.1493 -1.6914  1.0524
  337TMC3    H1 5061   3.971   2.764  16.043 -0.4732 -0.8804 -0.8542
  337TMC3    H2 5062   3.820   2.948  15.680 -0.2096  1.9398  0.1954
  337TMC3    C7 5063   4.025   2.798  15.780  0.8070  1.1087  0.4816
  337TMC3    C8 5064   3.644   3.081  15.790  0.0701  0.3505 -0.7923
  337TMC3    O1 5065   3.999   2.776  15.661 -0.2472 -0.2047 -0.1870
  337TMC3    O2 5066   3.598   3.173  15.853 -0.3439 -0.1036 -0.1744
  338MPD2     C 5067   3.881   1.887   0.923  0.1259  0.1780 -0.2972
  338MPD2    C1 5068   3.835   1.899   0.795  0.0278 -0.2905  0.0202
  338MPD2    C2 5069   3.721   1.978   0.770 -0.1946 -0.3999 -0.7900
  338MPD2    C3 5070   3.665   2.056   0.876  0.9942 -0.0464  0.5540
  338MPD2    C4 5071   3.726   2.051   1.005  0.3937 -0.0174 -0.9591
  338MPD2    C5 5072   3.835   1.969   1.024  0.0779 -0.0190  0.5953
  338MPD2     H 5073   3.685   1.986   0.668  2.8864  5.3409 -1.3760
  338MPD2    H1 5074   3.703   2.120   1.085 -0.0565  1.3107 -2.2079
  338MPD2    H2 5075   3.974   1.833   0.940 -0.2209 -0.2036  0.3640
  338MPD2    H3 5076   3.899   1.979   1.110  1.3136  0.9531 -0.4435
  338MPD2     N 5077   3.554   2.139   0.838 -0.9443 -0.2721  0.0701
  338MPD2    H5 5078   3.523   2.132   0.742  2.2912  1.8631 -1.1470
  338MPD2    N1 5079   3.902   1.844   0.677  0.0883  0.1169 -0.1757
  338MPD2    H7 5080   3.859   1.865   0.588  0.2685  0.6640 -0.1375
  339TMC3    C1 5081   3.356   2.263   0.873  0.3962 -0.4110  0.4352
  339TMC3    C2 5082   3.250   2.267   0.960  0.4167 -0.1882  0.1102
  339TMC3    C3 5083   3.124   2.287   0.900  0.6198 -0.3873  0.0285
  339TMC3    C4 5084   3.345   2.289   0.736  0.4407  0.3464  0.3999
  339TMC3    C5 5085   3.225   2.339   0.693 -0.5450  0.1541 -0.7094
  339TMC3    C6 5086   3.107   2.325   0.769  0.9030 -0.8330 -0.1975
  339TMC3     C 5087   3.481   2.212   0.928  0.2372  0.5595 -0.3509
  339TMC3     O 5088   3.510   2.242   1.044 -0.0443 -0.3422 -0.1349
  339TMC3     H 5089   3.262   2.232   1.062 -0.0911  1.1488  0.6337
  339TMC3    H1 5090   3.433   2.288   0.672  0.3735 -0.7198  0.3352
  339TMC3    H2 5091   3.008   2.331   0.725  0.4846 -0.9602  0.7041
  339TMC3    C7 5092   3.212   2.334   0.551  0.9817 -0.6771 -0.3942
  339TMC3    C8 5093   3.003   2.298   0.980  0.1397 -0.0927  0.9746
  339TMC3    O1 5094   3.303   2.280   0.492 -0.2805 -0.3699 -0.0981
  339TMC3    O2 5095   2.905   2.357   0.939  0.0855 -0.6453 -0.0254
  340MPD2     C 5096   3.965   0.438  10.558 -0.4974  0.5522  0.0251
  340MPD2    C1 5097   4.039   0.544  10.502 -0.3390 -0.2551 -0.8582
  340MPD2    C2 5098   4.146   0.588  10.575  0.3561  0.2362 -0.1011
  340MPD2    C3 5099   4.178   0.527  10.700  0.3688 -0.0755  0.2899
  340MPD2    C4 5100   4.095   0.435  10.753 -0.2366 -0.1376 -0.0850
  340MPD2    C5 5101   3.992   0.395  10.682  0.0427 -0.1123  0.3973
  340MPD2     H 5102   4.201   0.676  10.544  0.1142 -0.0364 -1.3315
  340MPD2    H1 5103   4.106   0.388  10.850 -2.1491  1.2595  0.8081
  340MPD2    H2 5104   3.880   0.391  10.510 -0.7376  1.4007 -0.3700
  340MPD2    H3 5105   3.916   0.328  10.722  0.4432  1.9602  4.7085
  340MPD2     N 5106   4.296   0.548  10.779  0.8323 -0.2531  0.1908
  340MPD2    H5 5107   4.318   0.488  10.858  1.2723 -1.7077 -1.0397
  340MPD2    N1 5108   4.018   0.569  10.366 -0.6934 -0.1559 -0.1042
  340MPD2    H7 5109   3.943   0.515  10.323 -2.0113  0.2048  1.7717
  341TMC3    C1 5110   4.063   0.668  10.153  0.0453  0.0682 -0.5512
  341TMC3    C2 5111   3.965   0.588  10.101 -0.6907  0.1869 -0.2350
  341TMC3    C3 5112   3.970   0.571   9.966  0.3867 -0.3929  0.6620
  341TMC3    C4 5113   4.150   0.740  10.078 -0.0820  0.4404  0.2194
  341TMC3    C5 5114   4.133   0.732   9.942  0.4714 -0.0208  0.5280
  341TMC3    C6 5115   4.048   0.640   9.882 -0.0582  0.1582  0.1291
  341TMC3     C 5116   4.089   0.668  10.294 -0.0389  0.2653  0.1828
  341TMC3     O 5117   4.181   0.737  10.331  0.7744  0.3625  0.3955
  341TMC3     H 5118   3.924   0.506  10.157 -2.1463  0.2216 -1.2555
  341TMC3    H1 5119   4.221   0.807  10.124  1.7985 -0.6604 -1.0797
  341TMC3    H2 5120   4.068   0.613   9.779  1.0099 -0.0150  0.3852
  341TMC3    C7 5121   4.260   0.729   9.874 -0.6502 -0.1413  0.2420
  341TMC3    C8 5122   3.937   0.437   9.917  0.1250 -0.5141  0.1352
  341TMC3    O1 5123   4.357   0.681   9.937  0.5653  0.6517 -0.1161
  341TMC3    O2 5124   3.967   0.334   9.979 -0.2987  0.2536 -0.6969
  342MPD2     C 5125   2.316   3.116   0.067 -0.0060 -0.9814  0.0487
  342MPD2    C1 5126   2.385   3.151  17.643 -0.0443 -0.6478  0.2265
  342MPD2    C2 5127   2.390   3.283  17.604  0.5826  0.1572 -0.1209
  342MPD2    C3 5128   2.324   3.377  17.677 -0.6771  0.1407  0.1720
  342MPD2    C4 5129   2.255   3.343   0.101 -1.0013 -0.1028 -1.0031
  342MPD2    C5 5130   2.251   3.208   0.140  0.7710 -0.6463  0.5958
  342MPD2     H 5131   2.442   3.307  17.512 -0.2539  2.7842  0.1153
  342MPD2    H1 5132   2.211   3.423   0.158  0.8546  1.3556 -1.5982
  342MPD2    H2 5133   2.296   3.014   0.098 -0.5651 -1.5539 -2.2019
  342MPD2    H3 5134   2.189   3.179   0.224 -0.5734  2.9299  0.8541
  342MPD2     N 5135   2.333   3.520  17.647  0.0924  0.2279  0.2120
  342MPD2    H5 5136   2.273   3.584   0.007  0.3268 -0.6622  1.6262
  342MPD2    N1 5137   2.427   3.056  17.555 -0.5432  0.1766  0.2559
  342MPD2    H7 5138   2.465   3.084  17.465  0.8040  0.0573  0.7872
  343TMC3    C1 5139   2.455   2.855  17.456 -0.1534 -0.2243 -0.8836
  343TMC3    C2 5140   2.540   2.905  17.361  0.0328 -0.4350 -0.3435
  343TMC3    C3 5141   2.563   2.825  17.251 -0.7348  0.7644 -0.2088
  343TMC3    C4 5142   2.406   2.723  17.456  0.1064 -0.2653  0.2191
  343TMC3    C5 5143   2.430   2.655  17.340  0.1327 -0.1421 -0.3636
  343TMC3    C6 5144   2.505   2.704  17.236 -0.0472 -0.3383 -0.1188
  343TMC3     C 5145   2.426   2.923  17.575 -0.3106  0.2486 -1.1378
  343TMC3     O 5146   2.397   2.856  17.675 -0.1438  0.1868  0.0174
  343TMC3     H 5147   2.578   3.007  17.354 -0.0804 -0.5009 -1.8669
  343TMC3    H1 5148   2.339   2.680  17.530 -0.0434  1.3325  1.0124
  343TMC3    H2 5149   2.530   2.632  17.159  1.7504 -0.9765  1.0529
  343TMC3    C7 5150   2.384   2.523  17.329 -0.1346 -0.3807 -0.5518
  343TMC3    C8 5151   2.689   2.863  17.173 -0.2026  0.0966 -0.4067
  343TMC3    O1 5152   2.372   2.469  17.218 -0.1282  0.0378  0.2842
  343TMC3    O2 5153   2.769   2.937  17.229 -0.4023 -0.0415  0.0350
  344MPD2     C 5154   3.273   2.239  10.321 -0.1014 -0.4476  0.2451
  344MPD2    C1 5155   3.257   2.277  10.449  0.0503 -0.3577 -0.3561
  344MPD2    C2 5156   3.339   2.386  10.487  0.2014 -0.0837 -0.7267
  344MPD2    C3 5157   3.436   2.438  10.403  0.2526  1.1146  0.2205
  344MPD2    C4 5158   3.459   2.380  10.280  0.8410  0.4841  0.2041
  344MPD2    C5 5159   3.377   2.286  10.239  0.1894  0.1053 -0.0608
  344MPD2     H 5160   3.320   2.426  10.586  2.2536  2.0879 -1.2013
  344MPD2    H1 5161   3.531   2.415  10.207  1.8353  0.3080  1.1111
  344MPD2    H2 5162   3.212   2.159  10.281  1.2598 -1.3101 -0.1200
  344MPD2    H3 5163   3.384   2.253  10.136  2.6319  1.5901 -0.3551
  344MPD2     N 5164   3.521   2.546  10.444  0.1286  0.2662  0.5795
  344MPD2    H5 5165   3.578   2.579  10.366  0.2072  1.0238  0.9511
  344MPD2    N1 5166   3.151   2.224  10.521  0.0394  0.3689 -0.5904
  344MPD2    H7 5167   3.099   2.150  10.476  0.6912  0.4584 -1.4829
  345TMC3    C1 5168   3.596   2.739  10.546 -0.4279 -0.5589 -0.3103
  345TMC3    C2 5169   3.552   2.841  10.629 -0.0305 -0.2558  0.1013
  345TMC3    C3 5170   3.624   2.957  10.639 -0.4229  0.1418  0.1750
  345TMC3    C4 5171   3.699   2.752  10.457  0.8853  0.1671 -0.1691
  345TMC3    C5 5172   3.765   2.871  10.465  0.6319  0.0549  0.0329
  345TMC3    C6 5173   3.736   2.969  10.559 -0.4803  0.0384  0.9893
  345TMC3     C 5174   3.522   2.615  10.560  0.7737  0.6815 -0.2016
  345TMC3     O 5175   3.462   2.587  10.659 -0.4686  0.4428 -0.3284
  345TMC3     H 5176   3.476   2.818  10.702  1.9242  0.4138  2.3478
  345TMC3    H1 5177   3.745   2.673  10.400 -0.2569  0.1510 -1.0748
  345TMC3    H2 5178   3.793   3.061  10.561 -1.8893  0.9399  0.3646
  345TMC3    C7 5179   3.814   2.921  10.342  0.1149  0.2888 -0.2223
  345TMC3    C8 5180   3.572   3.071  10.709  0.4379  0.6250 -0.0411
  345TMC3    O1 5181   3.911   2.996  10.361 -0.4421 -0.0453 -0.2291
  345TMC3    O2 5182   3.615   3.180  10.677  0.3304 -0.3770  0.7093
  346MPD2     C 5183   3.734   4.615  13.908 -0.4866  0.5514 -0.1328
  346MPD2    C1 5184   3.850   4.677  13.922 -0.0553 -0.0972 -0.1783
  346MPD2    C2 5185   3.869   0.044  14.025 -0.0712  0.0203  0.3545
  346MPD2    C3 5186   3.767   0.058  14.122 -0.0643 -0.6949  0.0841
  346MPD2    C4 5187   3.646   4.718  14.102  0.5705 -0.2118  0.0831
  346MPD2    C5 5188   3.633   4.628  14.003  1.0289  0.3701 -0.1130
  346MPD2     H 5189   3.960   0.102  14.030 -0.3964  0.3590  2.0106
  346MPD2    H1 5190   3.556   4.720  14.163  0.1744 -2.1269 -0.4335
  346MPD2    H2 5191   3.704   4.565  13.816 -0.5187  0.0684  0.1413
  346MPD2    H3 5192   3.542   4.570  13.993  1.4408 -0.6697  2.1017
  346MPD2     N 5193   3.794   0.144  14.233  0.0309 -0.6120 -0.6931
  346MPD2    H5 5194   3.887   0.183  14.240  0.2849 -0.5506 -4.4814
  346MPD2    N1 5195   3.943   4.683  13.815  0.6697  0.2428  0.1458
  346MPD2    H7 5196   4.016   0.031  13.820  1.0236 -0.2377  1.9806
  347TMC3    C1 5197   3.750   0.268  14.422  0.3912 -0.2969  0.6260
  347TMC3    C2 5198   3.862   0.236  14.485  0.4165  0.0332 -0.7514
  347TMC3    C3 5199   3.875   0.283  14.613 -1.1174 -0.5124  0.6863
  347TMC3    C4 5200   3.641   0.330  14.484  0.4835  0.4393  0.4207
  347TMC3    C5 5201   3.651   0.356  14.617  0.5191 -0.1735  0.2960
  347TMC3    C6 5202   3.774   0.327  14.680  0.2397  0.1988 -0.9732
  347TMC3     C 5203   3.702   0.169  14.331  0.3323 -0.0533 -0.0114
  347TMC3     O 5204   3.581   0.149  14.347 -0.1732 -0.2963 -0.4516
  347TMC3     H 5205   3.943   0.186  14.433  0.8439  0.2888 -0.3308
  347TMC3    H1 5206   3.548   0.352  14.433  0.5731 -2.6261 -1.0337
  347TMC3    H2 5207   3.778   0.329  14.788  1.1592 -1.2806 -0.9750
  347TMC3    C7 5208   3.538   0.316  14.695 -0.4039  0.1610  0.2610
  347TMC3    C8 5209   3.980   0.219  14.680  1.1439 -0.1658  0.1267
  347TMC3    O1 5210   3.547   0.326  14.818 -0.5291 -0.1195 -0.7359
  347TMC3    O2 5211   3.952   0.172  14.791 -0.3801 -0.3075  0.1597
  348MPD2     C 5212   1.585   3.835  12.181  0.0935  0.1705  0.0671
  348MPD2    C1 5213   1.703   3.888  12.140 -0.0841  0.5897  0.1931
  348MPD2    C2 5214   1.706   3.954  12.018  0.1028 -0.0168 -0.3466
  348MPD2    C3 5215   1.598   3.966  11.941  0.1415  0.0537  0.0679
  348MPD2    C4 5216   1.476   3.919  11.980  0.0009  0.9488  0.1684
  348MPD2    C5 5217   1.474   3.847  12.099  0.3325 -0.1642  0.7583
  348MPD2     H 5218   1.795   3.999  11.976  1.5177 -2.5345 -0.0360
  348MPD2    H1 5219   1.387   3.931  11.920  1.9256  1.2416 -2.6038
  348MPD2    H2 5220   1.570   3.787  12.277  0.9790 -3.9433 -1.8712
  348MPD2    H3 5221   1.380   3.802  12.127 -0.5463 -0.2468 -2.3977
  348MPD2     N 5222   1.619   4.026  11.812 -0.2603 -0.2138 -0.2520
  348MPD2    H5 5223   1.715   4.060  11.802  0.2395 -1.2422  1.1130
  348MPD2    N1 5224   1.818   3.891  12.228 -0.3152  1.0228  0.5786
  348MPD2    H7 5225   1.898   3.944  12.198  1.2071 -0.0746  2.7041
  349TMC3    C1 5226   1.950   3.908  12.415 -0.4822  0.7310  0.3125
  349TMC3    C2 5227   2.037   3.821  12.469 -0.0982 -0.0692 -0.5460
  349TMC3    C3 5228   2.165   3.831  12.436 -0.1457  0.4360 -0.8265
  349TMC3    C4 5229   1.986   4.017  12.345 -1.0473 -0.0380 -0.5272
  349TMC3    C5 5230   2.122   4.021  12.314  0.0763 -0.3068  0.3769
  349TMC3    C6 5231   2.213   3.928  12.353 -0.5367 -0.7584  0.4031
  349TMC3     C 5232   1.827   3.844  12.358 -0.1047  0.5454  0.2960
  349TMC3     O 5233   1.769   3.757  12.423 -0.4172  0.1164  0.5357
  349TMC3     H 5234   1.999   3.732  12.518 -0.8809  1.5189  1.7294
  349TMC3    H1 5235   1.917   4.093  12.310  0.7153  1.3235 -1.0214
  349TMC3    H2 5236   2.316   3.931  12.319 -1.2952  1.0608 -1.6980
  349TMC3    C7 5237   2.138   4.053  12.171  0.3003  0.3190  0.4173
  349TMC3    C8 5238   2.246   3.708  12.465  0.4064  0.0604  0.4382
  349TMC3    O1 5239   2.039   4.033  12.100  0.0490 -0.4547  0.0097
  349TMC3    O2 5240   2.199   3.636  12.554  0.0341 -0.4195 -0.5311
  350MPD2     C 5241   0.850   1.348   9.501  0.6235 -0.4612 -0.0012
  350MPD2    C1 5242   0.877   1.311   9.635 -0.1475 -0.0557 -0.1006
  350MPD2    C2 5243   0.998   1.347   9.682 -0.4829  0.1334  0.3176
  350MPD2    C3 5244   1.089   1.418   9.610 -0.0477  0.1482 -0.0561
  350MPD2    C4 5245   1.057   1.472   9.485 -0.4103 -0.2340 -0.4247
  350MPD2    C5 5246   0.933   1.435   9.433  0.6475  0.1072 -0.7386
  350MPD2     H 5247   1.022   1.327   9.786 -0.9707 -0.3128  0.3450
  350MPD2    H1 5248   1.122   1.540   9.430 -1.2447  0.7027 -0.2523
  350MPD2    H2 5249   0.762   1.317   9.445 -0.0179  1.3449  0.0006
  350MPD2    H3 5250   0.904   1.478   9.338  0.2855  1.0225 -0.2156
  350MPD2     N 5251   1.206   1.462   9.683 -0.5624 -0.2356  0.3707
  350MPD2    H5 5252   1.205   1.440   9.782 -2.0427 -0.3625  0.3236
  350MPD2    N1 5253   0.789   1.246   9.723  0.3883  0.3637  0.4157
  350MPD2    H7 5254   0.819   1.248   9.820 -0.5783  1.4358  0.6909
  351TMC3    C1 5255   0.598   1.150   9.810  0.3962  0.6802 -0.0369
  351TMC3    C2 5256   0.657   1.054   9.892  0.4383  0.0129  0.3312
  351TMC3    C3 5257   0.593   1.024  10.010  0.5644 -0.3052  0.1990
  351TMC3    C4 5258   0.477   1.209   9.847  0.3026  0.5198  0.2264
  351TMC3    C5 5259   0.416   1.173   9.968  0.1251 -0.1587  0.2882
  351TMC3    C6 5260   0.470   1.077  10.052  0.0034  0.1903 -0.8543
  351TMC3     C 5261   0.664   1.209   9.697  0.2484 -0.3397 -0.6969
  351TMC3     O 5262   0.607   1.224   9.589  0.7912 -0.1926 -0.5648
  351TMC3     H 5263   0.745   1.000   9.858  0.4918 -0.2952  0.9693
  351TMC3    H1 5264   0.434   1.272   9.770  2.7529  0.9487 -0.7655
  351TMC3    H2 5265   0.404   1.026  10.121  0.4163 -1.7034 -1.8546
  351TMC3    C7 5266   0.274   1.157   9.948  0.1964  0.0729  0.3390
  351TMC3    C8 5267   0.660   0.934  10.100  0.4143  0.4722  0.6634
  351TMC3    O1 5268   0.241   1.150   9.834  0.2355  0.5773  0.1805
  351TMC3    O2 5269   0.645   0.952  10.220 -0.5574 -0.0638 -0.3703
  352MPD2     C 5270   3.978   3.739   1.012  0.5829  0.7713  0.1353
  352MPD2    C1 5271   3.976   3.794   1.135  0.0536 -0.0275 -0.5353
  352MPD2    C2 5272   3.992   3.711   1.247 -0.4245  1.2917  0.0469
  352MPD2    C3 5273   3.998   3.577   1.226 -0.3371  0.3377 -0.2918
  352MPD2    C4 5274   3.992   3.520   1.102  0.2414  0.0006 -0.8384
  352MPD2    C5 5275   3.987   3.602   0.992 -0.2959  0.2120 -0.3867
  352MPD2     H 5276   3.990   3.757   1.345  0.4616 -0.7854  1.0374
  352MPD2    H1 5277   4.007   3.413   1.092  1.6981  0.2215 -1.0704
  352MPD2    H2 5278   3.943   3.800   0.929 -0.4194 -0.6439 -0.4790
  352MPD2    H3 5279   3.993   3.562   0.891  1.3719  0.2126 -0.2769
  352MPD2     N 5280   3.994   3.484   1.333 -0.0280 -0.6725 -0.2190
  352MPD2    H5 5281   3.975   3.388   1.309 -0.1439 -0.9921  1.1527
  352MPD2    N1 5282   3.966   3.932   1.145 -0.1264  0.2542 -0.0760
  352MPD2    H7 5283   3.966   3.981   1.056  0.0743 -1.0359 -0.7775
  353TMC3    C1 5284   4.047   3.375   1.524 -0.2532  0.2368 -0.1209
  353TMC3    C2 5285   4.176   3.341   1.559 -0.2083  0.3456  0.0765
  353TMC3    C3 5286   4.213   3.208   1.555  0.3797 -0.5228 -0.7532
  353TMC3    C4 5287   3.956   3.286   1.478 -0.2897 -0.9798  0.3064
  353TMC3    C5 5288   4.003   3.157   1.474  0.1124  0.6905  0.1646
  353TMC3    C6 5289   4.129   3.114   1.504 -0.1656 -1.0049 -0.2433
  353TMC3     C 5290   4.035   3.507   1.462  0.6970  0.7510 -0.4924
  353TMC3     O 5291   4.120   3.590   1.499  0.3587 -0.3671  0.1919
  353TMC3     H 5292   4.240   3.421   1.592  1.7552 -1.2747  0.1967
  353TMC3    H1 5293   3.852   3.306   1.457  0.0951  1.3717  0.6218
  353TMC3    H2 5294   4.151   3.008   1.495  2.2601 -0.6946  2.1037
  353TMC3    C7 5295   3.939   3.071   1.375 -0.0873  0.2314 -0.8210
  353TMC3    C8 5296   4.350   3.183   1.600  0.4139  0.6965 -0.2832
  353TMC3    O1 5297   4.010   2.994   1.316 -0.1633  0.1753 -0.2387
  353TMC3    O2 5298   4.417   3.279   1.635 -0.0822 -0.5017  0.0348
  354TMC3    C1 5299   1.488   0.731  13.431  0.6773 -0.1974 -0.3696
  354TMC3    C2 5300   1.462   0.867  13.418 -0.2125 -0.4187  0.1011
  354TMC3    C3 5301   1.525   0.930  13.313 -0.0105 -0.3028 -0.2467
  354TMC3    C4 5302   1.555   0.657  13.338  0.2753 -0.8631 -0.0437
  354TMC3    C5 5303   1.587   0.731  13.224 -0.4554  0.4948 -0.1259
  354TMC3    C6 5304   1.585   0.865  13.221 -0.2350  0.3988  0.0400
  354TMC3     C 5305   1.422   0.665  13.546 -0.6073 -0.2623 -0.1681
  354TMC3     O 5306   1.369   0.555  13.513  0.2278 -0.2048  0.5167
  354TMC3     H 5307   1.395   0.928  13.477 -0.7757 -0.6998 -0.2553
  354TMC3    H1 5308   1.547   0.549  13.337 -1.2110 -0.7581  0.6514
  354TMC3    H2 5309   1.644   0.920  13.148 -0.1729 -0.3779 -0.4968
  354TMC3    C7 5310   1.621   0.656  13.108 -0.0145  0.8508  0.6289
  354TMC3    C8 5311   1.469   1.057  13.267 -0.5585  0.0050  0.0897
  354TMC3    O1 5312   1.601   0.535  13.122  0.6250  0.5412  0.8380
  354TMC3    O2 5313   1.464   1.064  13.141 -0.0189  0.1732  0.7219
  355MPD2     C 5314   1.219   2.017  11.889 -0.5602  0.3714  0.3385
  355MPD2    C1 5315   1.270   1.919  11.811  0.0199 -0.3782 -0.7427
  355MPD2    C2 5316   1.373   1.839  11.859  0.4820  0.4925 -0.5089
  355MPD2    C3 5317   1.425   1.858  11.990 -0.4816  0.3566  0.0753
  355MPD2    C4 5318   1.367   1.951  12.071 -1.5547  0.9495 -0.1615
  355MPD2    C5 5319   1.259   2.029  12.018  0.0082  0.1418 -0.6041
  355MPD2     H 5320   1.402   1.758  11.793 -1.0367 -0.3116 -0.1845
  355MPD2    H1 5321   1.403   1.991  12.165  0.6423 -0.8925 -0.2149
  355MPD2    H2 5322   1.144   2.086  11.851  0.5331  1.2579 -0.2077
  355MPD2    H3 5323   1.225   2.114  12.076 -1.7658  0.4311 -2.0914
  355MPD2     N 5324   1.532   1.788  12.044 -0.1753 -0.8953  0.6954
  355MPD2    H5 5325   1.560   1.816  12.138  0.9255  1.4261 -0.2945
  355MPD2    N1 5326   1.222   1.916  11.677 -0.1656 -0.0550  0.4771
  355MPD2    H7 5327   1.147   1.978  11.646  1.3600  1.5852  0.0140
  356TMC3    C1 5328   1.750   1.711  12.026 -0.1146 -0.0578 -0.9503
  356TMC3    C2 5329   1.854   1.717  11.933  0.1150  0.4772 -0.2402
  356TMC3    C3 5330   1.965   1.793  11.966  0.5579 -0.6904  0.3681
  356TMC3    C4 5331   1.759   1.767  12.154 -0.2581  0.9035  0.3237
  356TMC3    C5 5332   1.875   1.839  12.176  0.1125 -0.1632 -0.0268
  356TMC3    C6 5333   1.970   1.862  12.083  0.1135 -0.1106 -0.6573
  356TMC3     C 5334   1.615   1.707  11.971  0.6698  0.2897 -0.3236
  356TMC3     O 5335   1.607   1.669  11.853 -0.0678  0.2091  0.4764
  356TMC3     H 5336   1.842   1.676  11.833 -2.2027  0.4948  0.0406
  356TMC3    H1 5337   1.687   1.754  12.234  1.1970  1.2316  1.6913
  356TMC3    H2 5338   2.056   1.924  12.106  0.4558 -1.6463  2.2569
  356TMC3    C7 5339   1.903   1.892  12.306 -0.0119 -0.0737 -0.1105
  356TMC3    C8 5340   2.053   1.831  11.857  0.1171 -0.0208  0.6543
  356TMC3    O1 5341   1.851   1.841  12.406 -0.2145  0.5220  0.0806
  356TMC3    O2 5342   2.122   1.927  11.879  0.4241 -0.0629 -0.2679
  357MPD2     C 5343   1.019   1.318  17.637 -0.7449  0.5196  0.4879
  357MPD2    C1 5344   1.083   1.274   0.064  0.0199 -0.3545 -0.2860
  357MPD2    C2 5345   1.010   1.268   0.183 -0.2286  0.2094  0.6042
  357MPD2    C3 5346   0.883   1.306   0.182  0.0968  0.7407 -0.8690
  357MPD2    C4 5347   0.818   1.358   0.069  0.5041  0.1609  0.4907
  357MPD2    C5 5348   0.891   1.357  17.648  0.8033  0.3389  0.3733
  357MPD2     H 5349   1.051   1.230   0.276  0.7968 -0.5717 -0.1523
  357MPD2    H1 5350   0.715   1.393   0.067  0.6322  0.4656 -0.7581
  357MPD2    H2 5351   1.067   1.323  17.540  0.6254 -1.8446  1.0335
  357MPD2    H3 5352   0.843   1.390  17.557 -1.8721 -0.3020  1.5487
  357MPD2     N 5353   0.804   1.314   0.303  0.6753  0.3782  0.2106
  357MPD2    H5 5354   0.706   1.340   0.297  0.4045 -0.5016  0.8332
  357MPD2    N1 5355   1.216   1.226   0.045  0.1066 -0.6934 -0.4543
  357MPD2    H7 5356   1.254   1.245  17.644  3.0188 -1.2964  0.6114
  358TMC3    C1 5357   1.420   1.109   0.091 -0.6798  0.0399 -0.0933
  358TMC3    C2 5358   1.418   1.059  17.650  0.4656  0.3229  0.1382
  358TMC3    C3 5359   1.493   0.955  17.616  0.2148  0.1984  0.5384
  358TMC3    C4 5360   1.510   1.050   0.187 -0.2797  0.0660  0.3471
  358TMC3    C5 5361   1.586   0.947   0.144 -0.1618 -0.7071  0.3482
  358TMC3    C6 5362   1.589   0.902   0.013  0.6685  0.6836  0.3681
  358TMC3     C 5363   1.298   1.173   0.141 -0.0581  0.0399 -0.0990
  358TMC3     O 5364   1.280   1.142   0.258 -0.6681  0.5143 -0.7207
  358TMC3     H 5365   1.341   1.085  17.579  0.0433 -1.9046 -0.2077
  358TMC3    H1 5366   1.511   1.094   0.286  0.5934  0.5696  0.1136
  358TMC3    H2 5367   1.645   0.812  17.680  0.8430  1.4811 -2.2102
  358TMC3    C7 5368   1.610   0.845   0.232  0.0886 -0.2646  0.6795
  358TMC3    C8 5369   1.468   0.891  17.489 -0.4155 -0.5255 -0.3455
  358TMC3    O1 5370   1.565   0.733   0.215 -0.0072 -0.0580 -0.4136
  358TMC3    O2 5371   1.363   0.904  17.431 -0.0852 -0.0706 -0.3378
  359MPD2     C 5372   2.197   4.623  12.844 -0.7305 -0.7436  0.7584
  359MPD2    C1 5373   2.111   4.671  12.752  1.3057  0.5714  0.3823
  359MPD2    C2 5374   1.977   4.674  12.767  0.0728  0.7192 -0.4373
  359MPD2    C3 5375   1.916   4.634  12.885 -0.2951  0.9463  0.0087
  359MPD2    C4 5376   2.000   4.590  12.982 -0.0218 -0.0609 -0.1813
  359MPD2    C5 5377   2.134   4.590  12.962  0.4465 -0.4111  0.1964
  359MPD2     H 5378   1.925   0.004  12.687 -0.6198  1.0041  0.1978
  359MPD2    H1 5379   1.961   4.549  13.075  0.5825 -1.0752 -0.3806
  359MPD2    H2 5380   2.305   4.611  12.836 -0.6237 -0.4032  1.6602
  359MPD2    H3 5381   2.196   4.551  13.042  1.9524  2.2670  0.3451
  359MPD2     N 5382   1.778   4.640  12.913 -0.1548  0.2576 -0.7583
  359MPD2    H5 5383   1.752   4.582  12.992  0.3180 -2.4488 -2.5857
  359MPD2    N1 5384   2.162   4.708  12.628 -0.1598 -0.1236  0.1226
  359MPD2    H7 5385   2.099   0.003  12.550  0.4699  0.7250 -0.1911
  360TMC3    C1 5386   2.318   4.712  12.453 -0.2702 -0.2250  0.0048
  360TMC3    C2 5387   2.425   0.055  12.408  0.3857 -0.4398 -0.2193
  360TMC3    C3 5388   2.446   0.052  12.273  0.0261 -0.5060 -0.3900
  360TMC3    C4 5389   2.236   4.649  12.368  0.4939  0.4487  0.3983
  360TMC3    C5 5390   2.264   4.647  12.238 -0.0349  0.3662 -0.0978
  360TMC3    C6 5391   2.376   4.709  12.186  0.1763  0.2014 -0.2311
  360TMC3     C 5392   2.295   4.709  12.595  0.2660  0.1995 -0.1013
  360TMC3     O 5393   2.385   0.018  12.669 -0.5028  0.1524  0.3986
  360TMC3     H 5394   2.480   0.121  12.474 -1.0301  1.7245 -1.1745
  360TMC3    H1 5395   2.148   4.598  12.405  2.1091 -0.2733  3.2469
  360TMC3    H2 5396   2.390   0.010  12.081 -1.0025 -3.8335 -1.2780
  360TMC3    C7 5397   2.158   4.656  12.149 -0.1618  0.1841 -0.4851
  360TMC3    C8 5398   2.573   0.100  12.235 -0.9471  0.8178  0.0638
  360TMC3    O1 5399   2.163   0.016  12.056  0.0389 -1.3612 -0.2477
  360TMC3    O2 5400   2.607   0.211  12.269  0.3248 -0.3010  0.2880
  361MPD2     C 5401   3.416   3.542  16.550 -0.0815 -0.4867  0.4139
  361MPD2    C1 5402   3.393   3.551  16.682  1.3310 -0.4409 -0.5402
  361MPD2    C2 5403   3.477   3.503  16.769  0.2698 -0.3159 -0.4764
  361MPD2    C3 5404   3.589   3.437  16.721  0.4971  0.3840 -0.2813
  361MPD2    C4 5405   3.611   3.422  16.588 -0.4359 -0.0402  0.5734
  361MPD2    C5 5406   3.523   3.478  16.504 -0.3924 -0.4522 -0.3412
  361MPD2     H 5407   3.450   3.513  16.874  0.6080 -0.3252 -0.3865
  361MPD2    H1 5408   3.696   3.370  16.547 -0.2884  0.6934 -0.0601
  361MPD2    H2 5409   3.347   3.591  16.482  0.7405 -1.2043 -0.9349
  361MPD2    H3 5410   3.549   3.476  16.399  0.4322 -1.9259 -0.1096
  361MPD2     N 5411   3.680   3.373  16.806 -0.2378 -0.2412 -0.1216
  361MPD2    H5 5412   3.730   3.294  16.766  1.8960  0.7994  0.4912
  361MPD2    N1 5413   3.269   3.611  16.719  0.0038  0.1382 -0.5805
  361MPD2    H7 5414   3.192   3.599  16.654 -2.6076  1.6716  2.2337
  362TMC3    C1 5415   3.107   3.711  16.834 -0.0068  0.2558  0.3949
  362TMC3    C2 5416   3.023   3.693  16.939  0.0568  0.0007 -0.7704
  362TMC3    C3 5417   2.889   3.730  16.912 -0.4789 -0.3718 -0.7278
  362TMC3    C4 5418   3.070   3.770  16.715  1.2943  0.4377 -0.2854
  362TMC3    C5 5419   2.937   3.801  16.701 -0.1635  0.9873 -0.8954
  362TMC3    C6 5420   2.840   3.776  16.794 -0.3842 -0.5871  0.4172
  362TMC3     C 5421   3.238   3.660  16.842 -0.4153 -0.3460 -0.2510
  362TMC3     O 5422   3.309   3.689  16.936 -0.3966 -0.0418  0.0233
  362TMC3     H 5423   3.055   3.664  17.038  2.2444  0.8733 -1.2078
  362TMC3    H1 5424   3.138   3.787  16.632  1.6770  1.2821  0.1951
  362TMC3    H2 5425   2.733   3.783  16.777 -0.8053 -2.8303  2.1617
  362TMC3    C7 5426   2.912   3.910  16.608  0.5382  0.7774 -0.4470
  362TMC3    C8 5427   2.803   3.707  17.021 -0.2013  0.3377  0.4755
  362TMC3    O1 5428   3.003   3.994  16.605 -0.6190 -0.0799  0.3522
  362TMC3    O2 5429   2.824   3.607  17.086  0.1254  0.0744  0.2422
  363TMC3    C1 5430   2.017   0.401   9.763  0.8855 -0.3053 -0.1990
  363TMC3    C2 5431   2.061   0.423   9.891 -0.5439 -0.2259 -0.6372
  363TMC3    C3 5432   1.976   0.502   9.966  0.4010 -0.1735  0.4443
  363TMC3    C4 5433   1.898   0.453   9.714 -0.5358  1.0968  0.1795
  363TMC3    C5 5434   1.821   0.532   9.797 -0.4665  0.0669 -0.6330
  363TMC3    C6 5435   1.859   0.559   9.929 -1.1583 -0.7128  0.5118
  363TMC3     C 5436   2.096   0.329   9.671 -0.9666  0.2805  0.6135
  363TMC3     O 5437   2.044   0.294   9.566  0.5860  0.0057 -0.2304
  363TMC3     H 5438   2.139   0.361   9.933  0.4905  0.7336 -1.1467
  363TMC3    H1 5439   1.864   0.445   9.611  1.7511 -0.0120 -0.4802
  363TMC3    H2 5440   1.797   0.615   9.998  0.5029  1.1261  0.5081
  363TMC3    C7 5441   1.686   0.567   9.753 -0.7069  0.6055  0.4236
  363TMC3    C8 5442   2.010   0.523  10.107 -0.4127  0.8571  0.0639
  363TMC3    O1 5443   1.666   0.547   9.636  0.7782  0.4628 -0.4574
  363TMC3    O2 5444   1.919   0.544  10.190 -0.7316 -0.0640  0.0743
  364MPD2     C 5445   0.355   0.820  10.910 -0.4061  1.1875  0.2845
  364MPD2    C1 5446   0.472   0.760  10.877 -0.0959 -0.4642 -0.1404
  364MPD2    C2 5447   0.503   0.632  10.922 -0.0328  0.1114  0.1481
  364MPD2    C3 5448   0.418   0.579  11.019 -0.1585  0.5286 -0.1228
  364MPD2    C4 5449   0.306   0.641  11.057 -0.1059  0.6399 -0.3895
  364MPD2    C5 5450   0.280   0.756  10.998 -0.2250 -0.2023  1.1617
  364MPD2     H 5451   0.591   0.576  10.892 -1.6276 -1.4847 -1.5468
  364MPD2    H1 5452   0.239   0.590  11.125  0.3763 -1.0249 -1.1743
  364MPD2    H2 5453   0.332   0.921  10.880  0.3524  1.7328  1.5767
  364MPD2    H3 5454   0.191   0.811  11.026 -0.1235  0.7255 -0.3652
  364MPD2     N 5455   0.444   0.447  11.073  0.2193  0.7943 -0.6265
  364MPD2    H5 5456   0.392   0.422  11.157 -0.7122  1.0822 -1.1072
  364MPD2    N1 5457   0.559   0.833  10.806  0.1040  0.0564 -0.8253
  364MPD2    H7 5458   0.545   0.930  10.779 -1.4746  0.7531  2.5821
  365TMC3    C1 5459   0.766   0.915  10.725  1.0957  0.5744  0.0964
  365TMC3    C2 5460   0.873   0.892  10.640 -0.9887 -0.2312  0.2061
  365TMC3    C3 5461   0.922   1.007  10.579 -0.8848 -0.3604 -0.2798
  365TMC3    C4 5462   0.723   1.038  10.767  0.4246  0.3680  0.1284
  365TMC3    C5 5463   0.788   1.148  10.708 -0.2486 -0.0085 -0.4339
  365TMC3    C6 5464   0.883   1.134  10.612 -0.3638  0.8039 -0.1240
  365TMC3     C 5465   0.687   0.801  10.762  0.5568  0.6130 -0.4753
  365TMC3     O 5466   0.750   0.696  10.767 -0.1476 -0.0529 -0.0773
  365TMC3     H 5467   0.908   0.792  10.616 -1.9893 -0.5048 -0.1437
  365TMC3    H1 5468   0.641   1.059  10.835 -3.1398 -2.3807 -3.3146
  365TMC3    H2 5469   0.939   1.223  10.585 -1.3809  1.2998 -0.5824
  365TMC3    C7 5470   0.765   1.285  10.752  0.4245  0.1626 -0.4215
  365TMC3    C8 5471   1.031   1.002  10.488 -0.3556 -0.5899 -0.9649
  365TMC3    O1 5472   0.829   1.370  10.695 -1.1525 -0.4738 -0.0129
  365TMC3    O2 5473   1.060   1.101  10.416  0.0296 -0.3278 -0.2453
  366MPD2     C 5474   3.882   1.588  15.150 -0.5719 -0.0065 -0.4755
  366MPD2    C1 5475   3.877   1.599  15.289 -0.0710  0.4867 -0.0779
  366MPD2    C2 5476   3.990   1.557  15.362 -0.8055 -0.1013 -0.0526
  366MPD2    C3 5477   4.107   1.513  15.298  0.4815  0.0425  0.2777
  366MPD2    C4 5478   4.091   1.481  15.161  0.5469 -0.8322 -0.6670
  366MPD2    C5 5479   3.983   1.522  15.091 -0.2558 -0.2151 -0.9433
  366MPD2     H 5480   3.987   1.552  15.470  2.3167  1.6886  0.1013
  366MPD2    H1 5481   4.173   1.442  15.102  0.9167  1.6467 -1.7935
  366MPD2    H2 5482   3.797   1.611  15.086 -0.4817  0.5011 -0.4147
  366MPD2    H3 5483   3.981   1.498  14.986  0.8337  0.1637 -1.0464
  366MPD2     N 5484   4.225   1.478  15.368  0.0100 -0.5779  0.1659
  366MPD2    H5 5485   4.274   1.398  15.330  0.3617  0.2448 -1.1454
  366MPD2    N1 5486   3.771   1.656  15.357  0.3570 -0.7781 -0.1874
  366MPD2    H7 5487   3.773   1.648  15.458 -1.4065  1.7983  0.0544
  367TMC3    C1 5488   3.573   1.789  15.402  0.0316 -0.1867 -0.0845
  367TMC3    C2 5489   3.638   1.833  15.513  0.2931 -0.4719  0.4004
  367TMC3    C3 5490   3.633   1.968  15.547  0.5992  0.4560 -0.1182
  367TMC3    C4 5491   3.483   1.868  15.338  0.2188  0.4514  0.0721
  367TMC3    C5 5492   3.470   1.994  15.384 -0.2657  0.1617 -0.5147
  367TMC3    C6 5493   3.553   2.053  15.476 -0.0492  0.0658  1.1291
  367TMC3     C 5494   3.655   1.719  15.308 -0.7450 -0.2505  0.1362
  367TMC3     O 5495   3.614   1.714  15.194  0.6324 -0.9274  0.7804
  367TMC3     H 5496   3.688   1.763  15.579 -2.8302 -0.3933  2.8348
  367TMC3    H1 5497   3.431   1.849  15.244 -2.4598  3.5909  0.9181
  367TMC3    H2 5498   3.541   2.158  15.500 -1.8174  0.2747 -0.6272
  367TMC3    C7 5499   3.362   2.092  15.344 -0.7887 -0.4976 -0.4065
  367TMC3    C8 5500   3.741   2.014  15.632 -0.1692  0.5009  0.1435
  367TMC3    O1 5501   3.385   2.211  15.367 -1.3880 -0.6499 -0.6513
  367TMC3    O2 5502   3.813   1.930  15.681 -0.2309 -0.2373 -0.0351
  368MPD2     C 5503   0.498   3.693  13.633 -0.4764 -0.1561 -1.0494
  368MPD2    C1 5504   0.535   3.765  13.521 -0.1820  1.0808  0.0929
  368MPD2    C2 5505   0.674   3.788  13.498  1.2477  0.1188 -0.3639
  368MPD2    C3 5506   0.769   3.731  13.582 -0.3423 -0.3149 -0.2254
  368MPD2    C4 5507   0.732   3.657  13.688 -0.5754  0.0450  0.6013
  368MPD2    C5 5508   0.596   3.631  13.709  0.0606 -0.2285  0.2398
  368MPD2     H 5509   0.706   3.863  13.426  1.5486 -0.0621 -0.4180
  368MPD2    H1 5510   0.812   3.611  13.746 -0.6181 -0.7175  0.0530
  368MPD2    H2 5511   0.391   3.684  13.651 -0.1713 -1.5830  0.0648
  368MPD2    H3 5512   0.565   3.572  13.794 -0.9270 -0.1378 -0.0578
  368MPD2     N 5513   0.907   3.740  13.560 -0.0266  0.3416  0.5781
  368MPD2    H5 5514   0.975   3.703  13.625  0.8873  2.1121  0.6334
  368MPD2    N1 5515   0.431   3.813  13.437 -0.2562  0.0723  0.1900
  368MPD2    H7 5516   0.337   3.795  13.471  0.0175 -0.7050  0.5304
  369TMC3    C1 5517   0.327   3.928  13.255 -1.0380  0.0971  0.0354
  369TMC3    C2 5518   0.336   4.026  13.156 -0.2683 -0.3241 -0.4144
  369TMC3    C3 5519   0.219   4.067  13.087  0.7136 -0.9826 -0.1665
  369TMC3    C4 5520   0.203   3.884  13.290  0.0376  0.2018  0.1522
  369TMC3    C5 5521   0.095   3.930  13.222  0.4178 -0.0264 -0.2849
  369TMC3    C6 5522   0.098   4.012  13.113 -0.3877 -0.0334  0.4046
  369TMC3     C 5523   0.450   3.892  13.321  0.1081 -0.7297 -0.4103
  369TMC3     O 5524   0.556   3.920  13.263  0.8802  0.1774 -0.1699
  369TMC3     H 5525   0.434   4.067  13.131 -0.5272  1.9567  2.2471
  369TMC3    H1 5526   0.181   3.807  13.363  1.0015 -0.5451 -0.3420
  369TMC3    H2 5527   0.020   4.064  13.061 -0.8193  1.2652  2.3418
  369TMC3    C7 5528   4.693   3.868  13.254  0.1916 -0.1815  1.3507
  369TMC3    C8 5529   0.225   4.171  12.984 -0.3586  0.0292 -0.0410
  369TMC3    O1 5530   4.690   3.813  13.363  0.0075  0.5783  0.4507
  369TMC3    O2 5531   0.133   4.173  12.905  0.0685 -0.4270  0.6882
  370TMC3    C1 5532   4.543   4.424  16.410 -0.3586  0.5051 -0.2023
  370TMC3    C2 5533   4.490   4.357  16.519 -0.1494 -0.3440 -0.6518
  370TMC3    C3 5534   4.449   4.228  16.495 -0.0360 -0.0267 -0.0978
  370TMC3    C4 5535   4.586   4.362  16.299 -0.2092  0.1040 -0.1306
  370TMC3    C5 5536   4.556   4.231  16.280  0.0308  0.0882 -0.5286
  370TMC3    C6 5537   4.480   4.163  16.375 -0.3019  0.0056  0.2442
  370TMC3     C 5538   4.626   4.533  16.451  0.5955  0.4280 -0.4389
  370TMC3     O 5539   4.664   4.533  16.568 -0.2659 -0.2770  0.2325
  370TMC3     H 5540   4.465   4.420  16.603 -0.5545 -0.5752 -0.6023
  370TMC3    H1 5541   4.634   4.418  16.219 -0.5081  2.7247  1.5576
  370TMC3    H2 5542   4.417   4.076  16.364  0.3982 -0.5613  0.6816
  370TMC3    C7 5543   4.617   4.162  16.165  0.0660 -0.0504 -0.0713
  370TMC3    C8 5544   4.400   4.152  16.605 -0.4146  0.4633  0.4518
  370TMC3    O1 5545   4.625   4.235  16.066 -0.4006 -0.3405 -0.2883
  370TMC3    O2 5546   4.339   4.046  16.580 -0.3043 -0.1086  0.0389
  371TMC3    C1 5547   0.669   2.326  15.540 -0.0191  0.2835 -0.1660
  371TMC3    C2 5548   0.559   2.349  15.621 -0.3314 -0.3252  0.7349
  371TMC3    C3 5549   0.519   2.485  15.645  0.9623  0.5186 -0.0261
  371TMC3    C4 5550   0.737   2.429  15.482 -0.6752  0.3480  0.0246
  371TMC3    C5 5551   0.689   2.557  15.508 -0.4482 -0.3779  0.0377
  371TMC3    C6 5552   0.577   2.587  15.580 -0.6527  0.2390  0.6517
  371TMC3     C 5553   0.721   2.195  15.516 -0.5311  0.2560 -0.2292
  371TMC3     O 5554   0.794   2.179  15.418  0.6270  0.2758 -0.1194
  371TMC3     H 5555   0.502   2.269  15.667 -3.2615  2.0137  1.1526
  371TMC3    H1 5556   0.821   2.399  15.421 -2.2413  0.8030 -2.3567
  371TMC3    H2 5557   0.544   2.687  15.607  0.2254  0.5405  0.6116
  371TMC3    C7 5558   0.775   2.668  15.482  0.3872 -0.0751 -0.6946
  371TMC3    C8 5559   0.395   2.504  15.713 -0.5265  0.0416  0.0791
  371TMC3    O1 5560   0.729   2.775  15.516  0.1998 -0.0308 -0.5054
  371TMC3    O2 5561   0.314   2.412  15.732  0.0402 -0.6235  0.3165
  372MPD2     C 5562   0.274   4.133  13.566  0.1918 -0.1058  0.0857
  372MPD2    C1 5563   0.321   4.036  13.647 -0.4085  0.2574  0.0647
  372MPD2    C2 5564   0.237   3.946  13.708  0.0104  0.5330 -0.0999
  372MPD2    C3 5565   0.095   3.947  13.680  0.0287  0.2575 -0.3383
  372MPD2    C4 5566   0.045   4.040  13.596  0.5474 -0.0227  0.1352
  372MPD2    C5 5567   0.138   4.137  13.553  0.1197 -0.3836  0.4315
  372MPD2     H 5568   0.279   3.873  13.776  0.8972  0.0669 -1.1500
  372MPD2    H1 5569   4.661   4.052  13.579  0.3495  1.5348  2.4400
  372MPD2    H2 5570   0.328   4.225  13.548  2.3663 -1.0253  1.7847
  372MPD2    H3 5571   0.101   4.230  13.510 -0.6092  0.2488  2.4213
  372MPD2     N 5572   0.012   3.851  13.741  0.8544  0.0591  0.0924
  372MPD2    H5 5573   0.066   3.785  13.795  1.0926 -0.6973 -1.0844
  372MPD2    N1 5574   0.457   4.037  13.689 -0.2834 -0.0419  0.4901
  372MPD2    H7 5575   0.482   3.996  13.779  1.7917 -0.3357 -0.2181
  373TMC3    C1 5576   4.539   3.721  13.789  0.4519 -0.1147 -0.4766
  373TMC3    C2 5577   4.595   3.689  13.916 -0.3634  0.2907 -0.3664
  373TMC3    C3 5578   4.562   3.568  13.962 -0.2826  0.2310 -0.6372
  373TMC3    C4 5579   4.440   3.650  13.735 -0.6437 -0.0950 -0.3142
  373TMC3    C5 5580   4.406   3.529  13.786  0.0152 -0.3186  0.4125
  373TMC3    C6 5581   4.472   3.484  13.896 -0.2378 -0.0191 -0.6504
  373TMC3     C 5582   4.601   3.838  13.718  0.2718  0.4009 -0.1472
  373TMC3     O 5583   4.518   3.904  13.658  0.4971 -0.1327 -0.0258
  373TMC3     H 5584   4.665   3.745  13.977  0.1409  0.0270 -0.6994
  373TMC3    H1 5585   4.401   3.678  13.638 -1.3760  0.1147  0.0344
  373TMC3    H2 5586   4.456   3.384  13.934 -1.9377  0.4227 -0.1943
  373TMC3    C7 5587   4.431   3.427  13.687 -0.4883 -0.7951 -0.2821
  373TMC3    C8 5588   4.645   3.521  14.072 -0.2913  1.0862  0.0038
  373TMC3    O1 5589   4.511   3.457  13.605  0.0734 -0.0646  0.0543
  373TMC3    O2 5590   0.040   3.558  14.069  0.0173 -0.0492 -1.2599
  374TMC3    C1 5591   1.858   3.686   9.594 -0.7113 -0.3149  0.0789
  374TMC3    C2 5592   1.761   3.727   9.677 -0.8830 -0.4352 -0.6027
  374TMC3    C3 5593   1.785   3.840   9.747  0.2253 -0.4782  0.4612
  374TMC3    C4 5594   1.975   3.761   9.574 -0.4488  0.2953  0.8503
  374TMC3    C5 5595   1.991   3.874   9.650 -0.7274  0.0532  0.1941
  374TMC3    C6 5596   1.901   3.911   9.741  0.3830  1.2399 -0.0737
  374TMC3     C 5597   1.832   3.568   9.508 -0.1519 -0.3940  0.6082
  374TMC3     O 5598   1.904   3.560   9.408  0.8317  0.3567  0.5394
  374TMC3     H 5599   1.673   3.666   9.692  0.2874 -1.8669  0.5059
  374TMC3    H1 5600   2.058   3.720   9.519  0.2637  1.1939  1.2534
  374TMC3    H2 5601   1.912   4.001   9.800  0.9009  0.8238  0.4655
  374TMC3    C7 5602   2.080   3.978   9.604 -0.6130  0.2959  0.2533
  374TMC3    C8 5603   1.669   3.914   9.779  0.5046  0.2365  0.4472
  374TMC3    O1 5604   2.097   4.078   9.672  0.0368  0.0815  0.0795
  374TMC3    O2 5605   1.565   3.873   9.734 -0.1680 -0.7292  0.8318
  375MPD2     C 5606   1.064   0.162  16.960 -0.1446 -0.7793  0.2658
  375MPD2    C1 5607   0.959   0.149  16.872 -0.1814  0.6089 -0.0656
  375MPD2    C2 5608   0.991   0.076  16.757  0.1380  0.0380 -1.0017
  375MPD2    C3 5609   1.118   0.021  16.742 -0.4269 -0.4978 -0.3465
  375MPD2    C4 5610   1.217   0.027  16.838  0.7738 -0.3250 -0.1077
  375MPD2    C5 5611   1.187   0.101  16.949 -0.2051 -0.3765  0.4548
  375MPD2     H 5612   0.918   0.053  16.681  0.5597  1.7193 -1.9068
  375MPD2    H1 5613   1.313   4.699  16.830 -0.1613 -1.7818 -2.0431
  375MPD2    H2 5614   1.052   0.219  17.051 -2.2264 -0.6510 -0.0871
  375MPD2    H3 5615   1.262   0.127  17.023  1.1821  0.0707 -1.1034
  375MPD2     N 5616   1.161   4.686  16.621  0.5167  0.2049 -0.1681
  375MPD2    H5 5617   1.256   4.652  16.633  0.6616  0.7758  0.3497
  375MPD2    N1 5618   0.826   0.202  16.888 -0.4505 -0.8385  0.3800
  375MPD2    H7 5619   0.767   0.179  16.808 -0.4917 -0.2222  0.2291
  376TMC3    C1 5620   1.178   4.612  16.398 -0.0890  0.0828 -0.7591
  376TMC3    C2 5621   1.314   4.597  16.411  0.3770  0.1902 -0.0799
  376TMC3    C3 5622   1.373   4.535  16.307 -0.3688 -0.1617  0.4181
  376TMC3    C4 5623   1.105   4.552  16.302 -0.4317  0.2258  0.3597
  376TMC3    C5 5624   1.176   4.495  16.198 -0.3491 -0.5690 -0.0546
  376TMC3    C6 5625   1.310   4.483  16.200 -0.8730  0.2066  0.3714
  376TMC3     C 5626   1.089   4.666  16.502  0.3047  0.3031  0.4565
  376TMC3     O 5627   0.973   4.687  16.463  0.1550  0.0016 -0.2971
  376TMC3     H 5628   1.372   4.645  16.490 -1.3914  1.3497  0.5107
  376TMC3    H1 5629   0.997   4.554  16.294 -0.3842 -0.0079 -0.3938
  376TMC3    H2 5630   1.354   4.417  16.126 -0.4827  0.6070  0.2474
  376TMC3    C7 5631   1.111   4.500  16.066 -0.6062  0.4558 -0.9465
  376TMC3    C8 5632   1.512   4.515  16.317  0.8138  0.1638  0.8127
  376TMC3    O1 5633   1.019   4.577  16.053 -0.5072  0.4612 -0.5755
  376TMC3    O2 5634   1.562   4.480  16.213 -0.3008  0.5435 -0.0580
  377MPD2     C 5635   3.659   4.492  11.918  0.1358  0.0140  0.0316
  377MPD2    C1 5636   3.717   4.460  12.041 -0.0507 -0.1960  0.4591
  377MPD2    C2 5637   3.641   4.387  12.140 -0.7016 -0.1836  0.4359
  377MPD2    C3 5638   3.506   4.374  12.113  0.8926  0.0213 -0.7729
  377MPD2    C4 5639   3.450   4.414  11.998  0.0754  0.0141  0.1351
  377MPD2    C5 5640   3.525   4.473  11.905  0.4160  0.0394 -0.5082
  377MPD2     H 5641   3.690   4.346  12.227  0.0315 -1.2930 -0.4908
  377MPD2    H1 5642   3.344   4.405  11.979 -0.4585  0.8799  2.6810
  377MPD2    H2 5643   3.716   4.529  11.833 -0.0870  1.5518  0.5450
  377MPD2    H3 5644   3.471   4.499  11.815  1.1111 -1.2513 -1.2908
  377MPD2     N 5645   3.411   4.342  12.209  0.0338  0.2875  0.3647
  377MPD2    H5 5646   3.314   4.357  12.186  0.6622  1.7327 -1.3730
  377MPD2    N1 5647   3.856   4.484  12.047 -0.3477 -0.8590  0.6292
  377MPD2    H7 5648   3.909   4.522  11.969  0.1685 -1.8515  0.4979
  378TMC3    C1 5649   4.260   4.455  11.990 -0.4195 -0.1906 -0.4754
  378TMC3    C2 5650   4.125   4.437  12.006 -0.4313 -0.1352  0.0003
  378TMC3    C3 5651   4.075   4.457  12.133  0.7654 -0.6675 -0.3232
  378TMC3    C4 5652   4.341   4.467  12.100 -1.2756 -0.1475 -0.5799
  378TMC3    C5 5653   4.289   4.464  12.227 -0.5725 -0.5031 -0.7679
  378TMC3    C6 5654   4.151   4.460  12.246  0.4775 -0.2545 -0.3127
  378TMC3     C 5655   4.319   4.431  11.855 -0.0236  0.5050  0.2079
  378TMC3     O 5656   4.243   4.422  11.761  1.1857 -0.1387 -0.1448
  378TMC3     H 5657   4.065   4.437  11.915 -0.6862 -0.0214  0.1700
  378TMC3    H1 5658   4.436   4.517  12.087 -1.7237  1.0279  0.6665
  378TMC3    H2 5659   4.123   4.492  12.345  0.5303 -1.6393  0.1454
  378TMC3    C7 5660   4.372   4.434  12.344  0.1764  0.5456 -0.5200
  378TMC3    C8 5661   3.933   4.457  12.163  0.3298  0.4680 -0.0363
  378TMC3    O1 5662   4.338   4.456  12.460  0.8863  0.4058 -0.5932
  378TMC3    O2 5663   3.896   4.424  12.277 -0.0667  0.4485 -0.5187
  379MPD2     C 5664   0.217   2.292  16.380  0.5224  0.1961  0.6417
  379MPD2    C1 5665   0.089   2.238  16.403 -0.8148  0.0873 -0.5644
  379MPD2    C2 5666   0.071   2.170  16.525  0.7558 -0.1179 -0.1218
  379MPD2    C3 5667   0.175   2.150  16.613  1.1061  0.2653  0.2019
  379MPD2    C4 5668   0.301   2.204  16.581 -0.5489 -0.0124 -0.4456
  379MPD2    C5 5669   0.324   2.274  16.465 -0.0241 -0.6289 -0.0662
  379MPD2     H 5670   4.694   2.133  16.548  1.0178 -0.4819  0.4117
  379MPD2    H1 5671   0.384   2.182  16.648 -1.3476  1.5722  1.0782
  379MPD2    H2 5672   0.230   2.362  16.299  3.1111  0.0151  0.9213
  379MPD2    H3 5673   0.410   2.339  16.453 -0.3070 -0.3697 -0.6913
  379MPD2     N 5674   0.165   2.075  16.736  0.4550  0.1239 -0.9765
  379MPD2    H5 5675   0.252   2.059  16.786  1.1405  2.3867 -1.4572
  379MPD2    N1 5676   4.711   2.242  16.300  0.5361  0.1772 -0.4566
  379MPD2    H7 5677   0.019   2.263  16.205  1.9525 -0.3018 -0.1101
  380TMC3    C1 5678   4.510   2.205  16.195  0.2266 -0.3027  0.0423
  380TMC3    C2 5679   4.566   2.120  16.112 -0.2511  0.6267  0.4587
  380TMC3    C3 5680   4.509   2.112  15.988 -0.4649  0.0861  0.7655
  380TMC3    C4 5681   4.391   2.273  16.166  0.0990  1.2762 -0.4089
  380TMC3    C5 5682   4.329   2.245  16.047 -1.3148 -0.3166 -0.2344
  380TMC3    C6 5683   4.390   2.164  15.953 -0.0389 -0.2166  0.0506
  380TMC3     C 5684   4.571   2.226  16.322 -0.1282  0.5181 -0.4763
  380TMC3     O 5685   4.501   2.244  16.421 -0.2272 -0.6155 -0.1389
  380TMC3     H 5686   4.647   2.057  16.149  0.4458  0.2379 -1.7205
  380TMC3    H1 5687   4.346   2.338  16.239 -0.1122 -0.4542  0.9808
  380TMC3    H2 5688   4.346   2.112  15.869  0.7401  0.9017 -1.0516
  380TMC3    C7 5689   4.202   2.310  16.011 -0.4985 -0.4094 -0.8496
  380TMC3    C8 5690   4.591   2.075  15.872  0.7927 -0.3310  0.1675
  380TMC3    O1 5691   4.181   2.417  16.061  0.5909  0.1649  0.5112
  380TMC3    O2 5692   4.546   2.083  15.761 -0.4112 -0.8811 -0.8894
  381TMC3    C1 5693   4.444   3.156  16.300  1.1601 -0.4513  0.3858
  381TMC3    C2 5694   4.477   3.291  16.275 -0.3711 -0.5900 -0.3445
  381TMC3    C3 5695   4.461   3.390  16.368  0.4188  0.8962 -0.1239
  381TMC3    C4 5696   4.388   3.126  16.418 -0.5496 -0.0312 -1.0538
  381TMC3    C5 5697   4.360   3.234  16.505  1.2752 -0.0959 -1.3225
  381TMC3    C6 5698   4.400   3.363  16.483 -0.0318 -0.0761 -0.4013
  381TMC3     C 5699   4.527   3.061  16.231 -0.0366 -0.2852 -0.3238
  381TMC3     O 5700   4.619   3.107  16.161  0.5968 -0.4235  0.0105
  381TMC3     H 5701   4.544   3.319  16.194  1.8083 -1.9947  0.9778
  381TMC3    H1 5702   4.379   3.026  16.460 -0.4044  0.4061  0.0282
  381TMC3    H2 5703   4.394   3.428  16.570  2.2989  0.7324 -0.8621
  381TMC3    C7 5704   4.297   3.195  16.627 -0.6286 -0.1620 -0.6446
  381TMC3    C8 5705   4.555   3.502  16.364  0.4784 -0.7690 -0.6446
  381TMC3    O1 5706   4.302   3.074  16.660 -0.1600 -0.1532  0.4257
  381TMC3    O2 5707   4.633   3.512  16.264 -0.4956  0.0794 -0.5591
  382MPD2     C 5708   3.278   1.642  16.850 -0.0922 -0.1430 -0.1349
  382MPD2    C1 5709   3.299   1.663  16.985  0.0695  0.7536 -0.4634
  382MPD2    C2 5710   3.298   1.547  17.066 -0.2971  0.6005  0.4405
  382MPD2    C3 5711   3.307   1.419  17.012 -0.2102 -0.5542 -0.3389
  382MPD2    C4 5712   3.313   1.402  16.876 -0.1344  0.2493  0.6066
  382MPD2    C5 5713   3.297   1.515  16.800  0.2416  0.8050  0.1652
  382MPD2     H 5714   3.300   1.565  17.173 -0.3983 -0.0429  0.5463
  382MPD2    H1 5715   3.331   1.301  16.839  0.7159  1.7724 -3.1536
  382MPD2    H2 5716   3.264   1.718  16.773 -0.4111  1.3787  1.4235
  382MPD2    H3 5717   3.300   1.505  16.692  1.5016 -5.4049  0.7463
  382MPD2     N 5718   3.314   1.301  17.089  0.4086 -0.0246  0.4044
  382MPD2    H5 5719   3.316   1.215  17.035 -0.2150  0.9941 -1.2410
  382MPD2    N1 5720   3.298   1.790  17.050  0.2748  0.2381 -0.0810
  382MPD2    H7 5721   3.312   1.793  17.150 -1.9728  0.5342  0.2127
  383TMC3    C1 5722   3.315   1.168  17.291  0.2723  0.1425  0.6273
  383TMC3    C2 5723   3.250   1.074  17.221  0.3414 -0.1831 -0.3057
  383TMC3    C3 5724   3.190   0.976  17.296  0.1088  0.4180  0.6424
  383TMC3    C4 5725   3.311   1.166  17.431  0.6109 -0.1382 -0.7656
  383TMC3    C5 5726   3.240   1.070  17.499  0.1240 -0.0469  0.5677
  383TMC3    C6 5727   3.178   0.968  17.435 -0.0998 -0.2086 -0.4460
  383TMC3     C 5728   3.338   1.297  17.228  0.8547 -0.0484 -0.1047
  383TMC3     O 5729   3.341   1.394  17.299  0.4962  0.1918 -0.1400
  383TMC3     H 5730   3.269   1.064  17.115 -0.0317 -0.5712 -0.3383
  383TMC3    H1 5731   3.363   1.242  17.489 -1.2623  0.0170  0.7142
  383TMC3    H2 5732   3.111   0.896  17.481  1.3545 -0.4893  1.2128
  383TMC3    C7 5733   3.212   1.093  17.638  0.2473  0.0721 -0.0882
  383TMC3    C8 5734   3.165   0.849  17.230 -0.0454  0.4342  0.5215
  383TMC3    O1 5735   3.210   1.208  17.677  0.4238  0.7519 -0.1621
  383TMC3    O2 5736   3.163   0.849  17.110  0.0220  0.7125  0.1496
  384MPD2     C 5737   0.548   2.756  11.523 -0.7196 -0.3902 -0.0835
  384MPD2    C1 5738   0.543   2.723  11.661 -0.3838  0.1153  0.6285
  384MPD2    C2 5739   0.637   2.639  11.716  0.3140  0.2826  0.4401
  384MPD2    C3 5740   0.734   2.579  11.640 -0.2450 -0.1063  0.2367
  384MPD2    C4 5741   0.747   2.628  11.507 -0.1092  0.4362 -0.6700
  384MPD2    C5 5742   0.661   2.721  11.455  0.1302  0.1639 -0.0614
  384MPD2     H 5743   0.626   2.609  11.820 -2.8639  0.5428  0.1914
  384MPD2    H1 5744   0.815   2.581  11.437  0.2971  0.3111 -0.1819
  384MPD2    H2 5745   0.475   2.808  11.462 -0.1180  0.3369 -0.1811
  384MPD2    H3 5746   0.661   2.746  11.350  2.5208  2.0918  0.4205
  384MPD2     N 5747   0.817   2.481  11.693  0.1996  0.0477 -0.0410
  384MPD2    H5 5748   0.885   2.440  11.630  0.7252  0.5051  0.2272
  384MPD2    N1 5749   0.446   2.778  11.749 -0.8356 -0.2854  0.3992
  384MPD2    H7 5750   0.462   2.755  11.847 -0.5646  2.7312  1.0935
  385TMC3    C1 5751   0.906   2.321  11.845 -0.9428 -0.4260 -0.1773
  385TMC3    C2 5752   0.881   2.219  11.760 -0.3070  0.3678 -0.8190
  385TMC3    C3 5753   0.852   2.094  11.803  0.0980  0.3389 -0.3359
  385TMC3    C4 5754   0.905   2.282  11.979 -0.4630 -0.4276  0.1380
  385TMC3    C5 5755   0.864   2.158  12.020  0.2612 -1.5582  0.8430
  385TMC3    C6 5756   0.835   2.062  11.934  0.0120 -0.3705  0.0277
  385TMC3     C 5757   0.821   2.435  11.823 -0.1789  0.4337  0.1445
  385TMC3     O 5758   0.765   2.479  11.922 -0.2737  0.2089 -0.6516
  385TMC3     H 5759   0.889   2.232  11.653  0.4227 -0.4622 -0.8682
  385TMC3    H1 5760   0.934   2.356  12.053  0.1633  2.0752 -2.6023
  385TMC3    H2 5761   0.803   1.965  11.971 -1.5770  0.4429  0.8043
  385TMC3    C7 5762   0.764   2.157  12.121 -0.4249 -1.2745 -0.4326
  385TMC3    C8 5763   0.888   1.975  11.720 -0.6584 -0.4771  0.2790
  385TMC3    O1 5764   0.772   2.068  12.208  0.0502 -0.2412 -0.3035
  385TMC3    O2 5765   0.965   1.994  11.628  0.0690  0.1009  0.2738
  386TMC3    C1 5766   0.710   4.083  11.245 -1.0484  0.1748 -0.5307
  386TMC3    C2 5767   0.612   4.133  11.164  0.2520  0.4093 -0.1308
  386TMC3    C3 5768   0.519   4.215  11.226  0.0747 -0.2498 -0.0811
  386TMC3    C4 5769   0.709   4.098  11.380 -0.3184  0.2652 -0.3192
  386TMC3    C5 5770   0.610   4.176  11.438  0.3145 -0.4317  0.1030
  386TMC3    C6 5771   0.513   4.240  11.365 -0.0888  0.3451  0.3680
  386TMC3     C 5772   0.807   3.996  11.179  0.2882  0.8944 -0.0222
  386TMC3     O 5773   0.825   4.010  11.060 -0.6252  0.4450 -0.2928
  386TMC3     H 5774   0.620   4.124  11.056  2.7122 -0.9665  0.1642
  386TMC3    H1 5775   0.793   4.069  11.443 -0.5201 -1.4982 -0.8776
  386TMC3    H2 5776   0.430   4.298  11.405 -0.6069 -0.1448 -0.0109
  386TMC3    C7 5777   0.635   4.240  11.563 -0.7771  0.3277  0.0590
  386TMC3    C8 5778   0.401   4.257  11.151 -0.5299  0.6356 -0.5767
  386TMC3    O1 5779   0.588   4.353  11.572  0.5640  0.3790  0.6893
  386TMC3    O2 5780   0.353   4.359  11.195  0.0022  0.6101  0.6782
  387MPD2     C 5781   3.449   4.348   9.892 -0.1948  0.0303  0.0793
  387MPD2    C1 5782   3.522   4.320  10.009 -0.7748 -0.4725 -0.5842
  387MPD2    C2 5783   3.600   4.205  10.014  0.1706 -0.1879 -0.2259
  387MPD2    C3 5784   3.603   4.109   9.911  0.1607 -0.4772 -0.6245
  387MPD2    C4 5785   3.525   4.142   9.797  0.7376 -0.5018 -0.4514
  387MPD2    C5 5786   3.457   4.265   9.786  0.2005  0.3032 -0.2096
  387MPD2     H 5787   3.663   4.178  10.098  0.2803  3.0523  0.7136
  387MPD2    H1 5788   3.528   4.084   9.705 -0.3335 -0.9958 -0.1760
  387MPD2    H2 5789   3.376   4.428   9.881 -0.3546  0.0942  1.6210
  387MPD2    H3 5790   3.417   4.298   9.691  0.0505  0.1680 -0.1935
  387MPD2     N 5791   3.678   3.992   9.930 -0.5720 -0.1531  0.5536
  387MPD2    H5 5792   3.738   3.993  10.012 -1.8025  0.3055  1.4433
  387MPD2    N1 5793   3.510   4.394  10.128  0.3031  0.2798  0.1386
  387MPD2    H7 5794   3.549   4.362  10.216  3.3533  1.7986 -0.6675
  388TMC3    C1 5795   3.400   4.509  10.285 -0.5160 -0.2319 -0.1235
  388TMC3    C2 5796   3.366   4.629  10.337 -0.7523  0.5630  0.3938
  388TMC3    C3 5797   3.369   4.645  10.469 -0.9414  0.1974  0.6240
  388TMC3    C4 5798   3.422   4.394  10.361 -0.3241  0.2979 -0.7289
  388TMC3    C5 5799   3.413   4.416  10.501 -0.2070 -0.0216 -0.4626
  388TMC3    C6 5800   3.389   4.542  10.553  0.3372  0.1310  0.1367
  388TMC3     C 5801   3.420   4.495  10.144 -0.4191 -0.1542  0.3995
  388TMC3     O 5802   3.363   4.564  10.065  0.3420  0.4445  0.0422
  388TMC3     H 5803   3.330   4.707  10.271  0.3978  2.2050  1.7274
  388TMC3    H1 5804   3.418   4.294  10.320  1.3076  0.0119 -0.1973
  388TMC3    H2 5805   3.388   4.552  10.661  0.8177 -1.8496  0.3400
  388TMC3    C7 5806   3.437   4.306  10.586 -0.1924 -1.0366  0.0079
  388TMC3    C8 5807   3.317   0.039  10.529  0.2563  0.0416  0.2239
  388TMC3    O1 5808   3.368   4.293  10.687  0.2040 -0.2835  0.2924
  388TMC3    O2 5809   3.263   0.033  10.635  0.4446  0.3281 -0.2872
  389MPD2     C 5810   2.624   2.879  10.618  0.3723 -0.6388 -0.0880
  389MPD2    C1 5811   2.534   2.799  10.555 -0.1260  0.2281 -0.0770
  389MPD2    C2 5812   2.432   2.741  10.623  0.2221 -0.3673 -0.6318
  389MPD2    C3 5813   2.426   2.765  10.759 -0.3155  0.2219 -0.9323
  389MPD2    C4 5814   2.507   2.855  10.816  0.4314 -0.2563  0.2361
  389MPD2    C5 5815   2.610   2.911  10.750 -0.2412  0.3122  0.3014
  389MPD2     H 5816   2.375   2.662  10.577  2.3727 -2.1268 -0.2911
  389MPD2    H1 5817   2.473   2.898  10.910 -3.5270 -0.6987 -1.0100
  389MPD2    H2 5818   2.708   2.913  10.558 -0.6288 -2.3507 -2.4372
  389MPD2    H3 5819   2.682   2.980  10.792  0.1668  0.0467  0.0448
  389MPD2     N 5820   2.322   2.725  10.842 -0.4457  0.2963 -0.4138
  389MPD2    H5 5821   2.317   2.767  10.934 -0.6698 -0.4217 -0.0917
  389MPD2    N1 5822   2.561   2.760  10.422  0.3888 -0.3506  0.1049
  389MPD2    H7 5823   2.647   2.802  10.387  0.5597 -0.2647  0.6165
  390TMC3    C1 5824   2.133   2.629  10.922  0.3600 -0.3042 -0.2865
  390TMC3    C2 5825   1.998   2.597  10.916 -0.1697  0.4182  0.4534
  390TMC3    C3 5826   1.918   2.619  11.025 -0.2887 -0.0785 -0.7714
  390TMC3    C4 5827   2.184   2.679  11.037 -0.5092  0.6960 -0.1833
  390TMC3    C5 5828   2.096   2.711  11.138  0.1413  0.0767 -0.1741
  390TMC3    C6 5829   1.964   2.672  11.142  0.0698 -0.2629 -0.2177
  390TMC3     C 5830   2.215   2.649  10.807  0.2728 -0.7951  0.2529
  390TMC3     O 5831   2.181   2.596  10.704  0.4772 -0.1656 -0.2414
  390TMC3     H 5832   1.961   2.558  10.823  1.9544 -1.5507  0.4246
  390TMC3    H1 5833   2.290   2.676  11.062 -0.9443  1.9648  1.8405
  390TMC3    H2 5834   1.904   2.673  11.233  0.2306  1.3674 -0.1449
  390TMC3    C7 5835   2.153   2.780  11.250  0.6840 -0.0102  0.3152
  390TMC3    C8 5836   1.784   2.568  11.014  0.3758 -0.3393  0.0007
  390TMC3    O1 5837   2.244   2.847  11.210  0.3473 -0.0075 -0.3125
  390TMC3    O2 5838   1.762   2.470  10.941 -0.1819  0.0905  0.0434
  391MPD2     C 5839   1.260   4.059  11.040  0.7863 -0.0447  0.1648
  391MPD2    C1 5840   1.384   4.110  11.078  0.0195 -0.4264 -0.1279
  391MPD2    C2 5841   1.453   4.181  10.984  0.1397 -0.2207 -0.2484
  391MPD2    C3 5842   1.418   4.190  10.855 -0.2361  0.9844  0.6881
  391MPD2    C4 5843   1.294   4.132  10.817 -0.2480  0.3124  0.4326
  391MPD2    C5 5844   1.217   4.074  10.912  0.4037 -0.7623 -0.4829
  391MPD2     H 5845   1.541   4.238  11.012  0.7176 -1.3336  0.2064
  391MPD2    H1 5846   1.254   4.144  10.717  2.2253 -0.6097 -0.6659
  391MPD2    H2 5847   1.190   4.021  11.113 -3.0220 -0.5174 -3.7084
  391MPD2    H3 5848   1.115   4.044  10.889  0.0728  1.6362 -2.1519
  391MPD2     N 5849   1.502   4.269  10.775 -0.3506 -0.2347 -0.0008
  391MPD2    H5 5850   1.573   4.314  10.832 -0.6217 -0.7365  0.7259
  391MPD2    N1 5851   1.438   4.105  11.211 -0.1708  0.4996  0.5821
  391MPD2    H7 5852   1.375   4.082  11.287 -1.1815  1.6484  0.0894
  392TMC3    C1 5853   1.586   4.367  10.574 -0.0006 -0.1793 -0.0005
  392TMC3    C2 5854   1.570   4.407  10.447 -0.6924 -0.1822 -0.4988
  392TMC3    C3 5855   1.674   4.441  10.370  0.3845  0.9841 -0.0277
  392TMC3    C4 5856   1.703   4.406  10.638  0.0390  0.3825  0.7453
  392TMC3    C5 5857   1.806   4.447  10.569 -0.0451 -0.2308 -0.5829
  392TMC3    C6 5858   1.796   4.455  10.430 -0.2380  0.1766 -0.7602
  392TMC3     C 5859   1.478   4.296  10.640 -0.4892  0.5712 -0.0427
  392TMC3     O 5860   1.389   4.259  10.566  0.6013 -0.2370 -0.0212
  392TMC3     H 5861   1.472   4.392  10.403 -1.7114 -0.0550  1.7314
  392TMC3    H1 5862   1.718   4.391  10.745  0.9581 -1.7344  0.3168
  392TMC3    H2 5863   1.886   4.468  10.371  0.5706  1.7956  0.8336
  392TMC3    C7 5864   1.914   4.516  10.634 -0.1549 -0.5414  1.1256
  392TMC3    C8 5865   1.682   4.371  10.243  0.1581  0.0912  0.7654
  392TMC3    O1 5866   1.926   4.503  10.756 -0.2908 -0.4519  0.1571
  392TMC3    O2 5867   1.789   4.319  10.212  0.8769 -0.3254  0.5367
  393TMC3    C1 5868   0.797   2.177  10.460 -0.5578  0.4798 -0.8055
  393TMC3    C2 5869   0.721   2.223  10.556 -0.0835 -0.0010 -0.4382
  393TMC3    C3 5870   0.685   2.129  10.648 -0.2478 -0.3607  0.0262
  393TMC3    C4 5871   0.857   2.055  10.464  0.6824 -0.2267  0.5555
  393TMC3    C5 5872   0.820   1.964  10.557  0.4461 -0.0729 -0.5062
  393TMC3    C6 5873   0.733   2.004  10.646  0.0458  0.1761 -0.6475
  393TMC3     C 5874   0.828   2.256  10.345  0.2821 -0.2473  0.4143
  393TMC3     O 5875   0.880   2.201  10.251  0.1804  0.1083 -0.1489
  393TMC3     H 5876   0.682   2.324  10.561 -0.5439 -0.2518  1.1206
  393TMC3    H1 5877   0.917   2.024  10.379  0.2885 -1.1447  0.6142
  393TMC3    H2 5878   0.701   1.932  10.720 -2.3167  0.8902 -0.9776
  393TMC3    C7 5879   0.842   1.827  10.531 -0.2582  1.0997  0.6900
  393TMC3    C8 5880   0.575   2.158  10.736  0.2032  0.1909 -0.6401
  393TMC3    O1 5881   0.753   1.753  10.580 -0.0773 -0.0793 -0.4398
  393TMC3    O2 5882   0.579   2.097  10.844  0.1152  0.3596 -0.6003
  394TMC3    C1 5883   2.537   2.660  10.200  0.0034  0.6310 -0.4451
  394TMC3    C2 5884   2.461   2.661  10.089 -0.0920  0.4834 -0.3126
  394TMC3    C3 5885   2.528   2.672   9.968 -0.2275 -0.2877  0.3413
  394TMC3    C4 5886   2.673   2.669  10.197 -0.5188  0.2617  0.7700
  394TMC3    C5 5887   2.736   2.664  10.076 -0.5066 -0.3269  0.3699
  394TMC3    C6 5888   2.661   2.676   9.955 -0.0312  0.0708  0.3376
  394TMC3     C 5889   2.476   2.688  10.330 -0.3104 -0.1630 -0.1498
  394TMC3     O 5890   2.353   2.662  10.352  0.5821 -0.3297  0.9450
  394TMC3     H 5891   2.353   2.675  10.090 -0.2804 -0.9645 -0.5473
  394TMC3    H1 5892   2.726   2.655  10.291  0.3738 -1.1375  0.0536
  394TMC3    H2 5893   2.708   2.690   9.858 -0.5266  0.8472  0.2099
  394TMC3    C7 5894   2.877   2.704  10.056  0.5626 -0.4190  0.2748
  394TMC3    C8 5895   2.467   2.622   9.851  0.1080  0.1833 -0.0111
  394TMC3    O1 5896   2.912   2.761   9.949 -0.1889 -0.7279  0.3217
  394TMC3    O2 5897   2.487   2.666   9.743 -0.1139  0.2989 -0.1554
  395TMC3    C1 5898   2.606   4.349  14.914  0.7540  0.2122  0.3678
  395TMC3    C2 5899   2.504   4.276  14.872  0.7156 -0.0620  0.2367
  395TMC3    C3 5900   2.477   4.280  14.739  0.1709 -0.3246  0.0875
  395TMC3    C4 5901   2.692   4.423  14.834  0.0006  0.0598 -0.7445
  395TMC3    C5 5902   2.664   4.422  14.705 -0.0014 -0.5734  0.3781
  395TMC3    C6 5903   2.557   4.352  14.656 -0.0371  0.2394 -0.9192
  395TMC3     C 5904   2.647   4.318  15.049  0.4568  0.2502  0.1071
  395TMC3     O 5905   2.765   4.288  15.069  0.2908 -0.1904  0.1553
  395TMC3     H 5906   2.471   4.188  14.925  1.8128 -1.3359 -1.1924
  395TMC3    H1 5907   2.762   4.491  14.880  1.0623 -1.0414 -0.7205
  395TMC3    H2 5908   2.544   4.335  14.550  1.2799  0.2105 -1.0738
  395TMC3    C7 5909   2.712   4.534  14.625 -0.1158 -0.1551  0.2960
  395TMC3    C8 5910   2.378   4.187  14.687  0.1377  0.5758 -0.3311
  395TMC3    O1 5911   2.812   4.600  14.665  0.1615 -1.0413  0.0921
  395TMC3    O2 5912   2.395   4.130  14.580 -0.1023 -0.2009  0.2517
  396MPD2     C 5913   1.945   0.685  16.738 -0.0635  0.5567  0.0780
  396MPD2    C1 5914   2.009   0.778  16.813 -0.4441 -0.3878 -0.1544
  396MPD2    C2 5915   2.046   0.900  16.748 -0.0478  0.9203 -0.3156
  396MPD2    C3 5916   2.006   0.927  16.616 -0.6447 -0.3025 -0.0559
  396MPD2    C4 5917   1.939   0.828  16.549 -0.0536 -0.0912 -0.4847
  396MPD2    C5 5918   1.904   0.717  16.615  0.6074  0.3837 -1.1199
  396MPD2     H 5919   2.094   0.973  16.812  0.1419  0.9194 -0.4588
  396MPD2    H1 5920   1.899   0.831  16.449 -0.2892  0.6934 -0.3639
  396MPD2    H2 5921   1.909   0.591  16.775  0.7873 -0.7728 -2.4526
  396MPD2    H3 5922   1.836   0.652  16.560 -0.2008  0.8052 -0.5981
  396MPD2     N 5923   2.034   1.048  16.558  0.0314  0.0685  0.0561
  396MPD2    H5 5924   2.067   1.121  16.620  0.7965 -0.4728  0.2866
  396MPD2    N1 5925   2.054   0.745  16.942  0.0834 -0.6039  0.2368
  396MPD2    H7 5926   2.034   0.652  16.975  0.0146  0.3507  2.8621
  397TMC3    C1 5927   2.202   0.731  17.119  0.7414 -0.1365  0.5928
  397TMC3    C2 5928   2.286   0.640  17.067 -0.2640 -0.0216 -0.2804
  397TMC3    C3 5929   2.253   0.500  17.066 -0.0072  0.6040  0.6974
  397TMC3    C4 5930   2.107   0.684  17.207 -0.7300 -0.1425 -1.1286
  397TMC3    C5 5931   2.080   0.545  17.209  0.0067  0.3994  0.1199
  397TMC3    C6 5932   2.152   0.454  17.139 -0.4287 -0.0980  0.0020
  397TMC3     C 5933   2.140   0.820  17.022 -0.5175  0.4508 -0.0739
  397TMC3     O 5934   2.172   0.936  17.022  0.1321 -0.6376 -0.0152
  397TMC3     H 5935   2.346   0.678  16.985 -0.9921 -1.1322 -1.3115
  397TMC3    H1 5936   2.054   0.761  17.263 -0.5432 -1.3292  0.6583
  397TMC3    H2 5937   2.132   0.347  17.145  0.1439 -0.1986  0.0884
  397TMC3    C7 5938   1.974   0.500  17.299 -0.6014 -1.0018  0.1201
  397TMC3    C8 5939   2.239   0.454  16.937 -0.4306 -0.5712 -0.4127
  397TMC3    O1 5940   1.910   0.402  17.258  0.4590 -0.0632 -0.5882
  397TMC3    O2 5941   2.130   0.443  16.891 -0.7367 -0.7608  0.1034
  398MPD2     C 5942   0.339   1.297  17.591 -0.3492 -0.0112  0.3261
  398MPD2    C1 5943   0.475   1.297  17.571  0.6295  0.5158 -0.0986
  398MPD2    C2 5944   0.529   1.412  17.522  0.4605 -0.1524 -0.5148
  398MPD2    C3 5945   0.455   1.520  17.474  0.0137  0.3517  0.0509
  398MPD2    C4 5946   0.318   1.507  17.485  0.3457  0.0233 -0.6573
  398MPD2    C5 5947   0.262   1.399  17.541 -0.3747 -0.8557  0.5440
  398MPD2     H 5948   0.636   1.411  17.503  0.7313 -0.8077  1.0462
  398MPD2    H1 5949   0.246   1.578  17.445 -0.0970  0.0197  0.1421
  398MPD2    H2 5950   0.291   1.209  17.632  0.3484 -1.6437 -2.3300
  398MPD2    H3 5951   0.154   1.389  17.536 -0.5787  1.3833  0.4900
  398MPD2     N 5952   0.516   1.645  17.415 -0.2563  0.5573 -0.4244
  398MPD2    H5 5953   0.613   1.635  17.386 -0.1045  1.5375 -0.2626
  398MPD2    N1 5954   0.561   1.197  17.621  0.1721 -0.4747 -0.3618
  398MPD2    H7 5955   0.661   1.209  17.606  0.4964 -2.5899 -0.0286
  399TMC3    C1 5956   0.643   1.010   0.055 -0.4569 -0.4223 -0.0464
  399TMC3    C2 5957   0.760   1.014  17.682 -0.0135 -0.0691  0.5894
  399TMC3    C3 5958   0.874   0.960   0.050  0.9792  0.0241 -0.0079
  399TMC3    C4 5959   0.638   0.965   0.183  0.7188  0.3237 -0.4945
  399TMC3    C5 5960   0.749   0.916   0.247 -0.8568 -0.4486 -0.9359
  399TMC3    C6 5961   0.870   0.915   0.180  0.6334 -0.2221  0.3873
  399TMC3     C 5962   0.533   1.092   0.015  0.3505 -0.6642 -0.0824
  399TMC3     O 5963   0.430   1.073   0.074  0.3309 -0.2955 -0.0066
  399TMC3     H 5964   0.768   1.048  17.580 -0.1830  2.7168  1.5074
  399TMC3    H1 5965   0.543   0.967   0.235  1.0808  0.7325  0.1590
  399TMC3    H2 5966   0.955   0.874   0.234 -0.4351 -0.8729  1.5508
  399TMC3    C7 5967   0.744   0.900   0.396 -0.2965  0.1677 -0.7890
  399TMC3    C8 5968   0.969   0.911  17.647  0.1797  0.4288  0.1527
  399TMC3    O1 5969   0.634   0.907   0.448 -0.3993 -0.0052  0.3746
  399TMC3    O2 5970   0.940   0.913  17.531  0.4547 -0.4648  0.3791
  400TMC3    C1 5971   3.465   0.652  17.128  0.3034  0.3534  0.1364
  400TMC3    C2 5972   3.464   0.517  17.106  0.3907 -0.3215 -0.2294
  400TMC3    C3 5973   3.439   0.469  16.978  0.3292 -0.0688 -0.2634
  400TMC3    C4 5974   3.425   0.730  17.027 -0.8157  0.4324  0.7066
  400TMC3    C5 5975   3.403   0.680  16.898 -0.2560 -0.0698 -0.9598
  400TMC3    C6 5976   3.408   0.544  16.870  0.5431  0.3147  0.0385
  400TMC3     C 5977   3.491   0.702  17.262 -0.5452  0.1998  0.0069
  400TMC3     O 5978   3.483   0.622  17.354  0.4671  0.4273 -0.0863
  400TMC3     H 5979   3.476   0.450  17.191  0.0104  1.3399  1.1451
  400TMC3    H1 5980   3.421   0.837  17.047 -2.5728  0.4505  0.2183
  400TMC3    H2 5981   3.396   0.514  16.766 -1.2551 -0.7760  0.5610
  400TMC3    C7 5982   3.340   0.760  16.800  0.0674 -0.0540  0.7489
  400TMC3    C8 5983   3.428   0.324  16.970 -0.6835  0.0700  0.2915
  400TMC3    O1 5984   3.319   0.703  16.689  0.4281  0.4143  0.1261
  400TMC3    O2 5985   3.472   0.267  17.071  0.4478 -0.8274 -0.0857
  401MPD2     C 5986   1.258   3.804   1.182  0.4301  0.1054  0.4455
  401MPD2    C1 5987   1.349   3.777   1.081 -0.3326  0.3157 -0.0616
  401MPD2    C2 5988   1.442   3.678   1.088 -0.6018 -0.4440 -0.1707
  401MPD2    C3 5989   1.448   3.594   1.198 -0.8700  0.3220 -0.3098
  401MPD2    C4 5990   1.359   3.617   1.299  0.4091 -0.5153 -0.8082
  401MPD2    C5 5991   1.265   3.715   1.288  0.4913  0.0354  0.2356
  401MPD2     H 5992   1.510   3.677   1.003  0.7676  1.5308  0.9087
  401MPD2    H1 5993   1.354   3.561   1.391 -0.2108  0.3025 -0.3507
  401MPD2    H2 5994   1.180   3.879   1.170 -1.2346 -1.5018  1.1972
  401MPD2    H3 5995   1.190   3.716   1.367  0.0669  0.1208 -0.1712
  401MPD2     N 5996   1.537   3.487   1.203  0.0741  0.1098  0.3904
  401MPD2    H5 5997   1.588   3.488   1.115  0.0831  0.4368  0.4027
  401MPD2    N1 5998   1.344   3.839   0.959  0.3369 -0.2534  0.5419
  401MPD2    H7 5999   1.404   3.803   0.885  0.6924 -0.9666  1.1748
  402TMC3    C1 6000   1.627   3.276   1.256  0.2199  0.8688 -0.0390
  402TMC3    C2 6001   1.657   3.182   1.356 -0.2784 -0.3327 -0.4473
  402TMC3    C3 6002   1.721   3.070   1.319 -0.4013 -0.4592  0.8162
  402TMC3    C4 6003   1.635   3.246   1.124 -0.2705 -0.4377 -0.0654
  402TMC3    C5 6004   1.689   3.119   1.093  0.0492 -0.5843  0.1271
  402TMC3    C6 6005   1.736   3.034   1.190 -0.6457  0.8920 -0.5900
  402TMC3     C 6006   1.564   3.396   1.301  0.0418  0.1519  0.5195
  402TMC3     O 6007   1.543   3.404   1.422  0.1447  0.1197  0.2855
  402TMC3     H 6008   1.642   3.210   1.459  0.1668  0.3845 -0.5747
  402TMC3    H1 6009   1.583   3.300   1.045  1.0816  1.0206  0.0373
  402TMC3    H2 6010   1.767   2.934   1.162 -0.8920  0.2338  1.5089
  402TMC3    C7 6011   1.735   3.087   0.957 -0.5541  0.3795 -0.0760
  402TMC3    C8 6012   1.749   2.972   1.422  0.0789  0.0049 -0.5461
  402TMC3    O1 6013   1.790   2.984   0.928  0.2365 -0.8285  0.0273
  402TMC3    O2 6014   1.822   2.879   1.399 -0.8444 -0.7810 -0.2488
  403MPD2     C 6015   4.465   2.682  13.668 -0.5412  0.2850  0.5960
  403MPD2    C1 6016   4.512   2.552  13.679 -0.4494 -0.5894  1.1202
  403MPD2    C2 6017   4.611   2.523  13.764 -0.1565  0.5924  0.2193
  403MPD2    C3 6018   4.661   2.610  13.858  0.6442  0.0635 -0.0066
  403MPD2    C4 6019   4.610   2.743  13.855  0.0864  0.2487  0.3140
  403MPD2    C5 6020   4.515   2.776  13.754 -0.0335  0.2136 -1.5059
  403MPD2     H 6021   4.649   2.421  13.766  0.4722  0.8604  2.3456
  403MPD2    H1 6022   4.646   2.820  13.923 -1.3571  1.9361 -0.8329
  403MPD2    H2 6023   4.392   2.715  13.595  0.1360  1.9226  0.6443
  403MPD2    H3 6024   4.473   2.876  13.749  1.2315  0.8923  0.9593
  403MPD2     N 6025   0.043   2.567  13.943  0.1377  0.0546  0.0371
  403MPD2    H5 6026   0.081   2.474  13.930  3.3773  1.2103  1.2212
  403MPD2    N1 6027   4.457   2.470  13.581 -0.0922  0.0218 -0.7641
  403MPD2    H7 6028   4.405   2.518  13.508  0.9711  0.4971 -1.2096
  404TMC3    C1 6029   4.398   2.283  13.462  0.5629  0.8825 -0.4574
  404TMC3    C2 6030   4.365   2.156  13.481 -0.3274  0.4329  0.4324
  404TMC3    C3 6031   4.398   2.064  13.392 -0.0142 -0.0656  0.5607
  404TMC3    C4 6032   4.469   2.327  13.347  0.5121 -0.0206  0.0690
  404TMC3    C5 6033   4.479   2.237  13.249 -0.0066 -0.2823  0.0534
  404TMC3    C6 6034   4.453   2.099  13.269  0.2184 -0.8153 -0.4435
  404TMC3     C 6035   4.460   2.333  13.582 -0.0570 -0.3769 -0.6462
  404TMC3     O 6036   4.500   2.259  13.669  0.1131  0.0073 -0.5879
  404TMC3     H 6037   4.318   2.131  13.575 -0.0291 -0.6529  0.3026
  404TMC3    H1 6038   4.503   2.429  13.337  0.9187 -0.0031  1.5982
  404TMC3    H2 6039   4.487   2.021  13.201  0.2191 -0.5960 -0.6919
  404TMC3    C7 6040   4.532   2.283  13.123 -1.5194  0.1190 -0.2972
  404TMC3    C8 6041   4.434   1.934  13.451 -0.3768 -0.2188 -0.3813
  404TMC3    O1 6042   4.602   2.383  13.114  0.4502  0.0839 -0.3219
  404TMC3    O2 6043   4.518   1.874  13.385  0.0949 -0.1151  0.1053
  405MPD2     C 6044   0.159   2.867  14.800 -0.0478  0.3235 -0.7177
  405MPD2    C1 6045   0.073   2.762  14.807 -0.1774  1.0617  0.0106
  405MPD2    C2 6046   4.676   2.760  14.727  0.0820  0.7567 -0.0103
  405MPD2    C3 6047   4.648   2.865  14.644  0.9054  0.5986 -0.4610
  405MPD2    C4 6048   0.020   2.968  14.640  0.4927  0.2539  0.5196
  405MPD2    C5 6049   0.134   2.970  14.718  0.0646 -0.5864 -0.0194
  405MPD2     H 6050   4.616   2.670  14.723 -1.8465  2.1174 -1.4445
  405MPD2    H1 6051   0.012   3.050  14.570 -0.3619 -0.3240 -0.0610
  405MPD2    H2 6052   0.250   2.866  14.859 -1.1258 -0.2237  0.9399
  405MPD2    H3 6053   0.200   3.055  14.706 -0.6839 -0.2348 -1.6452
  405MPD2     N 6054   4.542   2.860  14.545 -0.2244 -0.7662  0.3147
  405MPD2    H5 6055   4.465   2.797  14.565 -1.3364  0.8891  1.2836
  405MPD2    N1 6056   0.115   2.653  14.888 -0.2590  0.2063  0.4418
  405MPD2    H7 6057   0.196   2.666  14.947  0.9097 -3.2246 -0.4120
  406TMC3    C1 6058   4.223   2.759  14.418  0.5571  0.6439 -0.4774
  406TMC3    C2 6059   4.245   2.659  14.335  0.1705 -0.3685 -0.5799
  406TMC3    C3 6060   4.351   2.658  14.255  0.5167 -0.9624 -0.0675
  406TMC3    C4 6061   4.318   2.858  14.438  0.3684  0.4195 -1.1112
  406TMC3    C5 6062   4.420   2.876  14.351  0.1954  0.4270 -0.4105
  406TMC3    C6 6063   4.442   2.763  14.271 -0.5177 -0.4634  0.3355
  406TMC3     C 6064   4.106   2.751  14.504 -0.0722 -0.5549 -0.7325
  406TMC3     O 6065   4.116   2.811  14.608  0.4529 -0.3899 -0.5881
  406TMC3     H 6066   4.175   2.577  14.339  1.3553 -1.3652 -0.3442
  406TMC3    H1 6067   4.291   2.936  14.509  2.3484 -0.0836  0.1902
  406TMC3    H2 6068   4.523   2.770  14.199 -1.4187 -1.4480 -0.7600
  406TMC3    C7 6069   4.540   2.924  14.424 -0.1995  0.0013  0.5392
  406TMC3    C8 6070   4.425   2.533  14.246  0.2028  0.0378 -0.6414
  406TMC3    O1 6071   4.629   2.989  14.370 -0.1133  0.7237  0.1630
  406TMC3    O2 6072   4.384   2.443  14.173 -0.0865  0.4230 -0.1159
  407MPD2     C 6073   3.378   4.095   9.378 -0.6365 -0.1742 -0.1668
  407MPD2    C1 6074   3.393   3.994   9.469  0.2777 -0.0460  0.4185
  407MPD2    C2 6075   3.308   3.989   9.573  0.0662 -0.1797 -0.1492
  407MPD2    C3 6076   3.201   4.080   9.589 -0.6079 -0.0992 -0.3362
  407MPD2    C4 6077   3.191   4.192   9.505  0.0681  0.5829 -0.3577
  407MPD2    C5 6078   3.279   4.189   9.398 -0.0754 -0.5023 -0.1276
  407MPD2     H 6079   3.328   3.911   9.645 -2.0324 -0.5977 -0.0217
  407MPD2    H1 6080   3.108   4.261   9.514 -1.0946 -0.3892 -3.6385
  407MPD2    H2 6081   3.449   4.118   9.299 -1.5007  0.4408 -0.7697
  407MPD2    H3 6082   3.263   4.273   9.331 -3.9014 -1.3950 -0.3069
  407MPD2     N 6083   3.120   4.087   9.701 -0.2908 -0.4362 -0.1524
  407MPD2    H5 6084   3.062   4.169   9.715  0.3650 -0.2627  1.5023
  407MPD2    N1 6085   3.508   3.914   9.483  0.3246 -0.1094 -0.3109
  407MPD2    H7 6086   3.542   3.881   9.573  1.9843  0.1865 -0.8355
  408TMC3    C1 6087   3.716   3.844   9.427  0.0572 -0.4912  0.3900
  408TMC3    C2 6088   3.770   3.919   9.526  0.1406 -0.2017  0.7137
  408TMC3    C3 6089   3.900   3.890   9.554  0.2520  0.2010  0.2403
  408TMC3    C4 6090   3.782   3.750   9.357 -0.1153  0.2269  0.5268
  408TMC3    C5 6091   3.913   3.719   9.395 -0.2224  0.2986 -0.9806
  408TMC3    C6 6092   3.975   3.793   9.485 -0.6757  1.0226 -0.2910
  408TMC3     C 6093   3.588   3.889   9.377  0.7334 -0.3025 -0.0539
  408TMC3     O 6094   3.562   3.893   9.260  0.3936  0.3973 -0.1699
  408TMC3     H 6095   3.710   3.993   9.579  0.0029  2.0607 -2.5751
  408TMC3    H1 6096   3.732   3.703   9.273  1.0841  1.1437 -0.6999
  408TMC3    H2 6097   4.071   3.762   9.526 -0.7886  0.9492 -0.0844
  408TMC3    C7 6098   3.987   3.627   9.313  0.1170 -0.6371 -0.3228
  408TMC3    C8 6099   3.963   3.957   9.664  0.1819 -0.1207  0.4715
  408TMC3    O1 6100   3.914   3.555   9.250  0.5027  0.0540 -0.4288
  408TMC3    O2 6101   4.061   3.903   9.714  0.6848  0.2208  0.4370
  409MPD2     C 6102   2.232   4.720  16.689 -0.3045  0.4599  0.2074
  409MPD2    C1 6103   2.314   4.677  16.794  0.2689 -0.8947  0.1783
  409MPD2    C2 6104   2.455   4.705  16.792 -0.6209  0.6438  0.4215
  409MPD2    C3 6105   2.506   0.065  16.690  0.2553  0.0123  0.6210
  409MPD2    C4 6106   2.427   0.105  16.590  0.1452  0.2991  0.6443
  409MPD2    C5 6107   2.292   0.069  16.587  0.4856  0.5560 -0.4417
  409MPD2     H 6108   2.512   4.670  16.878 -1.8892  0.4874  1.2016
  409MPD2    H1 6109   2.477   0.164  16.513 -0.1072 -0.1461  0.1359
  409MPD2    H2 6110   2.125   4.702  16.686 -0.3063 -0.5139  5.6646
  409MPD2    H3 6111   2.224   0.093  16.505 -0.5021 -1.8069 -0.3184
  409MPD2     N 6112   2.647   0.097  16.681 -0.2517  0.2371  0.8004
  409MPD2    H5 6113   2.674   0.149  16.599  1.0997 -0.3154  0.8946
  409MPD2    N1 6114   2.267   4.589  16.892  0.0844 -0.1650 -0.1219
  409MPD2    H7 6115   2.333   4.534  16.945 -1.0288  0.5371  2.0253
  410TMC3    C1 6116   2.877   0.127  16.734  0.3554  0.4138 -0.3029
  410TMC3    C2 6117   2.923   0.205  16.838 -0.2724 -0.3971  0.2866
  410TMC3    C3 6118   2.969   0.328  16.801 -0.1961  0.5518 -0.7262
  410TMC3    C4 6119   2.874   0.170  16.604 -0.3239 -0.8535  1.1593
  410TMC3    C5 6120   2.927   0.292  16.579 -0.3431 -0.4224 -0.1508
  410TMC3    C6 6121   2.979   0.374  16.672 -0.0503  0.9235 -0.6422
  410TMC3     C 6122   2.746   0.075  16.775  0.6078  0.2703 -1.2982
  410TMC3     O 6123   2.738   0.023  16.888 -0.1174 -0.1385  0.0744
  410TMC3     H 6124   2.915   0.167  16.939 -0.5353 -2.0430 -0.3397
  410TMC3    H1 6125   2.834   0.108  16.525  1.5449 -0.0975 -0.3892
  410TMC3    H2 6126   3.016   0.473  16.651  0.1884  0.4376 -2.4705
  410TMC3    C7 6127   2.898   0.346  16.446 -1.0466 -1.0114  0.0947
  410TMC3    C8 6128   3.029   0.421  16.895  0.3687 -0.1301 -1.0368
  410TMC3    O1 6129   2.849   0.256  16.383  0.1244 -0.3170 -0.8864
  410TMC3    O2 6130   3.048   0.536  16.857 -0.2673  0.2300 -0.4697
  411MPD2     C 6131   2.610   0.834  14.162  0.1513  0.6302  0.2895
  411MPD2    C1 6132   2.576   0.843  14.292  0.6548  0.3112 -0.1785
  411MPD2    C2 6133   2.542   0.726  14.362 -0.5346 -0.9208  1.0036
  411MPD2    C3 6134   2.513   0.611  14.285 -0.1392  0.4540  0.7145
  411MPD2    C4 6135   2.511   0.620  14.149 -0.5253  0.1699  0.1013
  411MPD2    C5 6136   2.570   0.723  14.086 -0.0742 -0.3339  0.6132
  411MPD2     H 6137   2.532   0.720  14.470 -1.9446  1.1524  0.9850
  411MPD2    H1 6138   2.513   0.530  14.088  3.7930  1.6508 -1.9283
  411MPD2    H2 6139   2.615   0.922  14.098 -0.2247 -1.7223 -2.9791
  411MPD2    H3 6140   2.570   0.726  13.978 -1.8738  1.6671  0.6542
  411MPD2     N 6141   2.469   0.487  14.331  0.0848 -0.1517 -0.1988
  411MPD2    H5 6142   2.439   0.417  14.264  0.7068  0.4517 -1.0883
  411MPD2    N1 6143   2.571   0.967  14.352  0.1782  0.3708 -0.0752
  411MPD2    H7 6144   2.586   1.048  14.293  1.3445  1.7620  2.1303
  412TMC3    C1 6145   2.354   0.346  14.473 -0.1934 -0.2589  0.8732
  412TMC3    C2 6146   2.227   0.384  14.472 -0.2482 -0.2285  0.1874
  412TMC3    C3 6147   2.138   0.314  14.392  0.2674  0.1240 -0.8397
  412TMC3    C4 6148   2.389   0.241  14.405  0.2197 -0.0313 -0.1027
  412TMC3    C5 6149   2.307   0.172  14.320  0.6662 -0.1720  0.5719
  412TMC3    C6 6150   2.177   0.195  14.336  0.1762 -0.0424 -0.4200
  412TMC3     C 6151   2.441   0.455  14.462 -0.9298  0.3149 -0.6550
  412TMC3     O 6152   2.453   0.522  14.564 -0.1712 -0.2460 -0.5380
  412TMC3     H 6153   2.207   0.480  14.519  1.0813 -0.1834  0.6591
  412TMC3    H1 6154   2.496   0.228  14.396  0.8191  4.0037  1.1521
  412TMC3    H2 6155   2.099   0.155  14.271  0.3313 -1.4895  0.2991
  412TMC3    C7 6156   2.354   0.178  14.184 -0.3951 -0.1881 -0.5207
  412TMC3    C8 6157   2.083   0.407  14.292  0.0574 -0.1020  1.2614
  412TMC3    O1 6158   2.447   0.252  14.163  0.8255  0.2873  0.2912
  412TMC3    O2 6159   2.080   0.361  14.178  0.4848  0.1451 -0.6105
  413MPD2     C 6160   4.172   4.137  15.777 -0.5560 -0.1132 -0.7460
  413MPD2    C1 6161   4.120   4.090  15.656 -0.1322 -0.0839  0.1872
  413MPD2    C2 6162   4.169   3.979  15.599  0.2281 -0.0483  0.5017
  413MPD2    C3 6163   4.274   3.905  15.652  0.0935  0.1442 -0.7934
  413MPD2    C4 6164   4.337   3.962  15.761 -0.4159 -0.2830  0.8408
  413MPD2    C5 6165   4.280   4.070  15.826 -0.1430 -0.1450 -0.3441
  413MPD2     H 6166   4.114   3.932  15.518  0.7226  1.6591 -0.8336
  413MPD2    H1 6167   4.412   3.915  15.823  0.2962  0.9596  0.9302
  413MPD2    H2 6168   4.127   4.211  15.842  0.3911 -0.1062 -0.1012
  413MPD2    H3 6169   4.321   4.096  15.923  0.2100  0.1016 -0.5598
  413MPD2     N 6170   4.324   3.786  15.589 -1.2713 -0.7072 -0.2702
  413MPD2    H5 6171   4.269   3.770  15.505  0.1965  0.9569 -1.5633
  413MPD2    N1 6172   4.012   4.160  15.606  0.2030 -0.6027 -0.4121
  413MPD2    H7 6173   3.985   4.241  15.661 -0.8542 -1.2592  0.0344
  414TMC3    C1 6174   4.441   3.592  15.527 -0.3644  0.3378 -0.0530
  414TMC3    C2 6175   4.494   3.478  15.579 -0.8363  0.3936  0.4506
  414TMC3    C3 6176   4.477   3.368  15.502  0.3300  0.5188 -0.8161
  414TMC3    C4 6177   4.386   3.611  15.405  0.0544  0.1826  0.0746
  414TMC3    C5 6178   4.371   3.497  15.331 -0.0429 -0.2443 -0.3205
  414TMC3    C6 6179   4.405   3.372  15.384 -0.2206 -0.2227  0.3877
  414TMC3     C 6180   4.417   3.695  15.629 -0.8294 -0.2501 -0.0946
  414TMC3     O 6181   4.467   3.684  15.741  0.1348  0.0006 -0.1146
  414TMC3     H 6182   4.540   3.464  15.676 -0.7720  0.6957  0.4647
  414TMC3    H1 6183   4.370   3.706  15.357  1.0945 -0.1921 -1.0059
  414TMC3    H2 6184   4.402   3.285  15.319  3.7069  1.4090 -1.9221
  414TMC3    C7 6185   4.295   3.503  15.208 -0.1444 -0.1453 -0.9716
  414TMC3    C8 6186   4.547   3.245  15.525  0.0247  0.2765  0.1388
  414TMC3    O1 6187   4.207   3.583  15.217 -0.5007 -0.3145  0.5486
  414TMC3    O2 6188   4.483   3.147  15.488 -0.2127  0.2841  0.0189
  415TMC3    C1 6189   4.621   1.378   9.930 -0.2366 -0.5295  0.3423
  415TMC3    C2 6190   4.685   1.315   9.820  1.2720  0.9435  0.5890
  415TMC3    C3 6191   4.608   1.230   9.730  0.3992  0.6246 -0.4813
  415TMC3    C4 6192   4.495   1.347   9.964  0.3697  0.5887  0.6371
  415TMC3    C5 6193   4.424   1.260   9.878 -0.1883  0.6456  0.3719
  415TMC3    C6 6194   4.477   1.210   9.760  0.0683 -0.1456  0.2174
  415TMC3     C 6195   4.704   1.434  10.035  0.0119  0.1424  0.1402
  415TMC3     O 6196   4.646   1.467  10.140  0.1819 -0.3827 -0.8496
  415TMC3     H 6197   0.067   1.337   9.801  1.1514  1.8762  0.9677
  415TMC3    H1 6198   4.456   1.400  10.050  0.2743 -0.3969  1.2046
  415TMC3    H2 6199   4.416   1.148   9.696  1.4869 -2.7079  1.3528
  415TMC3    C7 6200   4.314   1.181   9.926 -0.2702  0.1910  0.1869
  415TMC3    C8 6201   4.657   1.168   9.611 -0.6394 -0.0971 -0.3427
  415TMC3    O1 6202   4.258   1.102   9.854 -0.0266  0.1497  0.1648
  415TMC3    O2 6203   4.574   1.138   9.528  0.7142 -0.0305  0.6619
  416MPD2     C 6204   1.701   0.983  11.599 -0.6207  0.6539  0.0438
  416MPD2    C1 6205   1.587   0.922  11.644  0.5375  0.2408 -0.4206
  416MPD2    C2 6206   1.580   0.781  11.637  0.0353  0.0912 -0.0866
  416MPD2    C3 6207   1.684   0.704  11.591 -0.6183 -0.6913  0.2269
  416MPD2    C4 6208   1.794   0.769  11.529 -0.1725  0.2201  0.4574
  416MPD2    C5 6209   1.799   0.903  11.543  0.3936 -0.2643 -0.0821
  416MPD2     H 6210   1.500   0.723  11.682  0.6490  1.1221  2.3577
  416MPD2    H1 6211   1.883   0.723  11.488 -0.9574 -1.5744  0.7995
  416MPD2    H2 6212   1.711   1.090  11.585 -0.9917  0.5304 -1.1815
  416MPD2    H3 6213   1.887   0.948  11.501  0.3893 -0.2096 -0.0323
  416MPD2     N 6214   1.665   0.569  11.583 -0.5830  0.6004 -0.2998
  416MPD2    H5 6215   1.573   0.532  11.599 -0.3172  0.5892  1.1624
  416MPD2    N1 6216   1.485   1.000  11.702 -0.1643 -0.2765 -0.0137
  416MPD2    H7 6217   1.498   1.099  11.719 -0.9961 -0.3009  0.7944
  417TMC3    C1 6218   1.289   1.062  11.806  0.6804 -0.0569 -0.1731
  417TMC3    C2 6219   1.367   1.168  11.848 -0.5352 -0.5717 -0.1386
  417TMC3    C3 6220   1.312   1.295  11.840  0.0609 -0.4169  0.1888
  417TMC3    C4 6221   1.167   1.077  11.744  0.8895  0.0738  0.1296
  417TMC3    C5 6222   1.125   1.208  11.731  0.3895  0.6522  0.1979
  417TMC3    C6 6223   1.191   1.310  11.781  0.2696 -0.6449  0.0145
  417TMC3     C 6224   1.364   0.955  11.753  0.2330 -0.2019 -0.5883
  417TMC3     O 6225   1.299   0.860  11.711 -0.1226 -0.0358  0.4502
  417TMC3     H 6226   1.451   1.139  11.911  1.1783  1.0587 -1.6823
  417TMC3    H1 6227   1.120   0.991  11.698  0.2463  1.3970 -1.7092
  417TMC3    H2 6228   1.148   1.410  11.784 -1.8443 -1.5593  0.5669
  417TMC3    C7 6229   1.070   1.235  11.601  0.4789 -0.3075 -0.2257
  417TMC3    C8 6230   1.348   1.381  11.946  0.3446  0.1741  0.5413
  417TMC3    O1 6231   1.118   1.328  11.538 -0.8664 -0.4943  0.5500
  417TMC3    O2 6232   1.246   1.431  11.998 -0.2990 -0.3705  0.1737
  418TMC3    C1 6233   0.750   1.900  17.358  0.7677  0.0072 -0.2756
  418TMC3    C2 6234   0.634   1.842  17.324  0.7701 -0.0238  0.0828
  418TMC3    C3 6235   0.523   1.876  17.388  0.5775 -0.0523 -0.2198
  418TMC3    C4 6236   0.760   1.995  17.453 -0.2485  0.2818  0.5437
  418TMC3    C5 6237   0.638   2.036  17.507 -0.0549 -0.1265  0.5557
  418TMC3    C6 6238   0.519   1.984  17.467 -0.0986 -0.0081  0.3146
  418TMC3     C 6239   0.852   1.867  17.266 -0.6826 -0.4152 -0.2150
  418TMC3     O 6240   0.830   1.869  17.149  0.0376  0.3424 -0.1750
  418TMC3     H 6241   0.636   1.769  17.245  0.9215 -0.7518  0.7560
  418TMC3    H1 6242   0.852   2.040  17.489  0.1208  2.6705 -3.3697
  418TMC3    H2 6243   0.427   2.008  17.518 -0.5056 -0.2210 -0.3221
  418TMC3    C7 6244   0.643   2.084  17.642  0.0088  1.1817  0.1493
  418TMC3    C8 6245   0.439   1.765  17.419 -0.2001 -0.1151 -0.2015
  418TMC3    O1 6246   0.734   2.035   0.015  0.1093 -0.0667 -0.1350
  418TMC3    O2 6247   0.337   1.786  17.482  0.4781 -0.1060  0.5254
  419MPD2     C 6248   4.192   1.274  12.377 -0.6137 -0.6766 -0.0264
  419MPD2    C1 6249   4.093   1.182  12.392 -0.6474 -0.0907 -0.5719
  419MPD2    C2 6250   4.021   1.177  12.501 -0.2847  0.0142 -0.5384
  419MPD2    C3 6251   4.054   1.265  12.609  0.2599 -0.1835 -0.7408
  419MPD2    C4 6252   4.158   1.357  12.595  0.1520 -0.0818  0.2879
  419MPD2    C5 6253   4.218   1.364  12.474 -0.6960  0.0769 -0.7031
  419MPD2     H 6254   3.939   1.107  12.518  1.2292 -1.9941 -1.5275
  419MPD2    H1 6255   4.185   1.416  12.682 -0.4509 -1.2271  1.2575
  419MPD2    H2 6256   4.246   1.278  12.283  0.5488 -0.3688  0.6589
  419MPD2    H3 6257   4.302   1.431  12.458 -1.0567  1.1403  1.9085
  419MPD2     N 6258   3.997   1.230  12.733 -0.3305  0.2667  0.2213
  419MPD2    H5 6259   3.917   1.171  12.713  0.1850  0.5485 -2.7112
  419MPD2    N1 6260   4.062   1.099  12.285 -0.3255 -0.1584  0.1275
  419MPD2    H7 6261   3.985   1.034  12.298  1.5343 -2.0667  1.6455
  420TMC3    C1 6262   3.918   1.224  12.952  0.4610  0.5352 -0.5832
  420TMC3    C2 6263   3.791   1.226  12.902 -0.5766  0.4304 -0.1586
  420TMC3    C3 6264   3.700   1.171  12.986  0.1975  0.2678  0.0402
  420TMC3    C4 6265   3.964   1.176  13.074 -0.4032  0.1992  0.1817
  420TMC3    C5 6266   3.872   1.106  13.148  0.1558 -0.0466  0.2867
  420TMC3    C6 6267   3.740   1.109  13.104  0.3752 -0.1628  0.5544
  420TMC3     C 6268   4.021   1.273  12.863 -1.1115  0.2184 -1.1845
  420TMC3     O 6269   4.111   1.340  12.912 -0.1123  0.1691 -0.5014
  420TMC3     H 6270   3.761   1.285  12.816  1.3830 -1.7375 -2.3285
  420TMC3    H1 6271   4.069   1.183  13.100 -0.2342 -1.0602 -0.1696
  420TMC3    H2 6272   3.665   1.065  13.167  0.1595  0.9450  1.0742
  420TMC3    C7 6273   3.904   1.063  13.279  0.1202  0.6786  0.4136
  420TMC3    C8 6274   3.562   1.177  12.936  0.3250 -0.2889 -0.3727
  420TMC3    O1 6275   3.875   0.951  13.320 -0.3381 -0.8584  1.0061
  420TMC3    O2 6276   3.531   1.270  12.864 -0.2826 -0.2152 -0.2005
  421TMC3    C1 6277   0.196   2.589  14.129 -0.7743 -0.1830  0.3941
  421TMC3    C2 6278   0.219   2.641  14.255  0.3683 -0.0657 -0.1254
  421TMC3    C3 6279   0.328   2.598  14.325  0.4362  0.0523 -0.1668
  421TMC3    C4 6280   0.277   2.488  14.077  0.0933  0.0524  1.1351
  421TMC3    C5 6281   0.384   2.450  14.148 -0.0050 -0.3685  0.5548
  421TMC3    C6 6282   0.409   2.493  14.276  0.3930 -0.8375  0.0894
  421TMC3     C 6283   0.095   2.647  14.043  0.3128 -0.0652  0.2215
  421TMC3     O 6284   0.070   2.762  14.073 -0.2267 -0.7228  0.0688
  421TMC3     H 6285   0.146   2.709  14.296  0.8420  0.2826  0.1446
  421TMC3    H1 6286   0.283   2.473  13.970 -0.3231  2.3358  0.8020
  421TMC3    H2 6287   0.485   2.449  14.339  0.2270 -0.8808  0.2602
  421TMC3    C7 6288   0.463   2.330  14.113  0.3107 -0.2971  0.3298
  421TMC3    C8 6289   0.370   2.656  14.451  0.3090  0.3860  1.0226
  421TMC3    O1 6290   0.549   2.296  14.194  0.0897 -0.2666  0.0465
  421TMC3    O2 6291   0.293   2.671  14.544 -0.1937  0.0114  0.2362
  422TMC3    C1 6292   2.760   3.585  12.633  0.3884  0.6381  0.1110
  422TMC3    C2 6293   2.723   3.713  12.623  0.3096  0.5419 -0.3421
  422TMC3    C3 6294   2.645   3.755  12.724 -1.1549  0.3479  0.2258
  422TMC3    C4 6295   2.713   3.495  12.722 -0.4229  0.2623  0.2825
  422TMC3    C5 6296   2.633   3.543  12.823  0.0278 -0.1382 -0.0987
  422TMC3    C6 6297   2.587   3.671  12.818 -0.5628 -0.1637 -0.6266
  422TMC3     C 6298   2.845   3.544  12.521  0.0813 -0.3302 -0.3660
  422TMC3     O 6299   2.879   3.630  12.437 -0.3752 -0.1985 -0.4700
  422TMC3     H 6300   2.760   3.781  12.546  0.1996  1.2398  0.2229
  422TMC3    H1 6301   2.720   3.387  12.717  0.4566  0.4133 -1.5164
  422TMC3    H2 6302   2.523   3.709  12.897 -0.0779 -1.5492  0.4397
  422TMC3    C7 6303   2.551   3.449  12.902  0.4045 -0.3954 -0.8718
  422TMC3    C8 6304   2.632   3.898  12.736  0.5806 -0.2444 -0.4707
  422TMC3    O1 6305   2.610   3.357  12.955 -0.1314  0.1914 -0.2499
  422TMC3    O2 6306   2.731   3.954  12.693 -0.6456 -1.0770  0.9036
  423MPD2     C 6307   3.840   4.436   0.668 -0.9837  0.1057 -0.3386
  423MPD2    C1 6308   3.917   4.334   0.718 -0.3267  0.4130 -0.1756
  423MPD2    C2 6309   3.973   4.244   0.628 -0.3954  0.0103  0.3535
  423MPD2    C3 6310   3.961   4.267   0.489  0.1683 -0.1687 -0.5798
  423MPD2    C4 6311   3.894   4.376   0.441  0.0483 -0.2475 -0.3520
  423MPD2    C5 6312   3.824   4.448   0.532  0.7096 -0.1283  0.0395
  423MPD2     H 6313   4.037   4.161   0.659 -1.1183 -0.8211 -0.3686
  423MPD2    H1 6314   3.883   4.386   0.334 -1.9706 -3.9323 -0.4941
  423MPD2    H2 6315   3.793   4.517   0.722  2.4540  1.8807 -0.0044
  423MPD2    H3 6316   3.761   4.531   0.501  1.2916 -0.2651 -1.4893
  423MPD2     N 6317   4.019   4.179   0.389  0.0432 -0.2489  0.2203
  423MPD2    H5 6318   4.032   4.224   0.299 -1.2314  1.8600  1.0680
  423MPD2    N1 6319   3.940   4.310   0.861 -0.0735 -0.4294 -0.1797
  423MPD2    H7 6320   3.991   4.227   0.890  0.8638  0.2123  0.0242
  424TMC3    C1 6321   3.946   4.339   1.088  0.2678 -0.0423 -0.8801
  424TMC3    C2 6322   3.942   4.202   1.112  0.1736 -0.1434  0.2365
  424TMC3    C3 6323   3.986   4.149   1.231 -0.0902  0.6548 -0.6892
  424TMC3    C4 6324   3.968   4.424   1.192  0.4314 -0.3194 -0.1864
  424TMC3    C5 6325   4.009   4.369   1.309 -0.1129  0.2564 -0.0165
  424TMC3    C6 6326   4.025   4.236   1.331 -0.4523  0.5664 -0.1822
  424TMC3     C 6327   3.892   4.388   0.960 -0.1347  0.2239 -1.0015
  424TMC3     O 6328   3.842   4.502   0.959 -0.7981  0.2844  0.4682
  424TMC3     H 6329   3.899   4.142   1.034 -1.3760  1.9657 -0.5266
  424TMC3    H1 6330   3.971   4.531   1.180  0.1479 -0.2777  0.1003
  424TMC3    H2 6331   4.045   4.200   1.432  3.3100  2.0715 -0.3984
  424TMC3    C7 6332   4.055   4.469   1.406 -0.2273 -0.4285 -0.4428
  424TMC3    C8 6333   3.963   4.005   1.261 -0.2864 -0.4778 -0.4607
  424TMC3    O1 6334   4.037   4.589   1.380 -0.0140 -0.4117 -0.3734
  424TMC3    O2 6335   3.973   3.976   1.378  0.6510  0.0781 -0.0688
  425MPD2     C 6336   3.146   3.925  17.235 -0.1257 -0.0945  0.0537
  425MPD2    C1 6337   3.103   3.805  17.285  0.1719 -0.0638  0.3537
  425MPD2    C2 6338   2.974   3.791  17.340  0.4586 -0.2973 -0.4596
  425MPD2    C3 6339   2.888   3.904  17.342  0.4629  0.5452 -0.0159
  425MPD2    C4 6340   2.929   4.026  17.298  0.1270 -1.1250 -0.2186
  425MPD2    C5 6341   3.050   4.028  17.231 -0.1812 -0.6527  0.6573
  425MPD2     H 6342   2.935   3.695  17.375  0.6664 -0.1176  0.2663
  425MPD2    H1 6343   2.860   4.109  17.292  1.6770  0.2666  1.2240
  425MPD2    H2 6344   3.242   3.943  17.189 -0.5807  0.6376 -0.6075
  425MPD2    H3 6345   3.070   4.114  17.168  0.3864 -1.0723  0.2673
  425MPD2     N 6346   2.759   3.883  17.401 -0.3961  0.6697  0.3060
  425MPD2    H5 6347   2.751   3.794  17.449  1.9003 -0.3889 -1.2344
  425MPD2    N1 6348   3.189   3.692  17.281  0.6863  0.1957 -0.7941
  425MPD2    H7 6349   3.275   3.703  17.229 -0.6611  1.0130 -2.8497
  426TMC3    C1 6350   3.261   3.477  17.314 -0.5933  0.2867 -0.2195
  426TMC3    C2 6351   3.262   3.445  17.178 -0.3636 -0.8402 -0.5911
  426TMC3    C3 6352   3.311   3.322  17.143  0.5762  0.1092  0.5782
  426TMC3    C4 6353   3.288   3.389  17.408  0.3407  0.7417 -0.0353
  426TMC3    C5 6354   3.340   3.266  17.364 -0.2674  0.6626  0.3270
  426TMC3    C6 6355   3.341   3.229  17.234 -0.2974 -1.1205 -0.6748
  426TMC3     C 6356   3.169   3.575  17.352  0.1083  0.7322 -0.3345
  426TMC3     O 6357   3.091   3.554  17.446 -0.0177  0.3779 -0.6304
  426TMC3     H 6358   3.258   3.526  17.106  1.3869  1.3190  1.7594
  426TMC3    H1 6359   3.283   3.423  17.510  0.0860  1.3586 -0.2577
  426TMC3    H2 6360   3.373   3.130  17.201 -1.3402 -1.7560  0.2161
  426TMC3    C7 6361   3.386   3.185  17.480  0.1354 -0.8286  0.2921
  426TMC3    C8 6362   3.267   3.267  17.016  0.0631  0.9554 -0.3937
  426TMC3    O1 6363   3.474   3.107  17.453 -0.4217  0.9002 -0.7835
  426TMC3    O2 6364   3.329   3.189  16.948  0.4248 -0.1673 -0.0960
  427MPD2     C 6365   1.706   0.921  14.658 -0.2419 -0.0607  0.1688
  427MPD2    C1 6366   1.689   0.932  14.793 -0.3109 -0.1592  0.1606
  427MPD2    C2 6367   1.568   0.983  14.841 -0.0016 -0.3329 -0.6853
  427MPD2    C3 6368   1.472   1.019  14.754  0.6013  0.2812  0.7550
  427MPD2    C4 6369   1.482   0.992  14.624 -0.7651  0.2145 -0.3630
  427MPD2    C5 6370   1.606   0.952  14.574  0.5889 -0.7810  0.0173
  427MPD2     H 6371   1.541   0.984  14.946 -1.7377 -2.2876 -1.1100
  427MPD2    H1 6372   1.410   1.016  14.548 -0.5008  1.4464 -0.2286
  427MPD2    H2 6373   1.801   0.878  14.632 -2.1861 -3.5595 -1.2004
  427MPD2    H3 6374   1.621   0.946  14.467  1.7979  1.2667  0.0634
  427MPD2     N 6375   1.346   1.073  14.799 -0.7317  0.1356 -0.1100
  427MPD2    H5 6376   1.279   1.079  14.723  0.3579  0.2574 -1.0496
  427MPD2    N1 6377   1.779   0.879  14.886  0.0221 -0.1192  0.8632
  427MPD2    H7 6378   1.747   0.888  14.982  0.2588  2.7140  0.6704
  428TMC3    C1 6379   1.961   0.764  14.990 -0.3735 -0.6931  0.3574
  428TMC3    C2 6380   1.879   0.693  15.073 -0.0029 -1.2644 -0.3963
  428TMC3    C3 6381   1.920   0.661  15.202 -0.7546  0.4761 -0.2845
  428TMC3    C4 6382   2.083   0.808  15.025 -0.6781 -0.6364 -0.4268
  428TMC3    C5 6383   2.124   0.769  15.148  0.3798 -0.1577 -0.1791
  428TMC3    C6 6384   2.052   0.689  15.235  0.1510  0.6055 -0.6240
  428TMC3     C 6385   1.908   0.825  14.868 -0.3645 -0.4705  0.1416
  428TMC3     O 6386   1.980   0.828  14.768 -0.1830  0.3374  0.5288
  428TMC3     H 6387   1.779   0.666  15.040  0.3489  0.6638 -3.0152
  428TMC3    H1 6388   2.128   0.878  14.956 -2.5243  1.3753  0.3947
  428TMC3    H2 6389   2.093   0.659  15.331 -0.5007  1.2350 -0.1477
  428TMC3    C7 6390   2.245   0.824  15.211 -0.9295 -0.1124  0.0140
  428TMC3    C8 6391   1.831   0.579  15.275  0.6044  0.5795  0.4004
  428TMC3    O1 6392   2.258   0.809  15.334  0.7357 -0.1295 -0.2258
  428TMC3    O2 6393   1.712   0.592  15.244  0.7571  0.0702  0.3571
  429MPD2     C 6394   2.222   0.979  17.421 -0.9550  0.0522  0.2328
  429MPD2    C1 6395   2.349   0.925  17.387  0.3517  0.4151  0.8335
  429MPD2    C2 6396   2.431   1.004  17.312  0.0085 -0.1600  0.1222
  429MPD2    C3 6397   2.390   1.131  17.261  0.1148  0.1054  0.2172
  429MPD2    C4 6398   2.272   1.185  17.296 -0.0082  0.2005 -0.3768
  429MPD2    C5 6399   2.192   1.111  17.380 -0.5831 -0.1217 -0.2620
  429MPD2     H 6400   2.529   0.963  17.291 -0.6904 -0.9890 -1.4812
  429MPD2    H1 6401   2.236   1.278  17.254 -0.7410  0.3249  0.5238
  429MPD2    H2 6402   2.147   0.927  17.479 -1.5988  0.1185 -0.5563
  429MPD2    H3 6403   2.098   1.159  17.408 -1.0280 -2.0798  1.6089
  429MPD2     N 6404   2.484   1.200  17.185  0.1750 -0.5592  0.0286
  429MPD2    H5 6405   2.569   1.146  17.174  0.3697 -0.1952 -0.2389
  429MPD2    N1 6406   2.392   0.797  17.422 -0.0093  0.5704  0.6932
  429MPD2    H7 6407   2.484   0.771  17.389 -1.7520 -1.9058 -2.3466
  430TMC3    C1 6408   2.578   1.365  17.045 -0.1603 -0.1744 -0.1923
  430TMC3    C2 6409   2.609   1.501  17.024  0.5443 -0.6323  0.2799
  430TMC3    C3 6410   2.733   1.534  16.997  0.4227  0.0391  0.1862
  430TMC3    C4 6411   2.673   1.274  17.014 -0.5090  0.0888  0.0431
  430TMC3    C5 6412   2.799   1.314  16.983  0.6558 -0.0554  0.4267
  430TMC3    C6 6413   2.836   1.447  16.991  0.4227  0.1312  0.1264
  430TMC3     C 6414   2.474   1.328  17.142 -0.7436  0.6778  0.2177
  430TMC3     O 6415   2.407   1.417  17.184 -0.2875 -0.0986 -0.0453
  430TMC3     H 6416   2.528   1.571  17.043  0.8841 -0.1142 -0.1913
  430TMC3    H1 6417   2.656   1.167  17.011 -1.4079  0.2150  0.5508
  430TMC3    H2 6418   2.935   1.489  16.979  0.9528 -1.0323  0.3567
  430TMC3    C7 6419   2.891   1.208  16.962  0.6619 -0.3163  0.1215
  430TMC3    C8 6420   2.760   1.675  17.019 -0.1205  0.0371  0.5818
  430TMC3    O1 6421   2.862   1.096  17.007 -0.0111 -0.1138  0.2309
  430TMC3    O2 6422   2.673   1.731  17.084 -0.6032 -0.1789  0.1585
  431MPD2     C 6423   3.734   1.454  12.533  0.1755  0.4687  0.3302
  431MPD2    C1 6424   3.761   1.519  12.413  0.1937  0.3251 -0.3931
  431MPD2    C2 6425   3.744   1.451  12.292 -0.4904 -0.0904  0.6482
  431MPD2    C3 6426   3.720   1.317  12.293 -0.6118  0.5486 -0.3600
  431MPD2    C4 6427   3.687   1.255  12.413  0.0416  0.6268 -0.8207
  431MPD2    C5 6428   3.688   1.326  12.528 -0.0495  0.1879 -0.2245
  431MPD2     H 6429   3.762   1.514  12.206  0.2296 -0.5044  0.4956
  431MPD2    H1 6430   3.666   1.148  12.418  0.8307  0.3991 -2.2783
  431MPD2    H2 6431   3.734   1.499  12.631 -0.9537  2.1642 -0.4480
  431MPD2    H3 6432   3.666   1.269  12.617 -0.9679  0.0267 -0.5503
  431MPD2     N 6433   3.711   1.238  12.179  0.2304 -0.0800  0.7125
  431MPD2    H5 6434   3.697   1.138  12.195 -0.5874  0.2950  2.2667
  431MPD2    N1 6435   3.802   1.656  12.405  0.2389 -0.8743 -0.4016
  431MPD2    H7 6436   3.813   1.697  12.313 -1.6671  2.6821  0.9707
  432TMC3    C1 6437   3.847   1.159  12.000  0.6511  0.0245 -0.2402
  432TMC3    C2 6438   3.907   1.193  11.880 -0.2813 -0.0079  0.6192
  432TMC3    C3 6439   4.035   1.151  11.860 -0.1651  0.0409  0.6623
  432TMC3    C4 6440   3.917   1.077  12.090 -0.7688  0.2897 -0.3718
  432TMC3    C5 6441   4.043   1.040  12.058  0.8038 -0.3096  0.1963
  432TMC3    C6 6442   4.109   1.080  11.946 -0.1372 -0.3455  0.0864
  432TMC3     C 6443   3.771   1.271  12.057  0.0325  0.5531 -0.8816
  432TMC3     O 6444   3.780   1.385  12.005 -0.8006  1.0509  0.1344
  432TMC3     H 6445   3.849   1.238  11.801  0.8023 -0.9723 -0.7192
  432TMC3    H1 6446   3.867   1.045  12.181 -0.9129  1.2864 -0.0995
  432TMC3    H2 6447   4.211   1.064  11.912  0.2240 -0.4469  1.2258
  432TMC3    C7 6448   4.131   1.081  12.163 -0.1503 -0.5019  0.0677
  432TMC3    C8 6449   4.106   1.268  11.804  0.3464  0.5608  0.2774
  432TMC3    O1 6450   4.236   1.126  12.126 -0.5782  0.2247  0.0451
  432TMC3    O2 6451   4.056   1.323  11.707  0.1433  0.1646 -0.0937
  433MPD2     C 6452   2.716   4.429  10.796  0.3681  0.5571 -0.8330
  433MPD2    C1 6453   2.621   4.343  10.849 -0.3404  0.1733 -0.0956
  433MPD2    C2 6454   2.606   4.331  10.986 -0.0052 -0.2560  0.1375
  433MPD2    C3 6455   2.688   4.398  11.073  0.2439 -0.3281  0.0299
  433MPD2    C4 6456   2.789   4.470  11.024 -0.5266 -0.2356  0.0439
  433MPD2    C5 6457   2.799   4.494  10.887 -0.1082 -0.4497 -1.2788
  433MPD2     H 6458   2.520   4.283  11.032 -0.8772 -1.0054 -2.2823
  433MPD2    H1 6459   2.857   4.525  11.089 -1.1589 -0.0466  0.5444
  433MPD2    H2 6460   2.731   4.450  10.691 -0.7152 -1.3068 -1.3607
  433MPD2    H3 6461   2.872   4.562  10.845  1.1543  0.3739  2.2639
  433MPD2     N 6462   2.669   4.381  11.209 -0.4191  0.3169  0.1802
  433MPD2    H5 6463   2.597   4.317  11.239 -0.4883  0.7889  1.0346
  433MPD2    N1 6464   2.554   4.257  10.762 -0.6088 -0.2389 -0.0024
  433MPD2    H7 6465   2.599   4.238  10.673 -2.1825 -0.0711 -0.8251
  434TMC3    C1 6466   2.444   4.070  10.706  0.4839 -0.0664 -0.1391
  434TMC3    C2 6467   2.413   3.951  10.765  0.4576  0.2475  0.3113
  434TMC3    C3 6468   2.464   3.839  10.703  0.1637 -0.6491 -0.1388
  434TMC3    C4 6469   2.497   4.079  10.583 -0.1806  0.7918  1.0905
  434TMC3    C5 6470   2.528   3.964  10.517 -0.6982  0.2753 -0.5476
  434TMC3    C6 6471   2.517   3.838  10.579 -0.2217  0.1527 -0.6696
  434TMC3     C 6472   2.453   4.172  10.802 -0.0351 -0.4068  0.4199
  434TMC3     O 6473   2.385   4.169  10.904  0.1135  0.0483 -0.1802
  434TMC3     H 6474   2.379   3.942  10.868 -1.4595  1.6770 -0.2041
  434TMC3    H1 6475   2.506   4.173  10.530 -2.0676 -0.4364 -1.4734
  434TMC3    H2 6476   2.573   3.755  10.540  1.1823  0.9206 -0.2980
  434TMC3    C7 6477   2.566   3.975  10.376 -0.1260  1.1340  0.3005
  434TMC3    C8 6478   2.483   3.728  10.796 -0.7103 -0.2694  0.3805
  434TMC3    O1 6479   2.602   4.085  10.334  0.2046 -0.4275  0.5301
  434TMC3    O2 6480   2.453   3.743  10.912 -0.5921 -0.1747  0.5179
  435MPD2     C 6481   0.171   4.262  15.626  0.1677 -0.2004 -0.0147
  435MPD2    C1 6482   0.122   4.261  15.753  0.3007 -0.2926  0.3096
  435MPD2    C2 6483   0.202   4.217  15.856  0.4808  0.1943 -0.6838
  435MPD2    C3 6484   0.331   4.173  15.824  0.9309  0.3991  0.0735
  435MPD2    C4 6485   0.379   4.166  15.694  0.0387  0.1505  0.1650
  435MPD2    C5 6486   0.298   4.227  15.600 -0.3559 -0.3367 -0.1503
  435MPD2     H 6487   0.170   4.222  15.960  1.7792 -2.1097 -0.1635
  435MPD2    H1 6488   0.476   4.126  15.665  0.4461 -0.7452  2.7291
  435MPD2    H2 6489   0.116   4.290  15.537  0.5814 -0.5221 -0.3754
  435MPD2    H3 6490   0.335   4.230  15.498  0.2976 -0.3049  0.0835
  435MPD2     N 6491   0.399   4.127  15.942 -0.1548  0.0698  0.5217
  435MPD2    H5 6492   0.344   4.137  16.026 -0.5599  0.1229  0.2483
  435MPD2    N1 6493   4.714   4.306  15.793  0.1859  0.7017  0.5358
  435MPD2    H7 6494   4.691   4.303  15.892 -0.8744  0.6814  0.2960
  436TMC3    C1 6495   4.354   4.456  15.941 -0.3718 -0.2210  0.2847
  436TMC3    C2 6496   4.481   4.425  15.890 -0.3754 -0.7933 -0.1900
  436TMC3    C3 6497   4.489   4.392  15.755 -0.3441 -0.4399  1.0471
  436TMC3    C4 6498   4.239   4.468  15.863  0.1113  0.2310 -0.1613
  436TMC3    C5 6499   4.260   4.442  15.727 -0.8245  0.0323  0.4189
  436TMC3    C6 6500   4.381   4.404  15.670 -0.1199 -0.3344  0.1818
  436TMC3     C 6501   4.361   4.514  16.071 -0.4639  0.3911  0.3840
  436TMC3     O 6502   4.466   4.575  16.098 -0.3305 -0.3902  0.6306
  436TMC3     H 6503   4.566   4.432  15.956  0.3443  1.0164 -1.3124
  436TMC3    H1 6504   4.144   4.503  15.901  0.3388 -1.1754  1.7097
  436TMC3    H2 6505   4.390   4.387  15.563 -1.9140 -4.1940  0.6130
  436TMC3    C7 6506   4.167   4.485  15.627  0.4617 -0.7357  0.1307
  436TMC3    C8 6507   4.622   4.359  15.703  0.0561  0.3540  0.0413
  436TMC3    O1 6508   4.181   4.458  15.509  0.0580 -0.5659  0.0531
  436TMC3    O2 6509   4.623   4.384  15.587  0.3621  0.8075 -0.4187
  437TMC3    C1 6510   3.093   2.017  12.277 -0.1405 -0.0713 -0.6029
  437TMC3    C2 6511   3.010   2.062  12.371 -0.1992 -0.7986 -0.4747
  437TMC3    C3 6512   2.927   2.161  12.326 -0.1104  0.6506 -0.8665
  437TMC3    C4 6513   3.098   2.060  12.150  0.2350  0.0898 -1.1291
  437TMC3    C5 6514   3.016   2.162  12.112  0.2546  0.2769  0.1318
  437TMC3    C6 6515   2.923   2.217  12.199  0.0728  0.7227  0.4292
  437TMC3     C 6516   3.223   1.973  12.328  0.7923 -0.3996 -0.2176
  437TMC3     O 6517   3.321   2.014  12.262  0.1072 -0.2508  0.4001
  437TMC3     H 6518   3.024   2.035  12.475  1.1804 -2.7096 -1.1626
  437TMC3    H1 6519   3.168   2.026  12.075 -0.0061  2.3095 -2.3552
  437TMC3    H2 6520   2.855   2.296  12.169  3.1125  3.1429 -0.1542
  437TMC3    C7 6521   3.070   2.247  12.004 -0.5306 -0.8084  0.1495
  437TMC3    C8 6522   2.814   2.200  12.405 -0.0399  0.1829 -0.1538
  437TMC3    O1 6523   2.991   2.309  11.930 -0.5076 -0.1218 -0.2492
  437TMC3    O2 6524   2.774   2.315  12.393  0.3394  0.2253 -0.0964
  438MPD2     C 6525   0.617   2.633  16.429 -0.3931  0.0938  0.6408
  438MPD2    C1 6526   0.709   2.559  16.504 -0.5344 -0.4945  0.1257
  438MPD2    C2 6527   0.668   2.514  16.628 -0.0037  0.0560 -0.0659
  438MPD2    C3 6528   0.537   2.538  16.671  0.3656  0.0215 -0.2858
  438MPD2    C4 6529   0.448   2.596  16.587  0.3500 -0.6817 -0.2926
  438MPD2    C5 6530   0.489   2.650  16.467 -0.2807  0.9598  0.4582
  438MPD2     H 6531   0.734   2.444  16.678 -1.0385 -0.1426  1.0014
  438MPD2    H1 6532   0.344   2.614  16.613  0.2850 -0.3579 -0.7643
  438MPD2    H2 6533   0.653   2.691  16.346  0.1731 -3.4525 -1.5886
  438MPD2    H3 6534   0.420   2.708  16.408 -2.2814  0.0067  1.8762
  438MPD2     N 6535   0.486   2.498  16.795  0.1078 -0.0716  0.2936
  438MPD2    H5 6536   0.387   2.509  16.812 -0.4038 -2.3057 -1.2735
  438MPD2    N1 6537   0.833   2.513  16.454 -0.1479 -0.3441  0.1533
  438MPD2    H7 6538   0.891   2.465  16.521 -0.6654 -1.0532  0.0961
  439TMC3    C1 6539   1.016   2.490  16.298  0.2041 -0.2159 -0.0170
  439TMC3    C2 6540   1.029   2.407  16.188 -0.3490 -0.0151 -0.0614
  439TMC3    C3 6541   1.145   2.345  16.179 -0.0338 -0.0507 -0.1326
  439TMC3    C4 6542   1.100   2.492  16.406  0.2948  0.0771  0.3848
  439TMC3    C5 6543   1.215   2.423  16.389  0.0598 -0.6082 -0.1797
  439TMC3    C6 6544   1.240   2.353  16.275 -0.1278 -1.0738  0.3025
  439TMC3     C 6545   0.877   2.536  16.323 -0.4497  0.5503  0.5007
  439TMC3     O 6546   0.825   2.570  16.219  0.7024 -0.0480 -0.0823
  439TMC3     H 6547   0.941   2.388  16.128 -0.9518  0.5959  0.6155
  439TMC3    H1 6548   1.085   2.555  16.493 -1.2851 -1.1251  0.9719
  439TMC3    H2 6549   1.334   2.300  16.262 -0.1485 -0.4081 -2.6017
  439TMC3    C7 6550   1.330   2.462  16.475  0.0472 -0.6405 -0.1456
  439TMC3    C8 6551   1.174   2.263  16.061  0.5130  0.0859  0.2764
  439TMC3    O1 6552   1.300   2.518  16.582 -0.6322 -0.0974  0.2437
  439TMC3    O2 6553   1.276   2.199  16.079 -0.1901 -0.2417  0.0277
  440MPD2     C 6554   4.195   2.841  14.916  0.2142  0.6630  0.2798
  440MPD2    C1 6555   4.206   2.881  15.051  0.0386  0.4674  0.2067
  440MPD2    C2 6556   4.310   2.819  15.122  0.1717 -0.5630  0.5963
  440MPD2    C3 6557   4.384   2.715  15.074  0.0501 -0.2876 -0.3408
  440MPD2    C4 6558   4.357   2.669  14.952 -0.2488 -0.3749  0.0228
  440MPD2    C5 6559   4.263   2.731  14.873  0.9127  0.1632 -0.2010
  440MPD2     H 6560   4.327   2.854  15.224 -4.3073  1.1143  0.8035
  440MPD2    H1 6561   4.405   2.580  14.913  2.5291  1.6915 -1.1993
  440MPD2    H2 6562   4.129   2.883  14.842  1.2609 -0.9969 -1.6041
  440MPD2    H3 6563   4.246   2.695  14.772 -0.4633 -0.1073  0.1293
  440MPD2     N 6564   4.481   2.658  15.162 -0.2233  0.1068 -0.0536
  440MPD2    H5 6565   4.507   2.710  15.245  0.3182 -1.3879  0.6945
  440MPD2    N1 6566   4.126   2.994  15.103 -0.3142 -0.4236  0.0248
  440MPD2    H7 6567   4.158   3.026  15.194 -0.7101 -2.3236  0.8271
  441TMC3    C1 6568   4.657   2.514  15.217  0.1700 -0.4766  0.3264
  441TMC3    C2 6569   0.006   2.623  15.251 -0.2030  0.4452  0.1528
  441TMC3    C3 6570   0.120   2.605  15.322  0.5815 -0.3785  0.1851
  441TMC3    C4 6571   4.702   2.386  15.244  0.8604  0.4956  0.2668
  441TMC3    C5 6572   0.095   2.370  15.314  0.0493  0.0010 -0.0522
  441TMC3    C6 6573   0.175   2.482  15.345  0.0160 -0.2882 -0.3981
  441TMC3     C 6574   4.535   2.533  15.147 -0.1057 -0.2328 -0.1476
  441TMC3     O 6575   4.491   2.440  15.085 -0.4617  0.7650 -0.3317
  441TMC3     H 6576   4.706   2.718  15.202  0.6338  1.1639  1.1688
  441TMC3    H1 6577   4.629   2.307  15.228  0.9137  0.3485  0.7417
  441TMC3    H2 6578   0.265   2.472  15.404  0.7379 -0.1071 -1.4770
  441TMC3    C7 6579   0.084   2.276  15.420  0.1377 -0.2751 -0.8300
  441TMC3    C8 6580   0.178   2.719  15.392  0.1556  0.7239  0.1330
  441TMC3    O1 6581   4.699   2.214  15.429 -0.0312  0.1586  0.0135
  441TMC3    O2 6582   0.297   2.714  15.416 -0.2807  0.9543  0.7547
  442MPD2     C 6583   2.693   3.505  16.384 -0.0171  0.2256 -0.3651
  442MPD2    C1 6584   2.617   3.419  16.464  0.2527 -0.3088  0.6739
  442MPD2    C2 6585   2.598   3.286  16.425 -0.2430 -0.3048 -0.5452
  442MPD2    C3 6586   2.648   3.241  16.302  0.0684 -0.8352  0.2031
  442MPD2    C4 6587   2.722   3.331  16.229  0.7152 -0.5920  0.4210
  442MPD2    C5 6588   2.747   3.457  16.271 -0.3105 -0.1673 -0.5222
  442MPD2     H 6589   2.552   3.215  16.494 -0.1390  0.2139  0.0597
  442MPD2    H1 6590   2.774   3.314  16.135 -0.6224 -0.0927 -0.4086
  442MPD2    H2 6591   2.725   3.606  16.407 -2.6533  1.3068 -1.4533
  442MPD2    H3 6592   2.806   3.530  16.217  3.8956 -1.3771  2.3646
  442MPD2     N 6593   2.626   3.114  16.246  0.3693 -0.1448  0.1067
  442MPD2    H5 6594   2.672   3.104  16.156 -0.4553  2.8066 -0.6509
  442MPD2    N1 6595   2.551   3.474  16.575  0.4374  0.3500 -0.2868
  442MPD2    H7 6596   2.496   3.415  16.636  1.0925  0.7759  0.7103
  443TMC3    C1 6597   2.470   3.640  16.728 -0.9324  0.7145  0.0056
  443TMC3    C2 6598   2.378   3.742  16.710 -0.0962  0.0703  0.8787
  443TMC3    C3 6599   2.251   3.723  16.768  0.0200  0.1538  0.0387
  443TMC3    C4 6600   2.450   3.541  16.820 -0.6494 -0.2113 -0.5644
  443TMC3    C5 6601   2.332   3.539  16.892  0.0163  0.4480  0.7275
  443TMC3    C6 6602   2.229   3.629  16.862 -0.0779  0.2954  0.0009
  443TMC3     C 6603   2.545   3.606  16.606  0.8816  0.5897 -0.2403
  443TMC3     O 6604   2.603   3.708  16.573 -0.3289 -0.0132  0.6374
  443TMC3     H 6605   2.405   3.822  16.642 -2.6229 -0.0547 -0.2642
  443TMC3    H1 6606   2.507   3.450  16.805  1.4819  1.3705 -2.0807
  443TMC3    H2 6607   2.127   3.621  16.898 -0.0233  0.5965  0.2188
  443TMC3    C7 6608   2.301   3.424  16.972  0.6743  0.4011 -0.4197
  443TMC3    C8 6609   2.142   3.824  16.747 -0.2246  0.0017  0.2132
  443TMC3    O1 6610   2.379   3.331  16.961 -0.1728 -0.3417 -0.0659
  443TMC3    O2 6611   2.084   3.853  16.850  0.0418  0.2962  0.0636
  444MPD2     C 6612   2.889   2.916  16.969  0.1424 -0.5693 -0.2421
  444MPD2    C1 6613   2.801   2.808  16.964 -0.7508 -0.6445  0.2288
  444MPD2    C2 6614   2.817   2.726  16.858  0.3105 -0.1371 -0.0135
  444MPD2    C3 6615   2.918   2.741  16.766  0.7452 -0.5499  0.1460
  444MPD2    C4 6616   2.999   2.852  16.769  0.0389 -0.1817  0.3863
  444MPD2    C5 6617   2.991   2.936  16.878 -0.2706  0.2705  0.1662
  444MPD2     H 6618   2.750   2.640  16.851  0.3873 -0.3525  1.8535
  444MPD2    H1 6619   3.071   2.876  16.691 -0.2027 -1.2583 -0.1768
  444MPD2    H2 6620   2.893   2.993  17.046  4.3877 -0.4547 -0.5830
  444MPD2    H3 6621   3.067   3.011  16.897  0.3778 -0.8777  2.1018
  444MPD2     N 6622   2.938   2.635  16.674 -0.3559  0.4573 -0.1475
  444MPD2    H5 6623   2.877   2.556  16.691 -2.2403  1.4122 -2.3632
  444MPD2    N1 6624   2.693   2.796  17.052  0.3705 -0.4825 -0.0003
  444MPD2    H7 6625   2.617   2.735  17.026  0.5177 -2.0489  3.3464
  445TMC3    C1 6626   3.019   2.501  16.505 -0.1549 -0.4451 -0.7797
  445TMC3    C2 6627   2.904   2.433  16.488  1.1706  0.2311 -0.2643
  445TMC3    C3 6628   2.912   2.305  16.441  0.2733 -0.0281 -0.1745
  445TMC3    C4 6629   3.146   2.438  16.497  0.7967  0.2119  0.5785
  445TMC3    C5 6630   3.151   2.301  16.465 -0.2253  0.0901  0.6350
  445TMC3    C6 6631   3.029   2.228  16.436 -0.0536 -0.2600  0.2624
  445TMC3     C 6632   3.022   2.631  16.568  0.2905 -0.4340  0.0320
  445TMC3     O 6633   3.091   2.712  16.510  0.1899 -0.0348 -0.6085
  445TMC3     H 6634   2.815   2.493  16.504  0.5004 -0.4208 -1.6234
  445TMC3    H1 6635   3.232   2.498  16.525  0.2475  2.1112 -1.8517
  445TMC3    H2 6636   3.011   2.122  16.423 -2.7116  0.1684  0.5446
  445TMC3    C7 6637   3.267   2.227  16.490 -0.2846 -0.5473  0.1083
  445TMC3    C8 6638   2.787   2.246  16.382  0.3439  0.0847  0.1556
  445TMC3    O1 6639   3.363   2.288  16.528  0.2239  0.2026  0.3090
  445TMC3    O2 6640   2.687   2.320  16.383 -0.2239  0.0182 -0.5447
  446MPD2     C 6641   2.131   3.644  11.316  0.1510 -0.1561  0.0208
  446MPD2    C1 6642   2.160   3.703  11.192 -0.5848  0.3058  0.5085
  446MPD2    C2 6643   2.277   3.765  11.159  0.5941  0.0626 -0.3092
  446MPD2    C3 6644   2.376   3.751  11.249 -0.0827 -0.1378  0.0963
  446MPD2    C4 6645   2.361   3.696  11.373 -0.4899  0.6455 -0.1647
  446MPD2    C5 6646   2.237   3.650  11.408 -0.8045 -0.7212 -0.0786
  446MPD2     H 6647   2.284   3.799  11.056  1.7559 -1.2186 -0.6479
  446MPD2    H1 6648   2.445   3.701  11.441  0.0019  1.9603 -0.8653
  446MPD2    H2 6649   2.039   3.593  11.343  0.8734 -1.3058  0.2768
  446MPD2    H3 6650   2.210   3.616  11.507  2.1742 -1.5079  0.4710
  446MPD2     N 6651   2.508   3.770  11.199  0.0137  0.0369 -0.2945
  446MPD2    H5 6652   2.517   3.805  11.104 -0.5253  0.8230 -0.0603
  446MPD2    N1 6653   2.069   3.694  11.087  0.0399 -0.5725 -0.4345
  446MPD2    H7 6654   2.089   3.758  11.011 -0.7283 -0.8850 -0.8998
  447TMC3    C1 6655   2.743   3.758  11.185 -0.9213  0.4696 -0.5471
  447TMC3    C2 6656   2.735   3.771  11.048 -0.4718 -0.3471  0.6917
  447TMC3    C3 6657   2.828   3.706  10.969 -0.6835 -0.1926 -0.1204
  447TMC3    C4 6658   2.861   3.722  11.242 -0.7772 -0.2806  0.3855
  447TMC3    C5 6659   2.955   3.662  11.153  0.2377  0.2311  0.3220
  447TMC3    C6 6660   2.941   3.654  11.020 -0.2478 -0.0157  0.2667
  447TMC3     C 6661   2.622   3.727  11.259 -0.0170  0.1777  0.3813
  447TMC3     O 6662   2.631   3.643  11.344 -0.2456 -0.0779 -0.4313
  447TMC3     H 6663   2.656   3.827  10.998  0.8567  0.1752 -0.8246
  447TMC3    H1 6664   2.865   3.705  11.349  1.5864 -0.6125  0.2472
  447TMC3    H2 6665   3.019   3.615  10.955 -1.0023 -1.8944  0.4937
  447TMC3    C7 6666   3.095   3.645  11.201  0.2225 -0.1085 -1.1722
  447TMC3    C8 6667   2.825   3.731  10.831 -0.5629 -0.3238 -0.1695
  447TMC3    O1 6668   3.171   3.578  11.139  0.3231  0.2388  0.4268
  447TMC3    O2 6669   2.781   3.836  10.796 -0.4460 -0.0391  0.0254
  448TMC3    C1 6670   1.276   3.723  17.041 -0.7275 -0.4849  0.5652
  448TMC3    C2 6671   1.147   3.666  17.059 -0.0087 -0.0808 -0.3571
  448TMC3    C3 6672   1.127   3.554  17.137 -0.0261 -0.3580  0.0922
  448TMC3    C4 6673   1.376   3.681  17.128 -0.0273 -0.5341  0.0053
  448TMC3    C5 6674   1.347   3.580  17.211 -0.0871 -0.0776 -0.3221
  448TMC3    C6 6675   1.236   3.508  17.217 -0.3209  0.4734  0.5818
  448TMC3     C 6676   1.290   3.845  16.961  0.1123 -0.4480 -0.3702
  448TMC3     O 6677   1.187   3.870  16.896 -0.7474  0.3640 -0.1283
  448TMC3     H 6678   1.065   3.701  16.999 -1.7380 -0.1733  1.9414
  448TMC3    H1 6679   1.478   3.716  17.134 -0.1359 -0.2223  0.0432
  448TMC3    H2 6680   1.243   3.408  17.260  1.2204  0.4268  0.2252
  448TMC3    C7 6681   1.459   3.528  17.288 -0.1951 -0.4282 -0.0303
  448TMC3    C8 6682   1.059   3.449  17.073  0.2459  0.5853 -0.1873
  448TMC3    O1 6683   1.567   3.534  17.238  0.2127 -0.5536  0.7054
  448TMC3    O2 6684   1.116   3.346  17.045  0.6075  0.2541 -0.0136
  449MPD2     C 6685   2.484   2.077  14.142 -0.3634  0.2351  0.1628
  449MPD2    C1 6686   2.364   2.082  14.085  0.0004  0.4297  0.5997
  449MPD2    C2 6687   2.278   1.984  14.118 -0.0588  0.2819 -0.0720
  449MPD2    C3 6688   2.304   1.876  14.202  0.0709  0.3014  0.1951
  449MPD2    C4 6689   2.429   1.865  14.265 -0.3362 -0.0334 -0.1141
  449MPD2    C5 6690   2.516   1.969  14.231  0.1386  0.1579  1.1725
  449MPD2     H 6691   2.178   1.995  14.078 -0.5875 -0.1640  1.1145
  449MPD2    H1 6692   2.461   1.780  14.323  1.2571  2.2282  2.3140
  449MPD2    H2 6693   2.559   2.149  14.113 -0.3165  0.5745  1.1350
  449MPD2    H3 6694   2.613   1.969  14.278  1.1861  2.3734 -1.0071
  449MPD2     N 6695   2.205   1.775  14.212  0.3370  0.2392 -1.0525
  449MPD2    H5 6696   2.126   1.788  14.150 -0.1406  2.3516  0.0217
  449MPD2    N1 6697   2.320   2.175  13.987 -0.2316  0.7820 -0.6044
  449MPD2    H7 6698   2.220   2.171  13.971 -0.4466  0.7285  0.7531
  450TMC3    C1 6699   2.302   2.333  13.817 -0.9657  0.2510  0.1540
  450TMC3    C2 6700   2.329   2.318  13.687  0.0253 -0.1558 -0.3126
  450TMC3    C3 6701   2.220   2.307  13.606 -0.3249 -0.1636  0.1222
  450TMC3    C4 6702   2.169   2.337  13.868 -0.0019  0.6100 -0.0940
  450TMC3    C5 6703   2.064   2.311  13.787  0.1445 -0.0805  0.3123
  450TMC3    C6 6704   2.088   2.300  13.647 -0.0231 -0.4299 -0.1015
  450TMC3     C 6705   2.396   2.266  13.917  0.1244 -0.4911 -0.1243
  450TMC3     O 6706   2.516   2.294  13.923 -0.0749  0.0499  0.1645
  450TMC3     H 6707   2.432   2.327  13.653  0.0402  1.2350  0.0937
  450TMC3    H1 6708   2.139   2.357  13.970  0.3555 -1.0359  0.3241
  450TMC3    H2 6709   2.009   2.281  13.576 -0.2774  1.4360 -0.3170
  450TMC3    C7 6710   1.981   2.209  13.853 -0.3444 -0.5569  0.2309
  450TMC3    C8 6711   2.237   2.348  13.465 -0.2970 -1.2955  1.0161
  450TMC3    O1 6712   2.035   2.160  13.951 -0.8084 -0.1373  0.1524
  450TMC3    O2 6713   2.138   2.398  13.413 -0.4272 -0.0875 -0.2507
  451MPD2     C 6714   3.864   1.597   1.062 -0.1703  0.6578 -0.2072
  451MPD2    C1 6715   3.841   1.629   1.195 -0.0250 -1.0697 -0.0309
  451MPD2    C2 6716   3.944   1.639   1.286  0.5099 -0.7539  0.4073
  451MPD2    C3 6717   4.069   1.589   1.246  0.1987  0.5057 -0.1364
  451MPD2    C4 6718   4.100   1.558   1.113  0.2125 -0.4120 -0.5913
  451MPD2    C5 6719   3.995   1.574   1.025 -0.4191 -0.3940 -0.3815
  451MPD2     H 6720   3.925   1.657   1.391 -0.6941 -0.3109  0.1214
  451MPD2    H1 6721   4.199   1.530   1.080  0.5812  0.4155 -0.1781
  451MPD2    H2 6722   3.786   1.587   0.987  0.2727  3.0727 -0.9767
  451MPD2    H3 6723   4.000   1.545   0.921  0.3964 -1.2587 -0.0956
  451MPD2     N 6724   4.186   1.570   1.332 -0.3434  0.4998 -0.2218
  451MPD2    H5 6725   4.277   1.544   1.295  0.4266  2.2992  0.3755
  451MPD2    N1 6726   3.710   1.663   1.232  0.2451  0.2952  0.6135
  451MPD2    H7 6727   3.648   1.677   1.152 -2.2775 -0.3769  2.4526
  452TMC3    C1 6728   4.318   1.546   1.520  0.3008  0.5061 -0.0956
  452TMC3    C2 6729   4.309   1.516   1.651 -0.6244 -0.0028  0.2608
  452TMC3    C3 6730   4.423   1.457   1.707  0.3737  0.4297 -0.1046
  452TMC3    C4 6731   4.439   1.533   1.441  0.6195 -0.0927  0.0718
  452TMC3    C5 6732   4.536   1.473   1.504 -0.2750 -0.5649 -0.7205
  452TMC3    C6 6733   4.536   1.439   1.633  0.2134  0.3868  0.8408
  452TMC3     C 6734   4.187   1.572   1.470  0.0652 -0.1398  0.3057
  452TMC3     O 6735   4.089   1.584   1.544 -0.0532  0.0376  0.1030
  452TMC3     H 6736   4.224   1.537   1.714  0.1930 -1.4299  1.8346
  452TMC3    H1 6737   4.443   1.547   1.333 -0.5653  0.6351  0.1216
  452TMC3    H2 6738   4.624   1.392   1.677  0.1963  0.0457  0.5062
  452TMC3    C7 6739   4.666   1.450   1.437 -0.2262  0.0903 -0.5695
  452TMC3    C8 6740   4.435   1.460   1.856 -0.0509 -0.1535  0.4374
  452TMC3    O1 6741   4.716   1.342   1.468  0.4278  0.7804 -0.0430
  452TMC3    O2 6742   4.527   1.396   1.904  0.0194  0.7075 -0.2737
  453TMC3    C1 6743   0.109   3.184  11.302 -0.5033  0.1833 -0.2680
  453TMC3    C2 6744   0.056   3.063  11.316  0.3992 -0.1936 -0.5102
  453TMC3    C3 6745   4.702   3.011  11.214  0.5923 -0.2469 -0.7360
  453TMC3    C4 6746   0.072   3.267  11.197  0.3391 -0.3274  0.0172
  453TMC3    C5 6747   4.702   3.217  11.106 -0.7250  0.1233  0.4343
  453TMC3    C6 6748   4.658   3.086  11.111 -0.3347 -0.0682  0.1215
  453TMC3     C 6749   0.191   3.246  11.402  0.2415 -0.0254  0.0134
  453TMC3     O 6750   0.263   3.342  11.361 -0.4902 -0.5428 -0.2256
  453TMC3     H 6751   0.097   3.000  11.394  2.5959  0.5029 -1.0931
  453TMC3    H1 6752   0.123   3.361  11.179 -1.8281  0.4784 -2.0032
  453TMC3    H2 6753   4.583   3.052  11.040  0.5434 -1.4957 -0.1420
  453TMC3    C7 6754   4.717   3.275  10.977  0.3046  0.9299 -0.8929
  453TMC3    C8 6755   4.611   2.908  11.258  0.8433  0.2222  0.1891
  453TMC3    O1 6756   0.053   3.207  10.895  0.0946  0.6498  0.4377
  453TMC3    O2 6757   4.489   2.918  11.236  0.0660  0.0553  0.2220
  454MPD2     C 6758   3.601   2.524  16.210 -0.2232  0.6153  0.1997
  454MPD2    C1 6759   3.551   2.586  16.097 -0.2852 -1.2051 -0.0007
  454MPD2    C2 6760   3.484   2.705  16.107  0.0620 -0.1289 -1.0404
  454MPD2    C3 6761   3.442   2.750  16.232 -0.8850 -0.1296  1.3170
  454MPD2    C4 6762   3.488   2.681  16.345 -0.2456  0.1216  0.5827
  454MPD2    C5 6763   3.564   2.568  16.331 -0.4477 -0.4305  0.3885
  454MPD2     H 6764   3.447   2.742  16.013  0.5734  0.7118 -0.9136
  454MPD2    H1 6765   3.456   2.712  16.444  1.9379 -0.1959  1.3892
  454MPD2    H2 6766   3.682   2.452  16.210 -1.7147 -1.0621 -0.7597
  454MPD2    H3 6767   3.607   2.513  16.413 -2.1824 -3.4431 -0.7220
  454MPD2     N 6768   3.353   2.865  16.249  0.6882  0.0244  0.2806
  454MPD2    H5 6769   3.325   2.882  16.345  0.8094  1.5351  0.0459
  454MPD2    N1 6770   3.568   2.532  15.967  0.1307  0.4070 -0.7973
  454MPD2    H7 6771   3.547   2.596  15.891  0.1291 -0.3934 -1.4636
  455TMC3    C1 6772   3.163   2.970  16.185  0.0395  0.6001  0.5387
  455TMC3    C2 6773   3.142   3.017  16.313 -0.2962 -0.7394 -0.4148
  455TMC3    C3 6774   3.022   2.982  16.377  0.1298  0.2755 -0.4112
  455TMC3    C4 6775   3.083   2.878  16.121 -0.1759  0.3370  0.1908
  455TMC3    C5 6776   2.971   2.834  16.196 -0.3146 -0.1787  0.6213
  455TMC3    C6 6777   2.937   2.885  16.318 -0.0770  0.0509 -0.3596
  455TMC3     C 6778   3.305   2.945  16.153  0.3350 -0.3210  0.1603
  455TMC3     O 6779   3.330   2.938  16.034 -0.1877  0.6720  0.1082
  455TMC3     H 6780   3.207   3.094  16.352 -1.3931 -0.3289  0.5937
  455TMC3    H1 6781   3.107   2.841  16.022  1.6832 -1.8613  1.4739
  455TMC3    H2 6782   2.841   2.869  16.366  0.1566 -2.2357 -0.6805
  455TMC3    C7 6783   2.946   2.690  16.185 -0.7600 -0.2770  0.2010
  455TMC3    C8 6784   2.958   3.064  16.474  0.1985  0.6415  0.4264
  455TMC3    O1 6785   2.832   2.646  16.190 -0.5385 -0.6103  0.5830
  455TMC3    O2 6786   2.836   3.061  16.468 -0.5804 -0.2987 -0.1387
  456MPD2     C 6787   1.271   2.667  15.837 -0.3426 -0.3926 -1.1590
  456MPD2    C1 6788   1.322   2.607  15.947  1.2919 -0.2625  0.8658
  456MPD2    C2 6789   1.289   2.648  16.079  0.2814 -0.1419 -0.0533
  456MPD2    C3 6790   1.198   2.753  16.097 -0.0336  0.6359  0.2637
  456MPD2    C4 6791   1.137   2.806  15.982 -0.0629 -0.7549 -0.9935
  456MPD2    C5 6792   1.175   2.763  15.860  0.0897 -0.6591 -0.0947
  456MPD2     H 6793   1.348   2.619  16.165  1.1854  0.5849 -0.4346
  456MPD2    H1 6794   1.056   2.878  15.976  2.1002  1.7788  0.0410
  456MPD2    H2 6795   1.296   2.650  15.733 -2.2360 -1.8490 -1.3776
  456MPD2    H3 6796   1.113   2.804  15.781 -0.8562 -2.0887 -0.0885
  456MPD2     N 6797   1.178   2.808  16.230  1.1637 -0.2375 -0.3480
  456MPD2    H5 6798   1.230   2.764  16.305 -0.3169  0.7806  1.2816
  456MPD2    N1 6799   1.417   2.501  15.924 -0.3182 -0.5689  0.5279
  456MPD2    H7 6800   1.444   2.486  15.827  0.8959  0.0478  0.7746
  457TMC3    C1 6801   1.052   2.910  16.407 -0.3234  0.5459  0.2400
  457TMC3    C2 6802   0.926   2.946  16.441  0.1434  0.0331  0.1085
  457TMC3    C3 6803   0.891   2.934  16.574  0.3576 -0.3651  0.8442
  457TMC3    C4 6804   1.137   2.855  16.503  0.3312  0.1564  0.5181
  457TMC3    C5 6805   1.097   2.838  16.632  0.5904  0.2132 -0.0945
  457TMC3    C6 6806   0.973   2.876  16.673 -0.3731  0.3413 -0.8459
  457TMC3     C 6807   1.088   2.909  16.265  0.1455 -0.2211 -0.0659
  457TMC3     O 6808   1.024   2.973  16.187 -0.0249 -0.6901  0.5938
  457TMC3     H 6809   0.867   2.994  16.364  0.8217 -0.8468 -0.9835
  457TMC3    H1 6810   1.239   2.826  16.484  0.9284  1.5842  1.5278
  457TMC3    H2 6811   0.941   2.869  16.776 -2.0554 -0.0566 -1.3941
  457TMC3    C7 6812   1.209   2.835  16.732 -0.2024  0.0289 -0.4267
  457TMC3    C8 6813   0.801   3.039  16.618 -0.2693  0.1083 -0.2438
  457TMC3    O1 6814   1.190   2.856  16.853  0.0081 -0.1671 -0.0917
  457TMC3    O2 6815   0.706   3.059  16.545 -0.4332 -0.2610 -0.6805
  458MPD2     C 6816   3.470   2.513  11.817 -0.2918 -1.0138 -0.8203
  458MPD2    C1 6817   3.508   2.437  11.929  0.3829  0.8211 -0.5280
  458MPD2    C2 6818   3.411   2.353  11.988 -0.0940 -0.2106  0.1502
  458MPD2    C3 6819   3.282   2.345  11.945  0.2124  0.4980 -0.4071
  458MPD2    C4 6820   3.241   2.422  11.836  0.5442  0.3641  0.8378
  458MPD2    C5 6821   3.335   2.503  11.780 -0.5076 -0.3182  0.3731
  458MPD2     H 6822   3.431   2.282  12.066 -1.5217  0.5131  1.1788
  458MPD2    H1 6823   3.157   2.410  11.769 -1.3023  1.1274  3.0522
  458MPD2    H2 6824   3.540   2.570  11.756  0.6098 -0.6422  0.5757
  458MPD2    H3 6825   3.312   2.559  11.690 -0.7388  0.7582  1.0960
  458MPD2     N 6826   3.201   2.259  12.022  0.3578 -0.6118 -0.3199
  458MPD2    H5 6827   3.243   2.207  12.099 -0.4034 -1.7648 -0.6787
  458MPD2    N1 6828   3.645   2.438  11.975 -0.6441 -0.2082  0.3563
  458MPD2    H7 6829   3.708   2.506  11.934 -0.6395  0.7843  2.0156
  459TMC3    C1 6830   3.830   2.373  12.132 -0.2106  0.6719 -0.6102
  459TMC3    C2 6831   3.910   2.469  12.082  0.6736 -0.8467  0.1351
  459TMC3    C3 6832   4.022   2.505  12.157  0.3551  0.0037  1.0791
  459TMC3    C4 6833   3.851   2.325  12.256  0.9135 -1.0292  0.4372
  459TMC3    C5 6834   3.962   2.350  12.327 -0.3469 -0.6095  0.0709
  459TMC3    C6 6835   4.053   2.444  12.278  0.7160 -0.4581  0.4249
  459TMC3     C 6836   3.696   2.349  12.073  0.6903  0.5007  0.4525
  459TMC3     O 6837   3.646   2.241  12.104 -0.2149 -0.3778  0.1922
  459TMC3     H 6838   3.904   2.491  11.976  3.1413  0.0880  0.1872
  459TMC3    H1 6839   3.799   2.234  12.282  1.7357 -1.7386 -0.4050
  459TMC3    H2 6840   4.140   2.471  12.336  1.2756 -2.8040  0.6775
  459TMC3    C7 6841   3.961   2.313  12.467 -0.1416 -0.3352 -0.6511
  459TMC3    C8 6842   4.138   2.554  12.085 -0.2035 -0.0106 -0.3007
  459TMC3    O1 6843   4.062   2.313  12.534 -0.0989  0.3074  0.4037
  459TMC3    O2 6844   4.250   2.518  12.125  0.4284 -0.0302 -0.0514
  460MPD2     C 6845   2.866   3.484  10.562  0.0986  0.5689  0.2075
  460MPD2    C1 6846   2.856   3.607  10.625  0.0186  0.2530  0.9104
  460MPD2    C2 6847   2.868   3.722  10.542 -0.4887 -0.9039  0.2221
  460MPD2    C3 6848   2.884   3.702  10.402  0.7011  0.2947  0.0768
  460MPD2    C4 6849   2.878   3.573  10.349  0.0555 -0.6669 -0.0860
  460MPD2    C5 6850   2.873   3.463  10.426  0.5383  0.1934  0.4091
  460MPD2     H 6851   2.880   3.821  10.586  0.0203 -1.2018  0.7500
  460MPD2    H1 6852   2.879   3.556  10.242 -1.3003  0.1731 -0.2305
  460MPD2    H2 6853   2.851   3.396  10.624 -0.8900 -0.1092 -0.9972
  460MPD2    H3 6854   2.867   3.367  10.377 -1.7005  0.9041 -0.7037
  460MPD2     N 6855   2.921   3.816  10.317  0.2164  0.4492  0.5852
  460MPD2    H5 6856   2.896   3.904  10.361 -0.5382  0.7136 -0.3870
  460MPD2    N1 6857   2.854   3.612  10.760  0.1948  0.0221 -0.7615
  460MPD2    H7 6858   2.864   3.523  10.808 -0.5274  0.2605 -0.1730
  461TMC3    C1 6859   2.980   3.927  10.120 -0.6510  0.0321 -0.8644
  461TMC3    C2 6860   2.985   3.908   9.982 -0.2639  0.2801 -0.2667
  461TMC3    C3 6861   3.026   4.015   9.907  0.6893 -0.0821 -0.3908
  461TMC3    C4 6862   3.019   4.044  10.187  0.9983  0.2084 -0.2917
  461TMC3    C5 6863   3.062   4.145  10.104  0.6012 -0.0868  0.2375
  461TMC3    C6 6864   3.061   4.135   9.964  0.6420 -0.7633  0.2320
  461TMC3     C 6865   2.965   3.801  10.193 -0.5795 -0.2323  0.4350
  461TMC3     O 6866   2.994   3.702  10.128 -0.2596  0.6455 -0.1480
  461TMC3     H 6867   2.960   3.814   9.933  1.1234 -0.0999 -0.2429
  461TMC3    H1 6868   3.037   4.044  10.294 -0.0396 -0.3059 -0.1238
  461TMC3    H2 6869   3.090   4.212   9.893  1.5472 -2.0392 -0.7797
  461TMC3    C7 6870   3.076   4.272  10.165  0.1820  0.5862  0.3783
  461TMC3    C8 6871   3.104   3.983   9.793  0.1114 -0.1151 -0.1662
  461TMC3    O1 6872   3.077   4.366  10.087  0.1953 -0.1095 -0.0886
  461TMC3    O2 6873   3.139   3.868   9.778 -0.4479 -0.2714  0.1010
  462TMC3    C1 6874   2.617   0.891   0.911  0.1356  0.1975  0.1158
  462TMC3    C2 6875   2.721   0.806   0.940  0.1868  0.3179  0.1909
  462TMC3    C3 6876   2.696   0.670   0.924 -0.4895  0.3544  0.1593
  462TMC3    C4 6877   2.500   0.837   0.851 -0.8117 -0.2801 -0.7413
  462TMC3    C5 6878   2.497   0.706   0.824  0.4313 -0.4162 -0.5167
  462TMC3    C6 6879   2.579   0.609   0.876  0.0037 -0.3612 -0.3985
  462TMC3     C 6880   2.629   1.033   0.938 -0.1601 -0.7029  0.9485
  462TMC3     O 6881   2.738   1.080   0.965 -0.2860  0.6068 -0.1786
  462TMC3     H 6882   2.812   0.843   0.984  0.3057  0.8720 -0.5306
  462TMC3    H1 6883   2.430   0.906   0.805  0.1657 -0.5177 -2.6092
  462TMC3    H2 6884   2.578   0.505   0.844  1.1861 -0.0827 -1.3549
  462TMC3    C7 6885   2.403   0.656   0.724 -0.9368  0.1671 -0.1704
  462TMC3    C8 6886   2.806   0.575   0.912 -0.2530  0.2740  0.2353
  462TMC3    O1 6887   2.361   0.543   0.741 -0.2885  0.3814  0.0583
  462TMC3    O2 6888   2.790   0.455   0.936  0.0223  0.2019 -0.3599
  463MPD2     C 6889   0.038   3.002   1.945 -0.4430  0.7614  0.4096
  463MPD2    C1 6890   4.678   3.096   1.993 -0.1520 -0.4737 -0.1571
  463MPD2    C2 6891   4.721   3.226   2.003  0.3137  0.1634 -0.5416
  463MPD2    C3 6892   0.132   3.248   1.973 -0.0388 -0.1793  0.0433
  463MPD2    C4 6893   0.219   3.149   1.945  0.0630  0.8438  0.0943
  463MPD2    C5 6894   0.170   3.024   1.935  0.9648  0.1045 -0.1382
  463MPD2     H 6895   4.646   3.301   2.025 -1.2165 -1.9016  1.3974
  463MPD2    H1 6896   0.323   3.176   1.938  0.3995 -0.9558 -1.9061
  463MPD2    H2 6897   0.004   2.899   1.934  1.2328  0.0052  2.3352
  463MPD2    H3 6898   0.231   2.941   1.901 -1.2075 -1.8984  0.8731
  463MPD2     N 6899   0.188   3.380   1.970 -0.4671  0.2078 -0.9162
  463MPD2    H5 6900   0.283   3.382   1.933 -0.2497  0.4308 -0.3495
  463MPD2    N1 6901   4.538   3.068   2.014  0.1940  0.2310 -0.4064
  463MPD2    H7 6902   4.496   3.148   2.061  4.3051  1.3835  1.2647
  464TMC3    C1 6903   4.326   2.985   1.978 -0.4292  1.2510  0.1311
  464TMC3    C2 6904   4.277   3.103   1.936 -0.0722  0.4646 -0.1474
  464TMC3    C3 6905   4.143   3.104   1.917  0.7461  0.3345  0.3475
  464TMC3    C4 6906   4.252   2.873   1.993  0.2363  0.5162 -0.0048
  464TMC3    C5 6907   4.120   2.880   1.960 -1.1517 -0.3258  0.9260
  464TMC3    C6 6908   4.063   2.997   1.923 -0.9543  0.3092  0.8966
  464TMC3     C 6909   4.464   2.961   1.962  0.5176  0.4614  0.4952
  464TMC3     O 6910   4.497   2.863   1.907 -0.3719  0.2687  0.2875
  464TMC3     H 6911   4.345   3.181   1.904  0.9542 -0.5278 -0.3621
  464TMC3    H1 6912   4.307   2.782   2.016  0.3317  0.0513 -2.0306
  464TMC3    H2 6913   3.958   3.016   1.901 -0.9040  0.8768  1.1437
  464TMC3    C7 6914   4.040   2.777   2.020 -0.2971 -0.5647  0.3863
  464TMC3    C8 6915   4.086   3.226   1.870  0.2530  1.0473 -0.1294
  464TMC3    O1 6916   4.087   2.682   2.074  0.2599  0.4043  0.4163
  464TMC3    O2 6917   3.973   3.229   1.827  0.0580  0.1573  0.5742
  465MPD2     C 6918   0.143   2.365  17.359  0.3593  0.3414 -0.9504
  465MPD2    C1 6919   0.046   2.280  17.311 -0.6551 -0.4016  1.1004
  465MPD2    C2 6920   4.709   2.300  17.189 -0.0513 -0.0796  0.5284
  465MPD2    C3 6921   0.043   2.382  17.095 -0.0173 -0.2892 -0.4032
  465MPD2    C4 6922   0.143   2.464  17.142  1.0193  0.1359  0.5412
  465MPD2    C5 6923   0.197   2.453  17.273 -0.0825 -0.7629 -0.8175
  465MPD2     H 6924   4.634   2.224  17.167  0.5790 -0.3336 -0.7522
  465MPD2    H1 6925   0.175   2.550  17.083  1.5278 -1.2180 -1.1681
  465MPD2    H2 6926   0.189   2.365  17.457 -1.2986  1.6441 -0.1516
  465MPD2    H3 6927   0.271   2.525  17.306 -0.5784 -0.2982 -0.7016
  465MPD2     N 6928   4.716   2.380  16.962  0.5335  0.3559  0.6421
  465MPD2    H5 6929   4.620   2.350  16.947  0.0560  2.1412  0.1942
  465MPD2    N1 6930   4.719   2.178  17.396  0.1148 -0.0492  0.4265
  465MPD2    H7 6931   4.627   2.143  17.375  0.1977  0.3940 -0.7083
  466TMC3    C1 6932   4.490   2.547  16.686  0.1043  0.1544  0.0522
  466TMC3    C2 6933   4.545   2.654  16.628  0.1099 -0.0940 -0.8325
  466TMC3    C3 6934   4.682   2.673  16.625  0.5446 -0.0022  0.3223
  466TMC3    C4 6935   4.572   2.459  16.751 -0.0377 -0.1785  0.1630
  466TMC3    C5 6936   4.710   2.478  16.746 -0.2103  0.2388 -0.2142
  466TMC3    C6 6937   0.044   2.579  16.677 -0.3191  0.1463 -0.2936
  466TMC3     C 6938   4.359   2.555  16.753 -0.2126 -0.5337 -0.5545
  466TMC3     O 6939   4.360   2.512  16.866 -0.4279  0.2785 -0.1280
  466TMC3     H 6940   4.486   2.729  16.577 -2.2946 -0.5736  1.2354
  466TMC3    H1 6941   4.520   2.380  16.804  1.4262 -1.2456  0.0424
  466TMC3    H2 6942   0.152   2.587  16.671 -0.3823  0.2613 -1.2397
  466TMC3    C7 6943   0.067   2.434  16.861  0.2237 -0.0609  0.0382
  466TMC3    C8 6944   0.007   2.795  16.569  0.6043 -0.6927  0.6493
  466TMC3    O1 6945   0.188   2.463  16.856  0.0600 -0.0715  0.2088
  466TMC3    O2 6946   0.120   2.803  16.521  0.6714 -0.4772 -0.0203
  467TMC3    C1 6947   0.999   1.848  13.472  0.2936 -0.3552  0.5376
  467TMC3    C2 6948   1.059   1.969  13.446  0.0160 -0.2294 -0.1414
  467TMC3    C3 6949   0.985   2.079  13.412  0.5720  0.4455 -0.3409
  467TMC3    C4 6950   0.870   1.825  13.442 -0.3645  0.2572 -0.0540
  467TMC3    C5 6951   0.791   1.931  13.401 -0.4785  0.5401 -0.4477
  467TMC3    C6 6952   0.850   2.058  13.371  0.0596  0.2604 -0.1472
  467TMC3     C 6953   1.034   1.780  13.598 -0.6304  0.3478 -0.1487
  467TMC3     O 6954   0.947   1.738  13.669  0.4601  0.1127  0.1034
  467TMC3     H 6955   1.159   1.991  13.483 -0.8714  0.9321  1.5861
  467TMC3    H1 6956   0.836   1.726  13.470 -2.1603  1.3884  1.8544
  467TMC3    H2 6957   0.790   2.138  13.329  0.5167 -0.2304 -1.7333
  467TMC3    C7 6958   0.646   1.920  13.380  0.5818 -0.3008 -0.0734
  467TMC3    C8 6959   1.037   2.205  13.369  0.8537 -0.1097 -0.3994
  467TMC3    O1 6960   0.593   2.027  13.351  0.5344  0.1355  0.0537
  467TMC3    O2 6961   0.949   2.291  13.374  0.1107  0.0645  0.1176
  468MPD2     C 6962   4.142   4.402  10.523  0.0571  0.0567 -0.3800
  468MPD2    C1 6963   4.281   4.419  10.539 -0.2118  0.0823  0.0832
  468MPD2    C2 6964   4.356   4.306  10.530 -0.2712 -0.4945  0.2782
  468MPD2    C3 6965   4.309   4.180  10.488 -0.2262 -0.0814  0.6397
  468MPD2    C4 6966   4.169   4.175  10.476  0.4231 -0.2186  0.1743
  468MPD2    C5 6967   4.087   4.283  10.487 -0.3665  0.0163 -0.4011
  468MPD2     H 6968   4.462   4.309  10.553 -0.7126  1.6209  1.9715
  468MPD2    H1 6969   4.121   4.083  10.444  0.2194 -0.5278  1.3725
  468MPD2    H2 6970   4.074   4.485  10.541 -1.2850 -1.0073 -0.5126
  468MPD2    H3 6971   3.981   4.262  10.479 -0.3002 -0.8187  0.9521
  468MPD2     N 6972   4.390   4.059  10.483 -0.4211 -0.0344 -0.7443
  468MPD2    H5 6973   4.339   3.972  10.470  1.2211 -1.3004  1.2210
  468MPD2    N1 6974   4.349   4.531  10.591  0.5808 -0.3933 -0.0012
  468MPD2    H7 6975   4.449   4.530  10.610  0.3917 -1.7359  0.9339
  469TMC3    C1 6976   4.390   4.713  10.716 -0.1073  0.0568  0.6166
  469TMC3    C2 6977   4.520   4.694  10.686 -0.5194  0.2426  0.3044
  469TMC3    C3 6978   4.610   4.669  10.790  0.4016  0.6552  0.1875
  469TMC3    C4 6979   4.349   0.007  10.850 -0.6037 -0.6486  0.8311
  469TMC3    C5 6980   4.455   0.017  10.940  0.5778  0.2005 -0.0487
  469TMC3    C6 6981   4.580   4.697  10.919 -0.7283 -0.2350 -0.3980
  469TMC3     C 6982   4.290   4.643  10.637 -0.1526 -0.3887 -0.3862
  469TMC3     O 6983   4.172   4.670  10.666 -0.3469 -0.0035  0.1073
  469TMC3     H 6984   4.547   4.674  10.583  1.0606 -1.5664  1.0617
  469TMC3    H1 6985   4.247   0.031  10.876 -0.9711 -1.0560 -0.2456
  469TMC3    H2 6986   4.653   4.708  10.999 -0.3083 -2.2140 -0.5159
  469TMC3    C7 6987   4.427   0.035  11.084 -0.2357 -0.3630  0.1773
  469TMC3    C8 6988   4.675   4.538  10.766 -0.5055 -0.4600 -0.6041
  469TMC3    O1 6989   4.518   0.080  11.154  0.4756 -0.1711 -0.9100
  469TMC3    O2 6990   4.665   4.503  10.653 -0.0546  0.2030 -0.4343
  470TMC3    C1 6991   2.242   0.352   1.296  0.0785  0.1800 -0.6180
  470TMC3    C2 6992   2.279   0.477   1.248  0.3461 -0.1024  0.0842
  470TMC3    C3 6993   2.231   0.583   1.326  0.3509 -0.7447 -0.2158
  470TMC3    C4 6994   2.186   0.326   1.417 -1.1192 -0.6896  0.0020
  470TMC3    C5 6995   2.146   0.433   1.489 -0.8121 -0.1794 -0.1955
  470TMC3    C6 6996   2.163   0.566   1.447 -0.2165 -0.5310  0.4782
  470TMC3     C 6997   2.279   0.225   1.231  0.0366  0.0756  0.4493
  470TMC3     O 6998   2.269   0.118   1.292 -0.4164  0.1645  0.1522
  470TMC3     H 6999   2.340   0.488   1.159 -0.9326  0.0130 -0.7858
  470TMC3    H1 7000   2.162   0.226   1.453 -0.3718 -0.4933  1.0533
  470TMC3    H2 7001   2.131   0.648   1.510 -1.9350 -0.0385 -1.0529
  470TMC3    C7 7002   2.054   0.395   1.593 -0.1440 -0.4537  0.2600
  470TMC3    C8 7003   2.286   0.714   1.313 -0.4037  0.1872  0.1884
  470TMC3    O1 7004   1.991   0.289   1.574 -0.6092  0.3949  0.0221
  470TMC3    O2 7005   2.211   0.805   1.356 -0.4077  0.6082 -0.6270
  471MPD2     C 7006   3.006   1.673  16.557 -0.1718  0.2045  0.1856
  471MPD2    C1 7007   2.909   1.586  16.611  0.9189 -0.2618  0.3595
  471MPD2    C2 7008   2.856   1.608  16.737 -0.5383 -0.4051 -0.3513
  471MPD2    C3 7009   2.911   1.704  16.816 -0.6791 -0.4092 -0.6292
  471MPD2    C4 7010   3.007   1.789  16.761 -0.0619 -0.1333 -0.1395
  471MPD2    C5 7011   3.046   1.778  16.628 -1.0010  0.1486 -0.1529
  471MPD2     H 7012   2.765   1.556  16.765 -0.1560 -1.1678 -0.5373
  471MPD2    H1 7013   3.053   1.873  16.811 -0.5569 -0.1487  0.3293
  471MPD2    H2 7014   3.050   1.655  16.460  0.7087  1.3091  0.3721
  471MPD2    H3 7015   3.120   1.842  16.582 -1.1287  0.3995 -0.0116
  471MPD2     N 7016   2.869   1.735  16.952  0.3333 -0.0052  0.1985
  471MPD2    H5 7017   2.901   1.827  16.983 -0.4325  0.1184  0.6212
  471MPD2    N1 7018   2.866   1.472  16.539  0.3165 -0.3897  0.7269
  471MPD2    H7 7019   2.782   1.422  16.564 -0.7316  0.5362 -0.9063
  472TMC3    C1 7020   2.860   1.310  16.379 -0.4479  0.3467  0.0857
  472TMC3    C2 7021   2.751   1.355  16.322 -0.0499 -0.0086  0.0310
  472TMC3    C3 7022   2.687   1.268  16.233 -0.5330 -0.1150 -0.7971
  472TMC3    C4 7023   2.934   1.206  16.339 -0.0325 -0.1273 -0.2433
  472TMC3    C5 7024   2.866   1.118  16.256  0.2893  0.4374 -0.1414
  472TMC3    C6 7025   2.738   1.143  16.203 -0.3452  0.1784 -0.1452
  472TMC3     C 7026   2.940   1.408  16.446  0.3741  0.2074  0.2280
  472TMC3     O 7027   3.061   1.412  16.419  0.1992 -0.2980  0.4291
  472TMC3     H 7028   2.704   1.451  16.343  0.8394  0.1377  1.3379
  472TMC3    H1 7029   3.027   1.181  16.390 -0.4249  1.5905  1.2999
  472TMC3    H2 7030   2.686   1.084  16.129 -1.3952 -0.2346  0.9030
  472TMC3    C7 7031   2.907   0.977  16.258 -0.8584 -0.3735  0.1643
  472TMC3    C8 7032   2.563   1.309  16.170  0.0067  0.3953 -0.0250
  472TMC3    O1 7033   3.006   0.949  16.327 -0.0498 -0.4459  0.0393
  472TMC3    O2 7034   2.528   1.427  16.153  0.5203  0.3185  0.3190
  473MPD2     C 7035   2.760   3.528  13.908  0.0931 -0.1691 -0.0339
  473MPD2    C1 7036   2.767   3.625  13.813  0.6217 -0.1871 -0.2110
  473MPD2    C2 7037   2.797   3.755  13.848  0.0536  0.2208 -0.9563
  473MPD2    C3 7038   2.814   3.791  13.985  0.1950 -0.0192  0.8666
  473MPD2    C4 7039   2.803   3.686  14.079 -0.4111  0.3374  0.1975
  473MPD2    C5 7040   2.765   3.560  14.037 -0.4105 -0.5411 -0.1499
  473MPD2     H 7041   2.806   3.827  13.767  3.2649 -0.1691 -0.9364
  473MPD2    H1 7042   2.825   3.699  14.184  0.5849 -0.2758  0.0721
  473MPD2    H2 7043   2.728   3.425  13.893  0.5984 -0.1336 -1.3705
  473MPD2    H3 7044   2.764   3.475  14.105  2.5378 -0.2260  0.3005
  473MPD2     N 7045   2.835   3.920  14.035 -0.1548 -0.7651  0.3341
  473MPD2    H5 7046   2.847   3.938  14.134 -1.7304  0.5786  0.2733
  473MPD2    N1 7047   2.727   3.604  13.678 -0.1448  0.7673 -0.1682
  473MPD2    H7 7048   2.700   3.682  13.619  0.2960  2.1829  1.5061
  474TMC3    C1 7049   2.863   4.156  14.035 -0.2747 -0.0880 -0.8312
  474TMC3    C2 7050   2.848   4.273  13.959 -0.1220  0.3920 -0.3841
  474TMC3    C3 7051   2.869   4.389  14.014  0.1258 -0.5294  0.4379
  474TMC3    C4 7052   2.891   4.159  14.168  0.0644 -0.8948 -1.4458
  474TMC3    C5 7053   2.901   4.283  14.227 -0.4601 -0.1646 -0.7354
  474TMC3    C6 7054   2.903   4.396  14.147  0.7677 -0.4449  0.9242
  474TMC3     C 7055   2.806   4.039  13.964 -0.1085 -0.6173  0.4377
  474TMC3     O 7056   2.763   4.037  13.850  0.2202 -0.0575 -0.0490
  474TMC3     H 7057   2.815   4.262  13.856 -0.4645  0.6957 -0.3052
  474TMC3    H1 7058   2.918   4.069  14.223 -0.2968 -0.1288 -0.0273
  474TMC3    H2 7059   2.915   4.494  14.192  0.0753  0.7482 -1.4726
  474TMC3    C7 7060   2.913   4.298  14.370  0.3617  0.2542 -0.7106
  474TMC3    C8 7061   2.804   4.497  13.942  0.9952  0.5855  0.3488
  474TMC3    O1 7062   2.930   4.407  14.419 -0.4641  0.3668  0.3245
  474TMC3    O2 7063   2.699   4.465  13.883  0.5919  0.2994  0.3099
  475MPD2     C 7064   1.072   1.466  10.243  0.2766  0.3778 -0.6964
  475MPD2    C1 7065   1.133   1.586  10.221  0.4081 -0.2750 -0.3117
  475MPD2    C2 7066   1.107   1.695  10.306 -0.1312 -0.1282 -0.3490
  475MPD2    C3 7067   0.992   1.693  10.388  0.1344  0.4399  0.8064
  475MPD2    C4 7068   0.930   1.574  10.405  0.4509 -0.3720  0.6058
  475MPD2    C5 7069   0.976   1.463  10.339 -0.1653 -1.6613  0.4380
  475MPD2     H 7070   1.149   1.793  10.286 -0.5822  0.0817 -0.2566
  475MPD2    H1 7071   0.842   1.562  10.467 -0.0113  2.0848  0.4318
  475MPD2    H2 7072   1.098   1.371  10.198 -0.4933  0.8743 -2.1821
  475MPD2    H3 7073   0.919   1.374  10.360  0.1850 -1.9216  0.2876
  475MPD2     N 7074   0.956   1.803  10.454  0.0454  0.3994 -0.3167
  475MPD2    H5 7075   1.016   1.885  10.445  0.9424 -0.3285 -0.9091
  475MPD2    N1 7076   1.233   1.592  10.116 -0.3268  1.0411 -0.5244
  475MPD2    H7 7077   1.253   1.506  10.065 -3.5783 -0.1646  0.2255
  476TMC3    C1 7078   1.384   1.679   9.969 -0.5555 -0.7245  0.6093
  476TMC3    C2 7079   1.331   1.613   9.865 -0.3829 -0.3929  0.1442
  476TMC3    C3 7080   1.379   1.615   9.738 -0.7926  0.3208  0.8109
  476TMC3    C4 7081   1.478   1.768   9.949 -0.1119 -0.4100  0.4232
  476TMC3    C5 7082   1.525   1.772   9.815 -0.2709  0.2413 -0.0569
  476TMC3    C6 7083   1.479   1.700   9.708 -0.2992 -0.0010 -0.1781
  476TMC3     C 7084   1.301   1.703  10.084 -0.0398 -0.0242 -0.5302
  476TMC3     O 7085   1.299   1.819  10.125 -0.0060  0.0938  0.2437
  476TMC3     H 7086   1.237   1.560   9.874 -1.1017  0.7577 -0.4237
  476TMC3    H1 7087   1.520   1.824  10.031 -0.9170  0.3560  0.3055
  476TMC3    H2 7088   1.524   1.719   9.610 -1.0415  1.5674 -0.2215
  476TMC3    C7 7089   1.622   1.872   9.781 -0.3110  0.2366 -0.6906
  476TMC3    C8 7090   1.304   1.548   9.630  0.2096 -0.0157 -0.8563
  476TMC3    O1 7091   1.714   1.843   9.705  0.6123 -0.3249  0.0692
  476TMC3    O2 7092   1.330   1.567   9.511  0.2587 -0.3934 -0.1389
  477MPD2     C 7093   3.068   3.274  11.382  0.7035 -0.0522 -0.2476
  477MPD2    C1 7094   3.014   3.198  11.482  0.6328  0.7799 -0.0525
  477MPD2    C2 7095   3.100   3.154  11.584  0.3456  0.0980  0.3740
  477MPD2    C3 7096   3.231   3.178  11.575  0.2861  0.0389  0.2827
  477MPD2    C4 7097   3.282   3.273  11.486 -0.3709 -0.1504  0.2689
  477MPD2    C5 7098   3.201   3.308  11.383  0.0410 -0.2064  0.5103
  477MPD2     H 7099   3.059   3.096  11.666 -0.4361  0.6171  0.3516
  477MPD2    H1 7100   3.385   3.307  11.484  0.1270 -1.6692 -0.3055
  477MPD2    H2 7101   3.007   3.303  11.297  1.6618 -1.9612 -1.6009
  477MPD2    H3 7102   3.242   3.362  11.298 -0.5952  0.8679  0.8892
  477MPD2     N 7103   3.313   3.122  11.680  0.2848  0.5666 -0.3560
  477MPD2    H5 7104   3.260   3.073  11.750  2.6298  1.2299  1.8960
  477MPD2    N1 7105   2.875   3.182  11.482  0.2531 -0.7899  0.4942
  477MPD2    H7 7106   2.834   3.211  11.394 -0.0897  1.6465  1.4723
  478TMC3    C1 7107   2.661   3.118  11.532  0.6665  0.4001  0.1397
  478TMC3    C2 7108   2.587   3.196  11.614 -0.3230 -0.5752  0.4395
  478TMC3    C3 7109   2.508   3.296  11.562 -0.3776 -1.0140 -0.4527
  478TMC3    C4 7110   2.643   3.123  11.399  0.0093  0.2537 -0.3084
  478TMC3    C5 7111   2.570   3.222  11.343  0.4293 -0.5242  0.5168
  478TMC3    C6 7112   2.503   3.314  11.424  0.4175  0.1481  0.2529
  478TMC3     C 7113   2.800   3.118  11.576 -0.0176 -0.0193 -0.1976
  478TMC3     O 7114   2.831   3.092  11.691 -0.6106 -0.2583 -0.1765
  478TMC3     H 7115   2.613   3.186  11.719  0.3001  2.7232  0.5826
  478TMC3    H1 7116   2.692   3.045  11.342  2.1789  1.4283 -0.0325
  478TMC3    H2 7117   2.438   3.394  11.391  0.3146  0.1533  0.4700
  478TMC3    C7 7118   2.544   3.209  11.203 -0.5520  0.4509 -0.1475
  478TMC3    C8 7119   2.482   3.407  11.657 -0.3707  0.0851  0.2263
  478TMC3    O1 7120   2.559   3.094  11.162 -0.7070 -0.0564 -0.0012
  478TMC3    O2 7121   2.436   3.359  11.761 -0.1644  0.2619  0.1903
  479MPD2     C 7122   2.526   1.018  15.065 -0.4822 -0.2258 -0.0232
  479MPD2    C1 7123   2.441   0.975  15.162  0.1135  0.6456  0.1547
  479MPD2    C2 7124   2.474   0.998  15.297 -0.0022  0.4208  0.1558
  479MPD2    C3 7125   2.581   1.082  15.329 -0.6194 -0.4513  0.2854
  479MPD2    C4 7126   2.660   1.124  15.227 -0.1948  0.2990  0.2381
  479MPD2    C5 7127   2.637   1.092  15.097 -0.0700  0.7561  0.8639
  479MPD2     H 7128   2.415   0.951  15.374 -1.0830  2.2261  0.4221
  479MPD2    H1 7129   2.734   1.201  15.248 -0.2029  0.1481  0.8097
  479MPD2    H2 7130   2.514   0.995  14.960 -0.4329  1.0911 -0.3169
  479MPD2    H3 7131   2.711   1.128  15.027 -0.0540  0.9434  0.9766
  479MPD2     N 7132   2.612   1.128  15.462 -0.0648  0.6300  0.0991
  479MPD2    H5 7133   2.699   1.179  15.474  0.5218 -0.2809 -0.2801
  479MPD2    N1 7134   2.330   0.892  15.126 -0.3554  0.0021 -0.1874
  479MPD2    H7 7135   2.299   0.889  15.029  1.0807  0.3364 -0.6627
  480TMC3    C1 7136   2.231   0.944  15.653 -0.3748  0.4345 -0.0291
  480TMC3    C2 7137   2.154   1.002  15.562  0.2080  0.0324 -0.3045
  480TMC3    C3 7138   2.190   1.112  15.498 -0.2426  1.0792 -0.3769
  480TMC3    C4 7139   2.360   0.992  15.675  0.1532 -0.1367  0.2649
  480TMC3    C5 7140   2.407   1.085  15.586  0.5587  0.5184 -0.0453
  480TMC3    C6 7141   2.321   1.156  15.503 -0.2793 -0.3182 -0.2037
  480TMC3     C 7142   2.206   0.810  15.692 -0.2380  0.5629 -0.3856
  480TMC3     O 7143   2.300   0.735  15.719 -0.5244 -0.3037  0.1274
  480TMC3     H 7144   2.072   0.949  15.515 -0.9600 -0.1335  1.9091
  480TMC3    H1 7145   2.426   0.938  15.742 -0.8071 -2.2240 -0.4682
  480TMC3    H2 7146   2.361   1.238  15.445  0.8587 -1.4872 -1.0642
  480TMC3    C7 7147   2.553   1.104  15.581  0.3662 -0.3293 -0.0929
  480TMC3    C8 7148   2.096   1.134  15.386  0.4669  0.4380 -0.2805
  480TMC3    O1 7149   2.617   1.085  15.682 -0.0740 -0.2169 -0.2684
  480TMC3    O2 7150   1.979   1.115  15.412  0.5539  0.7704 -0.6139
  481MPD2     C 7151   4.494   0.820  14.568  0.8922  0.2741  0.4872
  481MPD2    C1 7152   4.360   0.799  14.533 -0.8065 -0.3827 -0.2865
  481MPD2    C2 7153   4.272   0.755  14.627 -0.2654 -1.1328 -0.0609
  481MPD2    C3 7154   4.312   0.740  14.763  0.0734 -0.2645  0.9096
  481MPD2    C4 7155   4.439   0.767  14.797  0.4890  0.1194  0.3610
  481MPD2    C5 7156   4.529   0.798  14.700  0.1175  0.3216 -0.6272
  481MPD2     H 7157   4.171   0.730  14.598 -1.4382  2.1626  1.1259
  481MPD2    H1 7158   4.473   0.770  14.900 -0.8282  2.2508  0.7426
  481MPD2    H2 7159   4.564   0.860  14.496  3.5890 -1.6877  2.0240
  481MPD2    H3 7160   4.632   0.825  14.722 -0.0119 -0.9562  1.5308
  481MPD2     N 7161   4.228   0.700  14.866  1.4751  0.3746  0.5040
  481MPD2    H5 7162   4.270   0.705  14.959 -1.5851  2.2738  1.7698
  481MPD2    N1 7163   4.324   0.829  14.401 -0.2495 -0.3977 -0.4559
  481MPD2    H7 7164   4.388   0.863  14.330 -1.5285  0.1741 -1.3207
  482TMC3    C1 7165   4.200   0.837  14.199  0.2194 -0.2191 -0.1021
  482TMC3    C2 7166   4.252   0.734  14.132 -0.4842  0.0021  0.4841
  482TMC3    C3 7167   4.241   0.716  14.002  0.2846 -0.6692  0.4819
  482TMC3    C4 7168   4.109   0.917  14.138 -0.2701  0.2161  0.2460
  482TMC3    C5 7169   4.083   0.888  14.007  0.3025 -0.7274 -0.0229
  482TMC3    C6 7170   4.147   0.786  13.936 -0.4498 -0.4869 -0.2847
  482TMC3     C 7171   4.199   0.825  14.349  0.4485 -0.5299  0.3476
  482TMC3     O 7172   4.092   0.799  14.400  0.0501 -0.2235 -0.2852
  482TMC3     H 7173   4.329   0.675  14.181 -0.0710  0.0146 -0.1418
  482TMC3    H1 7174   4.065   1.005  14.183 -1.8037 -0.6416  0.3981
  482TMC3    H2 7175   4.123   0.754  13.835 -1.6311 -0.0576 -0.1352
  482TMC3    C7 7176   4.028   1.005  13.932 -0.0896 -0.9180  0.1234
  482TMC3    C8 7177   4.306   0.605  13.925  0.0285 -0.0536 -0.1660
  482TMC3    O1 7178   4.002   1.107  13.994 -0.4028  0.4872  0.0759
  482TMC3    O2 7179   4.320   0.501  13.982  0.0405 -0.0056 -0.6321
  483TMC3    C1 7180   1.309   3.995   0.787  0.6301  0.3102 -0.2822
  483TMC3    C2 7181   1.378   4.116   0.772  0.1952  0.1130 -0.2205
  483TMC3    C3 7182   1.476   4.126   0.678 -0.0050  0.2782 -0.1532
  483TMC3    C4 7183   1.335   3.887   0.705 -0.0623  0.6008  0.1990
  483TMC3    C5 7184   1.446   3.896   0.622  0.4785 -0.0607  0.1995
  483TMC3    C6 7185   1.513   4.012   0.611  0.6536 -0.5799  0.1027
  483TMC3     C 7186   1.294   3.962   0.924  0.4205  0.4862  0.3626
  483TMC3     O 7187   1.274   4.050   1.006  0.4438  0.1112 -0.1678
  483TMC3     H 7188   1.351   4.193   0.844  1.5979 -0.5206  0.9928
  483TMC3    H1 7189   1.273   3.802   0.732  0.4175  0.3416  0.4831
  483TMC3    H2 7190   1.599   4.012   0.545 -0.6595 -0.0271 -1.6166
  483TMC3    C7 7191   1.542   3.792   0.653  0.0655  0.6165 -0.0495
  483TMC3    C8 7192   1.541   4.254   0.640 -0.5713 -0.1205 -0.5046
  483TMC3    O1 7193   1.504   3.714   0.743 -0.0477  0.5522 -0.1467
  483TMC3    O2 7194   1.611   4.259   0.545  0.0842  0.0111 -0.5700
  484MPD2     C 7195   4.152   2.809  11.819  0.3878  0.3317  0.1867
  484MPD2    C1 7196   4.205   2.719  11.907 -0.4306 -0.3752 -0.7634
  484MPD2    C2 7197   4.341   2.721  11.927  0.6692 -0.2695  0.4131
  484MPD2    C3 7198   4.421   2.810  11.851 -0.1115 -0.0256  0.8541
  484MPD2    C4 7199   4.362   2.892  11.760  0.1484 -0.4103 -0.8863
  484MPD2    C5 7200   4.226   2.894  11.751 -0.1375  0.5383 -0.1003
  484MPD2     H 7201   4.384   2.652  11.999  0.6243  0.4212  1.1037
  484MPD2    H1 7202   4.422   2.964  11.705  0.5816 -1.3612 -1.6431
  484MPD2    H2 7203   4.045   2.827  11.812  0.2553  0.0101  1.3543
  484MPD2    H3 7204   4.174   2.965  11.688 -0.3852 -1.3276 -2.0093
  484MPD2     N 7205   4.561   2.816  11.861  0.2729 -0.1505 -0.3461
  484MPD2    H5 7206   4.619   2.873  11.801  0.5142 -0.1661 -0.1296
  484MPD2    N1 7207   4.109   2.649  11.985  0.0467  0.0289  0.2384
  484MPD2    H7 7208   4.011   2.674  11.975  0.2774  1.5430  1.6904
  485TMC3    C1 7209   0.057   2.764  11.935 -0.8665  0.6652  0.6076
  485TMC3    C2 7210   0.125   2.733  12.052  0.3292  0.1240  0.1127
  485TMC3    C3 7211   0.254   2.784  12.065  0.0835  0.0416  0.1943
  485TMC3    C4 7212   0.108   2.822  11.824 -0.4352 -0.2072 -0.1616
  485TMC3    C5 7213   0.243   2.858  11.828  0.1031  0.0242  0.3950
  485TMC3    C6 7214   0.301   2.856  11.956 -0.1515 -0.2703 -0.3561
  485TMC3     C 7215   4.639   2.734  11.941  0.6620 -0.0564 -0.2154
  485TMC3     O 7216   4.603   2.647  12.019  0.2374  0.3621  0.2091
  485TMC3     H 7217   0.079   2.665  12.123  0.0416  0.5688  0.3548
  485TMC3    H1 7218   0.055   2.813  11.730  0.1415 -2.2170 -0.3025
  485TMC3    H2 7219   0.400   2.889  11.984 -0.1147 -0.8375  0.2029
  485TMC3    C7 7220   0.321   2.823  11.715  0.0565  0.2060  0.5640
  485TMC3    C8 7221   0.356   2.682  12.103 -0.5218  0.7611  0.3117
  485TMC3    O1 7222   0.264   2.816  11.608 -0.3435  0.1411  0.0359
  485TMC3    O2 7223   0.442   2.679  12.018  0.5539  0.1572  0.0022
  486MPD2     C 7224   1.796   1.553  13.077 -0.0157  0.3994  0.7548
  486MPD2    C1 7225   1.743   1.533  12.950 -0.3408  0.3029 -0.0069
  486MPD2    C2 7226   1.682   1.642  12.887  0.3362 -0.3742  0.1946
  486MPD2    C3 7227   1.701   1.765  12.932  0.9798  0.0924  0.5098
  486MPD2    C4 7228   1.764   1.784  13.051  0.0711  0.7710  0.1874
  486MPD2    C5 7229   1.806   1.678  13.129  0.2338  0.6287  0.6628
  486MPD2     H 7230   1.630   1.631  12.792 -0.4091  0.4888  0.5062
  486MPD2    H1 7231   1.773   1.886  13.087  0.6507  0.3811  1.1776
  486MPD2    H2 7232   1.849   1.477  13.134  1.8365 -1.0395 -2.8884
  486MPD2    H3 7233   1.839   1.695  13.231 -0.5250  0.2362  0.9695
  486MPD2     N 7234   1.653   1.870  12.852  0.2778 -0.1642 -0.1141
  486MPD2    H5 7235   1.616   1.836  12.763 -1.1783  0.0121  0.4130
  486MPD2    N1 7236   1.760   1.404  12.891 -0.6213  0.3968  0.2733
  486MPD2    H7 7237   1.791   1.336  12.959 -3.4186  0.4695  1.6320
  487TMC3    C1 7238   1.755   1.235  12.737 -0.6484  0.5270 -0.3603
  487TMC3    C2 7239   1.692   1.180  12.633 -0.2198 -0.1197  0.8734
  487TMC3    C3 7240   1.727   1.053  12.601 -0.7466 -0.3612 -0.5739
  487TMC3    C4 7241   1.856   1.177  12.808  0.8609  0.0652 -0.8469
  487TMC3    C5 7242   1.884   1.048  12.777  0.7804 -0.2439 -0.7380
  487TMC3    C6 7243   1.825   0.989  12.669 -0.0991 -0.5747  0.4480
  487TMC3     C 7244   1.722   1.376  12.760  1.4465 -0.1720 -0.0024
  487TMC3     O 7245   1.667   1.436  12.673  0.0045 -0.6142  0.8005
  487TMC3     H 7246   1.615   1.233  12.578 -1.8062 -2.9833  0.3519
  487TMC3    H1 7247   1.908   1.231  12.887 -1.6649  1.3461 -0.0625
  487TMC3    H2 7248   1.874   0.912  12.611 -1.9241 -1.3727 -0.0269
  487TMC3    C7 7249   1.949   0.967  12.872  0.4089 -0.3230  0.4101
  487TMC3    C8 7250   1.634   0.975  12.519 -0.3019  0.7546 -0.4355
  487TMC3    O1 7251   1.971   1.017  12.980  0.1696  0.0407  0.4473
  487TMC3    O2 7252   1.578   1.038  12.431  0.3145 -0.0962 -0.4484
  488MPD2     C 7253   2.025   2.809  16.337  0.2269 -0.6146  0.4345
  488MPD2    C1 7254   2.100   2.898  16.409 -0.3925 -0.1692  0.0644
  488MPD2    C2 7255   2.123   2.877  16.546 -0.3608  0.6260  0.5675
  488MPD2    C3 7256   2.081   2.757  16.603 -0.3355  0.8032  0.1007
  488MPD2    C4 7257   2.013   2.664  16.527 -0.7134  0.2064 -0.0310
  488MPD2    C5 7258   1.981   2.694  16.400  0.2823  1.0137 -0.0915
  488MPD2     H 7259   2.180   2.955  16.595  2.8031 -1.7029  0.5960
  488MPD2    H1 7260   1.962   2.575  16.563 -1.4587  0.2147 -1.0713
  488MPD2    H2 7261   1.993   2.835  16.237  1.9579 -1.7911 -0.4320
  488MPD2    H3 7262   1.922   2.623  16.344  1.6205 -0.6933  0.6505
  488MPD2     N 7263   2.125   2.729  16.735 -0.3462 -0.2064 -0.0593
  488MPD2    H5 7264   2.150   2.814  16.784  0.5670  0.2310 -1.2838
  488MPD2    N1 7265   2.149   3.016  16.351  0.1142 -0.3864 -0.2994
  488MPD2    H7 7266   2.191   3.086  16.412  0.4492 -0.9633  0.1251
  489TMC3    C1 7267   2.127   2.635  16.951 -0.0872 -0.2283 -0.0530
  489TMC3    C2 7268   2.190   2.749  16.991 -0.7381  0.4897  0.1671
  489TMC3    C3 7269   2.200   2.785  17.121 -0.6498 -0.7746 -0.1175
  489TMC3    C4 7270   2.049   2.567  17.043  0.5267 -0.4022 -0.2982
  489TMC3    C5 7271   2.058   2.612  17.170  0.1919  0.1897 -0.0758
  489TMC3    C6 7272   2.126   2.722  17.218  0.0437  0.3188 -0.1571
  489TMC3     C 7273   2.092   2.618  16.809  0.3262 -0.8311 -0.2193
  489TMC3     O 7274   2.037   2.516  16.782 -0.1510  0.1496 -0.5981
  489TMC3     H 7275   2.263   2.800  16.929 -0.6924 -0.7849 -0.8292
  489TMC3    H1 7276   2.002   2.471  17.026  0.2007 -0.3543  0.3472
  489TMC3    H2 7277   2.124   2.742  17.325  0.5866  0.2572 -0.1316
  489TMC3    C7 7278   1.943   2.572  17.253 -0.6360 -0.4432 -0.0190
  489TMC3    C8 7279   2.250   2.923  17.141  0.4266  0.3227  0.5853
  489TMC3    O1 7280   1.958   2.566  17.378  0.1991 -0.2631  0.5913
  489TMC3    O2 7281   2.323   2.971  17.058 -0.2285  0.1075  0.2534
  490MPD2     C 7282   2.790   2.424  17.084 -0.2058 -0.0089 -0.2595
  490MPD2    C1 7283   2.703   2.399  17.186 -0.2105  0.2259 -0.4316
  490MPD2    C2 7284   2.719   2.468  17.308 -0.2308  0.2850 -0.3255
  490MPD2    C3 7285   2.828   2.558  17.319  0.5270 -0.0881 -0.3944
  490MPD2    C4 7286   2.901   2.580  17.206  0.5499 -0.0950  0.3925
  490MPD2    C5 7287   2.889   2.511  17.092  0.0545 -0.2854 -0.0842
  490MPD2     H 7288   2.659   2.441  17.395  1.3749  2.0551  1.3383
  490MPD2    H1 7289   2.985   2.649  17.208 -0.0474  0.6846 -1.4062
  490MPD2    H2 7290   2.798   2.366  16.993 -0.2941 -1.0302  0.3921
  490MPD2    H3 7291   2.961   2.538  17.015 -1.2811  1.4386 -0.7333
  490MPD2     N 7292   2.858   2.632  17.434  0.3111  0.5130  0.2054
  490MPD2    H5 7293   2.944   2.685  17.427  2.4155 -2.8441  0.7647
  490MPD2    N1 7294   2.620   2.280  17.179  0.2045  0.5501 -0.0139
  490MPD2    H7 7295   2.547   2.263  17.247  0.1852 -0.5649 -0.3177
  491TMC3    C1 7296   2.515   2.094  17.065 -0.8447 -0.1629  0.1622
  491TMC3    C2 7297   2.464   2.045  17.185  0.4612 -0.3142  0.0294
  491TMC3    C3 7298   2.415   1.921  17.191 -0.3089  0.5477 -0.4844
  491TMC3    C4 7299   2.508   2.027  16.953  0.0792 -0.5657 -1.3081
  491TMC3    C5 7300   2.440   1.909  16.959 -0.1311 -0.4514 -0.2240
  491TMC3    C6 7301   2.389   1.856  17.072 -0.0806  0.3456  0.0149
  491TMC3     C 7302   2.592   2.221  17.060  0.3959 -0.1721  0.0927
  491TMC3     O 7303   2.608   2.260  16.945  0.3001 -0.2937 -0.0606
  491TMC3     H 7304   2.465   2.105  17.275  1.4044 -0.9539  0.4407
  491TMC3    H1 7305   2.552   2.067  16.863  1.2238  0.2068 -0.4076
  491TMC3    H2 7306   2.377   1.748  17.069  0.9175  0.2507 -0.3865
  491TMC3    C7 7307   2.454   1.817  16.849  0.0493 -0.3273 -0.6826
  491TMC3    C8 7308   2.342   1.882  17.315  0.1249 -0.0114  0.5194
  491TMC3    O1 7309   2.381   1.714  16.861 -0.3024  0.0115 -0.4775
  491TMC3    O2 7310   2.383   1.930  17.421  0.2182  0.3736  0.7041
  492MPD2     C 7311   2.935   2.356  11.274  0.0740 -0.0823  0.4747
  492MPD2    C1 7312   2.857   2.257  11.212 -0.3858  0.2897  0.6972
  492MPD2    C2 7313   2.780   2.175  11.295  0.3721 -0.8178  0.2307
  492MPD2    C3 7314   2.780   2.184  11.434  0.3099  0.2124 -0.9115
  492MPD2    C4 7315   2.848   2.284  11.488  0.3246 -0.0622 -0.6169
  492MPD2    C5 7316   2.926   2.369  11.413 -0.7739  0.0654  0.0738
  492MPD2     H 7317   2.723   2.097  11.246 -0.7101  0.5880 -0.7408
  492MPD2    H1 7318   2.848   2.308  11.594  0.5722  0.8389 -0.8240
  492MPD2    H2 7319   2.992   2.431  11.220  0.3120  0.4469  1.4634
  492MPD2    H3 7320   2.980   2.446  11.466  0.0791 -0.6716  0.2803
  492MPD2     N 7321   2.689   2.121  11.516  0.4143  0.1768 -0.3342
  492MPD2    H5 7322   2.681   2.162  11.608  1.3321 -0.8548  0.2174
  492MPD2    N1 7323   2.863   2.248  11.073  0.1743  0.2225  0.5731
  492MPD2    H7 7324   2.926   2.314  11.029  1.2252 -0.1679  1.4779
  493TMC3    C1 7325   2.826   2.161  10.857 -0.4948 -1.0971  0.3016
  493TMC3    C2 7326   2.950   2.202  10.823 -0.1079 -0.0590 -0.2642
  493TMC3    C3 7327   2.983   2.205  10.686 -0.1974  0.2320 -0.3872
  493TMC3    C4 7328   2.741   2.098  10.773 -0.7611  0.0308 -0.5211
  493TMC3    C5 7329   2.775   2.104  10.643  0.3558  0.2903 -0.0612
  493TMC3    C6 7330   2.887   2.163  10.593  0.2646  0.5656  0.7642
  493TMC3     C 7331   2.789   2.158  10.998 -0.2142  0.5329  0.1680
  493TMC3     O 7332   2.715   2.070  11.039  0.3274 -0.6945 -0.8171
  493TMC3     H 7333   3.027   2.241  10.888  1.1752 -2.5879 -0.2982
  493TMC3    H1 7334   2.641   2.070  10.801 -0.4324 -2.2048 -1.5774
  493TMC3    H2 7335   2.896   2.162  10.485  2.5227  1.3385  0.9580
  493TMC3    C7 7336   2.725   2.005  10.558 -0.0485 -0.0237 -0.0255
  493TMC3    C8 7337   3.111   2.268  10.645 -0.4287  0.5564 -0.1600
  493TMC3    O1 7338   2.728   2.024  10.440 -0.4264  0.1865 -0.0070
  493TMC3    O2 7339   3.179   2.312  10.733  0.0965  0.0403 -0.0457
  494TMC3    C1 7340   3.653   3.732   0.676 -0.0477 -0.6860 -0.5544
  494TMC3    C2 7341   3.695   3.601   0.683 -0.5253 -1.0559  0.7228
  494TMC3    C3 7342   3.753   3.544   0.578 -0.3451  0.5177 -0.6196
  494TMC3    C4 7343   3.660   3.803   0.558 -0.3707  0.3965  0.0164
  494TMC3    C5 7344   3.699   3.733   0.448  0.4511 -0.5984  0.4907
  494TMC3    C6 7345   3.753   3.604   0.455  0.3415 -0.6558  0.0529
  494TMC3     C 7346   3.649   3.807   0.807 -0.1667 -0.0861 -0.0494
  494TMC3     O 7347   3.651   3.738   0.909  0.0648 -0.0221 -0.2287
  494TMC3     H 7348   3.703   3.546   0.776 -0.8264  0.9328  1.9289
  494TMC3    H1 7349   3.615   3.901   0.552  1.0588  1.2634  3.4767
  494TMC3    H2 7350   3.802   3.560   0.370 -1.0501 -1.4964 -0.3205
  494TMC3    C7 7351   3.717   3.796   0.318  0.1112 -0.3781 -0.0053
  494TMC3    C8 7352   3.834   3.423   0.593 -0.0222 -0.4322  0.1046
  494TMC3    O1 7353   3.733   3.717   0.229 -0.1594  0.2200 -0.2106
  494TMC3    O2 7354   3.798   3.345   0.681 -0.8199  0.2689  0.0224
  495TMC3    C1 7355   2.504   1.141  14.502 -0.0604  0.6977  0.1376
  495TMC3    C2 7356   2.440   1.209  14.402 -0.0639  0.4647  0.4839
  495TMC3    C3 7357   2.348   1.311  14.425 -0.2538 -0.0568  0.8208
  495TMC3    C4 7358   2.486   1.185  14.631  0.7682  0.4433 -0.0733
  495TMC3    C5 7359   2.384   1.272  14.651 -0.0077  0.0151 -0.1419
  495TMC3    C6 7360   2.309   1.338  14.558  0.3837  0.1660 -0.1934
  495TMC3     C 7361   2.539   1.002  14.481 -0.3668 -0.1666  0.1551
  495TMC3     O 7362   2.539   0.931  14.580 -0.3544  0.2489  0.5630
  495TMC3     H 7363   2.448   1.171  14.301 -0.1910  1.1137  0.2307
  495TMC3    H1 7364   2.528   1.130  14.715  0.3267 -1.6804 -1.2466
  495TMC3    H2 7365   2.230   1.409  14.581  0.9988  1.2691 -1.4789
  495TMC3    C7 7366   2.338   1.261  14.787  0.4797 -0.4063  0.3372
  495TMC3    C8 7367   2.239   1.310  14.335 -0.4550 -0.8498 -0.1364
  495TMC3    O1 7368   2.420   1.254  14.875  0.1815 -0.4344  0.2094
  495TMC3    O2 7369   2.131   1.300  14.389  0.0766 -0.4075 -0.0328
  496MPD2     C 7370   3.990   0.976  14.779  0.5844 -0.2973 -0.0735
  496MPD2    C1 7371   4.067   1.049  14.865  0.1022  0.0335  0.8207
  496MPD2    C2 7372   4.015   1.085  14.990 -0.4773 -0.1026 -0.3834
  496MPD2    C3 7373   3.894   1.045  15.025  0.0816 -0.5299  0.1764
  496MPD2    C4 7374   3.818   0.975  14.938  0.1958  0.2150  0.0662
  496MPD2    C5 7375   3.867   0.934  14.818 -0.9915  0.2396 -0.3027
  496MPD2     H 7376   4.083   1.134  15.057 -3.1415  1.2959  1.3034
  496MPD2    H1 7377   3.717   0.942  14.962  1.0049 -0.5210  2.3956
  496MPD2    H2 7378   4.025   0.948  14.680  0.7755  0.6290 -0.2646
  496MPD2    H3 7379   3.805   0.867  14.759  0.9498  0.7080 -2.8377
  496MPD2     N 7380   3.842   1.077  15.155  0.8494  0.3779  0.2483
  496MPD2    H5 7381   3.757   1.023  15.167  0.8246  0.9482  2.5446
  496MPD2    N1 7382   4.203   1.078  14.829 -0.0239  0.4290 -0.3827
  496MPD2    H7 7383   4.237   1.029  14.747  0.1693  0.1814 -0.1522
  497TMC3    C1 7384   3.824   1.147  15.377  0.1106 -1.4129 -0.4545
  497TMC3    C2 7385   3.709   1.081  15.395 -0.9526  0.4878 -0.6040
  497TMC3    C3 7386   3.640   1.114  15.508  0.4162 -0.3009 -0.0232
  497TMC3    C4 7387   3.862   1.244  15.457 -0.0673 -0.7396  0.4254
  497TMC3    C5 7388   3.788   1.266  15.562 -0.2042  0.2261  0.5089
  497TMC3    C6 7389   3.675   1.210  15.589  0.1933 -0.3707 -0.4727
  497TMC3     C 7390   3.905   1.134  15.260 -0.5283  0.0707  0.9223
  497TMC3     O 7391   4.022   1.173  15.271  0.4661  0.4981 -0.3807
  497TMC3     H 7392   3.683   1.006  15.321 -1.2211 -0.3579  0.3504
  497TMC3    H1 7393   3.939   1.313  15.424  0.5650 -1.1944  0.9399
  497TMC3    H2 7394   3.614   1.259  15.665  0.0362 -0.6822 -0.3973
  497TMC3    C7 7395   3.811   1.394  15.617 -0.7451 -0.2820 -0.6681
  497TMC3    C8 7396   3.510   1.060  15.523 -0.1617 -0.0352  0.4027
  497TMC3    O1 7397   3.722   1.470  15.593  0.4510  0.3891 -0.0696
  497TMC3    O2 7398   3.467   1.010  15.423 -0.5352  0.4353  0.3018
  498MPD2     C 7399   0.286   0.945   9.310 -0.2685  0.3715  0.4797
  498MPD2    C1 7400   0.356   1.020   9.399  0.3880  0.2638 -0.1286
  498MPD2    C2 7401   0.285   1.083   9.499  0.0745  0.1705 -0.5020
  498MPD2    C3 7402   0.145   1.086   9.501 -0.3947 -0.2507 -0.9551
  498MPD2    C4 7403   0.078   1.008   9.412  0.1577 -0.4948 -0.1159
  498MPD2    C5 7404   0.150   0.938   9.322  0.2627  0.2478 -0.6310
  498MPD2     H 7405   0.327   1.149   9.574 -0.1501  0.3101 -0.4962
  498MPD2    H1 7406   4.700   0.969   9.428 -0.6960  0.4199 -3.3248
  498MPD2    H2 7407   0.329   0.868   9.247 -0.6177  1.4177 -1.0269
  498MPD2    H3 7408   0.097   0.869   9.258 -0.0682  0.0703 -0.1645
  498MPD2     N 7409   0.076   1.144   9.611 -0.6654 -0.1226 -0.5368
  498MPD2    H5 7410   0.122   1.170   9.698 -0.0874 -0.6360 -0.6939
  498MPD2    N1 7411   0.491   1.024   9.408  0.3577  0.4993 -0.0479
  498MPD2    H7 7412   0.537   1.071   9.485  1.5357  2.0198 -1.6757
  499TMC3    C1 7413   0.714   0.973   9.343 -0.9439 -0.2985 -0.4437
  499TMC3    C2 7414   0.752   0.943   9.473  0.2743 -0.2450  0.3722
  499TMC3    C3 7415   0.889   0.950   9.497  0.1260 -0.0810  0.4605
  499TMC3    C4 7416   0.800   1.020   9.249  0.0232  0.4791  0.8542
  499TMC3    C5 7417   0.931   1.043   9.284  0.4047  0.4049  0.6427
  499TMC3    C6 7418   0.978   1.001   9.405 -0.6300  0.3871 -0.8118
  499TMC3     C 7419   0.576   0.973   9.307 -0.1299 -0.5570 -0.4363
  499TMC3     O 7420   0.549   0.958   9.186  0.1316  0.5915  0.8200
  499TMC3     H 7421   0.689   0.911   9.555  0.6471  1.1889  1.2066
  499TMC3    H1 7422   0.759   1.047   9.153 -1.0406 -0.9798  0.8994
  499TMC3    H2 7423   1.083   1.019   9.428 -1.0135  0.6585  0.7405
  499TMC3    C7 7424   1.020   1.115   9.203  0.7208  0.6972 -0.4636
  499TMC3    C8 7425   0.939   0.916   9.628 -0.3682  0.2839  0.5417
  499TMC3    O1 7426   1.105   1.171   9.274  0.9104 -0.0880 -0.9008
  499TMC3    O2 7427   0.857   0.867   9.704  0.3385 -0.0356  0.8279
  500MPD2     C 7428   2.260   2.956  10.109 -0.1452 -0.1708 -0.2775
  500MPD2    C1 7429   2.302   2.950   9.976  0.2788 -0.1689  0.3637
  500MPD2    C2 7430   2.218   2.895   9.881 -0.6626 -0.2217  0.3249
  500MPD2    C3 7431   2.098   2.832   9.920 -0.2035  0.5485  0.1556
  500MPD2    C4 7432   2.075   2.817  10.050  0.7688 -0.4519 -0.0822
  500MPD2    C5 7433   2.145   2.892  10.141  0.4563 -0.7648  0.5083
  500MPD2     H 7434   2.254   2.894   9.779 -2.0880  3.4328 -0.2357
  500MPD2    H1 7435   1.995   2.747  10.073 -0.4285  0.6602 -0.8698
  500MPD2    H2 7436   2.316   3.002  10.189 -1.2854  1.4666 -0.4313
  500MPD2    H3 7437   2.115   2.888  10.245 -0.4353  2.4669  0.3940
  500MPD2     N 7438   2.019   2.749   9.832 -0.2098  0.5708 -0.2011
  500MPD2    H5 7439   1.947   2.688   9.868 -0.9682 -0.4326 -3.4040
  500MPD2    N1 7440   2.428   2.998   9.932  0.8810  0.2062 -0.2896
  500MPD2    H7 7441   2.436   3.018   9.833 -0.6646 -0.7628 -0.5943
  501TMC3    C1 7442   2.647   3.100   9.952  1.0145  0.6049 -0.0914
  501TMC3    C2 7443   2.619   3.222   9.901  0.2452  1.0867 -0.2763
  501TMC3    C3 7444   2.710   3.321   9.923 -0.3141  0.7954  0.0844
  501TMC3    C4 7445   2.763   3.073  10.016  0.0166 -0.2556  0.7391
  501TMC3    C5 7446   2.847   3.175  10.043 -0.2373  0.4671 -0.8848
  501TMC3    C6 7447   2.817   3.303  10.008  0.2421 -0.3581  0.4690
  501TMC3     C 7448   2.537   3.024  10.013  0.0522 -0.4345 -0.7933
  501TMC3     O 7449   2.555   2.981  10.127 -0.1351  0.3627  0.2651
  501TMC3     H 7450   2.537   3.247   9.835 -1.6337  1.4557  2.2267
  501TMC3    H1 7451   2.776   2.969  10.046  0.5788 -0.8560 -1.5737
  501TMC3    H2 7452   2.892   3.381  10.019 -0.0560 -0.0411  0.2622
  501TMC3    C7 7453   2.929   3.154  10.160 -0.0035 -1.1120 -1.2807
  501TMC3    C8 7454   2.681   3.460   9.884  0.0955 -0.3600  0.3633
  501TMC3    O1 7455   2.904   3.045  10.208 -0.4404 -0.0187  0.0825
  501TMC3    O2 7456   2.742   3.497   9.785  0.7615 -0.1586 -0.3193
  502TMC3    C1 7457   1.365   1.933  14.658  0.0779  1.1196 -0.0665
  502TMC3    C2 7458   1.327   2.060  14.655  0.8651 -0.1889  0.9835
  502TMC3    C3 7459   1.210   2.100  14.709 -0.2584  0.2277  0.1376
  502TMC3    C4 7460   1.284   1.837  14.698 -0.5942 -0.3783  0.2650
  502TMC3    C5 7461   1.163   1.870  14.743 -0.0123  0.9489  0.6267
  502TMC3    C6 7462   1.131   2.006  14.757 -0.5675 -0.7700  0.0289
  502TMC3     C 7463   1.501   1.913  14.705  0.1381  0.1287  1.0477
  502TMC3     O 7464   1.586   1.992  14.658  0.5601 -0.4088  0.0279
  502TMC3     H 7465   1.405   2.132  14.631  0.9627 -0.7797 -0.4863
  502TMC3    H1 7466   1.332   1.740  14.699  1.1330  0.4865  0.9435
  502TMC3    H2 7467   1.039   2.044  14.800 -0.2358 -0.3911  0.4054
  502TMC3    C7 7468   1.131   1.785  14.852 -0.2865  0.1047 -0.1832
  502TMC3    C8 7469   1.231   2.211  14.798  0.1129  0.0687  0.2623
  502TMC3    O1 7470   1.227   1.727  14.901 -0.0693  0.1680 -0.0661
  502TMC3    O2 7471   1.345   2.233  14.823 -0.6578 -0.6869 -0.0869
  503MPD2     C 7472   3.529   2.690  16.812  0.7611 -0.0418 -0.0536
  503MPD2    C1 7473   3.603   2.693  16.934 -0.1658  0.5087 -0.7879
  503MPD2    C2 7474   3.641   2.573  16.993  0.0891  0.1303  0.3028
  503MPD2    C3 7475   3.608   2.453  16.928  0.6119 -0.0009  0.3588
  503MPD2    C4 7476   3.541   2.460  16.814 -1.0922  0.1071 -0.3510
  503MPD2    C5 7477   3.496   2.575  16.760 -0.1749  0.0622  0.4150
  503MPD2     H 7478   3.711   2.569  17.075  0.7239  0.7192 -0.2097
  503MPD2    H1 7479   3.509   2.373  16.757 -0.4711 -0.5339  0.2676
  503MPD2    H2 7480   3.499   2.782  16.765 -1.1889 -0.7664 -0.2513
  503MPD2    H3 7481   3.438   2.573  16.669  1.9651 -0.2613 -0.9618
  503MPD2     N 7482   3.647   2.333  16.986 -0.2990 -0.5125  0.2598
  503MPD2    H5 7483   3.674   2.338  17.084 -1.3946 -0.5959  0.5725
  503MPD2    N1 7484   3.655   2.809  16.993 -0.1823 -0.0255 -0.1671
  503MPD2    H7 7485   3.696   2.794  17.085  0.5964 -1.9072 -0.8372
  504TMC3    C1 7486   3.694   2.102  16.997  0.2183  0.3296  0.3578
  504TMC3    C2 7487   3.621   2.089  17.114 -0.1424 -0.2002 -0.4368
  504TMC3    C3 7488   3.643   1.983  17.198 -0.6518 -1.2262  0.0667
  504TMC3    C4 7489   3.767   1.997  16.956 -0.0152 -0.0146 -0.5066
  504TMC3    C5 7490   3.797   1.901  17.046  0.7034 -0.1939  0.5729
  504TMC3    C6 7491   3.745   1.896  17.167 -0.1226  0.2724 -0.1346
  504TMC3     C 7492   3.660   2.217  16.910 -0.1101  0.4973  0.5999
  504TMC3     O 7493   3.693   2.209  16.796 -0.1670  0.8191  0.0334
  504TMC3     H 7494   3.566   2.174  17.153  1.7755  0.6195  0.4610
  504TMC3    H1 7495   3.821   2.012  16.864 -0.4109 -1.9255 -1.0626
  504TMC3    H2 7496   3.775   1.823  17.241 -1.6643  0.0439  0.2420
  504TMC3    C7 7497   3.926   1.840  17.020 -0.0277 -0.1274 -0.1605
  504TMC3    C8 7498   3.596   2.006  17.337 -1.0049 -0.0402  0.6843
  504TMC3    O1 7499   3.991   1.869  16.918 -0.0152 -0.0684 -0.8217
  504TMC3    O2 7500   3.501   2.076  17.351  0.1487  0.1719  0.1204
  505MPD2     C 7501   4.370   1.439  11.283  0.7863  0.2245 -0.1188
  505MPD2    C1 7502   4.375   1.423  11.148 -0.1661 -0.7483 -0.3612
  505MPD2    C2 7503   4.483   1.476  11.082  0.1745 -0.3297 -0.6511
  505MPD2    C3 7504   4.586   1.539  11.149 -0.1308 -0.1390  0.1375
  505MPD2    C4 7505   4.581   1.559  11.290 -0.0121 -0.4257  0.0451
  505MPD2    C5 7506   4.473   1.499  11.354  0.5642  0.1012  0.0339
  505MPD2     H 7507   4.498   1.444  10.979  2.8085 -4.5163  1.0605
  505MPD2    H1 7508   4.667   1.595  11.346  0.4147  0.0900 -0.9378
  505MPD2    H2 7509   4.287   1.401  11.343  0.1076 -1.0661 -1.8756
  505MPD2    H3 7510   4.474   1.495  11.462  0.7029  2.1863  0.1009
  505MPD2     N 7511   4.709   1.571  11.077 -0.1972 -0.3458 -0.3185
  505MPD2    H5 7512   0.070   1.586  11.133 -0.9698  0.0463  0.7357
  505MPD2    N1 7513   4.281   1.336  11.086 -0.1517 -0.3324 -0.0878
  505MPD2    H7 7514   4.217   1.292  11.151  1.6714 -3.5180 -0.4828
  506TMC3    C1 7515   4.206   1.195  10.918 -0.0730  0.4164 -0.9431
  506TMC3    C2 7516   4.174   1.172  10.789  0.2651  0.0926 -0.3645
  506TMC3    C3 7517   4.180   1.045  10.741  0.8196 -0.1405  0.1064
  506TMC3    C4 7518   4.255   1.095  10.995 -0.2308 -0.2801 -0.9081
  506TMC3    C5 7519   4.252   0.969  10.939 -0.0106  0.2703  0.3056
  506TMC3    C6 7520   4.203   0.938  10.817  0.1805 -0.2259  0.5943
  506TMC3     C 7521   4.253   1.329  10.951 -0.4249  0.4953 -0.4228
  506TMC3     O 7522   4.283   1.404  10.858  0.3606  0.3482  0.7938
  506TMC3     H 7523   4.152   1.256  10.724 -0.2226  1.0491  1.0580
  506TMC3    H1 7524   4.308   1.094  11.090 -0.7764  0.4261 -0.5998
  506TMC3    H2 7525   4.208   0.843  10.764 -0.0072  0.7447 -1.1773
  506TMC3    C7 7526   4.367   0.901  10.985  0.3317  0.6581 -0.8691
  506TMC3    C8 7527   4.124   1.023  10.615  0.6111 -0.4921  0.0069
  506TMC3    O1 7528   4.362   0.812  11.068 -0.1314 -0.1155  0.4025
  506TMC3    O2 7529   4.037   0.936  10.615 -0.0131 -0.1136  0.5665
  507TMC3    C1 7530   0.178   2.192  14.898  0.2528  0.6234 -0.1823
  507TMC3    C2 7531   0.285   2.196  14.815  0.1700  0.0855  0.5840
  507TMC3    C3 7532   0.324   2.320  14.759  0.7460  0.0505 -0.2562
  507TMC3    C4 7533   0.127   2.310  14.950  0.3342 -0.8381  0.4906
  507TMC3    C5 7534   0.172   2.428  14.910  0.8828 -0.0541  0.3382
  507TMC3    C6 7535   0.268   2.434  14.817 -0.4367  0.0087 -0.0877
  507TMC3     C 7536   0.079   2.087  14.871  0.6631  0.0321 -0.3588
  507TMC3     O 7537   0.000   2.063  14.964  0.5191  0.2542 -0.5868
  507TMC3     H 7538   0.323   2.104  14.772  0.8130  0.6932 -0.1536
  507TMC3    H1 7539   0.029   2.298  14.996  1.3049 -2.4361  2.1303
  507TMC3    H2 7540   0.291   2.528  14.769  2.1176  0.3970  1.8856
  507TMC3    C7 7541   0.069   2.525  14.881 -0.1053  0.0277 -0.6343
  507TMC3    C8 7542   0.300   2.312  14.618 -0.0890 -0.0094 -0.3806
  507TMC3    O1 7543   4.698   2.480  14.816 -0.3781  0.4897 -0.4318
  507TMC3    O2 7544   0.337   2.205  14.563 -0.4371  0.9945 -0.3460
  508MPD2     C 7545   1.151   4.277  15.775  0.0772 -0.4815 -0.6405
  508MPD2    C1 7546   1.126   4.393  15.848 -0.0358  0.1501  0.1259
  508MPD2    C2 7547   1.108   4.513  15.778  0.1266  0.4019  0.6427
  508MPD2    C3 7548   1.120   4.514  15.640 -0.6387 -0.2210  0.0987
  508MPD2    C4 7549   1.148   4.394  15.573 -0.5482  0.1873  0.1702
  508MPD2    C5 7550   1.152   4.281  15.638  0.0592  0.3320  0.6029
  508MPD2     H 7551   1.079   4.606  15.825 -1.1290  1.1489 -1.5861
  508MPD2    H1 7552   1.161   4.382  15.466 -0.3162  2.1324 -0.0205
  508MPD2    H2 7553   1.168   4.189  15.837 -0.0625 -2.0215 -2.7821
  508MPD2    H3 7554   1.159   4.194  15.573  0.9557 -0.9815  2.4783
  508MPD2     N 7555   1.092   4.627  15.567 -0.4964  0.2184 -0.6196
  508MPD2    H5 7556   1.082   4.710  15.625 -0.4160  0.6789 -1.2712
  508MPD2    N1 7557   1.141   4.389  15.986  0.0797  0.2671 -0.1145
  508MPD2    H7 7558   1.193   4.312  16.027 -1.1608 -0.0831  0.8022
  509TMC3    C1 7559   0.941   0.254  15.402 -0.0890  0.4354  0.6192
  509TMC3    C2 7560   0.982   0.284  15.271 -0.1025 -0.1006 -0.2265
  509TMC3    C3 7561   1.064   0.199  15.201 -0.2553  0.0298 -0.4451
  509TMC3    C4 7562   0.983   0.137  15.457  0.5294 -0.6028  0.8253
  509TMC3    C5 7563   1.068   0.055  15.387  0.3127 -0.3202 -0.0219
  509TMC3    C6 7564   1.105   0.080  15.258  0.2182  0.3808  0.5319
  509TMC3     C 7565   0.879   0.360  15.479  0.6543  0.4277  0.4179
  509TMC3     O 7566   0.785   0.319  15.545 -0.1658  0.7279 -0.4187
  509TMC3     H 7567   0.926   0.358  15.215  0.2588  1.5412  1.5824
  509TMC3    H1 7568   0.936   0.103  15.549  0.8377  0.2971  1.3172
  509TMC3    H2 7569   1.182   0.018  15.214  1.0251  1.2654  0.6783
  509TMC3    C7 7570   1.099   4.647  15.430 -0.2414 -0.2206 -0.1913
  509TMC3    C8 7571   1.160   0.256  15.104 -0.1770 -0.7366 -0.4674
  509TMC3    O1 7572   1.131   4.565  15.341 -0.4249 -0.2171 -0.5481
  509TMC3    O2 7573   1.235   0.182  15.041  0.4704 -0.1506  0.1325
  510MPD2     C 7574   3.477   1.377  14.456 -0.0182  0.0902  0.0856
  510MPD2    C1 7575   3.506   1.487  14.533 -0.3825 -0.1060 -0.7925
  510MPD2    C2 7576   3.622   1.561  14.504  0.2834  0.6066  0.2778
  510MPD2    C3 7577   3.716   1.519  14.409  0.5128  0.0449 -0.0795
  510MPD2    C4 7578   3.682   1.402  14.339  0.0764  0.1569  0.6019
  510MPD2    C5 7579   3.561   1.338  14.361 -0.4981  0.7347 -0.9074
  510MPD2     H 7580   3.646   1.646  14.567  1.4238  0.3298  0.2314
  510MPD2    H1 7581   3.746   1.360  14.263 -2.6485 -0.1883 -1.4973
  510MPD2    H2 7582   3.389   1.320  14.482  0.3000 -1.6179 -2.6256
  510MPD2    H3 7583   3.530   1.248  14.310  0.9071 -0.6937  0.7433
  510MPD2     N 7584   3.841   1.592  14.393  0.5319 -0.4994  1.0467
  510MPD2    H5 7585   3.840   1.689  14.422  0.2662 -0.0814 -0.3779
  510MPD2    N1 7586   3.419   1.513  14.639 -0.1554  0.1514  0.4980
  510MPD2    H7 7587   3.338   1.453  14.656 -0.5569  0.6986  0.5218
  511TMC3    C1 7588   3.304   1.604  14.812 -0.3222 -0.1368 -0.0161
  511TMC3    C2 7589   3.327   1.613  14.944  0.2251 -0.4475 -0.2925
  511TMC3    C3 7590   3.263   1.521  15.025  0.8418 -0.0711  0.2303
  511TMC3    C4 7591   3.218   1.512  14.757  0.9343 -0.5137  0.2635
  511TMC3    C5 7592   3.174   1.409  14.839  1.2077  0.8103  0.5767
  511TMC3    C6 7593   3.191   1.409  14.976  0.2787  0.2145  0.4983
  511TMC3     C 7594   3.424   1.613  14.730 -0.2211 -0.9251  0.4672
  511TMC3     O 7595   3.524   1.675  14.768  0.3988  0.3302  0.2557
  511TMC3     H 7596   3.396   1.685  14.987 -0.6225  1.3449 -1.9179
  511TMC3    H1 7597   3.195   1.518  14.651  2.3092  0.0510  0.0017
  511TMC3    H2 7598   3.142   1.329  15.029  0.0910 -0.3847 -0.5741
  511TMC3    C7 7599   3.180   1.287  14.760  0.0183  0.3476 -0.1545
  511TMC3    C8 7600   3.245   1.566  15.166  0.6766 -0.2287 -0.3105
  511TMC3    O1 7601   3.208   1.305  14.644 -0.1819 -0.0544  0.2968
  511TMC3    O2 7602   3.250   1.684  15.200  0.2793  0.2362  0.1018
  512TMC3    C1 7603   2.304   0.866  12.760 -0.0919 -0.5933  0.1658
  512TMC3    C2 7604   2.338   0.823  12.892  0.0133  0.1340 -0.0108
  512TMC3    C3 7605   2.409   0.704  12.893 -0.6814  0.2102 -0.6269
  512TMC3    C4 7606   2.335   0.798  12.650  0.0126 -0.1617  0.3309
  512TMC3    C5 7607   2.402   0.675  12.657  0.2530 -0.0620 -0.0824
  512TMC3    C6 7608   2.431   0.624  12.783  0.2477 -1.1255  0.6231
  512TMC3     C 7609   2.272   1.009  12.734  0.2274  0.2552  0.5174
  512TMC3     O 7610   2.257   1.035  12.614  0.6745  0.0684  0.4842
  512TMC3     H 7611   2.315   0.877  12.983  1.1947 -0.1116  0.4362
  512TMC3    H1 7612   2.327   0.846  12.553 -0.7548 -1.1745 -0.1096
  512TMC3    H2 7613   2.486   0.531  12.797  1.5435 -0.5691 -0.8421
  512TMC3    C7 7614   2.504   0.660  12.548  0.5390  0.0534 -0.3367
  512TMC3    C8 7615   2.471   0.658  13.016 -0.3435 -0.2502  0.0452
  512TMC3    O1 7616   2.502   0.749  12.466 -0.1695  0.5027 -0.0269
  512TMC3    O2 7617   2.497   0.541  13.023 -0.1254  1.0358  0.5134
  513MPD2     C 7618   4.083   0.660  13.270  0.7348 -0.3232 -0.5246
  513MPD2    C1 7619   4.142   0.765  13.198 -0.5470  0.8061 -0.1206
  513MPD2    C2 7620   4.202   0.858  13.273  0.1233 -0.4016  0.4669
  513MPD2    C3 7621   4.197   0.851  13.411 -0.1028  1.3812 -0.3252
  513MPD2    C4 7622   4.155   0.737  13.477  0.2997 -0.1910  0.6801
  513MPD2    C5 7623   4.085   0.644  13.405 -0.5395 -0.3580  0.4682
  513MPD2     H 7624   4.250   0.943  13.225 -1.8319  1.0502  1.0959
  513MPD2    H1 7625   4.158   0.733  13.585  0.6131  1.0601  0.7176
  513MPD2    H2 7626   4.029   0.580  13.221  2.0355 -0.3380 -1.9347
  513MPD2    H3 7627   4.046   0.550  13.442 -0.0871 -0.9873 -0.6434
  513MPD2     N 7628   4.272   0.955  13.468  0.2474 -0.2818 -0.7282
  513MPD2    H5 7629   4.317   1.016  13.400 -1.1508  2.6468  0.9933
  513MPD2    N1 7630   4.128   0.782  13.059  0.2803  0.1966  0.0885
  513MPD2    H7 7631   4.172   0.861  13.012 -0.6858  0.5296 -0.2383
  514TMC3    C1 7632   4.114   0.718  12.835 -0.4646 -0.3073  0.2738
  514TMC3    C2 7633   4.229   0.661  12.795 -0.1816 -0.5992 -0.5201
  514TMC3    C3 7634   4.304   0.725  12.697  0.5747 -0.1047 -0.1114
  514TMC3    C4 7635   4.088   0.846  12.810  0.1583  0.3479 -0.0265
  514TMC3    C5 7636   4.175   0.921  12.735 -0.3037 -0.0620 -0.1690
  514TMC3    C6 7637   4.273   0.852  12.665  0.8746  0.1098  0.1666
  514TMC3     C 7638   4.081   0.683  12.974  0.0180 -0.2984  0.2147
  514TMC3     O 7639   4.081   0.566  13.008  0.3444 -0.6051 -0.9345
  514TMC3     H 7640   4.255   0.560  12.824  0.8258  0.1227  1.0550
  514TMC3    H1 7641   4.006   0.894  12.862 -1.7377 -2.2357 -0.6543
  514TMC3    H2 7642   4.317   0.906  12.582  1.6297 -0.4795  0.1775
  514TMC3    C7 7643   4.245   1.014  12.827  0.5723 -0.3120  0.6258
  514TMC3    C8 7644   4.447   0.703  12.706 -0.9236 -0.1842  0.3454
  514TMC3    O1 7645   4.200   1.027  12.941 -0.2502  0.0760 -0.7908
  514TMC3    O2 7646   4.497   0.669  12.809  0.0040 -0.4454  0.0062
  515MPD2     C 7647   2.556   3.110  14.622 -0.3919 -0.1449 -0.1858
  515MPD2    C1 7648   2.596   2.981  14.622  0.3258  0.2212 -0.1457
  515MPD2    C2 7649   2.667   2.941  14.735  0.2214  0.6335  0.1197
  515MPD2    C3 7650   2.698   3.021  14.841  0.0341 -0.6858  0.1732
  515MPD2    C4 7651   2.651   3.149  14.836  0.0026  0.3294  0.3685
  515MPD2    C5 7652   2.585   3.195  14.724 -0.6322 -0.1889  0.2087
  515MPD2     H 7653   2.693   2.836  14.740  2.2871  1.2363  1.9058
  515MPD2    H1 7654   2.675   3.219  14.915  0.1484  0.3345  0.3183
  515MPD2    H2 7655   2.505   3.146  14.533  0.1299 -0.5275 -0.6384
  515MPD2    H3 7656   2.554   3.298  14.717  1.1039  0.3846  0.8533
  515MPD2     N 7657   2.774   2.972  14.951  0.2083 -0.7427 -0.7235
  515MPD2    H5 7658   2.776   3.040  15.026 -0.0141  0.3568 -1.7261
  515MPD2    N1 7659   2.557   2.885  14.529  0.4058  0.0500 -0.0632
  515MPD2    H7 7660   2.578   2.788  14.551 -3.8970 -0.8991 -0.1489
  516TMC3    C1 7661   2.445   2.783  14.354 -0.0827  0.3248  0.1222
  516TMC3    C2 7662   2.437   2.780  14.216  0.1670  0.1027  0.0225
  516TMC3    C3 7663   2.434   2.655  14.157 -0.0264 -0.1739  0.5475
  516TMC3    C4 7664   2.437   2.670  14.430 -0.2512  0.2744  0.3178
  516TMC3    C5 7665   2.416   2.549  14.364  0.2808 -0.1629  0.0132
  516TMC3    C6 7666   2.425   2.542  14.227  0.1712  0.2094 -0.0845
  516TMC3     C 7667   2.492   2.903  14.413  0.2369 -0.0904 -0.0587
  516TMC3     O 7668   2.481   3.002  14.356  0.4087  0.1160 -0.5214
  516TMC3     H 7669   2.460   2.871  14.162  1.0732  0.3604  0.8396
  516TMC3    H1 7670   2.451   2.665  14.537 -0.0271  0.8684  0.3147
  516TMC3    H2 7671   2.421   2.444  14.180 -0.6660 -0.1309  0.6923
  516TMC3    C7 7672   2.351   2.442  14.432  0.3413  0.3718  0.5975
  516TMC3    C8 7673   2.313   2.630  14.076  0.1217 -1.0363 -0.5497
  516TMC3    O1 7674   2.369   2.418  14.551  0.3809 -0.2150 -0.3600
  516TMC3    O2 7675   2.221   2.562  14.127  0.3223 -0.9018  0.0165
  517MPD2     C 7676   1.939   4.160  17.551  0.3629  0.5529  0.3857
  517MPD2    C1 7677   2.061   4.204  17.589  0.3396  0.2017 -0.0610
  517MPD2    C2 7678   2.082   4.323  17.664 -0.3855 -0.0990  0.1443
  517MPD2    C3 7679   1.972   4.398   0.010  0.0714 -0.5390  0.3883
  517MPD2    C4 7680   1.853   4.344  17.668  0.0041 -0.2876  0.3806
  517MPD2    C5 7681   1.837   4.234  17.590 -0.4403 -0.7793 -0.1832
  517MPD2     H 7682   2.184   4.351  17.687 -0.4580 -2.0565  2.7830
  517MPD2    H1 7683   1.764   4.394   0.014 -0.2181  0.1043 -0.6913
  517MPD2    H2 7684   1.912   4.061  17.515  0.4218  0.8244 -0.4008
  517MPD2    H3 7685   1.737   4.213  17.555 -1.5882  4.2074  0.1128
  517MPD2     N 7686   1.987   4.525   0.074 -0.5063 -0.4158  0.0415
  517MPD2    H5 7687   1.902   4.572   0.104 -1.3362 -2.1338  0.3416
  517MPD2    N1 7688   2.178   4.131  17.561  0.2576 -0.3584  0.0064
  517MPD2    H7 7689   2.266   4.164  17.600  0.4802 -1.0534  0.0951
  518TMC3    C1 7690   2.313   3.923  17.511 -0.2004 -1.0262  0.4747
  518TMC3    C2 7691   2.302   3.787  17.539 -0.3721  1.4802 -0.2823
  518TMC3    C3 7692   2.422   3.713  17.538  0.3303 -0.8277  0.1677
  518TMC3    C4 7693   2.428   3.984  17.482  0.6316 -0.3429  0.5837
  518TMC3    C5 7694   2.541   3.902  17.466 -0.5914  0.2018 -0.1073
  518TMC3    C6 7695   2.539   3.769  17.500 -0.2468  0.0639 -0.3812
  518TMC3     C 7696   2.186   4.000  17.507  0.0687 -0.4401  0.2617
  518TMC3     O 7697   2.098   3.930  17.454  0.1890  0.5245 -0.4158
  518TMC3     H 7698   2.210   3.731  17.552  0.5511 -0.3389 -1.5123
  518TMC3    H1 7699   2.441   4.090  17.460 -0.5294 -0.9842 -3.2477
  518TMC3    H2 7700   2.630   3.718  17.528 -0.1874  1.0425  1.2377
  518TMC3    C7 7701   2.664   3.974  17.434 -0.4117 -0.2933 -0.0563
  518TMC3    C8 7702   2.423   3.571  17.552 -0.2657  0.8140 -0.0141
  518TMC3    O1 7703   2.658   4.094  17.407 -0.3619  0.1423 -0.0702
  518TMC3    O2 7704   2.514   3.509  17.497 -0.1878 -0.1761 -0.0091
  519MPD2     C 7705   4.078   2.897  13.876 -0.3903  0.1819 -0.1302
  519MPD2    C1 7706   4.004   2.796  13.819  0.1350  0.2571  0.4919
  519MPD2    C2 7707   4.054   2.670  13.816 -0.2123 -0.2786 -0.1983
  519MPD2    C3 7708   4.180   2.626  13.848  0.7879  0.6630  0.3211
  519MPD2    C4 7709   4.257   2.727  13.899 -0.0071 -0.2553 -0.1893
  519MPD2    C5 7710   4.210   2.856  13.915  0.1992 -0.1946  0.2200
  519MPD2     H 7711   3.980   2.593  13.794 -1.6358  0.8419  0.7076
  519MPD2    H1 7712   4.357   2.715  13.939  0.1509 -0.0629 -0.5255
  519MPD2    H2 7713   4.035   2.994  13.895  2.8386  1.6874 -0.4665
  519MPD2    H3 7714   4.277   2.933  13.950 -0.5966  1.2198 -1.4005
  519MPD2     N 7715   4.215   2.489  13.868 -0.2419  0.1311  0.8654
  519MPD2    H5 7716   4.307   2.469  13.905 -0.6124  2.6919  3.1269
  519MPD2    N1 7717   3.874   2.830  13.771 -0.4122 -0.3538 -0.4507
  519MPD2    H7 7718   3.831   2.919  13.796 -0.7903 -1.0923  1.4941
  520TMC3    C1 7719   4.199   2.262  13.851 -0.6556 -0.4475  0.0369
  520TMC3    C2 7720   4.091   2.174  13.875 -0.1226 -0.3785 -0.4900
  520TMC3    C3 7721   4.109   2.075  13.969  0.0510  0.4935  0.0673
  520TMC3    C4 7722   4.326   2.251  13.905  0.0420 -0.4485 -0.5339
  520TMC3    C5 7723   4.344   2.146  13.987 -0.3459  0.3475 -0.8524
  520TMC3    C6 7724   4.236   2.060  14.022  0.1606 -0.9469  0.3239
  520TMC3     C 7725   4.144   2.391  13.810 -0.8526 -0.1136  0.7971
  520TMC3     O 7726   4.053   2.395  13.729 -0.2602  0.4713  0.3487
  520TMC3     H 7727   4.006   2.183  13.809 -0.1162  3.4590  0.0118
  520TMC3    H1 7728   4.413   2.311  13.879  0.4577 -0.7740  0.0974
  520TMC3    H2 7729   4.261   1.964  14.065  0.2714 -1.5986 -1.1831
  520TMC3    C7 7730   4.480   2.095  14.026  0.1036  0.6286 -0.0376
  520TMC3    C8 7731   4.030   1.954  13.941  0.3737  0.6512  0.1211
  520TMC3    O1 7732   4.489   2.035  14.131 -0.4076 -0.0239 -0.3521
  520TMC3    O2 7733   4.069   1.844  13.970  0.4849  0.8333  0.4455
  521MPD2     C 7734   4.689   0.421  17.551 -0.2183 -0.6675  0.0845
  521MPD2    C1 7735   4.651   0.365  17.434  0.1662 -0.0135  0.2261
  521MPD2    C2 7736   0.023   0.344  17.340 -0.1223  0.4468 -0.0646
  521MPD2    C3 7737   0.155   0.383  17.360  0.2954  0.0081 -0.2615
  521MPD2    C4 7738   0.194   0.434  17.482  0.7862 -0.5906  0.0549
  521MPD2    C5 7739   0.096   0.455  17.576 -0.0945 -0.4377 -0.1098
  521MPD2     H 7740   4.721   0.285  17.252  2.0042 -1.3877  0.6009
  521MPD2    H1 7741   0.298   0.452  17.509  0.2985  2.2381  0.0391
  521MPD2    H2 7742   4.619   0.421  17.634 -0.3928 -0.2323 -0.0679
  521MPD2    H3 7743   0.130   0.481  17.676 -1.6877  1.3554 -0.0286
  521MPD2     N 7744   0.239   0.354  17.251 -0.4122  0.0064 -0.3665
  521MPD2    H5 7745   0.187   0.331  17.167  0.3036  0.7625 -1.0055
  521MPD2    N1 7746   4.523   0.324  17.414 -0.4937  0.4852 -0.1604
  521MPD2    H7 7747   4.455   0.328  17.489  0.8590  0.9762  1.0420
  522TMC3    C1 7748   0.427   0.327  17.120 -0.8958 -0.1727 -0.7008
  522TMC3    C2 7749   0.561   0.315  17.116 -0.1455  0.3012  0.5224
  522TMC3    C3 7750   0.626   0.274  17.000 -0.3521 -0.1337  0.4404
  522TMC3    C4 7751   0.348   0.331  17.002  0.0619 -0.7809  0.0466
  522TMC3    C5 7752   0.424   0.328  16.888 -0.8978 -0.5121 -0.3470
  522TMC3    C6 7753   0.561   0.296  16.881  0.0589 -0.6722 -0.1254
  522TMC3     C 7754   0.374   0.343  17.254 -0.3268  0.2426  0.2259
  522TMC3     O 7755   0.447   0.344  17.353 -0.7745  0.0224 -0.8053
  522TMC3     H 7756   0.610   0.314  17.213 -2.0035 -1.4271  1.4668
  522TMC3    H1 7757   0.244   0.361  17.003  0.4653  0.6191  0.0554
  522TMC3    H2 7758   0.614   0.292  16.787  0.8018 -1.6298  0.3349
  522TMC3    C7 7759   0.365   0.392  16.765  0.2168 -0.0889 -0.3194
  522TMC3    C8 7760   0.774   0.266  17.000  0.8244  0.4319 -0.4350
  522TMC3    O1 7761   0.433   0.404  16.665  0.1805 -0.1946 -0.3305
  522TMC3    O2 7762   0.832   0.283  17.107  0.4195 -0.0648 -0.1434
  523MPD2     C 7763   3.084   4.339  10.523 -0.1982  0.2304 -1.0063
  523MPD2    C1 7764   3.066   4.370  10.391  0.2486  1.1995 -0.0946
  523MPD2    C2 7765   3.017   4.499  10.354  0.2947 -0.7975  0.7961
  523MPD2    C3 7766   2.983   4.586  10.453 -0.2817  0.4612  0.2143
  523MPD2    C4 7767   3.002   4.554  10.585 -0.7123 -0.0236  0.7737
  523MPD2    C5 7768   3.039   4.433  10.617  0.4237 -0.7389 -0.8068
  523MPD2     H 7769   2.994   4.520  10.250  0.7853  0.4888  0.9456
  523MPD2    H1 7770   2.963   4.618  10.664 -0.1046  0.1415  0.9410
  523MPD2    H2 7771   3.114   4.239  10.554 -1.8587 -0.1815 -0.7384
  523MPD2    H3 7772   3.034   4.408  10.723  0.4787  1.7958 -0.2083
  523MPD2     N 7773   2.933   4.718  10.434 -0.2419 -0.1934  0.0930
  523MPD2    H5 7774   2.901   0.037  10.521 -0.6385  1.8734 -1.0346
  523MPD2    N1 7775   3.080   4.268  10.299 -0.2656  0.0206  0.1028
  523MPD2    H7 7776   3.115   4.184  10.345  0.5880 -0.5520 -1.5923
  524TMC3    C1 7777   2.911   0.197  10.310 -0.5372 -0.2314 -0.0461
  524TMC3    C2 7778   2.976   0.300  10.245  0.0572  0.1801  0.0213
  524TMC3    C3 7779   2.924   0.426  10.250  0.5516 -0.3570  0.1520
  524TMC3    C4 7780   2.805   0.227  10.390 -0.1825 -0.0070 -0.2033
  524TMC3    C5 7781   2.765   0.354  10.407  0.9456  0.0547  0.5330
  524TMC3    C6 7782   2.819   0.459  10.329  0.7860  0.1988  0.7362
  524TMC3     C 7783   2.962   0.066  10.315 -0.0227  0.2760  0.0330
  524TMC3     O 7784   3.027   0.031  10.219  0.5549 -0.4741 -0.5038
  524TMC3     H 7785   3.066   0.282  10.187 -1.2902 -1.6433 -1.4771
  524TMC3    H1 7786   2.743   0.149  10.431 -0.9775  0.7039 -0.0424
  524TMC3    H2 7787   2.771   0.556  10.318  0.1375 -0.4906 -2.6357
  524TMC3    C7 7788   2.623   0.368  10.450 -0.1859 -0.0059 -0.6094
  524TMC3    C8 7789   2.989   0.521  10.167  1.0325  0.2495  0.3192
  524TMC3    O1 7790   2.577   0.296  10.540  0.1772 -0.1482  0.3116
  524TMC3    O2 7791   3.048   0.484  10.066  0.2508  0.7708  0.0487
  525MPD2     C 7792   0.460   1.779  14.443  0.1947  0.3125  0.3982
  525MPD2    C1 7793   0.595   1.774  14.474  0.3902  0.5570 -0.1348
  525MPD2    C2 7794   0.677   1.873  14.424 -0.2404  0.7066 -0.8768
  525MPD2    C3 7795   0.626   1.974  14.353 -0.4243 -0.2930  0.6183
  525MPD2    C4 7796   0.496   1.983  14.314 -0.7058 -0.3970  0.4590
  525MPD2    C5 7797   0.419   1.882  14.359 -1.1073  0.1413  0.1323
  525MPD2     H 7798   0.782   1.861  14.451 -0.9025 -1.4562  0.6688
  525MPD2    H1 7799   0.452   2.069  14.264  0.2981  0.3521  0.8722
  525MPD2    H2 7800   0.393   1.697  14.464 -1.5785  1.5631 -0.4236
  525MPD2    H3 7801   0.319   1.884  14.318 -0.1360 -2.1481 -2.3589
  525MPD2     N 7802   0.693   2.092  14.320  0.2584 -0.0992 -0.4159
  525MPD2    H5 7803   0.635   2.173  14.297  0.0987  0.4600  2.0107
  525MPD2    N1 7804   0.650   1.670  14.554  0.0031  0.5067  0.0649
  525MPD2    H7 7805   0.749   1.677  14.574  0.1186  1.9578 -0.9501
  526TMC3    C1 7806   0.646   1.505  14.713 -0.5962  0.5717 -0.3226
  526TMC3    C2 7807   0.583   1.479  14.835 -0.2640  0.0747  0.4457
  526TMC3    C3 7808   0.660   1.442  14.945  0.0869  0.2384  0.0352
  526TMC3    C4 7809   0.786   1.485  14.713 -0.3082  0.3659 -0.2385
  526TMC3    C5 7810   0.858   1.456  14.827  0.1672 -0.0825 -0.0269
  526TMC3    C6 7811   0.794   1.435  14.945  0.5300  0.5693  0.2212
  526TMC3     C 7812   0.568   1.582  14.621  0.2424 -0.3730  0.2402
  526TMC3     O 7813   0.449   1.583  14.634  0.1254 -0.4143 -0.1613
  526TMC3     H 7814   0.480   1.510  14.837 -0.3548 -0.3767  2.3001
  526TMC3    H1 7815   0.839   1.506  14.620  3.7652 -0.5205  1.8625
  526TMC3    H2 7816   0.851   1.432  15.036  1.1928  0.1072 -0.2099
  526TMC3    C7 7817   1.003   1.429  14.826  0.4218  0.0247 -0.2857
  526TMC3    C8 7818   0.594   1.389  15.063 -0.4015 -0.6235  0.3368
  526TMC3    O1 7819   1.056   1.426  14.933 -0.2196  0.2217 -0.5423
  526TMC3    O2 7820   0.668   1.367  15.154  0.0765  0.1558  0.3582
  527MPD2     C 7821   4.258   4.607   1.844 -1.0148  0.3328 -0.0515
  527MPD2    C1 7822   4.222   4.692   1.733 -0.7262 -0.0447 -0.8491
  527MPD2    C2 7823   4.179   4.624   1.621  0.5681  0.1306  0.1752
  527MPD2    C3 7824   4.161   4.488   1.621 -0.0969  0.2411  0.2012
  527MPD2    C4 7825   4.207   4.408   1.722 -0.8731 -0.0713  0.3195
  527MPD2    C5 7826   4.250   4.465   1.834  0.3054 -0.3133 -0.3093
  527MPD2     H 7827   4.162   4.682   1.531  2.3481  0.4729  0.0461
  527MPD2    H1 7828   4.182   4.303   1.728  2.8191 -0.9880 -0.1790
  527MPD2    H2 7829   4.305   4.642   1.936 -0.3588  0.7084 -0.5307
  527MPD2    H3 7830   4.269   4.404   1.922 -2.0520 -1.7593 -0.7824
  527MPD2     N 7831   4.119   4.416   1.510 -0.4237  0.3062 -0.1254
  527MPD2    H5 7832   4.127   4.316   1.521  2.0335  0.5854  0.4853
  527MPD2    N1 7833   4.234   0.105   1.747  0.2854  0.4979 -0.4767
  527MPD2    H7 7834   4.225   0.172   1.671 -0.0742  2.3506  1.2242
  528TMC3    C1 7835   4.304   0.312   1.835  0.0452 -0.7484  0.5719
  528TMC3    C2 7836   4.334   0.377   1.951  0.2034 -0.0426  0.3045
  528TMC3    C3 7837   4.399   0.501   1.942 -0.1298 -0.3983  0.2370
  528TMC3    C4 7838   4.329   0.365   1.711 -0.3077  0.2600  0.0663
  528TMC3    C5 7839   4.381   0.487   1.703 -0.1655  0.5289 -0.2928
  528TMC3    C6 7840   4.410   0.559   1.818 -0.4117 -0.6658 -0.2468
  528TMC3     C 7841   4.278   0.168   1.862 -0.6487  0.7821  0.3475
  528TMC3     O 7842   4.323   0.134   1.974 -0.0354 -0.0811 -0.6777
  528TMC3     H 7843   4.313   0.337   2.050 -2.5068 -0.2232 -0.3393
  528TMC3    H1 7844   4.302   0.305   1.625 -0.1263  0.6259 -0.2493
  528TMC3    H2 7845   4.457   0.656   1.807  2.5082 -2.1773 -1.2082
  528TMC3    C7 7846   4.349   0.571   1.587 -0.2006  0.3169 -0.5421
  528TMC3    C8 7847   4.424   0.592   2.054 -0.2722  0.7925  0.6432
  528TMC3    O1 7848   4.344   0.691   1.598  0.3553 -0.4599  0.7991
  528TMC3    O2 7849   4.412   0.710   2.030  0.1839 -0.6019 -0.5413
  529MPD2     C 7850   1.272   3.198   1.174 -0.0464  0.2822 -0.5742
  529MPD2    C1 7851   1.321   3.081   1.123  0.3914  0.0947 -0.4798
  529MPD2    C2 7852   1.352   3.078   0.990 -0.2435  0.6315  0.5253
  529MPD2    C3 7853   1.334   3.191   0.911  0.4496 -0.4183  0.5712
  529MPD2    C4 7854   1.289   3.308   0.966 -0.6596 -0.2972  0.0373
  529MPD2    C5 7855   1.260   3.312   1.101 -0.6644  0.3029  0.0136
  529MPD2     H 7856   1.394   2.989   0.945 -0.4970 -0.7010  2.9419
  529MPD2    H1 7857   1.273   3.397   0.906 -3.5916 -0.7826  0.1310
  529MPD2    H2 7858   1.242   3.202   1.278  1.7952 -0.6913  0.0021
  529MPD2    H3 7859   1.208   3.395   1.148 -0.4507  1.1604 -1.2782
  529MPD2     N 7860   1.354   3.193   0.775 -0.5444 -0.1793 -0.1285
  529MPD2    H5 7861   1.321   3.279   0.732 -0.4074 -0.0696 -0.0149
  529MPD2    N1 7862   1.319   2.963   1.194  0.5343  0.0320  0.2415
  529MPD2    H7 7863   1.329   2.878   1.140  1.8737  0.3974 -0.0793
  530TMC3    C1 7864   1.308   2.819   1.383 -0.4094  0.1136 -0.3969
  530TMC3    C2 7865   1.372   2.781   1.500  0.6319 -0.4844 -0.0300
  530TMC3    C3 7866   1.375   2.648   1.532  0.0845 -0.7456  0.0034
  530TMC3    C4 7867   1.236   2.730   1.304  0.6940 -0.4904 -0.3835
  530TMC3    C5 7868   1.227   2.595   1.348  0.9708 -0.0792 -0.0722
  530TMC3    C6 7869   1.297   2.555   1.463 -0.2990 -0.1026  0.4147
  530TMC3     C 7870   1.321   2.951   1.330 -0.5065  0.1868 -0.2526
  530TMC3     O 7871   1.350   3.042   1.405  0.2858  0.1832 -0.7133
  530TMC3     H 7872   1.416   2.858   1.563 -0.7242 -0.2376  0.6198
  530TMC3    H1 7873   1.191   2.761   1.211 -1.5384  0.8480  1.1417
  530TMC3    H2 7874   1.297   2.459   1.513  0.9374 -0.9682 -1.2395
  530TMC3    C7 7875   1.118   2.516   1.294  0.2176  0.2107  0.3905
  530TMC3    C8 7876   1.420   2.604   1.660 -0.0738 -0.7114  0.1841
  530TMC3    O1 7877   1.029   2.568   1.227  0.1016  0.2481 -0.2047
  530TMC3    O2 7878   1.376   2.660   1.758  0.2970 -0.2143 -0.4670
  531MPD2     C 7879   4.718   1.142  12.998 -0.1278  0.6181 -0.5181
  531MPD2    C1 7880   4.601   1.137  13.065 -0.2873 -0.2233 -0.3324
  531MPD2    C2 7881   4.490   1.084  12.998 -0.0860  0.1818  0.0233
  531MPD2    C3 7882   4.491   1.057  12.865 -0.8643  0.1400  0.0956
  531MPD2    C4 7883   4.617   1.063  12.805 -0.2040  0.6083  0.0449
  531MPD2    C5 7884   0.001   1.105  12.875 -0.3188 -0.8160  0.0405
  531MPD2     H 7885   4.400   1.060  13.054  0.1806  1.5373  1.0543
  531MPD2    H1 7886   4.631   1.052  12.698 -2.4412 -1.8129  0.0012
  531MPD2    H2 7887   0.088   1.173  13.047  0.0937  0.6775 -0.9687
  531MPD2    H3 7888   0.096   1.102  12.822  0.1164  2.2672  0.6841
  531MPD2     N 7889   4.378   1.030  12.787  0.0288  0.2185 -0.0545
  531MPD2    H5 7890   4.399   1.001  12.692 -0.0077  0.2197 -0.0631
  531MPD2    N1 7891   4.600   1.173  13.203  0.4886 -0.6043 -0.3334
  531MPD2    H7 7892   4.676   1.231  13.240 -0.3801  1.6020 -1.9997
  532TMC3    C1 7893   4.511   1.184  13.425 -0.7239 -0.0217  0.1456
  532TMC3    C2 7894   4.391   1.165  13.495  0.1132 -0.1202 -0.1285
  532TMC3    C3 7895   4.404   1.083  13.609 -0.7830  0.2108 -0.2681
  532TMC3    C4 7896   4.631   1.145  13.474 -0.0412  0.4858 -0.3830
  532TMC3    C5 7897   4.636   1.069  13.593 -0.0641 -0.8799  0.0824
  532TMC3    C6 7898   4.523   1.042  13.663 -0.4086  0.1030  0.6214
  532TMC3     C 7899   4.481   1.173  13.282 -0.5758 -0.5778 -0.3986
  532TMC3     O 7900   4.368   1.147  13.256 -0.2999 -0.0960  0.1254
  532TMC3     H 7901   4.295   1.206  13.466  0.1915 -1.7283 -2.6288
  532TMC3    H1 7902   0.003   1.165  13.424  0.0549  4.1146  1.2203
  532TMC3    H2 7903   4.519   0.969  13.742  2.6748  0.9690  1.5757
  532TMC3    C7 7904   0.047   1.036  13.644  0.0743 -0.5469  0.5857
  532TMC3    C8 7905   4.302   0.982  13.599 -0.2661  0.3553  0.5949
  532TMC3    O1 7906   0.143   1.078  13.579  0.1582 -0.3209  0.3944
  532TMC3    O2 7907   4.292   0.904  13.689 -0.3586 -0.1458  0.0484
  533TMC3    C1 7908   0.845   2.264  14.392  0.0847 -0.7218 -0.6383
  533TMC3    C2 7909   0.976   2.295  14.431 -0.5088  0.1087 -0.5960
  533TMC3    C3 7910   0.987   2.383  14.532 -0.1362  0.3190 -0.1403
  533TMC3    C4 7911   0.737   2.328  14.442 -0.2031 -0.5814 -0.8311
  533TMC3    C5 7912   0.758   2.413  14.547  0.1331 -0.3059  0.0062
  533TMC3    C6 7913   0.882   2.449  14.586 -0.1302 -0.4382  0.6243
  533TMC3     C 7914   0.824   2.122  14.368 -0.1262 -0.3061  0.1092
  533TMC3     O 7915   0.905   2.052  14.424  0.3561 -0.2926  0.6212
  533TMC3     H 7916   1.050   2.227  14.391  0.0800  1.1287 -1.2486
  533TMC3    H1 7917   0.639   2.309  14.401 -0.5621 -0.7748  0.1101
  533TMC3    H2 7918   0.897   2.535  14.650 -0.6795  0.6717 -0.7351
  533TMC3    C7 7919   0.671   2.400  14.662  0.5545  0.3350  0.0164
  533TMC3    C8 7920   1.108   2.457  14.532 -1.0029  0.4326 -0.2858
  533TMC3    O1 7921   0.592   2.307  14.648 -0.2881 -0.2778  0.2229
  533TMC3    O2 7922   1.107   2.553  14.604  0.1412  0.1350  0.2319
  534MPD2     C 7923   3.813   2.606   2.143 -0.0558 -0.0189  0.5077
  534MPD2    C1 7924   3.799   2.700   2.041  0.1801 -0.2962  0.2316
  534MPD2    C2 7925   3.677   2.712   1.983 -0.6577 -0.0028 -0.3454
  534MPD2    C3 7926   3.567   2.642   2.036  0.0705  0.2056 -0.0597
  534MPD2    C4 7927   3.581   2.554   2.141 -0.4046  0.6664 -0.6860
  534MPD2    C5 7928   3.703   2.538   2.188  0.3488  0.5564 -0.7670
  534MPD2     H 7929   3.661   2.782   1.901 -0.1495  2.9361  2.0635
  534MPD2    H1 7930   3.503   2.492   2.182  2.3025 -2.3485 -0.1292
  534MPD2    H2 7931   3.907   2.575   2.186  0.0063 -2.1592 -1.0986
  534MPD2    H3 7932   3.716   2.451   2.251 -1.3895  0.2895 -0.7695
  534MPD2     N 7933   3.442   2.662   1.983  0.1618 -0.5435 -0.0644
  534MPD2    H5 7934   3.440   2.729   1.906 -0.0926  1.3641  1.5922
  534MPD2    N1 7935   3.907   2.775   1.979  0.7402  0.1072 -0.1400
  534MPD2    H7 7936   3.875   2.840   1.909 -2.5823  2.1625  3.2911
  535TMC3    C1 7937   3.200   2.677   1.942  0.5544 -0.3414  0.3865
  535TMC3    C2 7938   3.083   2.673   2.010  0.5296  0.3604 -0.9983
  535TMC3    C3 7939   2.975   2.733   1.940  0.8530  0.1951 -0.3086
  535TMC3    C4 7940   3.214   2.718   1.818 -0.0032 -0.0509  0.0437
  535TMC3    C5 7941   3.106   2.785   1.754  0.1818 -0.4529 -0.2160
  535TMC3    C6 7942   2.985   2.788   1.812 -0.3548  0.0499 -0.4859
  535TMC3     C 7943   3.315   2.616   2.021  0.7559  0.4122  0.0387
  535TMC3     O 7944   3.290   2.558   2.124  0.3079 -0.6172 -0.5508
  535TMC3     H 7945   3.076   2.608   2.096 -0.2365  1.2411 -0.3931
  535TMC3    H1 7946   3.307   2.706   1.763 -0.4787 -0.3079 -0.7069
  535TMC3    H2 7947   2.896   2.813   1.757 -2.4435  0.1760  2.9509
  535TMC3    C7 7948   3.128   2.833   1.620  0.4344  0.5793 -0.2884
  535TMC3    C8 7949   2.840   2.715   1.983  0.1537 -0.4134  0.5622
  535TMC3    O1 7950   3.219   2.784   1.555  0.3930 -0.0005 -0.3146
  535TMC3    O2 7951   2.753   2.782   1.937  0.1576  0.1985  0.4017
  536MPD2     C 7952   2.223   1.642  15.873 -0.1526 -0.3901  0.5295
  536MPD2    C1 7953   2.116   1.588  15.941 -0.0145 -0.1457 -0.2767
  536MPD2    C2 7954   1.992   1.602  15.885  0.1982  0.5850  0.6996
  536MPD2    C3 7955   1.970   1.684  15.776 -0.6830 -0.1812  0.5102
  536MPD2    C4 7956   2.073   1.738  15.712  0.1663  0.3719  0.1956
  536MPD2    C5 7957   2.197   1.721  15.762 -0.4421  0.3835  0.0473
  536MPD2     H 7958   1.901   1.555  15.920 -0.4169  1.3481  0.1313
  536MPD2    H1 7959   2.069   1.796  15.621 -0.8103  1.4895  0.9413
  536MPD2    H2 7960   2.321   1.628  15.917  0.1357  0.8410  0.2788
  536MPD2    H3 7961   2.286   1.761  15.715 -0.6618 -0.4618 -1.1041
  536MPD2     N 7962   1.843   1.704  15.714 -0.3834 -0.4766 -0.0251
  536MPD2    H5 7963   1.837   1.749  15.623 -1.6268  0.3615  0.4702
  536MPD2    N1 7964   2.130   1.524  16.066 -0.2390 -0.2132  0.1927
  536MPD2    H7 7965   2.220   1.520  16.113  0.1457  1.7837 -0.3833
  537TMC3    C1 7966   2.081   1.395  16.253  0.3660 -0.0756 -0.1301
  537TMC3    C2 7967   2.193   1.445  16.310  0.4813 -0.2163  0.2616
  537TMC3    C3 7968   2.246   1.364  16.409  0.6307  0.1101 -0.7380
  537TMC3    C4 7969   2.028   1.272  16.286  0.3256  0.4516 -0.5491
  537TMC3    C5 7970   2.083   1.194  16.378 -0.8608 -0.2823 -0.2222
  537TMC3    C6 7971   2.195   1.243  16.446 -0.1951  0.4025 -0.8572
  537TMC3     C 7972   2.025   1.463  16.137  0.3895 -0.3965  0.1851
  537TMC3     O 7973   1.915   1.422  16.103 -0.4000  0.2970 -0.2364
  537TMC3     H 7974   2.222   1.549  16.295  2.6759 -0.9164 -0.2309
  537TMC3    H1 7975   1.931   1.248  16.243  0.0436  0.7021 -0.0522
  537TMC3    H2 7976   2.242   1.188  16.527 -1.4099 -2.6068 -2.1780
  537TMC3    C7 7977   2.015   1.078  16.423 -0.1544 -0.6581  0.6865
  537TMC3    C8 7978   2.350   1.417  16.490 -0.0657 -0.3463  0.1339
  537TMC3    O1 7979   1.950   1.022  16.334 -0.0059  0.4371 -0.2152
  537TMC3    O2 7980   2.349   1.392  16.610 -0.8567  0.0155  0.1148
  538TMC3    C1 7981   3.591   4.691  10.925  0.3605 -0.2309  0.1794
  538TMC3    C2 7982   3.687   0.054  10.965 -0.2602  0.2035  0.0925
  538TMC3    C3 7983   3.649   0.155  11.053  0.1193  0.2702 -0.7481
  538TMC3    C4 7984   3.461   4.714  10.947  0.4855 -0.3130  0.8617
  538TMC3    C5 7985   3.428   0.089  11.033  0.2170  0.1496  0.0432
  538TMC3    C6 7986   3.523   0.175  11.085  1.3054 -0.6292 -0.4987
  538TMC3     C 7987   3.620   4.564  10.868  0.3610 -0.0305 -0.5214
  538TMC3     O 7988   3.526   4.493  10.845  0.0557  0.3042  0.0664
  538TMC3     H 7989   3.787   0.038  10.928 -0.0994  2.1495 -0.2846
  538TMC3    H1 7990   3.388   4.645  10.907 -0.4284  1.5759 -0.7078
  538TMC3    H2 7991   3.502   0.264  11.143 -0.5998 -1.3084 -0.1639
  538TMC3    C7 7992   3.290   0.098  11.072 -0.0145 -0.1317  0.3903
  538TMC3    C8 7993   3.753   0.256  11.080  0.0574 -0.3166  0.9622
  538TMC3    O1 7994   3.208   0.023  11.025  0.3100  0.0051  0.3952
  538TMC3    O2 7995   3.856   0.218  11.126 -0.6367  0.8407 -0.2729
  539MPD2     C 7996   2.459   3.659  11.826  0.5784 -0.2950 -0.0199
  539MPD2    C1 7997   2.528   3.650  11.706  0.3903  0.6457 -0.6444
  539MPD2    C2 7998   2.596   3.763  11.662  0.6856  0.6053  0.2835
  539MPD2    C3 7999   2.602   3.874  11.747 -0.1985 -0.3304 -0.3961
  539MPD2    C4 8000   2.542   3.873  11.874 -0.1309  0.4907  0.3313
  539MPD2    C5 8001   2.472   3.762  11.910  0.8039 -0.2707  0.4327
  539MPD2     H 8002   2.658   3.757  11.573  1.0867  0.7077  0.5584
  539MPD2    H1 8003   2.553   3.953  11.947 -0.4463 -0.0913  1.0148
  539MPD2    H2 8004   2.416   3.570  11.871 -1.6380 -0.1078 -1.7513
  539MPD2    H3 8005   2.430   3.753  12.009 -1.4615 -0.7386 -0.5632
  539MPD2     N 8006   2.657   3.995  11.700 -0.2720  0.6012  0.0063
  539MPD2    H5 8007   2.678   4.057  11.778  0.5511 -0.6363  0.7760
  539MPD2    N1 8008   2.531   3.529  11.626  0.4396  0.7375  0.6430
  539MPD2    H7 8009   2.573   3.537  11.534  0.5833 -0.9920  0.5636
  540TMC3    C1 8010   2.737   4.165  11.556  0.1337 -0.3761  0.1738
  540TMC3    C2 8011   2.705   4.228  11.436 -0.1008 -0.0030 -0.3171
  540TMC3    C3 8012   2.732   4.365  11.431 -0.3128 -0.3800 -0.1648
  540TMC3    C4 8013   2.780   4.238  11.668  0.9377  0.3111 -0.5395
  540TMC3    C5 8014   2.801   4.371  11.663  0.7490 -0.6491 -0.1275
  540TMC3    C6 8015   2.769   4.439  11.545 -0.2336  0.1185 -0.1778
  540TMC3     C 8016   2.693   4.030  11.571 -0.6895 -0.5916  0.0969
  540TMC3     O 8017   2.668   3.980  11.463 -0.3573 -0.5110  0.2964
  540TMC3     H 8018   2.678   4.169  11.349 -3.3521 -1.2191  1.5015
  540TMC3    H1 8019   2.794   4.190  11.764  0.1101 -1.5249 -1.3254
  540TMC3    H2 8020   2.753   4.546  11.533 -0.3488 -0.2007 -3.0305
  540TMC3    C7 8021   2.820   4.442  11.783 -0.1878  0.1593 -0.4559
  540TMC3    C8 8022   2.754   4.435  11.309 -0.0965 -0.8608 -0.4166
  540TMC3    O1 8023   2.785   4.382  11.884 -0.0750  0.4757 -0.0429
  540TMC3    O2 8024   2.841   4.522  11.313  0.3213  0.2528 -0.4732
  541MPD2     C 8025   1.329   1.345  13.436  0.7508  0.4252  0.1896
  541MPD2    C1 8026   1.387   1.271  13.333  0.0638  0.2399  0.2984
  541MPD2    C2 8027   1.395   1.328  13.209 -0.3398 -0.5919 -0.5364
  541MPD2    C3 8028   1.348   1.453  13.186  0.4699 -0.1596 -0.4950
  541MPD2    C4 8029   1.285   1.523  13.291 -0.8265  0.2532 -0.5114
  541MPD2    C5 8030   1.278   1.466  13.415  0.0422  0.2286  0.2046
  541MPD2     H 8031   1.443   1.273  13.128  0.7605  0.1373 -0.3726
  541MPD2    H1 8032   1.258   1.627  13.278 -1.6853  0.0660 -0.1968
  541MPD2    H2 8033   1.332   1.322  13.541  1.5491 -2.4650 -0.4835
  541MPD2    H3 8034   1.237   1.525  13.496 -1.9395 -0.2861 -0.4331
  541MPD2     N 8035   1.347   1.514  13.062  0.4870 -0.4069 -0.2240
  541MPD2    H5 8036   1.324   1.612  13.073  0.7124 -0.5578  1.6134
  541MPD2    N1 8037   1.432   1.139  13.367  0.1060 -0.4009  0.2597
  541MPD2    H7 8038   1.438   1.110  13.464  0.1590 -1.4341 -0.0613
  542TMC3    C1 8039   1.351   1.557  12.841  0.0754 -0.8752 -0.1032
  542TMC3    C2 8040   1.366   1.509  12.709  0.3132 -0.1489  0.5762
  542TMC3    C3 8041   1.299   1.577  12.610  0.3329  0.0015 -0.1595
  542TMC3    C4 8042   1.302   1.682  12.861  0.3114 -0.0345 -0.0147
  542TMC3    C5 8043   1.232   1.736  12.760 -0.9025 -0.1235  0.6650
  542TMC3    C6 8044   1.223   1.687  12.632 -0.0732 -0.3925  0.4607
  542TMC3     C 8045   1.379   1.460  12.940  0.3343  0.3208 -0.2528
  542TMC3     O 8046   1.419   1.351  12.908 -0.4979  0.3483  0.2792
  542TMC3     H 8047   1.426   1.420  12.689  1.6997  0.6294  1.2391
  542TMC3    H1 8048   1.284   1.722  12.960 -0.2693  0.4136 -0.3009
  542TMC3    H2 8049   1.161   1.724  12.551 -0.8747 -0.9307  0.8335
  542TMC3    C7 8050   1.159   1.861  12.788  0.1187  0.0883 -0.7588
  542TMC3    C8 8051   1.325   1.538  12.470 -0.4400  0.7959  0.4276
  542TMC3    O1 8052   1.151   1.906  12.905 -0.0079 -0.0914  0.1059
  542TMC3    O2 8053   1.247   1.575  12.383  0.6374  0.0747  0.4168
  543TMC3    C1 8054   0.498   2.398  17.006 -0.0867  0.5442 -0.0359
  543TMC3    C2 8055   0.404   2.301  16.980  0.6318 -0.3950 -1.0236
  543TMC3    C3 8056   0.351   2.234  17.080  0.1349 -0.6380  0.1754
  543TMC3    C4 8057   0.535   2.432  17.132  0.0548 -0.2275  0.0383
  543TMC3    C5 8058   0.493   2.345  17.233  0.1939  0.2056  0.0688
  543TMC3    C6 8059   0.410   2.235  17.208 -0.2038  0.0850 -0.1002
  543TMC3     C 8060   0.570   2.448  16.896  0.5006  0.4050  0.2419
  543TMC3     O 8061   0.695   2.442  16.904 -0.3336  0.5355 -0.7906
  543TMC3     H 8062   0.370   2.281  16.879  1.1884  1.4114 -1.5729
  543TMC3    H1 8063   0.605   2.512  17.155 -1.6667  0.8640  1.4728
  543TMC3    H2 8064   0.377   2.173  17.291  2.0327 -0.6766  0.2431
  543TMC3    C7 8065   0.529   2.362  17.377 -0.1562 -0.0001 -0.4005
  543TMC3    C8 8066   0.302   2.104  17.050  0.4064 -0.1825 -0.2889
  543TMC3    O1 8067   0.457   2.318  17.469  0.5219  0.1242  0.2248
  543TMC3    O2 8068   0.351   2.061  16.946 -0.7435 -0.0849  0.4130
  544MPD2     C 8069   0.179   1.634  17.191 -0.1705 -0.8627  0.3949
  544MPD2    C1 8070   0.287   1.682  17.127  0.4599  0.1409 -0.0104
  544MPD2    C2 8071   0.300   1.820  17.100 -0.2512  0.1079  0.1827
  544MPD2    C3 8072   0.210   1.909  17.159  0.4748 -0.5589  0.4945
  544MPD2    C4 8073   0.101   1.857  17.236 -0.0727 -0.4095  0.2369
  544MPD2    C5 8074   0.087   1.725  17.242  0.1057 -0.1705  0.7567
  544MPD2     H 8075   0.393   1.850  17.053 -0.9988 -1.3714 -2.2382
  544MPD2    H1 8076   0.035   1.925  17.290  0.9141  1.1969 -0.5645
  544MPD2    H2 8077   0.154   1.530  17.203 -4.1753  0.1119  0.7368
  544MPD2    H3 8078   0.002   1.688  17.297  0.1303 -0.1811  0.7874
  544MPD2     N 8079   0.220   2.053  17.141  0.1569 -0.2656 -0.0041
  544MPD2    H5 8080   0.159   2.104  17.204 -0.7433  0.2142 -1.2761
  544MPD2    N1 8081   0.385   1.588  17.088  0.0048  0.1928  0.3688
  544MPD2    H7 8082   0.364   1.494  17.122  3.3748 -0.7404 -0.1241
  545TMC3    C1 8083   0.599   1.514  17.004  0.7788  0.1439  0.2083
  545TMC3    C2 8084   0.725   1.537  16.983  0.6104 -0.0888 -0.1250
  545TMC3    C3 8085   0.802   1.428  16.949 -0.0103 -1.1059 -0.1589
  545TMC3    C4 8086   0.540   1.393  16.986  0.1398 -0.4787 -0.1885
  545TMC3    C5 8087   0.619   1.289  16.965  0.5500  0.5453  0.4647
  545TMC3    C6 8088   0.755   1.303  16.959  0.6618 -0.3505  0.1794
  545TMC3     C 8089   0.514   1.623  17.044  0.2690  0.5944 -0.2758
  545TMC3     O 8090   0.566   1.732  17.030 -0.1650  0.0047 -0.0319
  545TMC3     H 8091   0.760   1.640  16.985  0.6535 -0.1061  0.0761
  545TMC3    H1 8092   0.432   1.386  16.992 -0.0697  0.5122 -2.6821
  545TMC3    H2 8093   0.809   1.212  16.936  1.5476  0.4961 -1.1072
  545TMC3    C7 8094   0.554   1.165  16.926 -0.2932  0.0795 -0.5206
  545TMC3    C8 8095   0.935   1.461  16.905  0.4284  0.5563 -0.0932
  545TMC3    O1 8096   0.440   1.174  16.876 -0.4170 -0.0205 -0.7551
  545TMC3    O2 8097   0.975   1.578  16.917  0.0415 -0.8139 -0.2529
  546MPD2     C 8098   2.141   2.120  17.528 -0.0794 -0.0538  0.4074
  546MPD2    C1 8099   2.125   2.183  17.403  0.7228 -0.4782  0.3530
  546MPD2    C2 8100   2.211   2.289  17.366  0.1756 -0.4310 -0.5141
  546MPD2    C3 8101   2.300   2.339  17.461  0.1109  0.4084  0.5043
  546MPD2    C4 8102   2.304   2.285  17.583  0.6688  0.0492  0.2970
  546MPD2    C5 8103   2.235   2.172  17.616  0.5742  0.6763  0.4214
  546MPD2     H 8104   2.199   2.347  17.275  0.5328  0.9135  0.2943
  546MPD2    H1 8105   2.370   2.331  17.656  1.6256  1.3166 -1.3543
  546MPD2    H2 8106   2.078   2.034  17.549 -1.1505  0.5884 -0.1200
  546MPD2    H3 8107   2.264   2.124   0.018  0.5477  2.0467  1.1310
  546MPD2     N 8108   2.379   2.455  17.450 -0.0767 -0.3966  0.2527
  546MPD2    H5 8109   2.420   2.493  17.534  1.5429 -0.2587 -0.6010
  546MPD2    N1 8110   2.023   2.125  17.319 -0.0443  0.1296  0.2051
  546MPD2    H7 8111   1.965   2.049  17.354  0.4492 -0.1797  0.3550
  547TMC3    C1 8112   1.853   2.143  17.156 -0.2731 -0.2593 -0.1976
  547TMC3    C2 8113   1.820   2.191  17.031 -1.0098 -0.0257 -0.4064
  547TMC3    C3 8114   1.686   2.220  17.014  0.4574  0.2829 -0.1615
  547TMC3    C4 8115   1.764   2.101  17.254 -0.5715 -0.2254  0.1667
  547TMC3    C5 8116   1.632   2.132  17.222  0.9053  0.0098 -0.2126
  547TMC3    C6 8117   1.588   2.187  17.104 -0.4103 -0.1068 -0.2199
  547TMC3     C 8118   1.991   2.177  17.196 -0.8461 -0.5406 -0.0656
  547TMC3     O 8119   2.059   2.253  17.127  0.4704 -0.2405  0.1949
  547TMC3     H 8120   1.896   2.234  16.966 -0.3721  1.0767  1.0656
  547TMC3    H1 8121   1.792   2.077  17.356 -2.9295  0.1698  0.9060
  547TMC3    H2 8122   1.491   2.236  17.104 -0.5890 -0.4755 -1.5968
  547TMC3    C7 8123   1.541   2.112  17.332  0.4764  0.1907  0.2932
  547TMC3    C8 8124   1.645   2.293  16.895  0.9120  0.0017 -0.1927
  547TMC3    O1 8125   1.592   2.135  17.440 -0.8029  0.0780 -0.0058
  547TMC3    O2 8126   1.522   2.315  16.891 -0.1439 -0.6265 -0.1805
  548MPD2     C 8127   1.852   3.150  12.162  0.0730 -0.2433 -0.4672
  548MPD2    C1 8128   1.821   3.039  12.234  0.1529 -0.0291  0.0192
  548MPD2    C2 8129   1.920   2.961  12.272 -0.0177 -0.0219 -0.7591
  548MPD2    C3 8130   2.052   2.990  12.238 -0.9368 -0.2740  0.6076
  548MPD2    C4 8131   2.085   3.101  12.158  0.4351  0.4004 -0.6760
  548MPD2    C5 8132   1.980   3.184  12.134  0.6395  0.2867  0.0176
  548MPD2     H 8133   1.897   2.878  12.338  0.7347  2.0545  2.1059
  548MPD2    H1 8134   2.184   3.143  12.145 -0.1280  1.8245 -0.3753
  548MPD2    H2 8135   1.779   3.220  12.124  0.2810  1.1737  1.7249
  548MPD2    H3 8136   1.998   3.284  12.096  2.1696 -0.0694 -0.1945
  548MPD2     N 8137   2.151   2.904  12.298  0.1429  0.2661  0.7449
  548MPD2    H5 8138   2.116   2.824  12.350 -1.3300  0.4924  0.1018
  548MPD2    N1 8139   1.687   3.031  12.282 -0.0938  0.0793  0.0339
  548MPD2    H7 8140   1.617   3.099  12.256  0.4025  0.6594  0.2282
  549TMC3    C1 8141   1.501   2.955  12.399  0.0129  0.7822 -0.5466
  549TMC3    C2 8142   1.433   3.035  12.311  0.4397 -0.4379  0.1933
  549TMC3    C3 8143   1.331   3.112  12.359  0.5016  0.7678 -0.4547
  549TMC3    C4 8144   1.460   2.928  12.526  0.4577 -0.9336 -0.0294
  549TMC3    C5 8145   1.349   3.001  12.565 -0.0129 -0.5172  0.6690
  549TMC3    C6 8146   1.287   3.102  12.487  0.2536 -0.0640 -0.3574
  549TMC3     C 8147   1.644   2.934  12.369 -0.1207  0.0194 -0.4022
  549TMC3     O 8148   1.690   2.833  12.422 -0.6453 -0.1233 -0.3733
  549TMC3     H 8149   1.465   3.055  12.209  0.5707  0.5221  0.4184
  549TMC3    H1 8150   1.515   2.859  12.588  0.0170  0.1388  1.5671
  549TMC3    H2 8151   1.205   3.168  12.513  1.1280  0.8357  0.1119
  549TMC3    C7 8152   1.272   2.951  12.676 -0.3343  0.3241  0.6652
  549TMC3    C8 8153   1.298   3.219  12.276 -0.9775  1.2121 -0.3000
  549TMC3    O1 8154   1.182   3.019  12.726  0.1140  0.5122 -0.2609
  549TMC3    O2 8155   1.300   3.201  12.156 -0.5318 -0.4373  0.3442
  550TMC3    C1 8156   0.900   0.727  12.487 -0.7349 -0.0134 -0.0917
  550TMC3    C2 8157   0.891   0.815  12.589  0.0343  0.7868  0.2176
  550TMC3    C3 8158   0.926   0.947  12.569 -0.7484 -0.1798  0.4665
  550TMC3    C4 8159   0.944   0.764  12.364 -0.4516  0.3392 -0.5075
  550TMC3    C5 8160   0.968   0.899  12.337 -0.4763 -0.1121 -0.3132
  550TMC3    C6 8161   0.969   0.989  12.441  0.4142  0.8445 -0.2462
  550TMC3     C 8162   0.790   0.629  12.482  0.1078  0.6269 -0.1967
  550TMC3     O 8163   0.747   0.598  12.368  0.1145  0.5243 -0.1323
  550TMC3     H 8164   0.859   0.784  12.688  0.6390  0.2440  0.2454
  550TMC3    H1 8165   0.914   0.712  12.273  0.1425  0.0134 -0.5178
  550TMC3    H2 8166   0.987   1.093  12.419  1.1783  0.9018  0.6223
  550TMC3    C7 8167   0.892   0.951  12.220  0.5067  0.5023 -0.3411
  550TMC3    C8 8168   0.860   1.053  12.652 -0.4860  0.1713 -0.6659
  550TMC3    O1 8169   0.803   0.887  12.162 -0.0129 -0.3917 -0.1220
  550TMC3    O2 8170   0.863   1.170  12.606  0.4054 -0.1837 -0.5777
  551TMC3    C1 8171   3.027   3.621  13.409 -0.2637  0.3961 -0.0226
  551TMC3    C2 8172   3.081   3.718  13.342  0.5600  0.1649  0.5934
  551TMC3    C3 8173   3.140   3.824  13.414  0.3567 -0.0615  0.2463
  551TMC3    C4 8174   3.046   3.614  13.548  0.2458  0.4121  0.4234
  551TMC3    C5 8175   3.113   3.710  13.619  0.2990  0.1533 -0.0025
  551TMC3    C6 8176   3.150   3.821  13.551 -0.1682 -0.2372  0.0664
  551TMC3     C 8177   2.954   3.519  13.339  0.3362  0.2201 -0.3315
  551TMC3     O 8178   2.934   3.540  13.219  0.0565 -0.0934 -0.4389
  551TMC3     H 8179   3.066   3.726  13.234 -3.1191  3.8550  1.3872
  551TMC3    H1 8180   2.978   3.546  13.597  0.5097  0.3572  0.7135
  551TMC3    H2 8181   3.202   3.902  13.600 -2.0377  0.7833  0.3775
  551TMC3    C7 8182   3.143   3.703  13.762  0.6161  0.2239  0.2271
  551TMC3    C8 8183   3.244   3.906  13.349 -0.4898 -0.5788 -0.1391
  551TMC3    O1 8184   3.179   3.807  13.816 -0.2149  0.7559  0.1298
  551TMC3    O2 8185   3.335   3.948  13.419  0.7428  0.6203 -0.7387
  552MPD2     C 8186   0.138   0.626  14.253 -0.0374 -0.5318 -0.1697
  552MPD2    C1 8187   0.199   0.563  14.150 -0.4836  0.1036 -0.2588
  552MPD2    C2 8188   0.329   0.511  14.171  0.0717  0.1174 -0.7507
  552MPD2    C3 8189   0.380   0.502  14.297 -0.1780 -0.1892  0.3816
  552MPD2    C4 8190   0.306   0.548  14.404 -0.5999 -0.2362 -0.4831
  552MPD2    C5 8191   0.188   0.615  14.382  0.3449 -0.3495 -0.1846
  552MPD2     H 8192   0.377   0.470  14.083 -2.0416  1.9266 -2.7653
  552MPD2    H1 8193   0.329   0.535  14.509  1.1231  0.6484 -0.7482
  552MPD2    H2 8194   0.046   0.684  14.247 -2.2120 -3.8917  0.5827
  552MPD2    H3 8195   0.125   0.651  14.462  0.9598 -0.9869  0.5865
  552MPD2     N 8196   0.493   0.439  14.339 -0.0283  0.8517  0.1711
  552MPD2    H5 8197   0.519   0.449  14.436  1.2192 -0.5812 -0.0123
  552MPD2    N1 8198   0.140   0.575  14.017  0.4270  0.4799  0.0865
  552MPD2    H7 8199   0.201   0.545  13.942  0.0959  0.9398 -0.3719
  553TMC3    C1 8200   4.691   0.549  13.861 -0.3757  0.4181 -0.3826
  553TMC3    C2 8201   0.009   0.607  13.746  0.4749 -0.3135  0.1381
  553TMC3    C3 8202   0.022   0.528  13.629 -0.6734 -0.4126 -0.6861
  553TMC3    C4 8203   4.664   0.418  13.875 -0.5434  0.2577  0.1345
  553TMC3    C5 8204   4.687   0.339  13.763 -0.6935  0.3487 -1.1289
  553TMC3    C6 8205   0.008   0.391  13.645 -0.1532  0.5002  0.7019
  553TMC3     C 8206   0.006   0.605  13.982  0.3955  0.4350 -0.8284
  553TMC3     O 8207   4.635   0.626  14.065  0.3261  0.1005  0.0272
  553TMC3     H 8208   0.041   0.710  13.752  0.2185 -0.2073 -0.3168
  553TMC3    H1 8209   4.631   0.375  13.969  0.8077  0.3766  0.6685
  553TMC3    H2 8210   0.039   0.318  13.571 -1.8704  0.0797  0.3870
  553TMC3    C7 8211   0.027   0.215  13.791  0.3614 -0.5984 -0.1345
  553TMC3    C8 8212   0.094   0.585  13.518 -0.1845  0.3146 -0.0341
  553TMC3    O1 8213   4.687   0.114  13.759 -0.0923 -0.1913  0.2692
  553TMC3    O2 8214   0.133   0.699  13.534  0.6327  0.2783  0.4887
  554TMC3    C1 8215   1.609   4.102  11.599  0.1797  0.4131 -0.2317
  554TMC3    C2 8216   1.553   4.089  11.479 -0.4364  0.3648 -0.1225
  554TMC3    C3 8217   1.612   4.148  11.374  0.4755  0.8289  0.0846
  554TMC3    C4 8218   1.726   4.171  11.620  0.2550 -0.0556 -0.2440
  554TMC3    C5 8219   1.779   4.232  11.510  0.0384  0.6323 -0.2061
  554TMC3    C6 8220   1.730   4.208  11.383 -0.6948  0.1838  0.0401
  554TMC3     C 8221   1.538   4.038  11.707  0.1329 -0.3356  0.0477
  554TMC3     O 8222   1.424   3.996  11.694  0.9820  0.6666 -1.3925
  554TMC3     H 8223   1.473   4.016  11.474 -0.7344  0.6412  0.7120
  554TMC3    H1 8224   1.747   4.216  11.716  0.8435 -1.3331  0.2319
  554TMC3    H2 8225   1.779   4.248  11.295 -1.0834  0.5572 -0.0105
  554TMC3    C7 8226   1.892   4.324  11.517 -0.5335  0.6988  0.0314
  554TMC3    C8 8227   1.573   4.116  11.237 -0.0533 -0.0387  0.2120
  554TMC3    O1 8228   1.908   4.385  11.413  0.4110  0.3547 -0.2534
  554TMC3    O2 8229   1.661   4.129  11.150 -0.8224  0.3890 -0.2751
  555TMC3    C1 8230   0.955   3.409  15.297 -0.0453 -0.0919 -0.3285
  555TMC3    C2 8231   0.847   3.474  15.338  0.1776 -0.1310 -0.0434
  555TMC3    C3 8232   0.814   3.446  15.461  0.5647 -0.0341  0.4013
  555TMC3    C4 8233   1.032   3.322  15.369 -1.0410  0.0186  0.1003
  555TMC3    C5 8234   0.983   3.290  15.493  0.3394  0.4183 -0.1045
  555TMC3    C6 8235   0.871   3.346  15.540  0.3646 -0.3211  0.1216
  555TMC3     C 8236   1.007   3.453  15.176 -0.0130  0.5398 -0.0879
  555TMC3     O 8237   1.126   3.425  15.162 -0.0463  0.2196  0.1900
  555TMC3     H 8238   0.807   3.555  15.279  0.6444 -0.4237 -0.7519
  555TMC3    H1 8239   1.101   3.266  15.308 -1.6757  0.0611 -0.6586
  555TMC3    H2 8240   0.821   3.324  15.634 -0.0777 -1.6680 -0.4337
  555TMC3    C7 8241   0.991   3.146  15.526  0.4344  0.6488  0.2728
  555TMC3    C8 8242   0.793   3.562  15.535  0.0261  0.8709 -0.3052
  555TMC3    O1 8243   0.889   3.103  15.575  0.5442 -0.1673  0.0827
  555TMC3    O2 8244   0.728   3.649  15.482 -0.6410  0.0765  0.5892
  556MPD2     C 8245   4.004   1.599  10.912 -0.4741  0.4240 -0.2689
  556MPD2    C1 8246   3.939   1.497  10.984 -0.0579 -0.7374  0.6252
  556MPD2    C2 8247   3.881   1.394  10.915  0.3242 -0.3194 -0.0117
  556MPD2    C3 8248   3.872   1.383  10.776 -0.1264 -0.2233 -0.4888
  556MPD2    C4 8249   3.941   1.486  10.709  0.1508 -1.3111 -0.5133
  556MPD2    C5 8250   4.003   1.588  10.780 -0.5602  0.6283  0.7451
  556MPD2     H 8251   3.834   1.316  10.973  0.7502  1.1485  2.3128
  556MPD2    H1 8252   3.939   1.492  10.601  1.1030  2.4991 -0.3245
  556MPD2    H2 8253   4.060   1.681  10.956  0.3794 -1.1168  1.4984
  556MPD2    H3 8254   4.056   1.669  10.730 -1.4260  1.3022  0.9276
  556MPD2     N 8255   3.809   1.265  10.717 -0.8569 -0.2419 -0.0892
  556MPD2    H5 8256   3.768   1.192  10.775  1.6612 -0.3300  1.5967
  556MPD2    N1 8257   3.924   1.495  11.125  0.4371 -0.2093 -0.2625
  556MPD2    H7 8258   3.885   1.405  11.150 -0.4521 -0.4375 -2.4851
  557TMC3    C1 8259   3.739   1.113  10.543  0.8348 -0.6795 -0.9328
  557TMC3    C2 8260   3.699   1.096  10.408  0.1459 -0.7989 -0.2671
  557TMC3    C3 8261   3.664   0.967  10.370 -0.1168  0.6600  0.6100
  557TMC3    C4 8262   3.751   1.007  10.623  0.0368 -0.0568  0.1424
  557TMC3    C5 8263   3.706   0.882  10.584  0.4172 -0.0153  0.8860
  557TMC3    C6 8264   3.665   0.857  10.455 -0.3461  0.6373  0.6692
  557TMC3     C 8265   3.799   1.242  10.581  0.3606  0.3009 -0.4098
  557TMC3     O 8266   3.817   1.325  10.492 -0.0127 -0.5325  0.5582
  557TMC3     H 8267   3.708   1.178  10.338  1.5890 -1.1587 -0.5104
  557TMC3    H1 8268   3.773   1.010  10.729 -0.2304  0.4792  0.1850
  557TMC3    H2 8269   3.637   0.758  10.420  3.0022 -1.1302  2.9803
  557TMC3    C7 8270   3.697   0.772  10.677 -0.2593 -0.3010  0.1532
  557TMC3    C8 8271   3.638   0.941  10.227 -0.5843 -0.0765 -0.4609
  557TMC3    O1 8272   3.633   0.674  10.643  0.2264 -0.4951  0.2550
  557TMC3    O2 8273   3.645   1.037  10.151  0.6847 -0.1286 -0.2481
  558TMC3    C1 8274   1.957   2.624   9.644  0.0638 -0.3634 -0.3984
  558TMC3    C2 8275   1.840   2.582   9.706 -0.3623  0.0817  0.4633
  558TMC3    C3 8276   1.742   2.527   9.628  0.8190 -0.4872  1.0188
  558TMC3    C4 8277   1.980   2.593   9.513 -0.0238 -0.0781 -0.2039
  558TMC3    C5 8278   1.884   2.536   9.443 -0.5310 -0.0030  0.2955
  558TMC3    C6 8279   1.761   2.496   9.500  0.6944  0.1611  0.4045
  558TMC3     C 8280   2.049   2.721   9.703 -0.8484  0.4183  0.0991
  558TMC3     O 8281   2.135   2.763   9.630 -0.1433 -0.1375  0.3774
  558TMC3     H 8282   1.813   2.609   9.808 -1.2026 -1.0692  0.5506
  558TMC3    H1 8283   2.075   2.603   9.461  0.3108  1.4456  0.6831
  558TMC3    H2 8284   1.683   2.458   9.434 -0.0345  2.1595  0.1321
  558TMC3    C7 8285   1.911   2.490   9.308  0.0230 -0.3629  0.0282
  558TMC3    C8 8286   1.623   2.463   9.678  0.4123  0.0313 -0.1643
  558TMC3    O1 8287   2.005   2.542   9.249 -0.4885 -0.0488  0.0651
  558TMC3    O2 8288   1.574   2.379   9.605  0.0557  0.0942  0.6803
  559MPD2     C 8289   1.495   4.050  10.358  0.0659  0.0343  0.2387
  559MPD2    C1 8290   1.408   3.963  10.423  0.3210  0.1643  0.2436
  559MPD2    C2 8291   1.465   3.860  10.503  0.0847 -0.0841  0.0268
  559MPD2    C3 8292   1.596   3.865  10.537 -0.3294  0.2929 -0.3426
  559MPD2    C4 8293   1.681   3.945  10.471  0.3853 -0.4700 -0.0620
  559MPD2    C5 8294   1.632   4.033  10.374 -1.0838 -0.5189  0.0656
  559MPD2     H 8295   1.402   3.789  10.554 -0.1677 -0.0956 -0.3001
  559MPD2    H1 8296   1.789   3.952  10.477  0.5932 -1.7796 -1.8743
  559MPD2    H2 8297   1.449   4.122  10.290  3.8981  0.5789 -1.7767
  559MPD2    H3 8298   1.696   4.101  10.320 -2.4287  1.2998  0.7534
  559MPD2     N 8299   1.634   3.784  10.643 -0.1840 -0.0643 -0.1771
  559MPD2    H5 8300   1.571   3.707  10.662  0.7053 -0.7016  0.1971
  559MPD2    N1 8301   1.269   3.976  10.413  0.3905 -0.2041 -0.0188
  559MPD2    H7 8302   1.236   4.048  10.350 -3.0108 -1.2400  0.5592
  560TMC3    C1 8303   1.782   3.667  10.789  0.2671 -0.0381  0.0383
  560TMC3    C2 8304   1.755   3.545  10.743  0.1368 -0.4921  0.1323
  560TMC3    C3 8305   1.813   3.443  10.799  0.8370 -0.2947 -0.1937
  560TMC3    C4 8306   1.875   3.687  10.891 -0.1613 -0.3995  0.4026
  560TMC3    C5 8307   1.923   3.574  10.951  0.1295  0.4424 -0.0073
  560TMC3    C6 8308   1.891   3.448  10.910 -0.1388 -1.0938 -0.5079
  560TMC3     C 8309   1.755   3.789  10.709 -0.0134  0.2706 -0.1785
  560TMC3     O 8310   1.852   3.864  10.696 -0.0288 -0.0402  0.4261
  560TMC3     H 8311   1.708   3.535  10.646 -2.2278  0.7894  1.1612
  560TMC3    H1 8312   1.890   3.785  10.935 -0.7699  0.4263 -1.2392
  560TMC3    H2 8313   1.942   3.363  10.952 -0.6175  0.5474  3.3654
  560TMC3    C7 8314   1.989   3.581  11.078 -0.3148  0.1591 -0.4124
  560TMC3    C8 8315   1.818   3.317  10.722 -0.1836  0.1247  0.0368
  560TMC3    O1 8316   1.984   3.480  11.147  0.4828 -0.2298  0.3832
  560TMC3    O2 8317   1.724   3.279  10.656 -0.3136 -0.0531  0.4571
  561TMC3    C1 8318   4.148   2.821  10.809  0.2173 -0.8679 -0.1903
  561TMC3    C2 8319   4.135   2.728  10.907 -0.0630  0.1373 -0.2715
  561TMC3    C3 8320   4.169   2.766  11.035 -0.3937  0.0862 -0.2046
  561TMC3    C4 8321   4.181   2.946  10.834  0.0645  0.3233  0.2886
  561TMC3    C5 8322   4.221   2.979  10.958  0.3626 -0.3714  0.0272
  561TMC3    C6 8323   4.208   2.892  11.067 -0.1955  0.3332 -0.7634
  561TMC3     C 8324   4.110   2.781  10.675  0.0560 -0.4578  0.3774
  561TMC3     O 8325   4.133   2.861  10.588 -0.0226 -0.1751  0.0964
  561TMC3     H 8326   4.120   2.622  10.892  1.6777  0.2815 -3.0780
  561TMC3    H1 8327   4.198   3.013  10.750  0.3006 -0.0672  0.0284
  561TMC3    H2 8328   4.249   2.918  11.164  2.1154  3.4982 -2.6376
  561TMC3    C7 8329   4.224   3.118  10.993  0.0253  0.0193  0.0710
  561TMC3    C8 8330   4.152   2.676  11.139 -0.4329  0.4340 -0.0923
  561TMC3    O1 8331   4.209   3.138  11.111  0.2235  0.1404  0.6677
  561TMC3    O2 8332   4.161   2.553  11.106  0.4941  0.2680  0.7043
  562TMC3    C1 8333   0.762   4.457  16.457 -0.0159  0.1781  0.1461
  562TMC3    C2 8334   0.667   4.535  16.389 -0.2773 -0.2024  0.2603
  562TMC3    C3 8335   0.642   4.491  16.263 -0.2157  0.5400 -0.7010
  562TMC3    C4 8336   0.832   4.356  16.398 -0.0376  1.0718 -0.0473
  562TMC3    C5 8337   0.797   4.322  16.267  0.2442  0.1795  0.3125
  562TMC3    C6 8338   0.697   4.381  16.200  0.8454 -0.1411 -0.1255
  562TMC3     C 8339   0.787   4.473  16.605 -0.7188  0.1559  0.9250
  562TMC3     O 8340   0.882   4.410  16.654 -0.0414 -0.4282  0.1140
  562TMC3     H 8341   0.615   4.622  16.426 -1.3540 -0.0680 -1.5677
  562TMC3    H1 8342   0.892   4.284  16.454 -1.9750 -0.0714  0.5502
  562TMC3    H2 8343   0.662   4.336  16.108 -0.3586 -1.0349  0.7766
  562TMC3    C7 8344   0.820   4.182  16.220  0.0239 -0.0694 -0.7850
  562TMC3    C8 8345   0.518   4.542  16.213 -0.1007  0.2630  0.0461
  562TMC3    O1 8346   0.803   4.163  16.105  0.3569  0.6206 -0.3775
  562TMC3    O2 8347   0.440   4.568  16.302  0.0043  0.3318  0.0742
  563MPD2     C 8348   3.507   0.681  15.652 -0.3797  0.1453 -0.0425
  563MPD2    C1 8349   3.589   0.706  15.764 -0.2731  0.4966  1.0797
  563MPD2    C2 8350   3.722   0.665  15.759  0.0459  0.0034 -0.1685
  563MPD2    C3 8351   3.783   0.603  15.654 -0.1273 -0.2467 -0.2631
  563MPD2    C4 8352   3.700   0.583  15.543 -0.2368  0.4672  0.0627
  563MPD2    C5 8353   3.569   0.626  15.547  0.8304  0.0488  0.6517
  563MPD2     H 8354   3.788   0.691  15.842 -0.9837  0.2778  0.5594
  563MPD2    H1 8355   3.736   0.558  15.444  0.3239  2.5813 -0.2789
  563MPD2    H2 8356   3.401   0.705  15.652  0.0903  2.2174 -1.4716
  563MPD2    H3 8357   3.506   0.609  15.460 -0.0060  0.0218  1.2689
  563MPD2     N 8358   3.924   0.603  15.654  0.1323  0.2864 -0.3144
  563MPD2    H5 8359   3.968   0.632  15.741 -0.2055  0.8627 -0.3406
  563MPD2    N1 8360   3.542   0.788  15.869  0.0305  0.3741  0.6606
  563MPD2    H7 8361   3.443   0.802  15.853  0.2573  2.2218  0.8996
  564TMC3    C1 8362   3.526   0.857  16.111  0.4470 -0.0281  0.7903
  564TMC3    C2 8363   3.389   0.841  16.100  0.1406 -0.7711  0.7008
  564TMC3    C3 8364   3.324   0.810  16.219 -0.3710 -0.6342 -0.5266
  564TMC3    C4 8365   3.594   0.874  16.227  0.2408 -0.1584  0.6369
  564TMC3    C5 8366   3.523   0.853  16.343  0.6833  0.1683  0.2085
  564TMC3    C6 8367   3.401   0.797  16.328  0.2626 -0.3632  0.3818
  564TMC3     C 8368   3.606   0.825  15.989  0.4475  0.1282 -0.7577
  564TMC3     O 8369   3.726   0.821  16.004  0.1168  0.0229  0.2328
  564TMC3     H 8370   3.344   0.835  16.002  3.0925 -0.0962 -0.6872
  564TMC3    H1 8371   3.700   0.896  16.236  0.6867 -1.9115 -0.4385
  564TMC3    H2 8372   3.342   0.770  16.415 -0.4744  0.3316  0.1008
  564TMC3    C7 8373   3.606   0.805  16.451  0.5611 -0.4473  0.6897
  564TMC3    C8 8374   3.233   0.700  16.211  0.2593 -0.6500 -0.0310
  564TMC3    O1 8375   3.679   0.886  16.509 -0.1941 -0.7529  0.0422
  564TMC3    O2 8376   3.250   0.612  16.291 -0.3047 -0.4936 -0.1930
  565TMC3    C1 8377   4.296   2.078  10.095  0.9047  0.2285  0.5327
  565TMC3    C2 8378   4.230   2.074  10.214  0.3345 -0.3158 -0.2830
  565TMC3    C3 8379   4.095   2.051  10.218  0.1864  0.2203 -0.0957
  565TMC3    C4 8380   4.234   2.041   9.982  0.1656 -0.7026  0.0468
  565TMC3    C5 8381   4.100   2.005   9.987 -0.6205 -0.9886 -0.4545
  565TMC3    C6 8382   4.025   2.013  10.102  1.0153 -0.4249  0.3392
  565TMC3     C 8383   4.440   2.089  10.103 -0.1613  0.0995 -0.2974
  565TMC3     O 8384   4.482   2.087  10.219 -0.7618  0.1637  0.0362
  565TMC3     H 8385   4.274   2.076  10.313  0.6262 -0.5868 -0.4067
  565TMC3    H1 8386   4.288   2.033   9.888  1.5185 -4.1130  1.1270
  565TMC3    H2 8387   3.925   1.974  10.109  0.4686  0.8754 -0.0806
  565TMC3    C7 8388   4.044   1.962   9.864  0.6736 -0.4303  0.5990
  565TMC3    C8 8389   4.026   2.019  10.345  0.1818 -0.1739 -0.0134
  565TMC3    O1 8390   4.111   1.997   9.770 -0.0364 -0.5834 -0.0228
  565TMC3    O2 8391   3.920   1.959  10.341  0.1009  0.2852  0.7524
  566MPD2     C 8392   0.000   3.307  14.519  0.6766  0.7396  0.5804
  566MPD2    C1 8393   0.092   3.341  14.419  0.5116 -0.2913  0.3337
  566MPD2    C2 8394   0.044   3.382  14.292  0.2753  0.0632  0.1905
  566MPD2    C3 8395   4.626   3.397  14.280  0.4484  0.1809  0.1945
  566MPD2    C4 8396   4.544   3.348  14.382  0.0171  0.6429 -0.5357
  566MPD2    C5 8397   4.593   3.307  14.502  0.2234 -0.5102 -0.1188
  566MPD2     H 8398   0.100   3.389  14.200  1.3425 -1.5286  0.7227
  566MPD2    H1 8399   4.436   3.361  14.372 -0.1942  1.3077  2.5894
  566MPD2    H2 8400   0.029   3.277  14.619 -4.0786 -1.6514  1.2291
  566MPD2    H3 8401   4.528   3.288  14.586 -1.9319  2.2561 -1.1540
  566MPD2     N 8402   4.573   3.439  14.156 -0.8072  0.0857  0.1934
  566MPD2    H5 8403   4.473   3.425  14.145 -0.9077  1.3604 -0.4727
  566MPD2    N1 8404   0.237   3.341  14.433 -0.0489 -0.2108  0.0942
  566MPD2    H7 8405   0.287   3.360  14.347  0.8338 -1.9161  0.2275
  567TMC3    C1 8406   0.457   3.341  14.528  0.0525  0.0515 -0.9222
  567TMC3    C2 8407   0.499   3.421  14.419  0.6992 -0.8004 -0.3656
  567TMC3    C3 8408   0.624   3.468  14.432  0.3026  0.6105 -0.0958
  567TMC3    C4 8409   0.541   3.302  14.634  0.1783 -0.1192 -0.0058
  567TMC3    C5 8410   0.676   3.340  14.627 -0.0695  0.3993  0.8825
  567TMC3    C6 8411   0.715   3.425  14.527 -0.3670 -0.3987  0.0281
  567TMC3     C 8412   0.312   3.318  14.541  0.4487  0.6067  0.5453
  567TMC3     O 8413   0.261   3.318  14.652 -0.1492  0.3604 -0.1032
  567TMC3     H 8414   0.435   3.456  14.339  1.9360  2.3852  0.0621
  567TMC3    H1 8415   0.504   3.228  14.705 -0.1626 -0.6639 -0.7457
  567TMC3    H2 8416   0.817   3.460  14.529  0.2610 -2.3257  1.3482
  567TMC3    C7 8417   0.771   3.286  14.725 -0.1841 -0.2607 -0.4064
  567TMC3    C8 8418   0.683   3.541  14.315  0.3038 -0.3566 -0.0661
  567TMC3    O1 8419   0.887   3.257  14.686 -0.4716  0.1040  0.5519
  567TMC3    O2 8420   0.599   3.610  14.252 -0.0477  0.2168 -0.1799
  568MPD2     C 8421   2.649   3.935  16.351  0.6749  0.3616 -0.8055
  568MPD2    C1 8422   2.767   3.974  16.417  0.2043  0.3848  0.0189
  568MPD2    C2 8423   2.836   4.086  16.390 -0.3416 -0.7182 -0.5386
  568MPD2    C3 8424   2.792   4.166  16.293  0.6315  0.5968 -0.0403
  568MPD2    C4 8425   2.690   4.125  16.209  0.5716 -0.1020  0.6216
  568MPD2    C5 8426   2.617   4.015  16.247  0.3149 -0.1935  0.0572
  568MPD2     H 8427   2.915   4.118  16.457 -0.0485 -0.9506 -0.7745
  568MPD2    H1 8428   2.656   4.175  16.119  2.7504  0.6249  0.2048
  568MPD2    H2 8429   2.582   3.857  16.385  1.6037  0.1695  0.5647
  568MPD2    H3 8430   2.519   4.000  16.202  0.3555  1.0832 -0.4798
  568MPD2     N 8431   2.863   4.285  16.275 -0.1405  0.7603  0.1503
  568MPD2    H5 8432   2.948   4.285  16.332  0.1961 -0.0378 -0.3604
  568MPD2    N1 8433   2.802   3.897  16.531 -0.1284 -0.4322 -0.4462
  568MPD2    H7 8434   2.738   3.823  16.559 -2.2084  2.6744  3.0019
  569TMC3    C1 8435   2.933   4.499  16.197  0.2418  0.3676 -0.5405
  569TMC3    C2 8436   3.006   4.506  16.315 -0.3424  0.5475  0.3494
  569TMC3    C3 8437   3.090   4.614  16.337 -0.0853 -0.7907  0.2675
  569TMC3    C4 8438   2.927   4.607  16.113  0.2072 -0.2067 -0.1212
  569TMC3    C5 8439   3.021   4.712  16.139 -0.2923  0.9291 -0.5199
  569TMC3    C6 8440   3.102   4.716  16.247 -0.5241  0.0686 -0.4061
  569TMC3     C 8441   2.839   4.390  16.181  0.2962 -0.3964 -0.3753
  569TMC3     O 8442   2.758   4.393  16.092 -0.1970  0.0213 -0.0662
  569TMC3     H 8443   2.997   4.444  16.404 -0.8564 -1.0914 -0.8656
  569TMC3    H1 8444   2.860   4.611  16.028 -1.6987 -1.6236  1.3167
  569TMC3    H2 8445   3.183   0.065  16.258  0.3786 -0.5417 -3.1242
  569TMC3    C7 8446   2.998   0.118  16.065  0.0828  0.3062 -1.5383
  569TMC3    C8 8447   3.174   4.602  16.454  0.5472 -0.0900  0.0411
  569TMC3    O1 8448   2.915   0.097  15.977 -1.1724 -0.2009  0.0406
  569TMC3    O2 8449   3.183   4.490  16.497  0.7644 -0.0897  0.3662
  570TMC3    C1 8450   2.246   3.159  16.192  0.4821  0.5058  0.4178
  570TMC3    C2 8451   2.333   3.147  16.082 -0.2286  0.1362  0.4032
  570TMC3    C3 8452   2.394   3.263  16.053  0.2250 -0.5785 -0.4906
  570TMC3    C4 8453   2.240   3.262  16.275 -0.2744 -0.0780 -0.3980
  570TMC3    C5 8454   2.309   3.373  16.241 -0.5845  0.4298 -0.3652
  570TMC3    C6 8455   2.385   3.377  16.131  0.7215 -0.0823  0.3580
  570TMC3     C 8456   2.175   3.037  16.217  0.5259 -0.9019 -0.3462
  570TMC3     O 8457   2.174   2.961  16.125 -0.2080  0.5865 -0.4136
  570TMC3     H 8458   2.346   3.053  16.030 -2.1706 -0.4821  1.0287
  570TMC3    H1 8459   2.167   3.267  16.355  1.0118  0.6635  0.7421
  570TMC3    H2 8460   2.448   3.462  16.106  0.6796 -0.4759 -1.0802
  570TMC3    C7 8461   2.284   3.484  16.323 -0.1973 -0.1478  0.1206
  570TMC3    C8 8462   2.505   3.262  15.955 -0.1020  0.0107  0.5422
  570TMC3    O1 8463   2.239   3.461  16.437 -0.5754 -0.4323 -0.0948
  570TMC3    O2 8464   2.575   3.362  15.954  0.4284  0.6699  0.0420
  571MPD2     C 8465   4.559   3.979   0.110  0.4389  0.0900  0.3221
  571MPD2    C1 8466   4.589   4.114   0.105 -0.2136  0.7575  0.0552
  571MPD2    C2 8467   4.527   4.185   0.206  0.2043  0.1799 -0.5428
  571MPD2    C3 8468   4.457   4.132   0.315  0.1416  0.3483  0.8494
  571MPD2    C4 8469   4.446   3.996   0.320  0.1844 -0.0863  0.3983
  571MPD2    C5 8470   4.491   3.921   0.213 -0.0919 -0.0332 -0.2761
  571MPD2     H 8471   4.527   4.294   0.206  0.5451  0.1834  1.7006
  571MPD2    H1 8472   4.391   3.937   0.392 -0.7656  1.8878  1.2828
  571MPD2    H2 8473   4.580   3.912   0.028 -1.6979  0.7965 -0.7989
  571MPD2    H3 8474   4.488   3.812   0.211 -1.1747 -0.0066  0.3026
  571MPD2     N 8475   4.410   4.211   0.415  0.6247  0.0023  0.7784
  571MPD2    H5 8476   4.382   4.167   0.502 -1.5907  1.3273  0.7406
  571MPD2    N1 8477   4.672   4.172   0.006 -0.6749  0.0901 -0.1800
  571MPD2    H7 8478   4.698   4.112  17.620  2.0870  0.8467  0.1777
  572TMC3    C1 8479   4.340   4.393   0.553  0.5714 -0.4535 -0.7349
  572TMC3    C2 8480   4.359   4.319   0.661  0.3593  0.9189  0.5732
  572TMC3    C3 8481   4.306   4.376   0.773 -0.6359  0.2160  0.1128
  572TMC3    C4 8482   4.256   4.501   0.545  0.3463  0.4604  1.1081
  572TMC3    C5 8483   4.199   4.545   0.660 -0.3896 -0.7121 -0.6295
  572TMC3    C6 8484   4.233   4.488   0.781 -0.0400  0.4601 -0.0634
  572TMC3     C 8485   4.386   4.349   0.418  0.4447 -0.2237  0.2865
  572TMC3     O 8486   4.386   4.429   0.327 -0.0714  0.3087 -0.2626
  572TMC3     H 8487   4.445   4.254   0.662 -0.0523  0.3476 -0.7772
  572TMC3    H1 8488   4.234   4.554   0.453  1.3380 -1.1224 -0.0321
  572TMC3    H2 8489   4.201   4.527   0.877  0.3955 -1.3599  0.8309
  572TMC3    C7 8490   4.146   4.682   0.659  0.1443 -0.2721 -0.0841
  572TMC3    C8 8491   4.312   4.299   0.902 -0.2017  0.0675  0.0621
  572TMC3    O1 8492   4.203   0.031   0.571 -1.0531  0.3232  0.2726
  572TMC3    O2 8493   4.296   4.175   0.896  0.1997  0.1383 -0.6294
  573MPD2     C 8494   1.728   0.816  17.253  1.0371  0.2816 -0.9226
  573MPD2    C1 8495   1.600   0.809  17.301  0.3566 -0.0916 -0.6241
  573MPD2    C2 8496   1.500   0.750  17.229 -1.1328 -0.2151 -0.8848
  573MPD2    C3 8497   1.528   0.688  17.110  0.3297 -0.3254 -0.3988
  573MPD2    C4 8498   1.656   0.700  17.058 -0.1726  0.4934 -0.0179
  573MPD2    C5 8499   1.753   0.769  17.131 -0.1310 -0.2084  0.4548
  573MPD2     H 8500   1.403   0.733  17.273 -1.7856  0.8563 -1.9151
  573MPD2    H1 8501   1.677   0.679  16.954  2.4573  0.4713  0.5015
  573MPD2    H2 8502   1.808   0.845  17.321 -0.5202  0.0717  1.0004
  573MPD2    H3 8503   1.847   0.796  17.082  1.4799 -1.7062  2.7609
  573MPD2     N 8504   1.434   0.617  17.030  0.0172 -0.1039 -0.3255
  573MPD2    H5 8505   1.469   0.566  16.950  1.9371  1.0840 -0.2384
  573MPD2    N1 8506   1.588   0.856  17.436 -0.5401  0.8043  0.0752
  573MPD2    H7 8507   1.673   0.862  17.490  1.3673  0.9032 -2.9288
  574TMC3    C1 8508   1.225   0.519  16.959  0.0030  0.8125  0.1432
  574TMC3    C2 8509   1.089   0.549  16.940  0.4947 -0.4707 -0.3550
  574TMC3    C3 8510   1.023   0.497  16.831 -0.1040 -0.0742  0.4164
  574TMC3    C4 8511   1.292   0.449  16.860  0.1216 -0.0658  0.4506
  574TMC3    C5 8512   1.223   0.413  16.746 -0.1236  0.7760 -0.6719
  574TMC3    C6 8513   1.086   0.433  16.735 -0.3140  0.7275 -0.3498
  574TMC3     C 8514   1.298   0.608  17.047 -0.4869 -0.0532  0.6920
  574TMC3     O 8515   1.234   0.676  17.127  0.1390  0.3133  0.3549
  574TMC3     H 8516   1.035   0.598  17.021  1.9231 -0.2123  0.4429
  574TMC3    H1 8517   1.396   0.422  16.871 -0.4517 -1.8793  1.3982
  574TMC3    H2 8518   1.025   0.386  16.658  0.3623 -0.4896 -0.1266
  574TMC3    C7 8519   1.294   0.362  16.633 -0.5106  0.1808  0.0473
  574TMC3    C8 8520   0.890   0.540  16.798 -0.2202  0.6019  0.4038
  574TMC3    O1 8521   1.404   0.310  16.646 -0.1298  0.2385  0.4116
  574TMC3    O2 8522   0.819   0.468  16.728 -0.5543 -0.5964  0.1681
  575TMC3    C1 8523   3.580   1.615  11.027 -0.8707  0.2936  0.2413
  575TMC3    C2 8524   3.527   1.514  10.968  0.4864  0.0069  0.2024
  575TMC3    C3 8525   3.541   1.503  10.831 -0.4461  0.0446 -1.2801
  575TMC3    C4 8526   3.640   1.720  10.959 -0.1739 -0.6026 -0.1003
  575TMC3    C5 8527   3.643   1.707  10.821 -0.1210  0.3697 -0.2926
  575TMC3    C6 8528   3.592   1.600  10.749 -0.2432  0.1933  0.1276
  575TMC3     C 8529   3.572   1.611  11.172  0.3262  0.0102  0.2104
  575TMC3     O 8530   3.525   1.514  11.224 -0.2341  0.7424 -0.0766
  575TMC3     H 8531   3.470   1.444  11.028 -2.4585  1.9039 -0.3886
  575TMC3    H1 8532   3.693   1.799  11.011 -1.7329  2.2032 -2.7586
  575TMC3    H2 8533   3.604   1.589  10.642 -0.1967  0.3821  0.1148
  575TMC3    C7 8534   3.724   1.799  10.743  0.1859  0.4809  0.2245
  575TMC3    C8 8535   3.502   1.365  10.786  0.3722 -0.0647 -0.0361
  575TMC3    O1 8536   3.736   1.770  10.624 -0.2876  0.3358 -0.7235
  575TMC3    O2 8537   3.496   1.274  10.868  0.1647 -0.0903 -0.9038
  576MPD2     C 8538   3.347   2.901  12.387 -0.1013  0.0685  0.1446
  576MPD2    C1 8539   3.368   3.009  12.305  0.2305  0.4639 -0.3237
  576MPD2    C2 8540   3.354   3.136  12.349 -0.4723  0.3890  0.1137
  576MPD2    C3 8541   3.317   3.153  12.483 -0.7524 -0.1528  0.5141
  576MPD2    C4 8542   3.302   3.045  12.572  0.0476  0.2575  0.0761
  576MPD2    C5 8543   3.316   2.915  12.524  0.6232 -0.5507 -0.3007
  576MPD2     H 8544   3.370   3.215  12.276 -0.6861 -0.0069 -0.3571
  576MPD2    H1 8545   3.273   3.057  12.676 -2.4812 -1.8940 -0.3548
  576MPD2    H2 8546   3.354   2.798  12.352 -0.1850 -1.0558  3.4637
  576MPD2    H3 8547   3.316   2.836  12.598 -0.0096 -0.6747 -0.4265
  576MPD2     N 8548   3.289   3.288  12.516 -0.1559  0.2917  0.7823
  576MPD2    H5 8549   3.297   3.353  12.439 -1.9616 -0.4749 -0.0408
  576MPD2    N1 8550   3.420   2.981  12.174 -0.4018 -0.1437 -0.0787
  576MPD2    H7 8551   3.434   3.062  12.114  3.2540  0.5973  1.8308
  577TMC3    C1 8552   3.491   2.887  11.976  0.0300  0.6558 -0.6400
  577TMC3    C2 8553   3.580   2.797  11.925  0.1505 -0.0107  0.2756
  577TMC3    C3 8554   3.639   2.825  11.801 -0.3977 -0.2277 -0.5661
  577TMC3    C4 8555   3.459   3.008  11.906 -0.3676  0.2271 -0.5771
  577TMC3    C5 8556   3.508   3.029  11.779 -0.1563 -0.2123 -0.3279
  577TMC3    C6 8557   3.607   2.949  11.737 -0.0231 -0.7276  0.5985
  577TMC3     C 8558   3.447   2.863  12.117  0.0052  0.6840 -0.8960
  577TMC3     O 8559   3.443   2.745  12.159  0.0593  0.1934  0.1769
  577TMC3     H 8560   3.619   2.712  11.979 -2.2600 -1.6622 -0.5827
  577TMC3    H1 8561   3.374   3.067  11.938  1.2094  3.0059 -1.4518
  577TMC3    H2 8562   3.634   2.957  11.632  0.1802  0.1391  0.7115
  577TMC3    C7 8563   3.450   3.110  11.677  0.0668 -0.1757  0.8399
  577TMC3    C8 8564   3.744   2.735  11.748  0.1976 -0.6493 -0.5623
  577TMC3    O1 8565   3.524   3.148  11.583 -0.5784  0.8471  0.3809
  577TMC3    O2 8566   3.767   2.644  11.825 -0.2037 -0.5950 -0.5896
  578MPD2     C 8567   1.606   2.952   1.766  0.0696  0.1533 -1.3601
  578MPD2    C1 8568   1.686   2.915   1.662 -0.0053  0.2394  0.0467
  578MPD2    C2 8569   1.749   2.793   1.670  0.4152  0.4924 -0.4322
  578MPD2    C3 8570   1.756   2.724   1.789 -0.3371  0.1133 -0.4609
  578MPD2    C4 8571   1.698   2.778   1.900  0.3117 -0.1959  0.6689
  578MPD2    C5 8572   1.620   2.885   1.884  0.0250  0.2690 -0.1738
  578MPD2     H 8573   1.800   2.751   1.584  2.1500  0.1668  0.7344
  578MPD2    H1 8574   1.688   2.722   1.992 -0.0907  3.8492  3.0940
  578MPD2    H2 8575   1.540   3.037   1.764  0.5990  0.5892 -0.2989
  578MPD2    H3 8576   1.572   2.931   1.970 -1.0413 -0.2902 -0.4686
  578MPD2     N 8577   1.851   2.618   1.794 -0.2468  0.3509  0.2635
  578MPD2    H5 8578   1.896   2.595   1.706 -1.1625 -2.8010  0.5905
  578MPD2    N1 8579   1.681   2.995   1.541 -0.3482 -0.4814 -0.4900
  578MPD2    H7 8580   1.627   3.080   1.551 -0.8545 -0.9634  0.8314
  579TMC3    C1 8581   1.997   2.449   1.891  0.1783  0.3959  0.5323
  579TMC3    C2 8582   2.059   2.406   2.007  0.6451 -0.6648 -0.1845
  579TMC3    C3 8583   2.193   2.368   2.007  0.2769 -0.5828 -0.0524
  579TMC3    C4 8584   2.051   2.421   1.766 -0.5595 -0.0928 -0.3034
  579TMC3    C5 8585   2.181   2.367   1.767 -0.0635  0.1436  0.3596
  579TMC3    C6 8586   2.247   2.350   1.883  0.1818  0.4337  0.4664
  579TMC3     C 8587   1.893   2.548   1.910 -0.3869  0.0998  0.1067
  579TMC3     O 8588   1.851   2.569   2.026 -0.4272 -0.2448 -0.0139
  579TMC3     H 8589   2.021   2.440   2.103 -1.0098 -1.7972 -0.4374
  579TMC3    H1 8590   1.993   2.453   1.681 -3.2457 -0.0847  1.5255
  579TMC3    H2 8591   2.343   2.300   1.877  0.3368  0.6868  0.8537
  579TMC3    C7 8592   2.254   2.350   1.640  0.3455 -0.3383  0.6465
  579TMC3    C8 8593   2.280   2.408   2.118 -0.4177  0.0833  0.7196
  579TMC3    O1 8594   2.372   2.314   1.649  0.0635 -0.1015 -0.1795
  579TMC3    O2 8595   2.239   2.383   2.233 -0.8214 -0.0335 -0.1624
  580TMC3    C1 8596   1.538   2.946  11.968  0.8935 -0.0422 -0.9139
  580TMC3    C2 8597   1.665   2.964  11.918 -0.0425  0.3625  1.1363
  580TMC3    C3 8598   1.749   2.860  11.933 -0.2600  0.3033  0.1203
  580TMC3    C4 8599   1.514   2.838  12.053  0.3167 -0.2172 -0.1831
  580TMC3    C5 8600   1.601   2.732  12.053 -0.3459  0.1724  0.1712
  580TMC3    C6 8601   1.730   2.741  12.007  0.7890 -0.1364  0.1876
  580TMC3     C 8602   1.432   3.009  11.888  0.8993 -0.2404  0.3401
  580TMC3     O 8603   1.474   3.091  11.805  0.1103  0.5622  0.3055
  580TMC3     H 8604   1.696   3.040  11.847  1.0448 -0.3398  0.8560
  580TMC3    H1 8605   1.422   2.821  12.107  0.8136  0.0709  0.7710
  580TMC3    H2 8606   1.812   2.669  12.004  1.9308  1.1501  0.3144
  580TMC3    C7 8607   1.554   2.611  12.113 -0.1404  0.1912 -0.4088
  580TMC3    C8 8608   1.840   2.841  11.820 -0.5989  0.3324  1.0083
  580TMC3    O1 8609   1.463   2.615  12.196 -0.4484 -0.1542  0.2016
  580TMC3    O2 8610   1.863   2.727  11.781  0.1238 -0.2146 -0.2860
  581MPD2     C 8611   4.096   2.348  15.446  0.7514 -0.0090  0.3741
  581MPD2    C1 8612   4.098   2.235  15.359  0.3248 -0.0133  0.1929
  581MPD2    C2 8613   4.059   2.244  15.226 -0.6312  0.4711  0.2222
  581MPD2    C3 8614   4.026   2.366  15.177 -0.1396 -0.0120  0.1995
  581MPD2    C4 8615   4.047   2.480  15.254  0.1108  0.5553  1.1127
  581MPD2    C5 8616   4.074   2.470  15.385  0.4290  0.0210  0.2133
  581MPD2     H 8617   4.054   2.154  15.166  1.0810 -0.3489  1.3227
  581MPD2    H1 8618   4.024   2.581  15.222 -0.3575  0.2733  0.5587
  581MPD2    H2 8619   4.090   2.345  15.554  0.4775 -1.4905  0.3181
  581MPD2    H3 8620   4.071   2.564  15.438  1.7713 -0.3694  0.9844
  581MPD2     N 8621   3.978   2.377  15.047  0.0324 -0.4557 -0.2246
  581MPD2    H5 8622   3.978   2.294  14.989  0.8842  1.4487 -2.9839
  581MPD2    N1 8623   4.111   2.112  15.432 -0.3270  0.3169 -0.4723
  581MPD2    H7 8624   4.148   2.116  15.526  0.2385  1.9491 -0.7616
  582TMC3    C1 8625   4.159   1.886  15.488 -0.5074  0.2695  1.4476
  582TMC3    C2 8626   4.146   1.915  15.622  0.4501  0.2604  0.8258
  582TMC3    C3 8627   4.184   1.811  15.704 -0.3471  0.1908  0.0040
  582TMC3    C4 8628   4.205   1.765  15.441 -0.6691  0.8293 -0.2313
  582TMC3    C5 8629   4.226   1.663  15.528  0.6954  0.2801  0.6486
  582TMC3    C6 8630   4.220   1.687  15.663  0.9833  0.3089 -0.2087
  582TMC3     C 8631   4.107   1.980  15.381  0.1668 -0.2242  0.1725
  582TMC3     O 8632   4.081   1.937  15.269  0.1397  0.2423  0.0513
  582TMC3     H 8633   4.114   2.011  15.659 -0.2186 -0.2775  1.6367
  582TMC3    H1 8634   4.225   1.749  15.335 -0.5972 -2.1289  0.2173
  582TMC3    H2 8635   4.251   1.603  15.724 -0.7559 -0.3648 -0.2462
  582TMC3    C7 8636   4.263   1.529  15.487 -0.2699  0.1053 -0.0811
  582TMC3    C8 8637   4.218   1.844  15.838  0.2638  1.5611 -0.7684
  582TMC3    O1 8638   4.340   1.469  15.562 -0.2737 -0.0518  0.4116
  582TMC3    O2 8639   4.164   1.946  15.880 -0.4189 -0.0095 -1.1196
  583MPD2     C 8640   4.163   3.176  16.891 -0.0292 -1.4867  0.0147
  583MPD2    C1 8641   4.173   3.287  16.816  0.1817 -0.3826  0.3915
  583MPD2    C2 8642   4.120   3.403  16.875  0.4720 -0.5003 -0.0934
  583MPD2    C3 8643   4.063   3.403  17.003  0.8037 -0.5114 -0.5894
  583MPD2    C4 8644   4.056   3.283  17.075  1.0703 -0.1991  0.4646
  583MPD2    C5 8645   4.112   3.170  17.019 -0.6481 -0.3722 -0.2050
  583MPD2     H 8646   4.125   3.498  16.821 -2.8906  0.5059  1.3592
  583MPD2    H1 8647   3.994   3.264  17.162  1.0592 -1.0677  0.2640
  583MPD2    H2 8648   4.201   3.087  16.843 -2.5005 -2.7305  0.3704
  583MPD2    H3 8649   4.106   3.067  17.053  0.4997 -0.0144  1.0943
  583MPD2     N 8650   4.003   3.524  17.040  0.1227  0.3637 -0.4374
  583MPD2    H5 8651   3.993   3.591  16.965 -0.3684  1.5997  0.7475
  583MPD2    N1 8652   4.226   3.300  16.686 -0.3744  0.7913  0.5577
  583MPD2    H7 8653   4.254   3.389  16.647 -0.4944  0.4479 -0.3125
  584TMC3    C1 8654   3.908   3.684  17.185 -0.9348  0.2031  0.7652
  584TMC3    C2 8655   3.923   3.785  17.091 -0.3017  0.1462 -0.1596
  584TMC3    C3 8656   3.914   3.913  17.133  0.2585  0.2071  0.5505
  584TMC3    C4 8657   3.879   3.721  17.314  0.6084 -0.1972 -0.4039
  584TMC3    C5 8658   3.865   3.850  17.349 -0.0444 -1.1786 -0.6099
  584TMC3    C6 8659   3.880   3.951  17.263  1.0420  0.0297 -0.3611
  584TMC3     C 8660   3.959   3.549  17.166 -0.9182 -0.4371  0.2340
  584TMC3     O 8661   3.953   3.478  17.262 -0.4348 -0.2886 -0.7895
  584TMC3     H 8662   3.935   3.767  16.985  2.5299 -0.4805  0.2581
  584TMC3    H1 8663   3.875   3.641  17.386 -1.3288 -1.6384 -2.1095
  584TMC3    H2 8664   3.866   4.054  17.295  1.1657 -0.5728  1.6453
  584TMC3    C7 8665   3.875   3.879  17.491 -0.2336 -0.0149 -0.0347
  584TMC3    C8 8666   3.961   4.016  17.034 -0.2127 -0.3591 -0.2351
  584TMC3    O1 8667   3.940   3.796  17.560  0.2068 -0.3865 -0.2824
  584TMC3    O2 8668   3.961   3.975  16.920 -0.2723 -0.0975  0.3306
  585MPD2     C 8669   2.805   2.704   0.728 -0.6431  0.2779 -0.0264
  585MPD2    C1 8670   2.935   2.691   0.686  0.0144  0.3582 -0.4482
  585MPD2    C2 8671   2.958   2.707   0.547 -0.7441  0.0570  0.3751
  585MPD2    C3 8672   2.858   2.746   0.461 -0.6016  0.1418  0.6453
  585MPD2    C4 8673   2.732   2.752   0.511 -0.3692  1.1245 -0.3376
  585MPD2    C5 8674   2.708   2.730   0.642  0.2021  0.5125  0.5667
  585MPD2     H 8675   3.058   2.697   0.508 -1.5984 -1.0875 -1.5643
  585MPD2    H1 8676   2.654   2.799   0.452  0.0074  0.9943 -0.9308
  585MPD2    H2 8677   2.799   2.716   0.835  0.2616 -1.1821  0.1952
  585MPD2    H3 8678   2.606   2.749   0.674 -0.2172 -2.4012  1.0009
  585MPD2     N 8679   2.869   2.780   0.321 -0.2828 -0.0859 -0.1459
  585MPD2    H5 8680   2.784   2.799   0.270  0.2425  1.0064 -0.6137
  585MPD2    N1 8681   3.040   2.682   0.779 -0.2319 -0.0088  0.0168
  585MPD2    H7 8682   3.009   2.705   0.873  0.9477 -0.1415  0.4339
  586TMC3    C1 8683   2.958   2.811   0.114  0.9876  0.5433  0.2903
  586TMC3    C2 8684   3.053   2.884   0.045  0.7555  0.2284 -0.1034
  586TMC3    C3 8685   3.031   2.908  17.601 -0.4315 -0.2488 -0.5953
  586TMC3    C4 8686   2.855   2.750   0.057 -0.6496 -0.6228  0.1276
  586TMC3    C5 8687   2.839   2.772  17.615 -0.4726  0.0442  0.0016
  586TMC3    C6 8688   2.917   2.860  17.545  0.0616 -0.4042  0.0103
  586TMC3     C 8689   2.985   2.781   0.250 -0.1881  0.1545  0.2143
  586TMC3     O 8690   3.101   2.777   0.284 -0.3467 -0.1479  0.6594
  586TMC3     H 8691   3.150   2.908   0.087  0.3318  1.5938  0.0806
  586TMC3    H1 8692   2.785   2.680   0.102  0.4830 -2.9704 -1.7462
  586TMC3    H2 8693   2.897   2.861  17.439 -0.0999  0.9671  0.0501
  586TMC3    C7 8694   2.773   2.663  17.539  0.0987 -0.5209  0.4848
  586TMC3    C8 8695   3.145   2.877  17.520 -0.3178  0.3562 -1.0543
  586TMC3    O1 8696   2.679   2.599  17.589  0.0656 -0.4519  0.1842
  586TMC3    O2 8697   3.228   2.806  17.576  0.1963 -0.0097  0.9426
  587TMC3    C1 8698   0.588   0.869  16.452 -0.6868 -0.1521 -0.0217
  587TMC3    C2 8699   0.597   0.997  16.485 -0.3316 -0.1571  0.1516
  587TMC3    C3 8700   0.712   1.036  16.547  0.2843  0.4787  1.0880
  587TMC3    C4 8701   0.687   0.781  16.465 -0.0821  0.4680  0.3518
  587TMC3    C5 8702   0.799   0.821  16.531 -0.8516 -0.8677 -0.3727
  587TMC3    C6 8703   0.819   0.954  16.567 -0.3694 -0.2942  0.7936
  587TMC3     C 8704   0.472   0.836  16.364  0.0773  0.8803  0.0195
  587TMC3     O 8705   0.476   0.739  16.289 -0.0269 -0.0363 -0.1273
  587TMC3     H 8706   0.524   1.076  16.473 -0.9041 -0.2979  2.6254
  587TMC3    H1 8707   0.686   0.699  16.395 -1.7003  0.4567  0.3938
  587TMC3    H2 8708   0.908   0.988  16.619  0.6143 -2.2094  0.3745
  587TMC3    C7 8709   0.913   0.736  16.513  0.3907  0.1557 -0.3892
  587TMC3    C8 8710   0.740   1.175  16.587 -0.3916 -0.4750  0.8284
  587TMC3    O1 8711   0.897   0.637  16.444 -0.1229  0.1518 -0.2422
  587TMC3    O2 8712   0.856   1.196  16.623 -0.5150 -0.1082  0.4114
  588TMC3    C1 8713   3.726   3.767   9.949 -0.3156  0.0642 -0.2873
  588TMC3    C2 8714   3.785   3.658   9.897 -0.0925  0.1176  0.7302
  588TMC3    C3 8715   3.825   3.555   9.977  0.1366 -0.0614 -0.1972
  588TMC3    C4 8716   3.726   3.794  10.082 -0.0944 -0.2740 -0.6351
  588TMC3    C5 8717   3.787   3.702  10.160  0.4254  0.7010  0.4159
  588TMC3    C6 8718   3.825   3.577  10.115 -0.0836  0.6159  0.2200
  588TMC3     C 8719   3.671   3.871   9.863 -0.1404 -0.2118 -0.2973
  588TMC3     O 8720   3.608   3.842   9.764  0.3647  0.8666  0.4216
  588TMC3     H 8721   3.793   3.646   9.790 -0.1378  0.2803  0.7092
  588TMC3    H1 8722   3.666   3.870  10.132 -2.6412 -1.2179 -2.2331
  588TMC3    H2 8723   3.871   3.502  10.179 -2.4359  0.2131  1.4274
  588TMC3    C7 8724   3.783   3.726  10.308 -0.7138 -0.1862 -0.3329
  588TMC3    C8 8725   3.808   3.421   9.925  0.0751 -0.0525  0.4174
  588TMC3    O1 8726   3.794   3.631  10.387  0.6392 -0.2807  0.3386
  588TMC3    O2 8727   3.769   3.416   9.812  0.3143 -0.0040  0.1207
  589TMC3    C1 8728   2.237   1.558   1.340  0.8541 -0.4279 -0.1591
  589TMC3    C2 8729   2.303   1.611   1.448 -0.0607 -0.6351 -0.0644
  589TMC3    C3 8730   2.419   1.549   1.487 -0.0541 -0.5127 -0.5129
  589TMC3    C4 8731   2.284   1.448   1.272  0.2148  0.3632 -0.1939
  589TMC3    C5 8732   2.401   1.384   1.311  0.5345  0.1010  0.2681
  589TMC3    C6 8733   2.470   1.437   1.424  0.6233  0.0599 -0.0921
  589TMC3     C 8734   2.124   1.622   1.279  0.1555 -0.0226  0.1923
  589TMC3     O 8735   2.110   1.593   1.163 -0.3543  0.0135  0.0966
  589TMC3     H 8736   2.274   1.699   1.504  2.8944 -0.3979  1.1248
  589TMC3    H1 8737   2.230   1.402   1.190  0.3411 -1.3549  0.6944
  589TMC3    H2 8738   2.567   1.401   1.457  1.9783  1.9424 -1.9587
  589TMC3    C7 8739   2.404   1.244   1.281 -0.3053 -0.4103 -0.1634
  589TMC3    C8 8740   2.497   1.625   1.578 -0.0203 -0.6636 -0.8474
  589TMC3    O1 8741   2.301   1.189   1.251  0.3534 -0.8104 -0.1764
  589TMC3    O2 8742   2.448   1.665   1.680 -0.6519 -0.2307  0.2065
  590MPD2     C 8743   1.750   4.497  16.582 -0.1858  0.2759  0.1568
  590MPD2    C1 8744   1.708   4.517  16.455 -0.3157 -0.4056  0.1355
  590MPD2    C2 8745   1.803   4.541  16.359  0.2884  0.0330  0.4083
  590MPD2    C3 8746   1.936   4.553  16.391  0.0853  0.2077  0.1138
  590MPD2    C4 8747   1.975   4.516  16.516 -0.4468 -0.2942 -0.0565
  590MPD2    C5 8748   1.882   4.491  16.613 -0.7401  0.8311 -0.6074
  590MPD2     H 8749   1.769   4.566  16.259  0.4751  0.4679  0.4538
  590MPD2    H1 8750   2.081   4.522  16.540 -0.5265 -0.2799  0.2905
  590MPD2    H2 8751   1.681   4.476  16.662  1.0913 -4.1018  0.1162
  590MPD2    H3 8752   1.913   4.466  16.714 -0.9609  2.2117 -0.1981
  590MPD2     N 8753   2.012   4.616  16.290 -0.3289 -0.2961 -0.2395
  590MPD2    H5 8754   1.969   4.625  16.198  0.6078  0.7881 -0.5743
  590MPD2    N1 8755   1.571   4.521  16.436  0.0344 -0.0422 -0.0312
  590MPD2    H7 8756   1.515   4.529  16.520 -0.4218  0.2810 -0.3688
  591TMC3    C1 8757   2.181   4.712  16.174  0.1084  0.0038  0.2397
  591TMC3    C2 8758   2.292   4.677  16.090  0.3563  0.0903  0.0350
  591TMC3    C3 8759   2.305   0.017  15.970  0.6496 -0.8498 -0.8304
  591TMC3    C4 8760   2.106   0.100  16.152  0.1209 -0.6659 -0.8723
  591TMC3    C5 8761   2.117   0.149  16.026 -0.0916 -0.1633  0.0654
  591TMC3    C6 8762   2.218   0.116  15.937  0.5958  0.2994 -0.2011
  591TMC3     C 8763   2.143   4.631  16.290 -0.4516 -0.7483 -0.0820
  591TMC3     O 8764   2.225   4.585  16.366 -0.3170  0.1882 -0.2482
  591TMC3     H 8765   2.356   4.597  16.127  0.1797 -1.1139 -2.2860
  591TMC3    H1 8766   2.029   0.131  16.222 -1.7158 -2.0582 -2.2356
  591TMC3    H2 8767   2.207   0.146  15.833 -0.1076  1.3568  0.1706
  591TMC3    C7 8768   2.021   0.251  15.993 -0.0669 -0.0900 -0.4220
  591TMC3    C8 8769   2.411   4.693  15.885 -1.2245  0.4714  0.4290
  591TMC3    O1 8770   1.919   0.255  16.057 -1.1257 -0.3322 -0.1406
  591TMC3    O2 8771   2.447   4.580  15.905  0.9396 -0.5972 -0.3100
  592MPD2     C 8772   2.170   1.841  11.364 -0.4216  0.0280 -0.8024
  592MPD2    C1 8773   2.181   1.934  11.464 -0.8657 -0.7259 -0.2770
  592MPD2    C2 8774   2.126   1.916  11.590 -0.7986 -0.6160  0.9405
  592MPD2    C3 8775   2.087   1.790  11.621 -0.1989 -0.1328  0.0176
  592MPD2    C4 8776   2.084   1.697  11.525  0.3874  0.4602  0.0219
  592MPD2    C5 8777   2.117   1.722  11.393 -0.2759  0.2593 -0.5014
  592MPD2     H 8778   2.109   1.993  11.664  0.4562  0.2374  0.3255
  592MPD2    H1 8779   2.062   1.595  11.553  1.2013  1.2770  3.5757
  592MPD2    H2 8780   2.205   1.863  11.264  0.9913  0.4274 -0.2280
  592MPD2    H3 8781   2.117   1.645  11.317 -1.0530  0.7348 -0.9764
  592MPD2     N 8782   2.048   1.748  11.749 -0.6004 -0.5336  0.1659
  592MPD2    H5 8783   2.000   1.659  11.757 -1.5150  0.1369  2.0762
  592MPD2    N1 8784   2.236   2.054  11.413 -0.4009 -0.1893 -0.2163
  592MPD2    H7 8785   2.232   2.049  11.311 -1.7674 -1.9308 -0.0737
  593TMC3    C1 8786   2.242   2.295  11.405 -0.2901 -0.7056  0.4189
  593TMC3    C2 8787   2.202   2.397  11.479  0.1674  0.6518  0.4101
  593TMC3    C3 8788   2.259   2.520  11.458  0.7534 -0.5399 -0.3095
  593TMC3    C4 8789   2.345   2.308  11.320 -0.6969  0.3663  0.1472
  593TMC3    C5 8790   2.407   2.428  11.309 -0.1350 -0.4545 -0.3419
  593TMC3    C6 8791   2.368   2.536  11.387  0.9569 -0.8850 -0.3831
  593TMC3     C 8792   2.240   2.174  11.487 -0.1299  0.3010  0.3957
  593TMC3     O 8793   2.212   2.177  11.606 -0.2339 -0.0246 -0.2508
  593TMC3     H 8794   2.124   2.383  11.552  0.4703  0.6213  0.7267
  593TMC3    H1 8795   2.384   2.219  11.271 -2.8939 -1.1863  1.2399
  593TMC3    H2 8796   2.411   2.635  11.383 -2.0457  0.4322  0.6131
  593TMC3    C7 8797   2.504   2.444  11.207  0.7570  0.4616  0.2648
  593TMC3    C8 8798   2.230   2.602  11.569 -0.6405  0.0304  0.6072
  593TMC3    O1 8799   2.597   2.519  11.229  0.1233  0.3801  0.4018
  593TMC3    O2 8800   2.117   2.599  11.619  0.4917  0.3328 -0.1029
  594MPD2     C 8801   1.320   0.330  14.163 -0.4402  0.4057  0.4121
  594MPD2    C1 8802   1.224   0.418  14.209 -0.3175 -0.5782  0.6651
  594MPD2    C2 8803   1.247   0.554  14.198 -0.2692  0.8081 -0.3019
  594MPD2    C3 8804   1.365   0.595  14.153  0.4564 -0.8645 -0.0695
  594MPD2    C4 8805   1.466   0.506  14.118  0.1779  0.5379 -0.2569
  594MPD2    C5 8806   1.449   0.371  14.121 -0.3137 -0.0455  0.2069
  594MPD2     H 8807   1.175   0.633  14.219 -1.6928 -1.1857  2.2857
  594MPD2    H1 8808   1.570   0.534  14.107  0.5356 -0.4308  0.6720
  594MPD2    H2 8809   1.316   0.226  14.193 -0.2149  0.5711  1.0181
  594MPD2    H3 8810   1.518   0.289  14.109  1.0713  1.1836 -0.2922
  594MPD2     N 8811   1.384   0.738  14.140  0.8410 -0.1446  0.3060
  594MPD2    H5 8812   1.308   0.798  14.168 -1.7924 -1.5167 -3.9020
  594MPD2    N1 8813   1.086   0.374  14.247  0.0449 -0.5559  0.0988
  594MPD2    H7 8814   1.018   0.447  14.263  0.2622 -0.0008 -1.5807
  595TMC3    C1 8815   1.636   1.141  14.089  0.1945 -0.0461 -0.0167
  595TMC3    C2 8816   1.622   1.003  14.061 -0.0505  0.2512 -0.6795
  595TMC3    C3 8817   1.497   0.944  14.101  0.0022 -0.0584 -0.6032
  595TMC3    C4 8818   1.546   1.211  14.160  0.3862 -0.0343 -0.1039
  595TMC3    C5 8819   1.433   1.149  14.206  0.0280 -0.4654  0.5338
  595TMC3    C6 8820   1.404   1.017  14.176 -0.2234  0.9571 -0.3575
  595TMC3     C 8821   1.769   1.198  14.099 -0.3030  0.7500  0.2057
  595TMC3     O 8822   1.781   1.283  14.184  0.1546  0.5116 -0.2551
  595TMC3     H 8823   1.704   0.949  14.015 -0.6299  0.5668 -2.0874
  595TMC3    H1 8824   1.564   1.318  14.167 -1.0946  0.2341 -0.3034
  595TMC3    H2 8825   1.311   0.977  14.215 -0.1770  1.6754  0.4622
  595TMC3    C7 8826   1.346   1.220  14.298 -0.7042  0.4603 -0.7517
  595TMC3    C8 8827   1.507   0.793  14.108  0.2220  0.7630 -0.3025
  595TMC3    O1 8828   1.225   1.195  14.286 -0.2503  0.0535  0.6078
  595TMC3    O2 8829   1.612   0.741  14.073 -0.2837 -0.1708 -0.5657
  596MPD2     C 8830   0.295   3.321  16.880  0.3199 -0.1626  0.2788
  596MPD2    C1 8831   0.277   3.432  16.804 -0.8362 -0.1543 -0.3889
  596MPD2    C2 8832   0.307   3.426  16.671  0.5873  0.6630 -0.0620
  596MPD2    C3 8833   0.342   3.307  16.611 -0.1493  0.2945  0.7755
  596MPD2    C4 8834   0.359   3.194  16.687 -0.5435 -0.2657  0.0163
  596MPD2    C5 8835   0.337   3.201  16.820  0.4030  0.8358 -0.2161
  596MPD2     H 8836   0.284   3.512  16.608  0.9952  0.5192 -0.4022
  596MPD2    H1 8837   0.385   3.100  16.641 -0.6262 -0.6049  0.6672
  596MPD2    H2 8838   0.281   3.323  16.987  1.1710  0.0895  0.3878
  596MPD2    H3 8839   0.337   3.108  16.877  0.4731  1.5384  0.9262
  596MPD2     N 8840   0.358   3.288  16.471 -0.4533 -0.0118  0.1869
  596MPD2    H5 8841   0.354   3.193  16.436 -1.9131  0.6169 -1.3989
  596MPD2    N1 8842   0.237   3.555  16.859 -0.3515  0.0696  0.8716
  596MPD2    H7 8843   0.252   3.637  16.802  2.8274 -1.9513 -1.2287
  597TMC3    C1 8844   0.151   3.717  17.007 -0.2938  0.2124 -0.0946
  597TMC3    C2 8845   0.167   3.816  16.906  1.5587 -0.0854 -0.1939
  597TMC3    C3 8846   0.107   3.938  16.933  0.0658 -0.2799  0.0245
  597TMC3    C4 8847   0.081   3.740  17.123 -0.3660  0.1414 -0.4221
  597TMC3    C5 8848   0.020   3.858  17.127 -0.3913 -0.2717 -0.0713
  597TMC3    C6 8849   0.024   3.960  17.032  0.0749 -0.3167  0.0044
  597TMC3     C 8850   0.195   3.577  16.987  0.3246 -0.6711 -0.0882
  597TMC3     O 8851   0.169   3.493  17.074  0.0930 -0.1068 -0.1128
  597TMC3     H 8852   0.217   3.801  16.811  0.3201  0.0074 -0.8462
  597TMC3    H1 8853   0.057   3.661  17.193  0.1874  0.3586  0.0078
  597TMC3    H2 8854   4.695   4.056  17.035  2.4378  0.9866 -1.7559
  597TMC3    C7 8855   4.675   3.895  17.251 -0.2001  0.2771 -0.5519
  597TMC3    C8 8856   0.122   4.050  16.842 -0.1308 -0.0797  0.6771
  597TMC3    O1 8857   4.627   3.804  17.319  0.7031 -0.2916 -0.1578
  597TMC3    O2 8858   0.038   4.139  16.852  0.4057 -0.3037  0.2468
  598TMC3    C1 8859   2.851   0.470  15.155  0.7448  0.1282 -0.4089
  598TMC3    C2 8860   2.783   0.370  15.093 -0.2878 -0.6579 -0.0632
  598TMC3    C3 8861   2.805   0.349  14.957  0.2073 -0.2614 -0.0390
  598TMC3    C4 8862   2.931   0.549  15.082 -0.1195  0.2669  0.5869
  598TMC3    C5 8863   2.950   0.522  14.950  0.0439  0.1895  0.3649
  598TMC3    C6 8864   2.884   0.425  14.885 -0.2117 -0.6386 -0.4327
  598TMC3     C 8865   2.883   0.460  15.294  0.0165 -0.2644  0.6195
  598TMC3     O 8866   2.926   0.563  15.348  0.1030  0.5308 -0.0056
  598TMC3     H 8867   2.706   0.317  15.148  0.7267 -1.9203  0.1493
  598TMC3    H1 8868   3.010   0.608  15.128  0.3822  0.1161 -0.0802
  598TMC3    H2 8869   2.897   0.423  14.778  0.9031 -1.6382 -0.2828
  598TMC3    C7 8870   3.056   0.588  14.883  0.2280  0.4036 -0.2353
  598TMC3    C8 8871   2.715   0.264  14.885  0.5424  0.0369 -0.5565
  598TMC3    O1 8872   3.114   0.515  14.801 -0.1239  0.3617 -0.5768
  598TMC3    O2 8873   2.700   0.293  14.764  0.3146 -0.0731  0.1495
  599MPD2     C 8874   3.148   2.833  15.682 -0.4695  0.6094  0.0499
  599MPD2    C1 8875   3.101   2.716  15.729  0.6449  0.0380  0.3576
  599MPD2    C2 8876   2.977   2.716  15.790  0.0223  0.0016 -0.1958
  599MPD2    C3 8877   2.907   2.831  15.809 -0.0122  0.2366 -0.1713
  599MPD2    C4 8878   2.964   2.949  15.766 -0.0783  0.3579  0.3184
  599MPD2    C5 8879   3.085   2.951  15.707  0.6024  0.5249 -0.1510
  599MPD2     H 8880   2.944   2.625  15.839  0.4547 -1.0929 -1.9470
  599MPD2    H1 8881   2.937   3.051  15.789 -0.5175 -0.2586  2.4699
  599MPD2    H2 8882   3.241   2.833  15.627 -2.0743  3.3878 -2.7259
  599MPD2    H3 8883   3.122   3.050  15.684 -0.8706  1.2341  0.5293
  599MPD2     N 8884   2.792   2.841  15.890 -0.0445 -0.0359 -0.0694
  599MPD2    H5 8885   2.766   2.933  15.926 -1.2593 -0.7755  0.9322
  599MPD2    N1 8886   3.187   2.604  15.721  0.4330  0.0040 -0.3552
  599MPD2    H7 8887   3.279   2.619  15.682  0.4863 -1.7821 -0.9264
  600TMC3    C1 8888   2.600   2.787  16.017  0.3579  0.4815 -0.5582
  600TMC3    C2 8889   2.498   2.700  16.026  0.0981 -0.3759 -0.4347
  600TMC3    C3 8890   2.420   2.716  16.142 -0.2133  0.1181  0.4920
  600TMC3    C4 8891   2.632   2.874  16.117 -0.1483 -0.0314  0.0993
  600TMC3    C5 8892   2.552   2.890  16.225  0.0227  0.0295 -0.5783
  600TMC3    C6 8893   2.441   2.811  16.239  0.9722 -0.1864  0.4965
  600TMC3     C 8894   2.703   2.746  15.920 -0.7017 -0.5821  0.6450
  600TMC3     O 8895   2.691   2.640  15.857 -0.4840 -0.1246  0.0879
  600TMC3     H 8896   2.471   2.633  15.946  1.4232  1.4908 -2.4683
  600TMC3    H1 8897   2.723   2.933  16.114 -0.3789  0.2431 -1.7239
  600TMC3    H2 8898   2.382   2.812  16.331  1.4538 -0.2530  0.8052
  600TMC3    C7 8899   2.562   3.010  16.304 -0.9571 -0.2352  0.0558
  600TMC3    C8 8900   2.305   2.628  16.142  0.9198  0.5585  0.9573
  600TMC3    O1 8901   2.499   3.014  16.405 -0.1334  0.0915  0.4384
  600TMC3    O2 8902   2.221   2.644  16.055  0.0515  0.0290  0.7396
  601MPD2     C 8903   3.869   0.336   0.847 -0.1965 -0.2948  0.0509
  601MPD2    C1 8904   3.928   0.323   0.721  0.1045  0.5960  0.3349
  601MPD2    C2 8905   3.993   0.207   0.695 -0.5021  0.3790  0.2495
  601MPD2    C3 8906   4.002   0.109   0.793 -0.2814  0.3611 -0.2074
  601MPD2    C4 8907   3.936   0.124   0.916 -0.4294 -0.1659 -0.7561
  601MPD2    C5 8908   3.865   0.239   0.940  0.1695  0.6528 -0.0171
  601MPD2     H 8909   4.045   0.202   0.600  1.0512 -0.5473  1.1524
  601MPD2    H1 8910   3.933   0.046   0.991  2.5919  1.3257  0.9224
  601MPD2    H2 8911   3.812   0.425   0.869 -1.4494 -1.5133  1.7377
  601MPD2    H3 8912   3.823   0.256   1.039  0.8405 -0.6019  0.4818
  601MPD2     N 8913   4.066   4.707   0.768 -0.2123 -0.0297  0.5645
  601MPD2    H5 8914   4.062   4.631   0.835 -0.1507  0.2751  0.9175
  601MPD2    N1 8915   3.932   0.428   0.626 -0.0087  0.3534  0.2231
  601MPD2    H7 8916   3.979   0.413   0.538  0.0763  0.1934  0.2956
  602TMC3    C1 8917   3.868   0.621   0.521  1.1152  0.4341  0.3214
  602TMC3    C2 8918   3.843   0.752   0.532  0.4723 -0.3879  0.1946
  602TMC3    C3 8919   3.817   0.821   0.417 -0.3273  0.1019 -0.0362
  602TMC3    C4 8920   3.863   0.547   0.403 -0.3434 -0.2913 -0.0055
  602TMC3    C5 8921   3.827   0.618   0.293  0.7268 -0.7069  0.1094
  602TMC3    C6 8922   3.814   0.757   0.292 -0.2970 -0.7667 -0.1759
  602TMC3     C 8923   3.868   0.549   0.647  0.8579  0.4413 -0.5310
  602TMC3     O 8924   3.802   0.599   0.736 -0.5583 -0.3132  0.4884
  602TMC3     H 8925   3.843   0.798   0.630 -0.7428 -1.9998  0.9643
  602TMC3    H1 8926   3.873   0.439   0.398 -1.5883 -0.4306  0.3485
  602TMC3    H2 8927   3.775   0.813   0.208  0.5757  0.7977  0.4711
  602TMC3    C7 8928   3.831   0.557   0.164 -0.9035  0.2710 -0.4230
  602TMC3    C8 8929   3.838   0.963   0.425  0.1670  0.2007  0.3781
  602TMC3    O1 8930   3.749   0.466   0.146 -0.3244 -0.4064 -0.1347
  602TMC3    O2 8931   3.769   1.029   0.503  0.4908 -0.5836 -0.0901
  603TMC3    C1 8932   2.758   1.570  11.443 -0.0416  0.4313  0.1315
  603TMC3    C2 8933   2.792   1.635  11.559  0.3668  0.0863  0.1485
  603TMC3    C3 8934   2.874   1.741  11.553 -0.1581  0.4073  0.3386
  603TMC3    C4 8935   2.782   1.630  11.320 -0.4342 -0.3738  0.3991
  603TMC3    C5 8936   2.867   1.740  11.325  0.3815  1.0713 -0.1246
  603TMC3    C6 8937   2.929   1.783  11.434  0.3482  0.2603  0.1204
  603TMC3     C 8938   2.748   1.427  11.448  0.0429  0.4410  0.6968
  603TMC3     O 8939   2.786   1.370  11.344  0.2499 -0.2051  0.0078
  603TMC3     H 8940   2.775   1.588  11.655  0.1123 -1.1978 -0.5237
  603TMC3    H1 8941   2.751   1.579  11.230 -0.9649 -0.6882  0.7569
  603TMC3    H2 8942   2.992   1.871  11.427  0.7883 -0.0521  0.1629
  603TMC3    C7 8943   2.940   1.772  11.199  0.6115 -0.1752  0.0998
  603TMC3    C8 8944   2.923   1.783  11.677 -0.4826  0.1529 -0.1309
  603TMC3    O1 8945   3.055   1.815  11.208 -0.0522  0.6369 -0.3199
  603TMC3    O2 8946   2.858   1.751  11.775  0.1540 -0.0483  0.4496
  604MPD2     C 8947   4.163   4.644  16.534  0.8135  0.2985 -0.0518
  604MPD2    C1 8948   4.064   4.596  16.456 -0.2739 -1.0377 -0.0893
  604MPD2    C2 8949   4.099   4.545  16.334  0.4491  0.2294  0.1171
  604MPD2    C3 8950   4.221   4.559  16.276  0.3055 -0.5524  0.2666
  604MPD2    C4 8951   4.313   4.629  16.347  0.0762 -0.3140  0.2179
  604MPD2    C5 8952   4.288   4.659  16.480  0.0007 -0.0369  0.3882
  604MPD2     H 8953   4.023   4.486  16.285  0.6182 -1.3318  1.7179
  604MPD2    H1 8954   4.407   4.656  16.301 -0.9078  0.5217 -1.2888
  604MPD2    H2 8955   4.146   4.673  16.637  3.0378 -0.6030  0.5782
  604MPD2    H3 8956   4.367   4.714  16.530  0.6999  1.3423 -2.2190
  604MPD2     N 8957   4.246   4.507  16.145  0.0076  0.2358  0.5274
  604MPD2    H5 8958   4.168   4.444  16.124  0.6464 -1.2455  2.6656
  604MPD2    N1 8959   3.939   4.582  16.520 -0.2074  0.4484 -0.1632
  604MPD2    H7 8960   3.937   4.628  16.610 -0.0654  1.0085 -0.4485
  605TMC3    C1 8961   3.725   4.535  16.568 -0.2487  0.6331  0.2770
  605TMC3    C2 8962   3.754   4.497  16.694  0.9933  0.2572 -0.2071
  605TMC3    C3 8963   3.716   4.585  16.796  0.1086  0.3412 -0.7388
  605TMC3    C4 8964   3.657   4.652  16.535  0.1301  0.9523  0.3425
  605TMC3    C5 8965   3.614   0.015  16.633 -0.3388  0.2042  0.9135
  605TMC3    C6 8966   3.641   4.709  16.772  0.5672  0.6021  0.5223
  605TMC3     C 8967   3.831   4.519  16.472 -0.3291 -0.0481  0.4371
  605TMC3     O 8968   3.807   4.484  16.357 -0.4889  0.8870 -0.0201
  605TMC3     H 8969   3.805   4.406  16.726 -1.4264 -0.7672  0.7124
  605TMC3    H1 8970   3.646   4.670  16.429 -3.1109 -0.3974  0.4346
  605TMC3    H2 8971   3.629   0.057  16.854  0.6923  0.5516  0.5838
  605TMC3    C7 8972   3.617   0.156  16.582 -0.3453 -0.0111  0.0152
  605TMC3    C8 8973   3.711   4.518  16.929 -0.0260 -0.1812  0.2565
  605TMC3    O1 8974   3.601   0.169  16.466  1.4167 -0.3879 -0.2401
  605TMC3    O2 8975   3.671   4.399  16.924  0.4079 -0.5858 -0.0004
  606TMC3    C1 8976   0.501   2.784  17.479 -0.2028 -0.0670  0.3521
  606TMC3    C2 8977   0.595   2.829  17.568  0.0969  0.2589  0.0668
  606TMC3    C3 8978   0.573   2.796   0.009  0.6599  0.0594 -0.1679
  606TMC3    C4 8979   0.395   2.714  17.517  0.0057  0.2200 -0.0193
  606TMC3    C5 8980   0.376   2.690  17.649 -0.1276 -0.6045  0.0047
  606TMC3    C6 8981   0.461   2.734   0.051  0.3801  0.4987  0.4311
  606TMC3     C 8982   0.533   2.787  17.339 -1.0400 -0.1376 -0.7955
  606TMC3     O 8983   0.651   2.791  17.310  0.0435 -0.5894  0.4863
  606TMC3     H 8984   0.690   2.876  17.547  0.8239 -1.7287 -1.1001
  606TMC3    H1 8985   0.336   2.663  17.442  1.5187  1.5988 -2.1498
  606TMC3    H2 8986   0.431   2.712   0.153 -0.7542  2.2353  0.4646
  606TMC3    C7 8987   0.259   2.618   0.003 -0.2863 -0.1136 -0.2446
  606TMC3    C8 8988   0.671   2.852   0.103  0.1601 -0.0565 -0.0963
  606TMC3    O1 8989   0.255   2.567   0.114 -0.0607 -0.7570 -0.1166
  606TMC3    O2 8990   0.756   2.931   0.062 -0.4902  0.4489  0.2243
  607MPD2     C 8991   2.290   1.385  11.808  0.7590 -0.2073  0.6403
  607MPD2    C1 8992   2.261   1.505  11.869  0.1157  0.1988  0.1743
  607MPD2    C2 8993   2.184   1.508  11.982 -0.6029 -0.1010 -0.0993
  607MPD2    C3 8994   2.140   1.396  12.046  0.0923 -0.1711  0.6862
  607MPD2    C4 8995   2.155   1.275  11.980 -0.1597 -0.5235  0.1315
  607MPD2    C5 8996   2.231   1.272  11.861 -0.0151 -0.3954  0.3392
  607MPD2     H 8997   2.170   1.606  12.027 -1.9894 -0.3656  0.0269
  607MPD2    H1 8998   2.117   1.178  12.010 -1.7678 -0.3485 -1.3671
  607MPD2    H2 8999   2.346   1.371  11.716 -0.1062  3.0009 -0.3875
  607MPD2    H3 9000   2.253   1.178  11.813 -0.4041  0.3905 -1.3990
  607MPD2     N 9001   2.111   1.410  12.180 -0.4324  0.2641 -0.3667
  607MPD2    H5 9002   2.115   1.505  12.218  0.3567  0.6068 -1.3067
  607MPD2    N1 9003   2.323   1.625  11.831  0.2560  0.2574  0.2226
  607MPD2    H7 9004   2.285   1.702  11.886  2.7963  0.3393  1.8744
  608TMC3    C1 9005   2.432   1.792  11.714  0.1853  0.1004 -0.3952
  608TMC3    C2 9006   2.415   1.872  11.825 -0.1594  0.1332 -0.2729
  608TMC3    C3 9007   2.439   2.007  11.811  0.2361  0.2738 -0.3441
  608TMC3    C4 9008   2.489   1.841  11.605  0.3434 -0.4123 -0.1886
  608TMC3    C5 9009   2.525   1.975  11.592 -0.0230  0.6111 -0.5397
  608TMC3    C6 9010   2.507   2.054  11.705  0.4383  0.8812  0.3174
  608TMC3     C 9011   2.412   1.648  11.723  0.8861 -0.0154  0.2808
  608TMC3     O 9012   2.464   1.569  11.639 -0.2464  0.0871  0.1142
  608TMC3     H 9013   2.408   1.827  11.923 -0.3890 -2.2566 -1.3739
  608TMC3    H1 9014   2.504   1.772  11.522 -0.8649  2.5631 -2.8966
  608TMC3    H2 9015   2.536   2.158  11.710  0.7754  0.7818  0.3841
  608TMC3    C7 9016   2.615   2.010  11.486  0.4373 -0.2198 -0.3354
  608TMC3    C8 9017   2.461   2.084  11.932 -0.4777  0.1608 -0.4773
  608TMC3    O1 9018   2.609   1.939  11.391  0.5877  0.0362  0.4160
  608TMC3    O2 9019   2.557   2.162  11.948 -0.6515 -0.5414  0.0465
  609TMC3    C1 9020   1.156   4.474   9.368 -0.5507  0.1932  0.1998
  609TMC3    C2 9021   1.076   4.381   9.305  0.1248 -0.4662 -0.6111
  609TMC3    C3 9022   1.143   4.307   9.211 -0.3804  0.6187  0.1823
  609TMC3    C4 9023   1.282   4.506   9.328 -0.1943  0.6227 -0.7098
  609TMC3    C5 9024   1.344   4.421   9.244  0.3576  1.0108  0.4964
  609TMC3    C6 9025   1.275   4.326   9.179 -1.0737 -0.0620  0.0307
  609TMC3     C 9026   1.114   4.506   9.505 -0.1492  0.3631 -0.1517
  609TMC3     O 9027   0.993   4.504   9.526 -0.4391  0.1529 -0.3737
  609TMC3     H 9028   0.993   4.329   9.353  2.2746 -1.2629  2.2798
  609TMC3    H1 9029   1.322   4.590   9.384 -2.7687  2.0161 -0.9554
  609TMC3    H2 9030   1.322   4.264   9.104 -2.1356  1.6135 -2.0281
  609TMC3    C7 9031   1.489   4.435   9.239 -0.6073  0.0002 -0.3743
  609TMC3    C8 9032   1.068   4.227   9.114 -0.3085  1.4001 -0.7491
  609TMC3    O1 9033   1.525   4.547   9.279 -0.1503  0.8579 -0.5674
  609TMC3    O2 9034   1.128   4.141   9.054  0.1037  0.3048  0.3630
  610TMC3    C1 9035   2.790   1.543  12.829 -0.4710 -0.1858  0.1973
  610TMC3    C2 9036   2.780   1.615  12.716 -0.3203 -0.6650 -0.4818
  610TMC3    C3 9037   2.880   1.602  12.623 -0.1450 -0.0192 -0.1061
  610TMC3    C4 9038   2.892   1.456  12.844  0.6782 -0.1451 -0.3807
  610TMC3    C5 9039   2.984   1.436  12.744 -0.5201 -0.7180  0.0115
  610TMC3    C6 9040   2.987   1.514  12.633  0.2873 -0.5632  0.2669
  610TMC3     C 9041   2.697   1.568  12.930 -0.5976  0.2384  0.1264
  610TMC3     O 9042   2.653   1.684  12.938 -0.4229 -0.3613 -0.0593
  610TMC3     H 9043   2.706   1.693  12.703  1.0768  0.7486  0.0083
  610TMC3    H1 9044   2.903   1.409  12.941  0.5023 -1.1586 -0.8471
  610TMC3    H2 9045   3.042   1.486  12.544  0.4282  1.9902 -0.4518
  610TMC3    C7 9046   3.078   1.327  12.747  0.5908  0.0973 -0.1540
  610TMC3    C8 9047   2.870   1.684  12.500 -0.1723  0.3011 -0.1369
  610TMC3    O1 9048   3.173   1.337  12.673 -0.0813  0.1393  0.7619
  610TMC3    O2 9049   2.961   1.764  12.489 -0.2542  0.3502  0.1888
  611MPD2     C 9050   2.563   0.783  10.541 -0.1141  0.0077  0.7791
  611MPD2    C1 9051   2.499   0.861  10.446  0.0556 -0.0839 -0.2905
  611MPD2    C2 9052   2.553   0.985  10.409  0.3751  0.2911  0.1190
  611MPD2    C3 9053   2.666   1.030  10.464  0.7815 -0.3742  0.1225
  611MPD2    C4 9054   2.738   0.951  10.557 -0.8640  0.4511 -0.2940
  611MPD2    C5 9055   2.679   0.833  10.592 -0.2324  0.2634  0.4156
  611MPD2     H 9056   2.494   1.044  10.340  1.4250 -0.2650 -1.2268
  611MPD2    H1 9057   2.837   0.973  10.595  0.0223 -2.9623 -0.6287
  611MPD2    H2 9058   2.519   0.694  10.585 -1.5113  0.3837  0.1235
  611MPD2    H3 9059   2.730   0.766  10.660 -1.4250  0.5108  1.5498
  611MPD2     N 9060   2.737   1.152  10.430  0.0798 -0.3737 -0.6002
  611MPD2    H5 9061   2.823   1.167  10.482 -0.6157 -1.0305  0.7338
  611MPD2    N1 9062   2.376   0.815  10.407  0.0651  0.8151  0.3300
  611MPD2    H7 9063   2.345   0.738  10.465 -2.3232  0.0453 -1.9086
  612TMC3    C1 9064   2.787   1.357  10.303  0.7755 -0.1024  0.2213
  612TMC3    C2 9065   2.836   1.433  10.404 -0.3340 -0.3360  0.5318
  612TMC3    C3 9066   2.851   1.569  10.383 -0.2282  0.0856 -0.2825
  612TMC3    C4 9067   2.762   1.414  10.179  0.2322 -0.2263  0.7050
  612TMC3    C5 9068   2.771   1.550  10.160 -0.6740 -0.8398 -1.1251
  612TMC3    C6 9069   2.825   1.625  10.257  0.6615  0.0652  0.3215
  612TMC3     C 9070   2.701   1.237  10.325 -0.1820  0.6245  0.0703
  612TMC3     O 9071   2.598   1.235  10.256 -0.1701  0.7973  1.0042
  612TMC3     H 9072   2.868   1.388  10.497 -1.1256  0.6097  1.2690
  612TMC3    H1 9073   2.709   1.357  10.104  0.7839  0.3051 -0.0895
  612TMC3    H2 9074   2.836   1.733  10.251  1.5441 -0.1179 -1.3915
  612TMC3    C7 9075   2.715   1.607  10.039  0.4587  0.0866  0.1609
  612TMC3    C8 9076   2.922   1.646  10.470 -0.6241 -0.2869 -0.2804
  612TMC3    O1 9077   2.667   1.527   9.959  0.8630  0.5448  0.3856
  612TMC3    O2 9078   3.006   1.718  10.418 -0.2608 -0.2182  0.9910
  613MPD2     C 9079   1.857   3.736  16.498 -0.1815 -0.2641 -0.9286
  613MPD2    C1 9080   1.731   3.781  16.454 -0.6185 -0.3838  0.5586
  613MPD2    C2 9081   1.612   3.752  16.521 -0.5646  0.2223  0.0597
  613MPD2    C3 9082   1.614   3.680  16.631  0.7036  0.3435  0.0853
  613MPD2    C4 9083   1.736   3.636  16.681  0.7193 -0.9937 -0.1184
  613MPD2    C5 9084   1.854   3.670  16.617  0.5886 -0.6511 -0.3330
  613MPD2     H 9085   1.518   3.786  16.481 -0.0701  0.6474 -0.7445
  613MPD2    H1 9086   1.742   3.581  16.774  0.7174  1.0604  1.0977
  613MPD2    H2 9087   1.946   3.740  16.437  0.4023  0.8736 -0.0118
  613MPD2    H3 9088   1.943   3.639  16.670  0.1171  0.3035  1.0214
  613MPD2     N 9089   1.499   3.634  16.700  0.2579 -0.0558 -0.1756
  613MPD2    H5 9090   1.514   3.584  16.787  0.2957  1.9253  0.9680
  613MPD2    N1 9091   1.730   3.840  16.323 -0.0531  0.2693  0.0881
  613MPD2    H7 9092   1.811   3.834  16.262  0.8440  0.3114  1.2723
  614TMC3    C1 9093   1.626   3.878  16.112 -0.1118 -0.5599 -0.0358
  614TMC3    C2 9094   1.676   3.752  16.075  0.5179 -0.2147  0.0799
  614TMC3    C3 9095   1.582   3.653  16.043  0.7377 -0.2519  0.2805
  614TMC3    C4 9096   1.499   3.914  16.068 -0.5072 -0.4948 -0.0292
  614TMC3    C5 9097   1.417   3.816  16.020  0.0954  0.2664 -0.2063
  614TMC3    C6 9098   1.454   3.684  16.016 -0.1497 -0.2112 -0.3270
  614TMC3     C 9099   1.620   3.895  16.256  0.9331  0.0023  0.1012
  614TMC3     O 9100   1.515   3.937  16.303 -0.5032  0.3978 -0.5192
  614TMC3     H 9101   1.772   3.723  16.118 -0.3657  0.9803  2.8541
  614TMC3    H1 9102   1.459   4.010  16.098  1.1105  1.2592 -3.4515
  614TMC3    H2 9103   1.386   3.607  15.985 -2.1620  1.1780  0.6134
  614TMC3    C7 9104   1.283   3.852  15.979  0.3791  0.6048 -0.0626
  614TMC3    C8 9105   1.600   3.535  16.125 -0.0803 -0.9245  0.4741
  614TMC3    O1 9106   1.257   3.968  16.004 -0.0699 -0.0583  0.0224
  614TMC3    O2 9107   1.671   3.547  16.228  0.3684  0.2618 -0.2698
  615MPD2     C 9108   0.426   0.273  15.997 -0.5004  0.4256  0.1668
  615MPD2    C1 9109   0.532   0.343  15.938 -0.1187 -0.1158  0.4914
  615MPD2    C2 9110   0.524   0.346  15.799 -0.8450  0.2649  0.0207
  615MPD2    C3 9111   0.436   0.269  15.722 -0.6436  0.4012 -0.1288
  615MPD2    C4 9112   0.345   0.191  15.782  1.0365 -0.5777  0.4223
  615MPD2    C5 9113   0.345   0.195  15.918  0.1773  0.4797  0.5273
  615MPD2     H 9114   0.583   0.418  15.743  0.1909 -0.0116  0.7613
  615MPD2    H1 9115   0.269   0.130  15.733 -0.4462  0.8699  0.9146
  615MPD2    H2 9116   0.411   0.277  16.105 -1.4870 -0.2419  0.0464
  615MPD2    H3 9117   0.262   0.146  15.967 -0.7592 -0.1424 -1.7220
  615MPD2     N 9118   0.457   0.270  15.573  0.0575  0.1930 -0.4971
  615MPD2    H5 9119   0.532   0.324  15.531 -0.7706 -0.5902 -2.9928
  615MPD2    N1 9120   0.625   0.415  16.021  0.1790 -0.3241  0.1556
  615MPD2    H7 9121   0.599   0.434  16.117 -2.4154  2.3228 -1.0754
  616TMC3    C1 9122   0.822   0.542  16.075 -0.2096  0.2719  0.6901
  616TMC3    C2 9123   0.960   0.521  16.061 -0.1601  0.1211  0.0149
  616TMC3    C3 9124   1.049   0.620  16.084 -0.2145 -0.2317  0.2063
  616TMC3    C4 9125   0.777   0.668  16.111 -0.3152  0.5015 -0.0675
  616TMC3    C5 9126   0.868   0.770  16.140 -0.2956 -0.4014 -0.5919
  616TMC3    C6 9127   1.003   0.741  16.134  0.1796 -0.3606 -0.6727
  616TMC3     C 9128   0.738   0.474  15.975  0.7395 -0.9291  0.5894
  616TMC3     O 9129   0.779   0.466  15.864 -0.4344  0.4450  0.3684
  616TMC3     H 9130   0.998   0.432  16.010  0.5166  0.8603 -0.7730
  616TMC3    H1 9131   0.672   0.692  16.127 -0.1002  0.2753  1.7261
  616TMC3    H2 9132   1.074   0.822  16.146 -1.0250  0.5571  0.0970
  616TMC3    C7 9133   0.826   0.907  16.175  0.1396 -0.1651 -0.0688
  616TMC3    C8 9134   1.194   0.605  16.065  0.3702 -0.1966 -0.8682
  616TMC3    O1 9135   0.908   0.976  16.239 -0.0748  0.4474  0.2179
  616TMC3    O2 9136   1.265   0.700  16.086 -0.4210 -0.1145  0.1576
  617MPD2     C 9137   3.302   3.075  13.304 -0.0784 -0.3156  0.8157
  617MPD2    C1 9138   3.313   3.162  13.404 -0.3600 -0.3639  0.0306
  617MPD2    C2 9139   3.309   3.121  13.538 -0.8933  0.0820  0.0895
  617MPD2    C3 9140   3.270   2.993  13.567  0.3004 -0.0674  0.5650
  617MPD2    C4 9141   3.248   2.905  13.459  0.4152  0.2199 -0.1588
  617MPD2    C5 9142   3.273   2.948  13.335  0.0317 -0.1484 -0.5518
  617MPD2     H 9143   3.331   3.188  13.620  0.9330 -1.9112  1.2303
  617MPD2    H1 9144   3.222   2.802  13.483  0.2503 -0.0549 -1.5081
  617MPD2    H2 9145   3.312   3.106  13.201  0.9122  0.1761  1.0566
  617MPD2    H3 9146   3.248   2.880  13.254 -1.2993  0.4008 -0.6025
  617MPD2     N 9147   3.228   2.951  13.697  0.1283 -0.3355 -0.0274
  617MPD2    H5 9148   3.190   2.857  13.699 -1.2784  0.2123 -1.0792
  617MPD2    N1 9149   3.348   3.296  13.380 -0.1223  0.3732  0.0927
  617MPD2    H7 9150   3.358   3.321  13.283  1.5109 -0.6417  0.0032
  618TMC3    C1 9151   3.421   3.517  13.401  0.3037 -0.1979 -0.5603
  618TMC3    C2 9152   3.532   3.571  13.453  0.1419 -0.6112  0.4739
  618TMC3    C3 9153   3.602   3.656  13.374 -0.0029  0.4377 -0.2992
  618TMC3    C4 9154   3.375   3.546  13.270  0.0992  0.5546  0.1225
  618TMC3    C5 9155   3.453   3.635  13.197  0.3348  0.7687  0.6147
  618TMC3    C6 9156   3.568   3.689  13.250  0.4909  0.1169 -0.3682
  618TMC3     C 9157   3.368   3.397  13.465 -0.3760  0.2639  0.4169
  618TMC3     O 9158   3.346   3.401  13.584 -0.1255 -0.3206 -0.1266
  618TMC3     H 9159   3.572   3.542  13.549  3.2612  1.3692 -0.2628
  618TMC3    H1 9160   3.285   3.502  13.230  0.0557  1.4597 -0.7818
  618TMC3    H2 9161   3.628   3.757  13.191  2.7008 -0.3516  1.3611
  618TMC3    C7 9162   3.435   3.622  13.054  0.2700 -0.6875 -0.6288
  618TMC3    C8 9163   3.733   3.681  13.411  0.6233  0.0320 -0.3232
  618TMC3    O1 9164   3.366   3.532  13.017 -0.2263 -0.3519  0.2906
  618TMC3    O2 9165   3.775   3.796  13.421 -0.2774  0.1004  0.6311
  619MPD2     C 9166   0.855   0.173  13.545 -0.5710 -0.0341 -0.9615
  619MPD2    C1 9167   0.765   0.266  13.599 -0.3831  0.3067 -0.4160
  619MPD2    C2 9168   0.637   0.214  13.617 -0.1940  0.5954 -0.4380
  619MPD2    C3 9169   0.596   0.081  13.602 -0.3144 -0.5512  0.7760
  619MPD2    C4 9170   0.698   4.712  13.571  0.7021 -0.6556  0.9684
  619MPD2    C5 9171   0.815   0.035  13.533 -0.3617  0.2977 -0.1802
  619MPD2     H 9172   0.562   0.283  13.654  0.1710 -0.2112  1.7742
  619MPD2    H1 9173   0.686   4.607  13.547 -0.5317  0.3876 -2.8544
  619MPD2    H2 9174   0.949   0.204  13.500 -0.6428 -0.6739 -1.5440
  619MPD2    H3 9175   0.891   4.683  13.509  1.0072  0.8366  2.5457
  619MPD2     N 9176   0.458   0.048  13.588  0.7436 -0.2735 -0.2277
  619MPD2    H5 9177   0.429   4.673  13.592  2.5356 -0.7479  1.4395
  619MPD2    N1 9178   0.774   0.400  13.595  0.1945 -0.3436 -0.2016
  619MPD2    H7 9179   0.697   0.458  13.626 -0.5050 -2.2083  1.5959
  620TMC3    C1 9180   0.830   0.615  13.541 -0.3150 -0.8596  0.0894
  620TMC3    C2 9181   0.775   0.665  13.424  0.4511  0.2818  0.4283
  620TMC3    C3 9182   0.699   0.786  13.435  0.4095  0.5904  0.4560
  620TMC3    C4 9183   0.796   0.670  13.662  0.2750  0.3216  0.3177
  620TMC3    C5 9184   0.728   0.794  13.665 -0.5507  0.1897 -0.3263
  620TMC3    C6 9185   0.697   0.857  13.552 -0.8036  0.7641  0.0806
  620TMC3     C 9186   0.866   0.477  13.531  0.5147 -1.1527 -0.1222
  620TMC3     O 9187   0.965   0.435  13.469 -0.1091 -0.1163  0.0306
  620TMC3     H 9188   0.801   0.628  13.326 -2.2001  1.2563 -0.6267
  620TMC3    H1 9189   0.825   0.618  13.753 -0.7243  1.6389  1.3743
  620TMC3    H2 9190   0.652   0.956  13.563  2.1420  1.9970  1.0551
  620TMC3    C7 9191   0.637   0.806  13.776 -1.1919  0.0050  0.0216
  620TMC3    C8 9192   0.569   0.788  13.368  0.2405 -0.5432 -0.1266
  620TMC3    O1 9193   0.675   0.749  13.880  0.2222 -0.3383 -0.5514
  620TMC3    O2 9194   0.481   0.851  13.422 -0.3244 -1.1122 -0.2030
  621MPD2     C 9195   0.915   4.428  10.292 -0.4037  0.1412  0.4686
  621MPD2    C1 9196   0.897   4.531  10.386  0.0028 -0.2298  0.0074
  621MPD2    C2 9197   1.010   4.605  10.424 -0.0098  0.4112 -0.3874
  621MPD2    C3 9198   1.123   4.587  10.351 -0.0279  0.0307 -0.3175
  621MPD2    C4 9199   1.138   4.489  10.261  0.3945 -0.0881 -0.4042
  621MPD2    C5 9200   1.034   4.403  10.237 -0.3691 -0.2700 -0.1559
  621MPD2     H 9201   0.999   4.677  10.504 -1.5445  1.2236 -1.3175
  621MPD2    H1 9202   1.231   4.473  10.208 -0.6151  0.7373 -2.3963
  621MPD2    H2 9203   0.843   4.353  10.263 -1.0517  0.7901  0.4128
  621MPD2    H3 9204   1.057   4.322  10.169 -0.4542 -0.1237 -0.3595
  621MPD2     N 9205   1.225   4.681  10.373 -0.6813  0.4718  0.2327
  621MPD2    H5 9206   1.199   0.037  10.431 -0.9071  1.2835 -0.9680
  621MPD2    N1 9207   0.771   4.556  10.455  0.7250  0.6239  0.0976
  621MPD2    H7 9208   0.769   4.628  10.526 -1.3865 -0.1980  0.8839
  622TMC3    C1 9209   0.543   4.549  10.500  0.3375 -0.1629  0.1628
  622TMC3    C2 9210   0.543   4.548  10.634 -0.5525  1.3241  0.1635
  622TMC3    C3 9211   0.419   4.551  10.693 -0.1063  0.4233  0.0792
  622TMC3    C4 9212   0.430   4.565  10.423  0.2052 -0.2376 -0.7531
  622TMC3    C5 9213   0.314   4.581  10.488 -0.1724  0.8768  0.7843
  622TMC3    C6 9214   0.307   4.563  10.620 -0.3642  0.3679  0.2264
  622TMC3     C 9215   0.651   4.502  10.421 -0.5706 -0.2425  0.4651
  622TMC3     O 9216   0.623   4.429  10.328  0.2857  0.0122  0.0938
  622TMC3     H 9217   0.633   4.525  10.691 -1.9682 -0.0346  1.8332
  622TMC3    H1 9218   0.439   4.527  10.322 -1.1878 -0.2272 -0.8899
  622TMC3    H2 9219   0.209   4.547  10.665  0.0960 -3.5479 -0.1651
  622TMC3    C7 9220   0.219   4.682  10.445  0.1058 -0.2027 -0.2332
  622TMC3    C8 9221   0.417   4.591  10.831 -0.0955  1.0341  0.2821
  622TMC3    O1 9222   0.160   0.018  10.536  0.3730  0.5062  0.4423
  622TMC3    O2 9223   0.517   4.565  10.901  0.3803  0.1111 -0.4206
  623MPD2     C 9224   4.244   0.132  15.841  0.8422  0.4075 -0.4097
  623MPD2    C1 9225   4.296   0.252  15.874  0.1259 -0.1092  0.1460
  623MPD2    C2 9226   4.289   0.298  16.004 -0.3392 -0.2572  0.5234
  623MPD2    C3 9227   4.227   0.224  16.105 -0.3406  0.7405 -0.4668
  623MPD2    C4 9228   4.168   0.107  16.067  0.9383 -0.5131  0.4164
  623MPD2    C5 9229   4.179   0.058  15.937 -0.1726 -0.2990 -0.0982
  623MPD2     H 9230   4.328   0.396  16.028 -2.3658  0.5299  0.6164
  623MPD2    H1 9231   4.122   0.046  16.144 -0.8294  0.0474 -0.2000
  623MPD2    H2 9232   4.233   0.094  15.740 -1.4847  1.7319 -0.6644
  623MPD2    H3 9233   4.120   4.692  15.916  1.6102 -1.1153 -1.7026
  623MPD2     N 9234   4.225   0.272  16.239  0.1965  0.3927  0.3887
  623MPD2    H5 9235   4.287   0.346  16.269 -0.4298  1.1973 -0.3059
  623MPD2    N1 9236   4.336   0.350  15.778 -0.3839  0.5955 -0.1002
  623MPD2    H7 9237   4.353   0.444  15.814 -1.0206  0.7262 -0.1328
  624TMC3    C1 9238   4.321   0.318  16.629 -0.2064 -0.9220 -0.2011
  624TMC3    C2 9239   4.232   0.285  16.729  0.2664  0.2654 -0.2985
  624TMC3    C3 9240   4.104   0.251  16.690 -0.5787  0.8150  0.0362
  624TMC3    C4 9241   4.285   0.309  16.500  0.1049  0.3258 -0.3460
  624TMC3    C5 9242   4.161   0.275  16.460 -0.1580  0.1431  0.6340
  624TMC3    C6 9243   4.074   0.244  16.560 -0.1991 -0.1830  0.0753
  624TMC3     C 9244   4.454   0.373  16.663  0.6110 -0.3609  0.7542
  624TMC3     O 9245   4.497   0.344  16.775 -0.2820  0.4358 -0.2843
  624TMC3     H 9246   4.265   0.288  16.832 -0.2681 -1.8567 -0.0671
  624TMC3    H1 9247   4.364   0.319  16.427 -0.7308 -0.8620 -1.4115
  624TMC3    H2 9248   3.971   0.219  16.537 -0.0319 -0.9853  0.1945
  624TMC3    C7 9249   4.130   0.227  16.327  0.0389  0.1845 -0.8669
  624TMC3    C8 9250   4.026   0.165  16.778  0.4451 -0.6019 -0.2892
  624TMC3    O1 9251   4.026   0.164  16.310  0.3333 -0.0728 -0.6878
  624TMC3    O2 9252   3.962   0.078  16.726 -0.2695  0.3357  0.7556
  625MPD2     C 9253   4.566   1.404   0.375  0.1548 -0.3072 -0.2426
  625MPD2    C1 9254   4.526   1.495   0.468 -0.2606  0.3849  0.1339
  625MPD2    C2 9255   4.618   1.530   0.567  0.0210  0.1061  0.5222
  625MPD2    C3 9256   0.024   1.502   0.562 -0.4639  1.3487  0.6473
  625MPD2    C4 9257   0.071   1.407   0.468 -0.9237 -0.1318  0.3200
  625MPD2    C5 9258   4.690   1.350   0.385 -0.2770  0.1801  0.0455
  625MPD2     H 9259   4.574   1.589   0.646 -0.8624  0.4460 -0.2207
  625MPD2    H1 9260   0.175   1.392   0.440 -1.4176 -0.8766 -1.0757
  625MPD2    H2 9261   4.498   1.349   0.311  1.0789 -0.6441 -0.9388
  625MPD2    H3 9262   4.703   1.276   0.307  1.1894 -2.3580  2.7086
  625MPD2     N 9263   0.120   1.570   0.643 -0.2173  0.3596  0.5663
  625MPD2    H5 9264   0.098   1.654   0.695  0.3398  1.5120 -1.0570
  625MPD2    N1 9265   4.394   1.548   0.464 -0.0094 -0.4957 -0.5847
  625MPD2    H7 9266   4.371   1.602   0.546 -2.5524 -0.0019 -1.6104
  626TMC3    C1 9267   4.188   1.618   0.385  0.2614 -0.3071 -0.1195
  626TMC3    C2 9268   4.123   1.679   0.273 -0.1222  0.5517  0.2625
  626TMC3    C3 9269   4.016   1.759   0.296  0.2163  0.3836  1.0262
  626TMC3    C4 9270   4.152   1.649   0.512  0.0454  0.3054  0.3012
  626TMC3    C5 9271   4.038   1.723   0.536  0.2808 -0.0526 -0.5187
  626TMC3    C6 9272   3.976   1.778   0.429  0.3598 -0.5076 -0.0256
  626TMC3     C 9273   4.313   1.546   0.361  0.0016 -0.0020 -0.1251
  626TMC3     O 9274   4.324   1.505   0.246  0.0884 -0.2773 -0.0589
  626TMC3     H 9275   4.189   1.683   0.186 -1.9191  1.8733 -1.0371
  626TMC3    H1 9276   4.202   1.598   0.594  2.2314 -1.5205 -2.1492
  626TMC3    H2 9277   3.890   1.844   0.437  1.4980  0.6200  3.0667
  626TMC3    C7 9278   4.012   1.755   0.672 -0.0973 -0.0120 -0.9401
  626TMC3    C8 9279   3.944   1.800   0.179  0.2961 -0.0273 -0.2686
  626TMC3    O1 9280   4.079   1.715   0.761 -0.3646  0.0427  0.6787
  626TMC3    O2 9281   3.984   1.750   0.075  0.0777  0.0557  0.2340
  627MPD2     C 9282   3.907   2.043  14.365 -0.5852 -0.1695  0.0622
  627MPD2    C1 9283   3.789   2.071  14.425 -0.3067  0.3172 -0.2247
  627MPD2    C2 9284   3.675   1.999  14.393 -0.4212 -0.1075 -0.1396
  627MPD2    C3 9285   3.675   1.900  14.294  0.8226  0.9487 -0.7889
  627MPD2    C4 9286   3.799   1.885  14.224 -0.2264 -0.3967  0.7205
  627MPD2    C5 9287   3.913   1.954  14.262 -0.0844 -0.0893 -0.3699
  627MPD2     H 9288   3.583   2.024  14.445 -0.6929 -3.5551  1.0321
  627MPD2    H1 9289   3.819   1.814  14.144  4.8884  0.6489  1.0744
  627MPD2    H2 9290   3.998   2.087  14.404  0.6649 -3.3565  0.7762
  627MPD2    H3 9291   4.004   1.929  14.208 -0.3789 -1.2867 -0.3223
  627MPD2     N 9292   3.550   1.836  14.265 -0.0712  0.4724 -0.3641
  627MPD2    H5 9293   3.469   1.876  14.313  1.3580  1.3553  1.3287
  627MPD2    N1 9294   3.775   2.171  14.525 -0.3658 -0.1896  0.4237
  627MPD2    H7 9295   3.682   2.188  14.562 -0.8772 -1.5347 -0.2400
  628TMC3    C1 9296   3.833   2.364  14.657  0.2614  0.4457 -0.0793
  628TMC3    C2 9297   3.904   2.382  14.772  0.3569  0.1154  0.2062
  628TMC3    C3 9298   3.846   2.468  14.871 -1.0427 -0.9796 -0.0178
  628TMC3    C4 9299   3.705   2.405  14.650  0.4748  0.5163  0.0527
  628TMC3    C5 9300   3.651   2.478  14.752 -0.6250 -0.1564 -0.3813
  628TMC3    C6 9301   3.729   2.524  14.862  0.9565  0.2606 -0.0123
  628TMC3     C 9302   3.876   2.262  14.570  0.5296  0.3116  0.1207
  628TMC3     O 9303   3.987   2.276  14.523  0.0796 -0.0433  0.0162
  628TMC3     H 9304   4.000   2.337  14.797  1.7751  2.9595 -0.1778
  628TMC3    H1 9305   3.640   2.379  14.568 -1.7927 -0.7279  2.2204
  628TMC3    H2 9306   3.680   2.549  14.956  1.0484  0.5889 -0.0496
  628TMC3    C7 9307   3.509   2.513  14.762  0.0808  0.1111 -0.4485
  628TMC3    C8 9308   3.911   2.491  14.998  0.2610 -0.3118  0.6059
  628TMC3    O1 9309   3.463   2.520  14.874  0.3099 -0.0944 -0.3958
  628TMC3    O2 9310   3.877   2.595  15.055  0.1955  0.6550 -0.4869
  629MPD2     C 9311   1.587   0.293  15.984  0.7351  0.5871  0.0021
  629MPD2    C1 9312   1.586   0.420  16.042  0.0980  0.5054  0.5508
  629MPD2    C2 9313   1.468   0.493  16.040  0.3874  0.0393  0.0620
  629MPD2    C3 9314   1.357   0.437  15.985 -0.3608  0.0015 -0.2022
  629MPD2    C4 9315   1.365   0.326  15.916 -0.1538  0.1192 -0.0493
  629MPD2    C5 9316   1.472   0.246  15.923  0.5623  0.4581  0.0731
  629MPD2     H 9317   1.453   0.579  16.103  1.6083  0.0381  0.3504
  629MPD2    H1 9318   1.276   0.280  15.872  0.5536 -1.5420  0.2505
  629MPD2    H2 9319   1.670   0.225  15.995  0.6987  0.4222 -0.7430
  629MPD2    H3 9320   1.469   0.146  15.883 -1.4067  0.7473 -0.5032
  629MPD2     N 9321   1.228   0.486  16.002  0.6627 -0.0476  0.3612
  629MPD2    H5 9322   1.155   0.420  15.978  0.0950  1.2837 -1.5025
  629MPD2    N1 9323   1.703   0.471  16.102  0.6623  0.2945 -0.1764
  629MPD2    H7 9324   1.770   0.401  16.129  1.9855  1.6034 -0.0695
  630TMC3    C1 9325   1.874   0.613  16.175 -0.2931 -0.3451  0.4963
  630TMC3    C2 9326   1.959   0.695  16.108  0.2316  0.4480  0.0026
  630TMC3    C3 9327   2.091   0.682  16.122  0.3595 -0.7788 -0.2842
  630TMC3    C4 9328   1.923   0.538  16.272 -0.4675  0.5837 -0.0580
  630TMC3    C5 9329   2.058   0.516  16.282 -0.3363 -0.2121  0.7483
  630TMC3    C6 9330   2.145   0.601  16.211 -0.0612 -0.0402 -0.2335
  630TMC3     C 9331   1.735   0.604  16.125  0.1685  0.4428  0.2554
  630TMC3     O 9332   1.674   0.703  16.093  0.6515 -0.3111  0.1207
  630TMC3     H 9333   1.919   0.751  16.025  0.1321  2.4016  1.3557
  630TMC3    H1 9334   1.863   0.469  16.330 -2.5361  2.2264 -0.2382
  630TMC3    H2 9335   2.253   0.593  16.214  0.0046  1.0886  0.1733
  630TMC3    C7 9336   2.111   0.443  16.395 -0.7996  0.0719  0.3360
  630TMC3    C8 9337   2.182   0.793  16.087 -0.2610  0.2388  0.5282
  630TMC3    O1 9338   2.025   0.401  16.476  0.1601  0.1037 -0.2055
  630TMC3    O2 9339   2.297   0.778  16.117  0.1734 -0.5541  0.3663
  631MPD2     C 9340   4.642   0.856  15.338 -0.0344  0.1450 -1.0141
  631MPD2    C1 9341   4.678   0.861  15.207 -0.5122  0.8257  0.1757
  631MPD2    C2 9342   0.012   0.747  15.155 -0.4030  0.1617 -0.7511
  631MPD2    C3 9343   0.016   0.629  15.218  0.0148 -0.2856 -0.4138
  631MPD2    C4 9344   4.688   0.619  15.343 -0.8152 -0.9925  0.2596
  631MPD2    C5 9345   4.639   0.729  15.409 -0.0443 -1.0995 -0.7637
  631MPD2     H 9346   0.055   0.752  15.056 -2.2540 -0.5882 -1.6112
  631MPD2    H1 9347   4.680   0.524  15.395 -0.7381 -2.8403 -3.1145
  631MPD2    H2 9348   4.601   0.941  15.392  0.9296 -0.0605  0.0476
  631MPD2    H3 9349   4.601   0.714  15.509 -1.3458  0.2933 -1.0519
  631MPD2     N 9350   0.087   0.521  15.155  0.0484  0.3231  0.3235
  631MPD2    H5 9351   0.128   0.543  15.065 -1.4628  0.9678 -0.2105
  631MPD2    N1 9352   4.663   0.984  15.140  0.0072 -0.0784 -0.0794
  631MPD2    H7 9353   4.615   1.055  15.194  0.4492 -0.6955  1.1109
  632TMC3    C1 9354   4.641   1.112  14.952 -0.4423  0.2237  0.2620
  632TMC3    C2 9355   4.508   1.132  14.972  0.8162 -0.5096 -0.0004
  632TMC3    C3 9356   4.421   1.147  14.866 -0.9011 -0.2523  0.3947
  632TMC3    C4 9357   4.695   1.127  14.826 -0.2682 -0.3929  0.2710
  632TMC3    C5 9358   4.601   1.125  14.722 -0.1271  0.2623 -0.0644
  632TMC3    C6 9359   4.467   1.127  14.735  0.3236  0.4555  0.4117
  632TMC3     C 9360   4.699   0.997  15.014 -0.4061  0.4215  0.2242
  632TMC3     O 9361   0.021   0.919  14.925 -0.0124  0.2993 -0.3777
  632TMC3     H 9362   4.473   1.138  15.074  0.8440  1.0863 -0.0777
  632TMC3    H1 9363   0.081   1.123  14.812  0.0852  1.3729  2.5832
  632TMC3    H2 9364   4.403   1.141  14.648  1.5896  0.5329 -0.5020
  632TMC3    C7 9365   4.650   1.102  14.585  1.4210  0.3946  0.3383
  632TMC3    C8 9366   4.285   1.164  14.898 -0.0643 -0.2340  0.3623
  632TMC3    O1 9367   4.566   1.108  14.490  0.4671  0.6037  0.0453
  632TMC3    O2 9368   4.264   1.241  14.996  1.1634 -0.0540 -0.7423
  633MPD2     C 9369   4.254   3.312  17.584 -0.7875 -0.4535  0.3239
  633MPD2    C1 9370   4.258   3.263  17.452  0.1930 -0.1034 -0.3630
  633MPD2    C2 9371   4.200   3.136  17.434  0.4872  0.2765 -0.0304
  633MPD2    C3 9372   4.148   3.061  17.535 -0.0800  0.2525 -0.9851
  633MPD2    C4 9373   4.145   3.117  17.661  0.3022  0.2298  0.1378
  633MPD2    C5 9374   4.194   3.240  17.687  0.4339  0.1476 -0.7354
  633MPD2     H 9375   4.202   3.096  17.333 -0.0243  0.5878 -0.1652
  633MPD2    H1 9376   4.096   3.061   0.048 -0.8508  1.7544  0.5113
  633MPD2    H2 9377   4.281   3.414  17.610 -0.9663 -0.1438 -0.6757
  633MPD2    H3 9378   4.204   3.287   0.093 -1.7784 -1.5721  0.3202
  633MPD2     N 9379   4.106   2.930  17.524  0.8626 -0.1787 -1.0371
  633MPD2    H5 9380   4.089   2.887  17.614 -0.0458  0.5761 -0.8517
  633MPD2    N1 9381   4.311   3.336  17.342 -0.2247 -0.6086  0.0858
  633MPD2    H7 9382   4.302   3.296  17.249  0.7564 -0.3312 -0.1249
  634TMC3    C1 9383   4.442   3.480  17.221  0.8753 -0.4139  0.2460
  634TMC3    C2 9384   4.490   3.379  17.150  0.6916 -0.0608 -0.3039
  634TMC3    C3 9385   4.525   3.402  17.015 -0.2135  0.7991 -0.4401
  634TMC3    C4 9386   4.414   3.603  17.173  0.0357  0.7534 -0.2120
  634TMC3    C5 9387   4.427   3.622  17.036 -0.8175  0.5948 -0.2387
  634TMC3    C6 9388   4.489   3.520  16.957  0.1670 -0.8706  0.0680
  634TMC3     C 9389   4.382   3.451  17.349  0.0968  0.1722 -0.1906
  634TMC3     O 9390   4.376   3.538  17.434 -0.2139  0.2878 -0.5024
  634TMC3     H 9391   4.514   3.288  17.204  2.1912  0.3166 -0.3335
  634TMC3    H1 9392   4.351   3.670  17.230 -1.3040 -0.5641 -0.1467
  634TMC3    H2 9393   4.504   3.534  16.850 -1.8728  1.1944  0.0396
  634TMC3    C7 9394   4.400   3.748  16.967 -0.3250 -0.1575  0.3366
  634TMC3    C8 9395   4.572   3.296  16.932  0.6298  0.4186 -0.4893
  634TMC3    O1 9396   4.442   3.751  16.852  0.7716 -0.1132 -0.7050
  634TMC3    O2 9397   4.551   3.185  16.981  0.3218 -0.7997 -1.1341
  635TMC3    C1 9398   0.065   4.327  17.568  0.1164 -0.0123  0.2055
  635TMC3    C2 9399   0.047   4.446  17.504  0.7150 -0.0835 -0.6587
  635TMC3    C3 9400   0.129   4.468  17.398 -1.2755 -0.1995  0.1980
  635TMC3    C4 9401   0.165   4.241  17.534  0.5392  0.9917  1.4044
  635TMC3    C5 9402   0.246   4.271  17.428  0.4718 -0.0786  0.3405
  635TMC3    C6 9403   0.234   4.386  17.362 -0.3245  0.6713  0.1545
  635TMC3     C 9404   4.703   4.300  17.687 -0.2440  0.1462 -0.1702
  635TMC3     O 9405   4.656   4.398   0.051  0.2642 -0.1394  0.2633
  635TMC3     H 9406   4.702   4.520  17.545  1.5216  0.9471 -1.2139
  635TMC3    H1 9407   0.182   4.147  17.585 -0.5845 -0.2786 -0.5564
  635TMC3    H2 9408   0.309   4.414  17.290 -0.9968  0.2045 -0.7297
  635TMC3    C7 9409   0.372   4.196  17.433  0.1463 -0.8085  0.3084
  635TMC3    C8 9410   0.102   4.594  17.325 -0.0779 -0.0744 -0.6858
  635TMC3    O1 9411   0.382   4.091  17.503 -0.2497 -0.7472 -0.8807
  635TMC3    O2 9412   0.020   4.667  17.378  0.4597  0.2598 -0.7572
  636MPD2     C 9413   0.864   3.899  16.183  0.2268  0.5118 -0.4354
  636MPD2    C1 9414   0.847   3.951  16.306  0.2119 -0.0732  0.0117
  636MPD2    C2 9415   0.873   3.874  16.416 -0.0000  0.2748 -0.4470
  636MPD2    C3 9416   0.905   3.737  16.404  0.2569  0.0954  0.0691
  636MPD2    C4 9417   0.914   3.685  16.277 -0.0071 -0.3876  0.4278
  636MPD2    C5 9418   0.887   3.762  16.171 -0.3812 -0.1974 -0.6945
  636MPD2     H 9419   0.886   3.916  16.515 -1.4165  0.9485 -0.5468
  636MPD2    H1 9420   0.946   3.582  16.259 -1.5011 -0.4606 -1.7334
  636MPD2    H2 9421   0.840   3.954  16.093  0.5231  0.8244 -0.3209
  636MPD2    H3 9422   0.899   3.722  16.070 -0.3441 -1.4298 -0.2088
  636MPD2     N 9423   0.956   3.673  16.525 -1.0025  0.4702 -0.3222
  636MPD2    H5 9424   0.958   3.733  16.607 -0.7191 -1.3403  0.9886
  636MPD2    N1 9425   0.825   4.090  16.328  0.2458 -0.7387  0.4485
  636MPD2    H7 9426   0.836   4.114  16.426 -1.8285  1.5835  0.1168
  637TMC3    C1 9427   1.071   3.511  16.652  0.9678 -0.1914 -0.0432
  637TMC3    C2 9428   1.162   3.598  16.705 -0.3787  0.2071 -0.0480
  637TMC3    C3 9429   1.287   3.561  16.726 -0.6616  0.3116 -0.1823
  637TMC3    C4 9430   1.100   3.376  16.644  0.2172 -0.2773  0.3830
  637TMC3    C5 9431   1.227   3.337  16.677  0.1219 -0.0388  0.9265
  637TMC3    C6 9432   1.324   3.427  16.712  0.0960  0.3738  0.3524
  637TMC3     C 9433   0.982   3.540  16.537 -0.4003 -0.6210  1.0321
  637TMC3     O 9434   0.967   3.457  16.454 -0.1044  0.1009 -0.1404
  637TMC3     H 9435   1.137   3.704  16.709  0.7073  0.4622  0.1213
  637TMC3    H1 9436   1.024   3.305  16.615  0.8469 -0.6324 -0.3771
  637TMC3    H2 9437   1.427   3.395  16.716  0.9086  2.9257  0.3041
  637TMC3    C7 9438   1.265   3.240  16.577  0.0085  0.2648 -0.3686
  637TMC3    C8 9439   1.371   3.644  16.651  0.5123 -0.7676 -0.1937
  637TMC3    O1 9440   1.192   3.143  16.560  0.2854  0.4963  0.1932
  637TMC3    O2 9441   1.319   3.713  16.565 -0.3737  0.1087 -0.6320
  638MPD2     C 9442   0.629   2.565  14.985 -0.3201 -0.9227 -0.0854
  638MPD2    C1 9443   0.632   2.464  14.894 -0.4758 -0.6664  0.3421
  638MPD2    C2 9444   0.580   2.343  14.942 -0.6345  0.2482 -0.3736
  638MPD2    C3 9445   0.537   2.322  15.070 -0.6881 -0.1806  0.2206
  638MPD2    C4 9446   0.535   2.433  15.157  0.3596  0.1654  0.3260
  638MPD2    C5 9447   0.587   2.551  15.114  0.2900  0.2566  0.0716
  638MPD2     H 9448   0.597   2.254  14.882 -3.1423  0.6265 -1.6327
  638MPD2    H1 9449   0.506   2.421  15.261 -2.1807 -1.4925 -0.5707
  638MPD2    H2 9450   0.676   2.661  14.965  2.3339 -2.4327 -1.0924
  638MPD2    H3 9451   0.597   2.644  15.169  1.0643  0.7600 -0.9277
  638MPD2     N 9452   0.483   2.189  15.105  0.1216 -0.7282 -0.2791
  638MPD2    H5 9453   0.485   2.108  15.044 -0.6932 -0.0273 -1.2174
  638MPD2    N1 9454   0.682   2.488  14.769  0.6527 -0.3169  0.4747
  638MPD2    H7 9455   0.731   2.575  14.750  0.7957 -0.8719 -1.7144
  639TMC3    C1 9456   0.386   2.018  15.236 -0.4006  0.0887 -0.0276
  639TMC3    C2 9457   0.301   1.960  15.152  0.3804  0.3956 -0.1759
  639TMC3    C3 9458   0.280   1.823  15.154 -0.6696 -0.3939  0.1098
  639TMC3    C4 9459   0.463   1.941  15.321 -0.1738 -0.1737  0.3362
  639TMC3    C5 9460   0.444   1.804  15.329 -0.4780 -0.2669 -1.0914
  639TMC3    C6 9461   0.346   1.745  15.246 -0.9680  0.3063  0.0505
  639TMC3     C 9462   0.428   2.156  15.227  0.3518 -0.3234 -0.3430
  639TMC3     O 9463   0.415   2.233  15.325  0.4506  0.1655 -0.0150
  639TMC3     H 9464   0.248   2.031  15.090  1.0361 -0.0455 -1.2433
  639TMC3    H1 9465   0.530   2.001  15.381 -1.7075  0.9377  0.9554
  639TMC3    H2 9466   0.349   1.637  15.241 -2.2251  0.3252 -0.9602
  639TMC3    C7 9467   0.571   1.731  15.329  0.5926 -0.3234  0.2148
  639TMC3    C8 9468   0.259   1.771  15.022  0.1105 -1.1169  0.0093
  639TMC3    O1 9469   0.583   1.629  15.398 -0.0787  0.4474 -0.0112
  639TMC3    O2 9470   0.349   1.776  14.942  0.2468 -0.2883  0.2240
  640MPD2     C 9471   0.957   0.540  10.197  0.1845  0.3543  0.1299
  640MPD2    C1 9472   0.938   0.547  10.063 -0.5614 -0.0336  0.0042
  640MPD2    C2 9473   0.861   0.650  10.011 -0.4664 -0.2226  0.2133
  640MPD2    C3 9474   0.813   0.743  10.100  0.2822 -0.1232 -0.0832
  640MPD2    C4 9475   0.838   0.738  10.234  0.4690  0.2837  0.3979
  640MPD2    C5 9476   0.902   0.630  10.284  0.5130 -0.2174 -0.3251
  640MPD2     H 9477   0.836   0.665   9.907 -0.0738 -3.7051 -0.3776
  640MPD2    H1 9478   0.806   0.812  10.306  1.3044  0.0572  0.9989
  640MPD2    H2 9479   1.000   0.455  10.250  0.6635 -0.2008 -1.1531
  640MPD2    H3 9480   0.898   0.608  10.390  1.6275  5.1462  0.8407
  640MPD2     N 9481   0.730   0.838  10.045  0.5842  0.3016  0.1974
  640MPD2    H5 9482   0.712   0.824   9.946 -1.3745 -2.1329  0.9053
  640MPD2    N1 9483   0.975   0.436   9.986 -0.0841 -0.5479  0.4589
  640MPD2    H7 9484   1.028   0.361  10.030  1.6956 -0.6864 -1.9316
  641TMC3    C1 9485   1.034   0.322   9.797  0.3494 -0.4412  0.2416
  641TMC3    C2 9486   1.165   0.309   9.827  0.6197 -0.0212 -0.4880
  641TMC3    C3 9487   1.241   0.232   9.749  0.5214 -0.3706  0.7771
  641TMC3    C4 9488   0.970   0.264   9.695 -0.4368 -0.3395  0.4751
  641TMC3    C5 9489   1.050   0.187   9.622  0.3113  0.0572 -0.4683
  641TMC3    C6 9490   1.184   0.168   9.641  0.1117 -0.2962 -0.5340
  641TMC3     C 9491   0.971   0.438   9.849  0.1332 -0.4556  0.3309
  641TMC3     O 9492   0.906   0.502   9.762  0.1257  0.6366 -0.1562
  641TMC3     H 9493   1.202   0.361   9.915  0.6405 -0.1545 -0.4181
  641TMC3    H1 9494   0.864   0.274   9.675 -0.2215 -0.8966 -0.8666
  641TMC3    H2 9495   1.233   0.092   9.581  0.7174  0.7727 -1.3959
  641TMC3    C7 9496   0.989   0.141   9.498 -0.1964  0.7549 -0.2715
  641TMC3    C8 9497   1.382   0.221   9.775  0.0901 -0.2277 -0.1290
  641TMC3    O1 9498   0.869   0.124   9.501 -0.5338 -0.2784  0.1034
  641TMC3    O2 9499   1.440   0.176   9.675  0.1435 -0.4806  0.4264
  642TMC3    C1 9500   2.351   2.805  12.347  0.1669  0.6035 -0.1855
  642TMC3    C2 9501   2.458   2.813  12.434  0.2848 -0.1597  0.4031
  642TMC3    C3 9502   2.496   2.696  12.493 -0.1011 -0.5233 -0.1376
  642TMC3    C4 9503   2.286   2.684  12.320 -0.3897 -0.0093  0.4746
  642TMC3    C5 9504   2.336   2.571  12.384  0.4063 -0.8652 -0.4963
  642TMC3    C6 9505   2.442   2.573  12.475  0.4271  0.3176 -0.1426
  642TMC3     C 9506   2.293   2.923  12.287  0.3090  0.0318  0.1826
  642TMC3     O 9507   2.357   3.015  12.245 -0.1826  0.0760 -0.3492
  642TMC3     H 9508   2.506   2.908  12.455  2.4143 -1.4220  1.2880
  642TMC3    H1 9509   2.207   2.682  12.247 -0.7168  0.8346  0.8027
  642TMC3    H2 9510   2.478   2.482  12.522 -0.4553 -1.1785 -2.3735
  642TMC3    C7 9511   2.252   2.451  12.368 -0.8524  0.5428  0.0282
  642TMC3    C8 9512   2.589   2.694  12.599  0.5311 -0.3465 -0.1850
  642TMC3    O1 9513   2.191   2.441  12.262 -0.4979  0.1805  0.4096
  642TMC3    O2 9514   2.587   2.593  12.672 -0.0065  0.0935 -0.2953
  643TMC3    C1 9515   1.454   2.368   0.412  0.3198  0.7099  0.1882
  643TMC3    C2 9516   1.359   2.459   0.438 -0.1754  0.5356  0.1043
  643TMC3    C3 9517   1.238   2.444   0.372  0.6811  0.2054 -0.1514
  643TMC3    C4 9518   1.447   2.284   0.308  1.2452 -0.0025  0.0426
  643TMC3    C5 9519   1.324   2.272   0.245  0.0045 -0.3005  0.7740
  643TMC3    C6 9520   1.217   2.349   0.281 -0.4069  0.8981 -0.2766
  643TMC3     C 9521   1.581   2.405   0.462 -0.3057 -0.5041  0.4041
  643TMC3     O 9522   1.600   2.526   0.475 -0.6865  0.2264  0.5804
  643TMC3     H 9523   1.380   2.522   0.524  1.4707 -1.4037  1.1135
  643TMC3    H1 9524   1.531   2.218   0.287  0.2839 -0.8415 -1.1728
  643TMC3    H2 9525   1.122   2.355   0.229 -0.0196 -1.6916 -1.2961
  643TMC3    C7 9526   1.332   2.224   0.108 -0.6006  0.0576  0.2651
  643TMC3    C8 9527   1.169   2.565   0.338 -0.5185 -0.6686  0.0472
  643TMC3    O1 9528   1.446   2.211   0.071 -0.5172  0.2657 -0.0793
  643TMC3    O2 9529   1.050   2.561   0.308 -0.0809 -0.3665 -0.1153
  644MPD2     C 9530   1.409   0.688   9.961  0.1290 -0.5784 -0.3142
  644MPD2    C1 9531   1.466   0.652   9.845 -0.0841  0.6580  0.1463
  644MPD2    C2 9532   1.398   0.618   9.734  0.3310 -0.4747  1.2236
  644MPD2    C3 9533   1.255   0.630   9.740 -0.5764  0.5014  0.4860
  644MPD2    C4 9534   1.195   0.673   9.859  0.3431 -0.0315  0.5547
  644MPD2    C5 9535   1.275   0.711   9.965  0.0170 -0.7312  0.7347
  644MPD2     H 9536   1.446   0.584   9.643 -4.0202  0.6180 -1.4953
  644MPD2    H1 9537   1.092   0.706   9.866  0.9297  1.8956  0.0842
  644MPD2    H2 9538   1.473   0.717  10.044 -0.9991  2.7337 -0.6081
  644MPD2    H3 9539   1.239   0.741  10.063  0.0645  1.3664  0.1134
  644MPD2     N 9540   1.167   0.590   9.633 -0.5576  0.1112  0.0209
  644MPD2    H5 9541   1.070   0.589   9.662 -0.9367  0.0231 -1.2348
  644MPD2    N1 9542   1.602   0.626   9.852  0.1047  0.4006  0.0448
  644MPD2    H7 9543   1.653   0.649   9.937  0.7003  0.8739 -0.4380
  645TMC3    C1 9544   1.088   0.552   9.426 -0.4726  0.7796  0.3280
  645TMC3    C2 9545   1.103   0.482   9.315  0.7363 -0.6381 -0.3607
  645TMC3    C3 9546   0.992   0.469   9.235  0.3032  0.0353 -0.3425
  645TMC3    C4 9547   0.969   0.605   9.465 -0.0585  0.3777 -0.1932
  645TMC3    C5 9548   0.867   0.595   9.377  0.2758 -0.3009 -0.1748
  645TMC3    C6 9549   0.877   0.528   9.264 -0.2040  0.1911  0.8030
  645TMC3     C 9550   1.210   0.561   9.508  0.1921  0.6235  0.4891
  645TMC3     O 9551   1.321   0.540   9.467  0.3858  0.4821  0.6291
  645TMC3     H 9552   1.199   0.448   9.280  0.0285 -3.2542  0.2264
  645TMC3    H1 9553   0.954   0.664   9.555 -3.7886 -1.9918  0.7482
  645TMC3    H2 9554   0.786   0.511   9.208  0.8646 -0.7530 -0.6527
  645TMC3    C7 9555   0.731   0.632   9.413 -0.0572  0.2938  0.1506
  645TMC3    C8 9556   0.991   0.391   9.111  0.1603 -0.6723 -0.1687
  645TMC3    O1 9557   0.649   0.636   9.320  0.0061  0.3102  0.1113
  645TMC3    O2 9558   1.090   0.400   9.045 -0.8552  0.4364  0.0698
  646MPD2     C 9559   0.943   1.080  14.436  0.4015 -0.3157  0.5093
  646MPD2    C1 9560   0.866   1.099  14.543 -0.1978 -0.3832 -0.5637
  646MPD2    C2 9561   0.747   1.168  14.530  1.1234 -0.0240  0.6323
  646MPD2    C3 9562   0.706   1.214  14.405  0.7154 -0.4347 -0.9804
  646MPD2    C4 9563   0.789   1.205  14.297  0.3056 -0.4032 -0.3072
  646MPD2    C5 9564   0.901   1.129  14.318 -0.0120 -0.1773  0.3708
  646MPD2     H 9565   0.686   1.197  14.614  0.8305  2.5804 -0.4820
  646MPD2    H1 9566   0.775   1.241  14.196 -0.4101  4.1186  1.4131
  646MPD2    H2 9567   1.026   1.011  14.435  1.1466  0.5972 -0.6928
  646MPD2    H3 9568   0.969   1.107  14.236  1.0105 -0.0585  1.1756
  646MPD2     N 9569   0.594   1.299  14.390 -0.1097  0.5807  0.5921
  646MPD2    H5 9570   0.528   1.301  14.467 -0.4911 -0.5233  0.2862
  646MPD2    N1 9571   0.919   1.047  14.661 -0.1767  0.2067 -0.1795
  646MPD2    H7 9572   1.020   1.032  14.661 -0.0780  0.8496 -0.6995
  647TMC3    C1 9573   0.961   1.054  14.896 -0.2152  0.4619  0.1362
  647TMC3    C2 9574   0.925   1.035  15.023  0.1416 -0.4661  0.2995
  647TMC3    C3 9575   1.012   1.058  15.124 -0.0964  0.4436 -0.6082
  647TMC3    C4 9576   1.089   1.106  14.865  0.0673 -0.2507 -0.0003
  647TMC3    C5 9577   1.181   1.117  14.960 -0.0129  0.2143  0.0663
  647TMC3    C6 9578   1.144   1.099  15.090  0.3493 -0.1666 -0.6531
  647TMC3     C 9579   0.862   1.055  14.784 -0.6703  0.6400  0.0872
  647TMC3     O 9580   0.747   1.060  14.815  0.3681 -0.0212 -0.3121
  647TMC3     H 9581   0.827   0.991  15.039 -0.7615  1.0059 -1.1367
  647TMC3    H1 9582   1.115   1.139  14.766  1.8030  0.9840  0.8708
  647TMC3    H2 9583   1.218   1.120  15.167 -0.4517 -1.5769  0.4936
  647TMC3    C7 9584   1.315   1.104  14.929  0.2719  0.2421 -0.0101
  647TMC3    C8 9585   1.010   0.952  15.227  0.1120 -0.4337 -0.5839
  647TMC3    O1 9586   1.388   1.148  15.011 -0.2605 -0.2232  0.2403
  647TMC3    O2 9587   1.120   0.901  15.260  0.1032  0.2030  0.3122
  648TMC3    C1 9588   0.304   3.346  16.243  0.0674  0.5672 -0.0744
  648TMC3    C2 9589   0.304   3.214  16.197 -0.0998 -0.3647 -0.5911
  648TMC3    C3 9590   0.241   3.186  16.084  0.1162 -0.3687  0.1138
  648TMC3    C4 9591   0.224   3.434  16.175 -0.2329 -0.7185 -0.0751
  648TMC3    C5 9592   0.156   3.399  16.061 -0.5434  0.3338 -0.2421
  648TMC3    C6 9593   0.160   3.272  16.012  0.5027  0.5544  0.3281
  648TMC3     C 9594   0.348   3.393  16.378  0.0281 -0.5396  0.6713
  648TMC3     O 9595   0.332   3.514  16.404  0.1624  0.3705 -0.4672
  648TMC3     H 9596   0.364   3.137  16.246  1.0604  1.1707  0.3837
  648TMC3    H1 9597   0.233   3.540  16.197 -1.4118 -0.8071  0.9027
  648TMC3    H2 9598   0.115   3.252  15.916  1.6366  1.3504 -0.3666
  648TMC3    C7 9599   0.111   3.508  15.974  0.6829 -0.2196  0.4576
  648TMC3    C8 9600   0.273   3.052  16.032  0.2352  0.0165  0.4930
  648TMC3    O1 9601   0.134   3.501  15.854 -0.6600 -1.0442 -0.2362
  648TMC3    O2 9602   0.370   2.988  16.077 -0.8045 -0.1210  0.2318
  649TMC3    C1 9603   0.135   0.050  12.723  0.1331  0.5716 -0.0051
  649TMC3    C2 9604   0.230   0.121  12.802 -0.1697 -0.4024  0.2056
  649TMC3    C3 9605   0.230   0.078  12.931 -0.2755  0.7191  0.3335
  649TMC3    C4 9606   0.065   4.668  12.761 -0.2328 -0.3827 -0.2086
  649TMC3    C5 9607   0.073   4.638  12.890 -0.2640 -0.3228  0.1168
  649TMC3    C6 9608   0.151   4.699  12.978  0.3072 -0.3045 -0.0505
  649TMC3     C 9609   0.130   0.066  12.585  0.2711 -0.1416  0.0004
  649TMC3     O 9610   0.035   0.019  12.521 -0.3372 -0.3298 -0.1491
  649TMC3     H 9611   0.294   0.206  12.782  1.6412 -1.1905  2.5587
  649TMC3    H1 9612   4.713   4.611  12.706 -0.3031 -1.7567  1.3017
  649TMC3    H2 9613   0.155   4.673  13.083 -2.9601 -0.4498  0.0343
  649TMC3    C7 9614   4.700   4.550  12.954 -0.1147  0.1867  0.2205
  649TMC3    C8 9615   0.328   0.126  13.027  0.0777 -0.3904 -0.4265
  649TMC3    O1 9616   4.591   4.535  12.904  0.2865  0.7731 -0.4749
  649TMC3    O2 9617   0.306   0.101  13.142 -0.1044 -0.1079 -0.4368
  650TMC3    C1 9618   1.555   2.065  12.781 -0.9862  0.3670 -0.5876
  650TMC3    C2 9619   1.477   2.166  12.812  0.3602 -0.0483  0.1979
  650TMC3    C3 9620   1.380   2.208  12.723 -0.3043 -0.6411  0.2815
  650TMC3    C4 9621   1.565   2.010  12.654 -0.7878  0.0081  0.2859
  650TMC3    C5 9622   1.481   2.062  12.564  0.3275 -0.4390 -0.8518
  650TMC3    C6 9623   1.382   2.152  12.596 -0.3879 -0.6621  0.3506
  650TMC3     C 9624   1.632   1.997  12.888 -0.6278 -0.0053 -0.2225
  650TMC3     O 9625   1.644   2.050  12.999  0.2248 -0.6583 -0.4275
  650TMC3     H 9626   1.483   2.200  12.914  2.4107  1.9961 -0.5939
  650TMC3    H1 9627   1.650   1.951  12.623 -1.5866  0.6290 -3.0516
  650TMC3    H2 9628   1.314   2.184  12.518 -2.8205 -1.4042  2.1620
  650TMC3    C7 9629   1.531   2.058  12.429  0.3605  0.3957 -0.0795
  650TMC3    C8 9630   1.327   2.339  12.729  0.0819  0.7975 -0.0224
  650TMC3    O1 9631   1.566   1.945  12.386 -0.3294  0.5307  0.2006
  650TMC3    O2 9632   1.301   2.393  12.625 -0.0790 -0.1792 -0.2138
  651MPD2     C 9633   0.362   3.758  10.136  0.0336  0.8491 -0.2614
  651MPD2    C1 9634   0.336   3.847  10.241 -0.3126  0.3103  0.7705
  651MPD2    C2 9635   0.444   3.927  10.281  0.3045 -0.9251  0.4416
  651MPD2    C3 9636   0.568   3.904  10.232  0.1041 -0.8230  0.9541
  651MPD2    C4 9637   0.586   3.818  10.122 -0.6018 -0.0267  0.0886
  651MPD2    C5 9638   0.482   3.748  10.074 -0.0462  1.4724 -0.1292
  651MPD2     H 9639   0.433   4.003  10.357 -0.4899 -0.9637  0.3689
  651MPD2    H1 9640   0.684   3.790  10.085  0.0873  1.4368  0.8305
  651MPD2    H2 9641   0.275   3.702  10.102  0.6074 -1.9932  2.9734
  651MPD2    H3 9642   0.496   3.671  10.000 -2.0549 -0.5100  1.5173
  651MPD2     N 9643   0.668   3.977  10.291  0.5499 -0.8266 -0.2205
  651MPD2    H5 9644   0.642   4.033  10.371  1.2022 -1.0136  0.1205
  651MPD2    N1 9645   0.216   3.862  10.306 -0.3829 -0.8639  0.5659
  651MPD2    H7 9646   0.206   3.943  10.367 -1.0118 -0.5984  0.1062
  652TMC3    C1 9647   1.040   3.986  10.473 -0.4068 -0.7155  0.0111
  652TMC3    C2 9648   0.998   4.008  10.343 -0.5644  0.1601 -0.1594
  652TMC3    C3 9649   0.876   4.063  10.332  0.3227 -0.1792  0.4410
  652TMC3    C4 9650   0.981   4.041  10.583 -0.9066  0.5006 -0.0892
  652TMC3    C5 9651   0.867   4.113  10.565 -0.3400  0.8393  0.1455
  652TMC3    C6 9652   0.806   4.120  10.441 -0.3810 -0.4933  0.2259
  652TMC3     C 9653   1.172   3.931  10.500 -0.0308  0.4715 -0.6947
  652TMC3     O 9654   1.189   3.884  10.613 -0.1680  0.0792 -0.1281
  652TMC3     H 9655   1.047   3.961  10.258  1.6194  1.4423  0.3612
  652TMC3    H1 9656   1.026   4.023  10.679 -3.2433 -1.2257  0.6665
  652TMC3    H2 9657   0.721   4.185  10.424 -0.9075 -0.9189  1.2451
  652TMC3    C7 9658   0.825   4.210  10.667  0.4559 -0.5146  0.0934
  652TMC3    C8 9659   0.792   3.989  10.238  1.2239 -0.0465  0.6302
  652TMC3    O1 9660   0.707   4.230  10.659 -0.2371  0.2539  0.3454
  652TMC3    O2 9661   0.840   3.955  10.130  0.4601  0.4514 -0.1167
  653MPD2     C 9662   3.872   3.390   0.118  0.7041  0.2056 -0.6466
  653MPD2    C1 9663   3.941   3.463   0.026  0.5150 -1.0869  0.6252
  653MPD2    C2 9664   3.924   3.417  17.587 -0.8778  0.4797  0.6193
  653MPD2    C3 9665   3.854   3.296  17.550  0.1209 -0.0731 -0.3904
  653MPD2    C4 9666   3.802   3.214  17.650  0.3340 -0.0707  0.5010
  653MPD2    C5 9667   3.816   3.265   0.093  0.0121  0.2122  0.3564
  653MPD2     H 9668   3.960   3.475  17.503  1.0167  0.3487  1.3251
  653MPD2    H1 9669   3.748   3.120  17.640  3.6670 -1.9309 -0.1136
  653MPD2    H2 9670   3.876   3.414   0.223  0.7313  0.1624 -0.6377
  653MPD2    H3 9671   3.770   3.219   0.180  2.1352 -0.5647  1.0752
  653MPD2     N 9672   3.838   3.266  17.412  0.2749  0.3403  0.1618
  653MPD2    H5 9673   3.876   3.337  17.351  1.8587  0.6178  1.4495
  653MPD2    N1 9674   4.006   3.590   0.051  0.0810  0.1031 -0.4726
  653MPD2    H7 9675   4.020   3.652  17.662 -0.1747  0.0176 -0.5833
  654TMC3    C1 9676   3.743   3.155  17.217  0.3191  0.1941 -0.0435
  654TMC3    C2 9677   3.742   3.274  17.150 -0.4376 -1.3162 -0.3377
  654TMC3    C3 9678   3.728   3.271  17.017  0.5169 -0.0982  0.0839
  654TMC3    C4 9679   3.728   3.034  17.148  0.2423 -0.5866  0.4026
  654TMC3    C5 9680   3.721   3.035  17.009 -0.8832 -0.5568 -0.2618
  654TMC3    C6 9681   3.725   3.154  16.944  1.3100  0.4218 -0.2368
  654TMC3     C 9682   3.781   3.145  17.357  0.3692 -0.3708 -0.8056
  654TMC3     O 9683   3.763   3.036  17.410  0.6596  0.0907 -0.6230
  654TMC3     H 9684   3.768   3.367  17.200  1.8078 -1.5087 -1.1486
  654TMC3    H1 9685   3.744   2.940  17.198  2.1130 -0.7887 -0.5756
  654TMC3    H2 9686   3.722   3.152  16.835  0.9646 -3.6340 -0.1869
  654TMC3    C7 9687   3.655   2.930  16.935 -0.6727 -0.4423 -0.2918
  654TMC3    C8 9688   3.688   3.396  16.943 -0.1202  0.2781  0.1227
  654TMC3    O1 9689   3.626   2.954  16.816 -0.1001  0.1285  0.0361
  654TMC3    O2 9690   3.660   3.496  17.003  0.4422  0.7338  0.0195
  655MPD2     C 9691   0.580   3.360  16.014  0.0055 -0.3545 -0.0399
  655MPD2    C1 9692   0.561   3.474  15.937  0.3380  0.2006 -0.2089
  655MPD2    C2 9693   0.525   3.457  15.805 -0.2147 -0.7103 -0.0452
  655MPD2    C3 9694   0.527   3.328  15.746 -0.4307 -0.1699  0.1780
  655MPD2    C4 9695   0.567   3.221  15.825  0.1528 -0.2319 -0.4422
  655MPD2    C5 9696   0.590   3.234  15.964 -0.4085 -0.0228  0.0294
  655MPD2     H 9697   0.499   3.544  15.745 -0.3843 -0.2119  0.7436
  655MPD2    H1 9698   0.572   3.126  15.774  3.4685 -0.5838  0.5191
  655MPD2    H2 9699   0.610   3.368  16.118  1.7544 -1.4368 -0.4517
  655MPD2    H3 9700   0.633   3.156  16.027  0.7991 -0.1831 -1.0097
  655MPD2     N 9701   0.509   3.310  15.601  0.4755  0.8915  0.3973
  655MPD2    H5 9702   0.509   3.214  15.567 -0.8576  1.2146 -0.4971
  655MPD2    N1 9703   0.547   3.607  15.992  0.1551  0.8410  0.8053
  655MPD2    H7 9704   0.531   3.685  15.929 -0.3162  0.2795  0.2269
  656TMC3    C1 9705   0.561   3.775  16.157  0.4385 -0.3087  0.4428
  656TMC3    C2 9706   0.473   3.803  16.258  0.3360  0.3171  0.5290
  656TMC3    C3 9707   0.421   3.927  16.267  0.4826 -0.1278  0.5459
  656TMC3    C4 9708   0.590   3.865  16.063 -0.2444  0.0700  0.2692
  656TMC3    C5 9709   0.533   3.988  16.073  0.5326 -0.0827 -0.7761
  656TMC3    C6 9710   0.451   4.023  16.175  0.8435  0.6565  0.2852
  656TMC3     C 9711   0.560   3.635  16.129 -0.3613 -0.1081 -0.1899
  656TMC3     O 9712   0.589   3.567  16.224 -0.5848 -0.2541 -0.2443
  656TMC3     H 9713   0.447   3.734  16.338 -2.5724  0.7333 -0.0773
  656TMC3    H1 9714   0.660   3.836  15.985  1.5130  1.4466  1.3543
  656TMC3    H2 9715   0.420   4.123  16.201  0.3613  0.1978  1.5040
  656TMC3    C7 9716   0.517   4.052  15.947  0.0922  0.2761  0.7405
  656TMC3    C8 9717   0.295   3.947  16.342  0.2232 -0.3343  0.5930
  656TMC3    O1 9718   0.581   4.010  15.851 -0.2467  0.2847 -0.3081
  656TMC3    O2 9719   0.242   4.050  16.309  0.2860  0.0285 -0.2755
  657TMC3    C1 9720   3.994   3.195  15.096  0.0646 -0.2114 -0.1100
  657TMC3    C2 9721   3.979   3.192  15.232 -0.2103  0.7328 -0.3315
  657TMC3    C3 9722   3.930   3.304  15.302 -1.3613 -0.2184  0.3392
  657TMC3    C4 9723   3.938   3.296  15.022  0.1642 -0.3588  0.1076
  657TMC3    C5 9724   3.889   3.407  15.091 -0.1774  0.9196 -0.5179
  657TMC3    C6 9725   3.884   3.411  15.233 -0.1286  0.3592 -0.1098
  657TMC3     C 9726   4.035   3.074  15.027  0.0796  0.4069  0.2687
  657TMC3     O 9727   4.009   3.064  14.907 -0.6441  0.2951  0.4733
  657TMC3     H 9728   4.008   3.109  15.296 -2.3693 -1.1758 -1.8314
  657TMC3    H1 9729   3.932   3.277  14.916 -0.8563  0.4254  0.0217
  657TMC3    H2 9730   3.851   3.493  15.295 -0.6233 -1.1752  1.6388
  657TMC3    C7 9731   3.852   3.527  15.020  0.4364 -0.6921 -0.5031
  657TMC3    C8 9732   3.926   3.317  15.446 -0.1078 -0.3747 -0.2387
  657TMC3    O1 9733   3.863   3.625  15.091  0.0760  0.0959  0.4712
  657TMC3    O2 9734   3.838   3.392  15.489  0.1668  0.1484  0.5134
  658MPD2     C 9735   0.822   3.042  15.174 -0.2253  0.1081  0.2281
  658MPD2    C1 9736   0.684   3.060  15.156 -0.6476 -0.3696 -0.4032
  658MPD2    C2 9737   0.647   3.119  15.038  0.5591 -0.3555  0.4456
  658MPD2    C3 9738   0.740   3.175  14.950  0.1439 -0.9361 -0.6255
  658MPD2    C4 9739   0.874   3.151  14.971  0.5906 -0.4533 -0.0633
  658MPD2    C5 9740   0.916   3.084  15.085  0.1935  0.1085 -0.6013
  658MPD2     H 9741   0.541   3.135  15.024  1.2053  2.5836 -1.2492
  658MPD2    H1 9742   0.958   3.186  14.912 -1.1703  0.4632 -2.0326
  658MPD2    H2 9743   0.859   3.005  15.269  0.4643 -2.2826 -0.9892
  658MPD2    H3 9744   1.023   3.075  15.100  0.2580  1.5981 -0.2139
  658MPD2     N 9745   0.697   3.244  14.834 -0.4325  0.4013  1.0134
  658MPD2    H5 9746   0.596   3.258  14.826 -0.6764 -0.3036  2.6845
  658MPD2    N1 9747   0.597   3.016  15.261 -0.5356  0.2885 -0.3410
  658MPD2    H7 9748   0.639   3.003  15.353 -1.6615  0.0734  0.1503
  659TMC3    C1 9749   0.395   3.118  15.330  0.3331 -0.6313  0.5265
  659TMC3    C2 9750   0.472   3.222  15.378  0.5885 -0.2078  0.4321
  659TMC3    C3 9751   0.416   3.345  15.404  0.3380  0.5183 -0.0649
  659TMC3    C4 9752   0.266   3.141  15.303  0.1675 -0.0772  0.0981
  659TMC3    C5 9753   0.214   3.267  15.306 -0.1682 -0.6071  0.1069
  659TMC3    C6 9754   0.285   3.369  15.365  0.4815  0.5001 -0.1289
  659TMC3     C 9755   0.457   3.019  15.240  0.3306  1.0462 -0.1304
  659TMC3     O 9756   0.392   2.988  15.145  0.0340  0.2724  0.0965
  659TMC3     H 9757   0.576   3.205  15.404  0.0603 -2.6337  0.9504
  659TMC3    H1 9758   0.201   3.068  15.256  0.5524 -1.3781  1.5827
  659TMC3    H2 9759   0.239   3.465  15.387 -0.4666 -0.2070  0.9629
  659TMC3    C7 9760   0.086   3.301  15.246  0.2912  0.5669  0.5234
  659TMC3    C8 9761   0.467   3.411  15.521  0.5088 -0.9832 -0.3598
  659TMC3    O1 9762   0.030   3.394  15.304  0.2249  0.1751 -0.0998
  659TMC3    O2 9763   0.435   3.528  15.539  0.2282 -0.1659 -0.1583
  660MPD2     C 9764   3.346   2.457  12.289 -0.2656  0.3666  0.2676
  660MPD2    C1 9765   3.229   2.526  12.325 -0.1528  0.7234 -0.2107
  660MPD2    C2 9766   3.152   2.466  12.423 -0.1727  0.7977  0.3237
  660MPD2    C3 9767   3.194   2.355  12.494 -0.0752  0.1928  0.3727
  660MPD2    C4 9768   3.305   2.289  12.451 -0.1754 -0.5041 -0.3224
  660MPD2    C5 9769   3.386   2.345  12.358  0.0235  0.9290 -0.0271
  660MPD2     H 9770   3.067   2.521  12.464  0.2153  1.6720 -0.0529
  660MPD2    H1 9771   3.356   2.205  12.495  1.8387  0.6567 -0.4429
  660MPD2    H2 9772   3.413   2.496  12.214 -3.2159  1.4183 -1.8475
  660MPD2    H3 9773   3.479   2.294  12.340  0.1657  0.9447  0.6823
  660MPD2     N 9774   3.112   2.311  12.597 -0.0691  0.1751  0.0809
  660MPD2    H5 9775   3.027   2.367  12.603 -0.1450  0.0984 -0.2471
  660MPD2    N1 9776   3.183   2.625  12.241  0.1015  0.1389  0.1768
  660MPD2    H7 9777   3.257   2.656  12.178  0.2621 -0.9098 -0.1624
  661TMC3    C1 9778   3.043   2.781  12.130 -0.5830 -0.0552 -0.0583
  661TMC3    C2 9779   3.115   2.765  12.010  0.2260 -0.5489  0.3694
  661TMC3    C3 9780   3.066   2.820  11.898  0.5689  0.1828 -0.1199
  661TMC3    C4 9781   2.926   2.844  12.135  0.3939 -0.1166 -0.5267
  661TMC3    C5 9782   2.875   2.890  12.018 -0.1830 -0.7808  0.4484
  661TMC3    C6 9783   2.946   2.885  11.897 -0.5745 -0.3608 -0.0337
  661TMC3     C 9784   3.060   2.681  12.237 -0.2050  0.1666  0.1892
  661TMC3     O 9785   2.959   2.654  12.304  0.3601  0.4022 -0.3104
  661TMC3     H 9786   3.202   2.702  11.995  1.4602  1.2821 -0.1905
  661TMC3    H1 9787   2.870   2.843  12.228  0.4110 -1.5431 -0.5270
  661TMC3    H2 9788   2.899   2.911  11.803  2.8540  0.0392 -1.6598
  661TMC3    C7 9789   2.728   2.911  12.017 -0.9262 -0.4895 -0.0033
  661TMC3    C8 9790   3.143   2.820  11.776 -0.0513 -0.1551 -0.3093
  661TMC3    O1 9791   2.676   2.952  12.118 -0.2414 -0.3317  0.2775
  661TMC3    O2 9792   3.265   2.813  11.789  0.0160 -0.7117  0.4374
  662MPD2     C 9793   3.269   2.684  17.075 -0.1091 -0.1372 -0.7493
  662MPD2    C1 9794   3.260   2.619  17.199  0.1243 -0.0873  0.5305
  662MPD2    C2 9795   3.227   2.699  17.307  0.0234  0.5784  0.3149
  662MPD2    C3 9796   3.198   2.832  17.291 -1.0520  0.3664 -1.1215
  662MPD2    C4 9797   3.208   2.888  17.172  0.6336 -0.7774 -0.1954
  662MPD2    C5 9798   3.257   2.821  17.065  0.0979 -0.1792  0.1491
  662MPD2     H 9799   3.221   2.654  17.405 -2.6204 -0.2750 -0.2294
  662MPD2    H1 9800   3.187   2.994  17.164  0.1114 -0.7910  0.9934
  662MPD2    H2 9801   3.300   2.632  16.985 -1.9990  0.7167 -1.8877
  662MPD2    H3 9802   3.272   2.865  16.967 -0.6357 -0.0231  0.1112
  662MPD2     N 9803   3.132   2.903  17.391 -0.1178 -0.1690 -0.6092
  662MPD2    H5 9804   3.072   2.977  17.356 -2.1788 -0.8193  1.5131
  662MPD2    N1 9805   3.261   2.480  17.217 -0.2132  0.5272  0.0727
  662MPD2    H7 9806   3.243   2.448  17.312 -2.1089 -2.1626 -1.2082
  663TMC3    C1 9807   3.260   2.249  17.160 -0.1382 -0.1329  0.2456
  663TMC3    C2 9808   3.187   2.212  17.272 -0.3045  0.0645 -0.7876
  663TMC3    C3 9809   3.150   2.083  17.286 -0.2022 -0.0646  0.3070
  663TMC3    C4 9810   3.286   2.150  17.066 -0.9686  0.7133 -0.5451
  663TMC3    C5 9811   3.248   2.019  17.088 -0.4527 -0.6343 -0.3764
  663TMC3    C6 9812   3.191   1.980  17.204 -1.1217  0.4171 -0.8533
  663TMC3     C 9813   3.275   2.386  17.114  0.2125 -0.4701 -0.4246
  663TMC3     O 9814   3.274   2.402  16.996  0.4767 -0.5463  0.0659
  663TMC3     H 9815   3.133   2.285  17.331 -0.6972 -0.4918 -0.4602
  663TMC3    H1 9816   3.313   2.168  16.962  2.8229 -1.8367  0.0339
  663TMC3    H2 9817   3.132   1.891  17.220  0.2522 -0.5378 -1.0435
  663TMC3    C7 9818   3.282   1.919  16.989  0.1862 -0.4492  0.4162
  663TMC3    C8 9819   3.008   2.066  17.315  0.8111 -0.5238 -0.2381
  663TMC3    O1 9820   3.280   1.947  16.872 -0.7132 -0.0262  0.3831
  663TMC3    O2 9821   2.933   2.012  17.239 -0.0557 -0.0211  0.1993
  664MPD2     C 9822   1.776   0.441  17.522  0.6103 -0.2786  0.7613
  664MPD2    C1 9823   1.887   0.522  17.534 -0.4153  0.3223 -0.4621
  664MPD2    C2 9824   1.915   0.581  17.650  1.3298 -0.3433  0.3977
  664MPD2    C3 9825   1.853   0.545   0.078  0.4271  0.7162 -0.5272
  664MPD2    C4 9826   1.752   0.455   0.075  0.1565 -0.1186 -0.0328
  664MPD2    C5 9827   1.707   0.414  17.638  0.0391  0.2074 -0.5804
  664MPD2     H 9828   2.000   0.647  17.658 -0.5066  2.1731 -0.9235
  664MPD2    H1 9829   1.702   0.409   0.159  1.4311 -3.5597 -1.1439
  664MPD2    H2 9830   1.743   0.401  17.427  0.3632  0.0207  0.7220
  664MPD2    H3 9831   1.637   0.332  17.624  0.0963 -0.0583  0.7151
  664MPD2     N 9832   1.896   0.620   0.192 -0.7780 -0.1060  0.7483
  664MPD2    H5 9833   1.964   0.695   0.183 -2.1253  1.1060  0.6084
  664MPD2    N1 9834   1.965   0.567  17.419  0.1954 -0.0494  0.9045
  664MPD2    H7 9835   2.032   0.642  17.437  0.3881  0.2191 -0.9470
  665TMC3    C1 9836   1.928   0.660   0.420  0.3745 -0.7508  0.2919
  665TMC3    C2 9837   1.937   0.614   0.549 -0.2711 -0.7103  0.5207
  665TMC3    C3 9838   2.024   0.679   0.632  0.8374  0.1319 -0.3107
  665TMC3    C4 9839   1.979   0.780   0.384  0.1039 -0.4771 -0.8811
  665TMC3    C5 9840   2.061   0.844   0.470  0.0351 -0.2499 -0.1964
  665TMC3    C6 9841   2.088   0.794   0.591  0.4738  0.1414 -0.3662
  665TMC3     C 9842   1.862   0.583   0.321 -0.2827 -0.9828  0.4038
  665TMC3     O 9843   1.816   0.480   0.361  0.1940  0.3968 -0.5357
  665TMC3     H 9844   1.873   0.531   0.578  1.6750 -1.9890  1.1214
  665TMC3    H1 9845   1.937   0.836   0.300 -1.4751  0.3051  0.4245
  665TMC3    H2 9846   2.153   0.841   0.665  0.4824 -2.4020  1.2430
  665TMC3    C7 9847   2.055   0.989   0.473 -0.4945 -0.7134  0.5626
  665TMC3    C8 9848   1.972   0.716   0.772 -0.2078  0.0956 -0.2090
  665TMC3    O1 9849   2.083   1.043   0.364  0.3438 -0.2775 -0.3508
  665TMC3    O2 9850   1.977   0.832   0.804  0.1092  0.1504  0.2897
  666TMC3    C1 9851   1.420   0.081  10.351 -0.4001  0.1319  0.6498
  666TMC3    C2 9852   1.548   0.069  10.404  0.8686 -0.5248 -0.3709
  666TMC3    C3 9853   1.608   0.187  10.433 -0.0141  0.3855 -0.3510
  666TMC3    C4 9854   1.354   0.198  10.350  0.1055  0.3302 -0.0295
  666TMC3    C5 9855   1.419   0.316  10.383  0.1988  0.3001  0.0368
  666TMC3    C6 9856   1.546   0.310  10.423 -0.8226  0.3197  0.2780
  666TMC3     C 9857   1.350   4.688  10.316 -0.3848  0.1109  0.3826
  666TMC3     O 9858   1.413   4.601  10.257  0.1104  0.0768  0.1938
  666TMC3     H 9859   1.591   4.695  10.427 -0.4591 -1.3661 -1.4051
  666TMC3    H1 9860   1.254   0.205  10.309  1.0034  0.8593 -2.1939
  666TMC3    H2 9861   1.590   0.399  10.468 -0.1470  1.4117 -2.5189
  666TMC3    C7 9862   1.341   0.430  10.396 -0.5897 -0.0793  0.1109
  666TMC3    C8 9863   1.723   0.175  10.515 -0.2546  0.3902  0.5953
  666TMC3    O1 9864   1.221   0.413  10.412 -0.1290 -0.0372  0.8483
  666TMC3    O2 9865   1.808   0.254  10.494  0.5339  0.1935  0.1835
  667MPD2     C 9866   2.729   0.155  14.258  0.4012  0.0467  0.1772
  667MPD2    C1 9867   2.737   0.179  14.394 -0.1856  0.3599 -0.1565
  667MPD2    C2 9868   2.708   0.075  14.479 -0.3305 -0.2709  0.2557
  667MPD2    C3 9869   2.669   4.670  14.424  0.3917 -0.8819  0.2070
  667MPD2    C4 9870   2.651   4.658  14.290  0.3128  0.0693  0.5094
  667MPD2    C5 9871   2.686   0.037  14.206  0.0816  0.3104  0.2669
  667MPD2     H 9872   2.732   0.089  14.584  1.8491  0.1699 -0.2972
  667MPD2    H1 9873   2.608   4.567  14.250  1.3291 -0.7459  1.2847
  667MPD2    H2 9874   2.757   0.227  14.182 -0.1266  0.3316  0.2568
  667MPD2    H3 9875   2.664   0.030  14.100  1.6025 -1.2164  0.0507
  667MPD2     N 9876   2.650   4.557  14.505 -0.2047 -0.6169  0.8044
  667MPD2    H5 9877   2.590   4.481  14.473 -0.1888  0.1959 -1.1678
  667MPD2    N1 9878   2.760   0.303  14.450  0.0043  0.2783 -0.7470
  667MPD2    H7 9879   2.744   0.305  14.550  0.2629  2.6818 -0.7524
  668TMC3    C1 9880   2.806   0.536  14.466 -0.2898 -0.8261  0.7852
  668TMC3    C2 9881   2.874   0.644  14.412 -0.0887 -0.2247  0.2930
  668TMC3    C3 9882   2.875   0.761  14.482  0.0147 -0.6490 -0.1441
  668TMC3    C4 9883   2.733   0.546  14.582  0.7000 -0.0088 -0.0281
  668TMC3    C5 9884   2.739   0.667  14.645 -0.4905 -0.1661 -0.3415
  668TMC3    C6 9885   2.819   0.770  14.602  0.3191 -0.5848 -0.5073
  668TMC3     C 9886   2.792   0.420  14.380  0.4827  0.1678  0.5467
  668TMC3     O 9887   2.840   0.432  14.267  0.1513 -0.0198  0.0520
  668TMC3     H 9888   2.921   0.641  14.314  0.7551  0.1108  0.6858
  668TMC3    H1 9889   2.678   0.458  14.614 -1.7293  2.0244  1.3316
  668TMC3    H2 9890   2.813   0.866  14.653  0.1985 -0.6033 -0.4867
  668TMC3    C7 9891   2.675   0.679  14.774 -0.2263  0.3027  0.1322
  668TMC3    C8 9892   2.927   0.881  14.422  0.2904  0.6088 -0.1176
  668TMC3    O1 9893   2.724   0.764  14.848 -0.1512  0.9741 -0.0540
  668TMC3    O2 9894   2.865   0.985  14.444 -0.5878  0.0439  0.2446
  669TMC3    C1 9895   0.748   0.140  14.476 -0.1001  0.2394 -0.9159
  669TMC3    C2 9896   0.644   0.215  14.424  0.3618  1.3218 -0.5312
  669TMC3    C3 9897   0.680   0.292  14.320  0.0529  0.5387 -0.2266
  669TMC3    C4 9898   0.881   0.147  14.429  0.0777 -0.2702  0.3060
  669TMC3    C5 9899   0.910   0.238  14.328  0.2712  0.3432  0.7751
  669TMC3    C6 9900   0.810   0.305  14.260  0.5333  0.0220 -0.4630
  669TMC3     C 9901   0.718   0.071  14.597 -0.1290  0.3292  0.1294
  669TMC3     O 9902   0.600   0.037  14.622  0.0143  0.8680  0.5986
  669TMC3     H 9903   0.543   0.206  14.462  0.4584  0.4602 -0.4801
  669TMC3    H1 9904   0.959   0.077  14.456  2.0031  2.0532  0.8135
  669TMC3    H2 9905   0.823   0.365  14.171  0.1408  0.4506 -0.2283
  669TMC3    C7 9906   1.042   0.244  14.276 -1.0340 -0.6102 -0.5898
  669TMC3    C8 9907   0.580   0.363  14.250  0.2507 -0.0270  0.6407
  669TMC3    O1 9908   1.112   0.144  14.276  0.0008  0.3338 -0.4177
  669TMC3    O2 9909   0.578   0.349  14.131 -0.4541  0.1440  0.1842
  670MPD2     C 9910   3.584   2.557  12.890 -0.2831 -0.0767  0.3094
  670MPD2    C1 9911   3.598   2.688  12.919  0.2406 -0.1370 -0.2020
  670MPD2    C2 9912   3.597   2.734  13.051  0.3902 -0.1775  0.0381
  670MPD2    C3 9913   3.575   2.648  13.153  0.5782  1.1008  0.3260
  670MPD2    C4 9914   3.548   2.509  13.125 -0.2618 -0.6867  1.0047
  670MPD2    C5 9915   3.558   2.469  12.992 -0.6058 -0.1452  0.4781
  670MPD2     H 9916   3.621   2.836  13.078 -1.0422 -0.0399  0.7971
  670MPD2    H1 9917   3.534   2.428  13.197  3.5166 -0.1927  2.3080
  670MPD2    H2 9918   3.589   2.525  12.787  0.4493 -0.9627  0.6216
  670MPD2    H3 9919   3.557   2.363  12.972  0.6024 -0.2151  0.7943
  670MPD2     N 9920   3.574   2.695  13.285 -0.4229  0.3906  0.2312
  670MPD2    H5 9921   3.598   2.793  13.299  0.4530  0.3454 -0.9798
  670MPD2    N1 9922   3.628   2.791  12.830 -0.3153  0.8388 -0.1240
  670MPD2    H7 9923   3.624   2.883  12.872 -0.3096  1.2777 -1.0800
  671TMC3    C1 9924   3.521   2.720  13.510  0.2130  0.2353 -0.6122
  671TMC3    C2 9925   3.637   2.793  13.529 -0.6357 -0.4216 -0.0448
  671TMC3    C3 9926   3.674   2.811  13.665  0.4061  0.4558  0.3957
  671TMC3    C4 9927   3.441   2.677  13.608  0.2439 -0.4207 -1.0870
  671TMC3    C5 9928   3.478   2.695  13.737 -0.0633  0.3943  0.1485
  671TMC3    C6 9929   3.591   2.763  13.762  0.3045 -0.0081 -0.2393
  671TMC3     C 9930   3.527   2.625  13.394 -0.3702  0.1404 -0.2421
  671TMC3     O 9931   3.483   2.514  13.401  0.6876  0.2124 -0.0064
  671TMC3     H 9932   3.712   2.815  13.455 -1.9466  1.9553 -0.6749
  671TMC3    H1 9933   3.356   2.614  13.586  0.5160 -0.8994 -0.7637
  671TMC3    H2 9934   3.617   2.789  13.864  0.5557 -1.1188 -0.0211
  671TMC3    C7 9935   3.422   2.604  13.834  0.6597  0.3722  0.4865
  671TMC3    C8 9936   3.799   2.751  13.687  0.4501 -0.3548 -0.0266
  671TMC3    O1 9937   3.319   2.540  13.799 -0.7484  0.0543 -0.0811
  671TMC3    O2 9938   3.812   2.638  13.636  0.1625 -0.3015  0.8750
  672MPD2     C 9939   3.566   2.874   1.105  0.1429  0.3872 -0.1377
  672MPD2    C1 9940   3.697   2.894   1.071 -0.2538 -0.0039 -0.4014
  672MPD2    C2 9941   3.767   2.974   1.153 -0.1819 -0.3235  0.0641
  672MPD2    C3 9942   3.724   3.018   1.278 -0.5066  0.1364  0.3771
  672MPD2    C4 9943   3.590   3.006   1.309 -0.7890  0.1952  0.3999
  672MPD2    C5 9944   3.517   2.924   1.221  0.0660 -0.0507 -0.3648
  672MPD2     H 9945   3.871   2.999   1.135 -0.3041 -0.5792 -0.9919
  672MPD2    H1 9946   3.546   3.051   1.397  0.7923 -0.5451  1.5779
  672MPD2    H2 9947   3.498   2.802   1.062  0.7646 -0.0030 -0.4634
  672MPD2    H3 9948   3.411   2.908   1.237 -0.2596  2.0349 -0.3499
  672MPD2     N 9949   3.806   3.082   1.373 -0.5799 -0.2801  0.1073
  672MPD2    H5 9950   3.767   3.133   1.451  2.2888  2.2696 -0.1228
  672MPD2    N1 9951   3.756   2.842   0.954  0.1318  0.1615  0.0292
  672MPD2    H7 9952   3.854   2.859   0.934 -0.1923 -0.1408 -1.8378
  673TMC3    C1 9953   3.781   2.691   0.771 -1.2683  0.1627 -1.9179
  673TMC3    C2 9954   3.788   2.556   0.742  0.6379 -1.1275 -0.5051
  673TMC3    C3 9955   3.901   2.516   0.678  0.6352  0.1326 -0.7912
  673TMC3    C4 9956   3.874   2.780   0.724 -0.5401  0.6986  0.7907
  673TMC3    C5 9957   3.974   2.737   0.638  0.8953 -0.2682 -0.1433
  673TMC3    C6 9958   3.998   2.603   0.626  0.2021  0.3163  0.0482
  673TMC3     C 9959   3.708   2.733   0.885  0.1301 -0.2503 -0.2689
  673TMC3     O 9960   3.603   2.674   0.909 -0.5038 -0.0972  0.2336
  673TMC3     H 9961   3.725   2.484   0.794  0.3129 -0.2532  0.3125
  673TMC3    H1 9962   3.858   2.887   0.719 -1.4676  0.4287 -1.7279
  673TMC3    H2 9963   4.092   2.567   0.585 -0.8447 -1.2551 -1.0050
  673TMC3    C7 9964   4.058   2.832   0.567  0.6121  0.2524  0.0910
  673TMC3    C8 9965   3.960   2.390   0.713 -0.5218 -0.0877  0.0560
  673TMC3    O1 9966   4.104   2.793   0.463  0.1622 -0.2271 -0.5237
  673TMC3    O2 9967   3.914   2.289   0.661  0.6599 -0.3027 -0.1296
  674MPD2     C 9968   3.838   2.904   0.248  0.5458 -0.1088  0.2793
  674MPD2    C1 9969   3.768   2.786   0.259 -0.0962 -0.7922  0.0762
  674MPD2    C2 9970   3.700   2.763   0.374  0.5782  0.0966  0.4344
  674MPD2    C3 9971   3.682   2.866   0.464  0.2045  0.8149  0.7154
  674MPD2    C4 9972   3.744   2.987   0.447 -0.3192  0.3380  0.4956
  674MPD2    C5 9973   3.827   2.999   0.339  0.4194  0.2360  0.6965
  674MPD2     H 9974   3.660   2.664   0.394 -0.2836  0.1981 -0.7724
  674MPD2    H1 9975   3.734   3.072   0.514 -0.1125  0.7264  0.0388
  674MPD2    H2 9976   3.889   2.924   0.155  0.4916 -0.3867  0.1902
  674MPD2    H3 9977   3.886   3.088   0.320 -1.7983  1.3846 -0.8712
  674MPD2     N 9978   3.568   2.851   0.556  0.2378 -0.0427  0.1960
  674MPD2    H5 9979   3.514   2.767   0.536  0.5249 -0.7614  2.4160
  674MPD2    N1 9980   3.763   2.701   0.141  0.4043  0.1981  1.0431
  674MPD2    H7 9981   3.787   2.747   0.053  0.0945  0.3887  1.0595
  675TMC3    C1 9982   3.646   2.562  17.690  0.2182  0.3382  0.1659
  675TMC3    C2 9983   3.508   2.567  17.686 -0.2099  0.5113 -0.2053
  675TMC3    C3 9984   3.439   2.499  17.589 -0.1028 -0.4348 -0.1902
  675TMC3    C4 9985   3.717   2.500  17.589 -0.3135  1.1333  0.1479
  675TMC3    C5 9986   3.647   2.432  17.498 -0.2620  0.4537 -0.0436
  675TMC3    C6 9987   3.511   2.424  17.492 -1.0168 -0.3449 -0.5166
  675TMC3     C 9988   3.703   2.575   0.129 -0.3941  0.6734  0.0084
  675TMC3     O 9989   3.651   2.509   0.216 -0.2858  0.1866  0.1238
  675TMC3     H 9990   3.467   2.613   0.085  1.4816  1.3064  0.1536
  675TMC3    H1 9991   3.825   2.490  17.591 -0.5120 -1.9307 -3.3879
  675TMC3    H2 9992   3.467   2.363  17.414  1.4922  0.7163 -2.7664
  675TMC3    C7 9993   3.719   2.360  17.392  0.2806 -0.7123 -1.1632
  675TMC3    C8 9994   3.304   2.451  17.627 -0.1015 -0.5253  0.7727
  675TMC3    O1 9995   3.697   2.366  17.270 -0.6321  0.4452  1.3450
  675TMC3    O2 9996   3.220   2.436  17.539 -0.3649 -0.1243  0.3672
  676MPD2     C 9997   1.478   1.538  10.945 -0.1344  0.2875 -0.1144
  676MPD2    C1 9998   1.434   1.530  11.075  0.1050  0.0029  0.1198
  676MPD2    C2 9999   1.446   1.406  11.142  0.3872  0.1157 -0.1709
  676MPD2    C310000   1.467   1.293  11.071 -0.3413 -0.3953  0.4315
  676MPD2    C410001   1.497   1.302  10.935  0.9803 -0.2847 -0.2059
  676MPD2    C510002   1.507   1.421  10.874  1.0186  0.2058  0.9786
  676MPD2     H10003   1.436   1.412  11.250 -0.5882 -0.8808 -0.2064
  676MPD2    H110004   1.525   1.213  10.881  1.6699 -1.0422  1.3843
  676MPD2    H210005   1.496   1.633  10.896 -2.1972  1.0060  0.5362
  676MPD2    H310006   1.537   1.428  10.770  0.8588 -2.4799  0.7675
  676MPD2     N10007   1.454   1.166  11.129  0.6118 -0.6313  0.1443
  676MPD2    H510008   1.467   1.088  11.066 -2.4425 -0.5871 -0.5166
  676MPD2    N110009   1.389   1.643  11.152 -0.0613  0.2839 -0.1169
  676MPD2    H710010   1.347   1.624  11.243  0.9242  2.0268  0.6932
  677TMC3    C110011   1.343   1.857  11.220 -0.1522 -0.2038 -0.2374
  677TMC3    C210012   1.303   1.810  11.340  1.2619  0.6025  0.0963
  677TMC3    C310013   1.262   1.895  11.438 -0.1417 -0.6373 -0.6744
  677TMC3    C410014   1.336   1.998  11.201  0.8746 -0.0056  0.4977
  677TMC3    C510015   1.267   2.082  11.290 -0.1013 -0.7122 -0.9823
  677TMC3    C610016   1.241   2.034  11.413  0.6211  0.0695  0.1788
  677TMC3     C10017   1.387   1.774  11.113  0.2051 -0.1638  0.2877
  677TMC3     O10018   1.435   1.831  11.017  0.1046  0.1311  0.5236
  677TMC3     H10019   1.301   1.705  11.367 -1.8680  0.1210 -2.0360
  677TMC3    H110020   1.366   2.038  11.105  0.4177  1.4000  0.9399
  677TMC3    H210021   1.225   2.092  11.504  2.2069  0.6781  0.0601
  677TMC3    C710022   1.289   2.224  11.288  0.5842 -0.3743 -0.2183
  677TMC3    C810023   1.277   1.844  11.576  0.1665  0.3598  0.0799
  677TMC3    O110024   1.191   2.280  11.339  0.9245  0.0280  0.2425
  677TMC3    O210025   1.356   1.749  11.580 -0.1459 -0.2259  0.0080
  678MPD2     C10026   2.988   1.702   1.725 -0.2795 -0.0499 -0.0708
  678MPD2    C110027   2.985   1.706   1.586  0.1425  0.4336 -0.5157
  678MPD2    C210028   2.868   1.677   1.521  0.4739  0.3339 -0.8130
  678MPD2    C310029   2.746   1.661   1.591  0.5130  0.0207  0.5221
  678MPD2    C410030   2.742   1.685   1.724 -0.4860 -0.3989 -0.2678
  678MPD2    C510031   2.864   1.689   1.791 -0.9610 -0.7379 -0.0406
  678MPD2     H10032   2.865   1.675   1.412  1.1452 -0.4085 -0.8217
  678MPD2    H110033   2.644   1.676   1.770 -0.3990  0.0516  0.0094
  678MPD2    H210034   3.077   1.716   1.785 -0.6567  0.1198  0.4478
  678MPD2    H310035   2.864   1.693   1.899 -0.1365 -2.7491  0.0391
  678MPD2     N10036   2.628   1.636   1.523  0.6828  0.6584  0.3424
  678MPD2    H510037   2.645   1.610   1.426  0.6352  0.6050  0.3483
  678MPD2    N110038   3.100   1.746   1.508  0.1407 -0.1993  0.6898
  678MPD2    H710039   3.094   1.737   1.407 -0.3293  0.7067  0.6385
  679TMC3    C110040   3.534   1.764   1.358  0.2302  0.4629  0.2442
  679TMC3    C210041   3.456   1.755   1.469  0.0261 -0.4174  0.1044
  679TMC3    C310042   3.326   1.800   1.456 -0.4459 -0.5899 -0.6989
  679TMC3    C410043   3.489   1.818   1.243 -1.2983  0.4810 -0.0864
  679TMC3    C510044   3.366   1.875   1.241  0.1562  0.3462 -0.1176
  679TMC3    C610045   3.276   1.862   1.342  0.2395  0.5307 -0.4979
  679TMC3     C10046   3.669   1.703   1.360 -1.0663  0.3744 -0.0094
  679TMC3     O10047   3.720   1.715   1.467  0.5453  0.4355 -0.0585
  679TMC3     H10048   3.487   1.697   1.555  2.0272 -0.4864 -0.6754
  679TMC3    H110049   3.556   1.833   1.159  0.0381 -0.1601  0.8660
  679TMC3    H210050   3.178   1.907   1.351  0.7231  1.3336  0.7259
  679TMC3    C710051   3.300   1.914   1.111 -0.0356  0.6178 -0.4549
  679TMC3    C810052   3.230   1.771   1.556 -0.6414 -0.3569 -0.5993
  679TMC3    O110053   3.213   2.000   1.106 -0.1885  0.1063 -0.0840
  679TMC3    O210054   3.274   1.753   1.666 -0.0075 -0.1247  0.1252
  680MPD2     C10055   4.419   0.393  13.487 -0.3826 -0.0356 -0.4521
  680MPD2    C110056   4.349   0.348  13.594  0.4578 -0.5952  0.2463
  680MPD2    C210057   4.337   0.424  13.709  0.0376 -0.5220 -0.1046
  680MPD2    C310058   4.377   0.551  13.695  0.6182  0.1673  0.0089
  680MPD2    C410059   4.421   0.602  13.577  0.3557  0.0110  0.2668
  680MPD2    C510060   4.444   0.521  13.472  0.0965  0.1917 -0.6661
  680MPD2     H10061   4.302   0.384  13.803 -1.1317  0.8659  0.0627
  680MPD2    H110062   4.448   0.707  13.573 -0.0907  0.1951  2.0895
  680MPD2    H210063   4.455   0.322  13.413  2.3913  0.2135  0.6652
  680MPD2    H310064   4.485   0.554  13.377 -1.2692 -0.6849 -1.5682
  680MPD2     N10065   4.343   0.646  13.796  0.0670 -0.0351  0.3172
  680MPD2    H510066   4.351   0.747  13.787  1.5632 -0.2637 -0.9781
  680MPD2    N110067   4.293   0.218  13.590  0.6898 -0.8989  0.6498
  680MPD2    H710068   4.255   0.182  13.676 -1.8716  0.5452  0.1254
  681TMC3    C110069   4.199   0.036  13.488 -0.5995  0.1811 -0.6284
  681TMC3    C210070   4.116   0.022  13.595 -0.3312  0.4618 -0.4051
  681TMC3    C310071   4.057   4.623  13.618  0.3502  0.1576 -0.5097
  681TMC3    C410072   4.215   4.656  13.397  0.2435  0.0493  0.7623
  681TMC3    C510073   4.166   4.536  13.426  0.3470 -0.4052 -0.0925
  681TMC3    C610074   4.076   4.517  13.529 -0.3595  0.3934  0.2655
  681TMC3     C10075   4.264   0.163  13.472 -0.1689 -0.1842  0.3868
  681TMC3     O10076   4.279   0.195  13.357 -0.2948 -0.2336 -0.1326
  681TMC3     H10077   4.082   0.110  13.647 -0.7000 -0.1306  0.3585
  681TMC3    H110078   4.282   4.673  13.313  0.5855 -0.1360  0.9986
  681TMC3    H210079   4.046   4.414  13.542  0.0345  0.1960 -0.3764
  681TMC3    C710080   4.260   4.429  13.410 -0.4909  0.2421  0.3077
  681TMC3    C810081   3.955   4.589  13.713 -0.2171 -0.0933 -0.0131
  681TMC3    O110082   4.262   4.351  13.504 -0.0682  0.0160 -0.0458
  681TMC3    O210083   3.898   4.483  13.701  0.3955  0.3114 -0.3418
  682MPD2     C10084   0.675   1.536  10.877  0.5282 -0.3014 -0.5440
  682MPD2    C110085   0.635   1.407  10.916 -0.6524 -0.0483 -0.1817
  682MPD2    C210086   0.541   1.388  11.017 -0.0622 -0.0244  0.4771
  682MPD2    C310087   0.492   1.502  11.080 -0.7608 -0.6001  0.8204
  682MPD2    C410088   0.537   1.623  11.047  0.3473  0.7363  0.4566
  682MPD2    C510089   0.624   1.646  10.945  0.1216  0.0119  0.1647
  682MPD2     H10090   0.519   1.287  11.050  1.1280 -0.9530 -1.6312
  682MPD2    H110091   0.493   1.700  11.110 -1.4530  0.3671 -0.3575
  682MPD2    H210092   0.740   1.563  10.795 -0.4287  1.7070 -0.6274
  682MPD2    H310093   0.660   1.747  10.931 -0.3999  0.0501 -0.8892
  682MPD2     N10094   0.408   1.500  11.190 -0.4343  0.3565  0.4136
  682MPD2    H510095   0.400   1.593  11.230  1.2896  1.3189 -1.4580
  682MPD2    N110096   0.679   1.291  10.856 -0.6911  0.5309 -0.6768
  682MPD2    H710097   0.650   1.204  10.900  0.1293  0.7703  0.3359
  683TMC3    C110098   0.380   1.416  11.594  0.8514  0.0183 -0.6521
  683TMC3    C210099   0.258   1.372  11.645  0.0213  0.5501  0.7970
  683TMC3    C310100   0.155   1.361  11.553  0.7598 -0.1884 -0.2995
  683TMC3    C410101   0.403   1.428  11.466  0.5006  0.3393  1.1529
  683TMC3    C510102   0.304   1.405  11.383 -0.8118 -0.2351 -0.0491
  683TMC3    C610103   0.183   1.361  11.420  0.7153 -0.2203  0.0295
  683TMC3     C10104   0.480   1.469  11.681  0.0385 -0.5005  0.5717
  683TMC3     O10105   0.434   1.529  11.780 -0.0378 -0.2117 -0.2684
  683TMC3     H10106   0.249   1.375  11.753 -0.0700 -1.5564  0.8414
  683TMC3    H110107   0.496   1.468  11.428  0.2044 -2.3791 -2.5571
  683TMC3    H210108   0.105   1.334  11.350  1.2250  0.2830 -0.7383
  683TMC3    C710109   0.346   1.386  11.245 -0.6615  0.4517 -0.0671
  683TMC3    C810110   0.030   1.309  11.597  0.3359 -0.7577  0.3754
  683TMC3    O110111   0.323   1.278  11.193 -0.5319 -0.3046 -0.6353
  683TMC3    O210112   4.659   1.309  11.515  0.4938 -0.4497  0.1677
  684MPD2     C10113   4.406   0.940  16.024 -0.4188 -0.0336 -0.7436
  684MPD2    C110114   4.290   0.924  15.953  0.8021  0.3277  0.8674
  684MPD2    C210115   4.181   0.996  15.997 -0.1152  0.4115 -0.0266
  684MPD2    C310116   4.185   1.075  16.106 -0.1451 -0.0184 -0.8097
  684MPD2    C410117   4.300   1.089  16.180  0.4417 -0.0869  0.2165
  684MPD2    C510118   4.413   1.025  16.134 -0.5965  0.7140  0.2907
  684MPD2     H10119   4.087   0.983  15.946  0.8336 -1.0740 -1.3813
  684MPD2    H110120   4.301   1.136  16.277  0.9251  0.4892 -0.0683
  684MPD2    H210121   4.498   0.889  15.998  1.5885  2.9078  0.6945
  684MPD2    H310122   4.500   1.035  16.198  0.0071  0.2078 -0.4555
  684MPD2     N10123   4.074   1.149  16.153  0.7868  0.2643 -0.1251
  684MPD2    H510124   4.084   1.189  16.246 -1.4889  2.6847 -0.9115
  684MPD2    N110125   4.284   0.834  15.845  0.3149  0.1226 -0.3664
  684MPD2    H710126   4.196   0.830  15.794  0.0741 -0.3457  0.0826
  685TMC3    C110127   4.324   0.670  15.688 -0.3642  0.3049 -0.2137
  685TMC3    C210128   4.189   0.673  15.652 -0.1214 -0.2719  0.2040
  685TMC3    C310129   4.139   0.575  15.575 -0.0607  0.5538 -0.1903
  685TMC3    C410130   4.401   0.567  15.646  1.1887  0.8888  0.9723
  685TMC3    C510131   4.345   0.465  15.566 -0.0698  0.4652 -0.0874
  685TMC3    C610132   4.211   0.470  15.531 -0.5042 -0.8985 -0.0403
  685TMC3     C10133   4.377   0.744  15.797  0.2565 -0.1290 -0.0406
  685TMC3     O10134   4.494   0.727  15.830  0.0767 -0.4898 -0.3167
  685TMC3     H10135   4.130   0.755  15.691  0.3333 -0.1706  0.6785
  685TMC3    H110136   4.506   0.573  15.672  1.2376  1.0616  0.7312
  685TMC3    H210137   4.164   0.383  15.486 -1.0228 -1.3893  1.4369
  685TMC3    C710138   4.342   0.335  15.638 -0.6415 -0.2348  0.0345
  685TMC3    C810139   4.003   0.559  15.553 -0.6169 -0.7684 -0.6725
  685TMC3    O110140   4.335   0.231  15.571 -0.0425 -0.2037 -0.6898
  685TMC3    O210141   3.976   0.494  15.449  0.0799  0.3148 -0.0468
  686MPD2     C10142   0.243   0.877  15.418  0.2117  0.7581  0.3963
  686MPD2    C110143   0.285   0.761  15.476 -0.1967 -0.0459  0.6102
  686MPD2    C210144   0.382   0.683  15.411  0.3640 -0.2082 -0.2808
  686MPD2    C310145   0.433   0.722  15.290  0.3299  0.1745  0.4230
  686MPD2    C410146   0.400   0.848  15.239  0.2295 -0.2250 -0.4170
  686MPD2    C510147   0.300   0.921  15.301  0.6486 -0.0345  0.5063
  686MPD2     H10148   0.407   0.585  15.450 -0.8032  0.3291  1.7861
  686MPD2    H110149   0.439   0.887  15.146 -0.7182 -0.7387 -1.0396
  686MPD2    H210150   0.159   0.933  15.458 -1.2404 -0.5401 -0.8656
  686MPD2    H310151   0.261   1.005  15.246  0.2800 -0.6788 -0.2200
  686MPD2     N10152   0.543   0.663  15.228  0.9611  0.4140  0.6571
  686MPD2    H510153   0.599   0.731  15.176  1.0032  0.8517  1.2757
  686MPD2    N110154   0.213   0.719  15.590  0.5736 -0.3889 -0.0218
  686MPD2    H710155   0.126   0.763  15.617  0.0868 -0.6050 -1.2282
  687TMC3    C110156   0.474   0.429  15.241  0.8771 -0.2413 -1.0533
  687TMC3    C210157   0.353   0.452  15.176 -0.0095  0.4481 -0.2014
  687TMC3    C310158   0.254   0.352  15.186 -0.0790  0.1372  1.0293
  687TMC3    C410159   0.507   0.315  15.321 -0.3969  0.4972 -0.4429
  687TMC3    C510160   0.405   0.234  15.340 -0.5701 -0.3208 -0.1341
  687TMC3    C610161   0.284   0.243  15.264  0.3670  0.0464  0.3521
  687TMC3     C10162   0.579   0.530  15.237  0.1177  0.2567 -0.3582
  687TMC3     O10163   0.687   0.485  15.204 -0.4420  0.2739  0.1738
  687TMC3     H10164   0.330   0.543  15.122  0.9111  0.2999 -0.8549
  687TMC3    H110165   0.606   0.294  15.359 -0.6219  2.1632  1.1163
  687TMC3    H210166   0.208   0.169  15.288  0.3658 -0.0863 -0.0583
  687TMC3    C710167   0.379   0.204  15.482  0.0406  0.1519 -0.4631
  687TMC3    C810168   0.112   0.396  15.210 -0.3099 -0.4557  0.0898
  687TMC3    O110169   0.274   0.148  15.501 -0.1258  0.0993  0.1979
  687TMC3    O210170   0.045   0.337  15.292 -0.3448  0.5450 -0.1643
  688MPD2     C10171   4.373   4.207  17.498  0.5018  0.0365  0.1259
  688MPD2    C110172   4.388   4.073  17.513 -0.2505 -0.1885 -1.1534
  688MPD2    C210173   4.493   4.016  17.446 -0.0982 -0.4354  0.3338
  688MPD2    C310174   4.576   4.091  17.363  0.3546 -0.5396 -0.6057
  688MPD2    C410175   4.555   4.225  17.352  0.1024 -0.3777 -0.1659
  688MPD2    C510176   4.457   4.283  17.422  1.0522  0.1297 -0.0635
  688MPD2     H10177   4.503   3.911  17.471 -0.2141 -0.2585  1.1453
  688MPD2    H110178   4.615   4.294  17.294  2.6728 -1.7768  0.8475
  688MPD2    H210179   4.297   4.263  17.551 -2.1557 -0.7203 -2.8894
  688MPD2    H310180   4.445   4.390  17.415 -5.3875 -0.5269  0.7878
  688MPD2     N10181   4.667   4.029  17.275  0.2215 -0.0241  0.0510
  688MPD2    H510182   4.707   4.094  17.207  0.9844 -1.6172 -1.0304
  688MPD2    N110183   4.298   3.990  17.591  1.0220  0.4952  0.3114
  688MPD2    H710184   4.322   3.893  17.612 -0.8178  0.3651  1.7882
  689TMC3    C110185   4.165   3.969   0.086 -0.4246  0.4092  0.2328
  689TMC3    C210186   4.148   4.043   0.201 -0.5013  0.2907 -0.4690
  689TMC3    C310187   4.105   3.972   0.304  0.6458 -0.0437 -0.2935
  689TMC3    C410188   4.156   3.832   0.080 -0.0476  0.6915 -0.2609
  689TMC3    C510189   4.087   3.779   0.184  0.2168  0.0217 -0.6647
  689TMC3    C610190   4.065   3.843   0.302 -0.0756 -0.2273 -0.1970
  689TMC3     C10191   4.187   4.040  17.656 -0.2892 -0.7974 -0.3937
  689TMC3     O10192   4.128   4.149  17.651 -0.3061 -0.9043  0.5517
  689TMC3     H10193   4.165   4.150   0.197  0.1263  0.2362  0.9485
  689TMC3    H110194   4.177   3.772  17.682  0.6606 -0.3532  0.6130
  689TMC3    H210195   4.028   3.793   0.391 -1.5267 -0.1125 -0.7329
  689TMC3    C710196   4.035   3.643   0.176  0.1002  0.2740  0.1657
  689TMC3    C810197   4.056   4.049   0.422 -0.5632  0.6958  0.4528
  689TMC3    O110198   4.038   3.584   0.284 -0.2367  0.3288 -0.5090
  689TMC3    O210199   4.015   3.984   0.522  0.2298 -0.1978 -0.6302
  690MPD2     C10200   1.885   1.448  15.426 -0.4791  0.1304  0.3408
  690MPD2    C110201   1.819   1.423  15.308  0.0285 -0.2699 -1.1976
  690MPD2    C210202   1.881   1.463  15.189  0.3663  0.2928  0.3374
  690MPD2    C310203   2.004   1.527  15.179 -0.1002 -0.5540  0.2327
  690MPD2    C410204   2.072   1.547  15.296 -0.1258  0.3616  0.0585
  690MPD2    C510205   2.013   1.508  15.417  0.4666  0.7079  0.5748
  690MPD2     H10206   1.819   1.445  15.102 -0.3219  0.9494  0.6858
  690MPD2    H110207   2.173   1.583  15.307 -0.5260  1.9779 -1.6418
  690MPD2    H210208   1.846   1.411  15.520  1.2166 -2.0550  0.1673
  690MPD2    H310209   2.077   1.509  15.505 -1.0140 -0.1152  1.6683
  690MPD2     N10210   2.056   1.557  15.054  0.2286 -0.4864 -0.0496
  690MPD2    H510211   2.002   1.539  14.970 -0.7247  1.2104  0.1963
  690MPD2    N110212   1.691   1.361  15.301  0.4836  0.1048 -0.3627
  690MPD2    H710213   1.662   1.349  15.204 -0.9761  1.6830 -0.1300
  691TMC3    C110214   1.514   1.228  15.366  0.1679  0.3548 -1.5489
  691TMC3    C210215   1.414   1.225  15.455  0.7061 -0.1164 -0.4121
  691TMC3    C310216   1.354   1.102  15.468  0.5316 -0.0996  0.6456
  691TMC3    C410217   1.543   1.125  15.275 -0.3104 -0.5946 -0.1443
  691TMC3    C510218   1.460   1.013  15.280 -0.0612  0.8445  0.0594
  691TMC3    C610219   1.375   0.992  15.389 -0.5234 -0.3384  0.6131
  691TMC3     C10220   1.624   1.311  15.412  0.1687  0.1792 -1.0519
  691TMC3     O10221   1.623   1.354  15.531 -0.5442 -1.1369  0.1055
  691TMC3     H10222   1.402   1.306  15.526  0.2685 -0.1193 -0.4848
  691TMC3    H110223   1.617   1.130  15.195  0.9671  0.2453  1.0817
  691TMC3    H210224   1.335   0.892  15.405  2.7029 -1.7480 -0.0601
  691TMC3    C710225   1.494   0.896  15.202 -0.0261 -0.2089 -0.4614
  691TMC3    C810226   1.238   1.104  15.559 -0.4667 -0.2207  0.8180
  691TMC3    O110227   1.601   0.896  15.145 -0.1633 -0.0566 -0.5727
  691TMC3    O210228   1.196   1.214  15.589 -0.6715 -0.1575 -0.5213
  692TMC3    C110229   3.264   2.383  15.758  0.2141 -0.3707  0.1364
  692TMC3    C210230   3.384   2.441  15.789  0.0999 -0.4947 -0.4226
  692TMC3    C310231   3.494   2.355  15.825  0.1183  0.0804 -0.2136
  692TMC3    C410232   3.249   2.249  15.735  0.6059  0.3336  0.0730
  692TMC3    C510233   3.352   2.166  15.770 -0.4586 -0.4749 -0.3987
  692TMC3    C610234   3.468   2.218  15.826  0.2193  0.2478 -0.5227
  692TMC3     C10235   3.148   2.472  15.745  0.7490  0.1606  0.1203
  692TMC3     O10236   3.034   2.421  15.728 -0.3465  0.1915  0.1263
  692TMC3     H10237   3.384   2.544  15.824  0.7455 -0.3409 -0.8807
  692TMC3    H110238   3.156   2.203  15.701 -0.5010  2.1239  0.7119
  692TMC3    H210239   3.556   2.155  15.837  0.0088  0.0750  0.1816
  692TMC3    C710240   3.340   2.027  15.745  0.1563 -0.3091  0.8210
  692TMC3    C810241   3.575   2.396  15.939 -0.1390  0.0585 -0.2696
  692TMC3    O110242   3.259   2.001  15.655  0.0114  0.7699  0.9118
  692TMC3    O210243   3.617   2.305  16.012 -0.3605  0.1694 -0.4752
  693MPD2     C10244   2.929   0.351  11.326 -0.2989  1.6246  0.0236
  693MPD2    C110245   2.920   0.249  11.233  0.1609 -0.0569 -0.0569
  693MPD2    C210246   3.032   0.201  11.171 -0.1527 -0.3139  0.7009
  693MPD2    C310247   3.158   0.238  11.216  0.1447 -1.0586  1.3051
  693MPD2    C410248   3.158   0.329  11.316  0.2074  0.2367 -0.3926
  693MPD2    C510249   3.051   0.388  11.365 -0.6598  0.1750 -0.2180
  693MPD2     H10250   3.015   0.130  11.090  1.0185  0.5710 -0.3172
  693MPD2    H110251   3.250   0.362  11.363  1.7213 -2.1431 -1.6464
  693MPD2    H210252   2.839   0.389  11.372 -1.2839  0.2744 -0.7588
  693MPD2    H310253   3.073   0.454  11.449 -3.2530  0.4689  0.2375
  693MPD2     N10254   3.279   0.189  11.173 -0.4396  0.1716  0.4565
  693MPD2    H510255   3.361   0.223  11.223  0.9139 -1.4663 -0.6440
  693MPD2    N110256   2.788   0.203  11.210  0.2889  0.3865  0.0884
  693MPD2    H710257   2.722   0.223  11.284 -0.3772  0.7199 -0.5904
  694TMC3    C110258   2.609   0.065  11.136  0.3074  0.7400  0.2468
  694TMC3    C210259   2.549   0.019  11.028 -0.0888 -0.1656 -0.3519
  694TMC3    C310260   2.444   4.658  11.040 -0.0175 -0.4306  0.1495
  694TMC3    C410261   2.565   0.041  11.267  0.5874  0.4859 -1.3329
  694TMC3    C510262   2.470   4.667  11.270 -1.1391  0.2673 -0.1755
  694TMC3    C610263   2.407   4.606  11.162  0.5214  0.5948  0.2432
  694TMC3     C10264   2.748   0.107  11.117 -0.1905 -0.2232  0.2237
  694TMC3     O10265   2.787   0.108  11.002 -0.6059  0.0637 -0.2199
  694TMC3     H10266   2.584   0.043  10.929  0.1697 -1.0299 -0.4693
  694TMC3    H110267   2.618   0.079  11.355  0.2812  1.0625 -1.3986
  694TMC3    H210268   2.319   4.545  11.178  0.7187  0.7564  2.0051
  694TMC3    C710269   2.455   4.611  11.404  0.2729 -0.3932 -0.5157
  694TMC3    C810270   2.361   4.615  10.931 -0.3277 -0.4133  0.0193
  694TMC3    O110271   2.537   4.651  11.483  0.0379  0.4098  0.5749
  694TMC3    O210272   2.290   4.520  10.952 -0.0816 -1.0154  0.3348
  695MPD2     C10273   3.830   1.764  13.809 -0.6945 -0.3304  0.5271
  695MPD2    C110274   3.805   1.887  13.861 -0.0416 -0.0714 -0.0132
  695MPD2    C210275   3.674   1.934  13.879 -0.1617  0.4086 -0.2253
  695MPD2    C310276   3.573   1.842  13.840  1.0622  0.1666  0.4496
  695MPD2    C410277   3.603   1.727  13.778 -0.3173  0.1495  0.0620
  695MPD2    C510278   3.726   1.679  13.776 -0.6598 -0.0317 -0.3995
  695MPD2     H10279   3.640   2.021  13.934  0.3576 -0.0739  0.8703
  695MPD2    H110280   3.520   1.680  13.727  1.1037 -0.3262 -1.8421
  695MPD2    H210281   3.930   1.724  13.805 -0.4723  0.5358 -2.2943
  695MPD2    H310282   3.752   1.575  13.757  0.8113  0.7649 -2.8189
  695MPD2     N10283   3.435   1.884  13.863 -0.3225 -0.2965 -0.3658
  695MPD2    H510284   3.416   1.979  13.891  1.8795  0.0597 -0.1155
  695MPD2    N110285   3.902   1.984  13.906 -0.2191  0.1874  0.3039
  695MPD2    H710286   3.869   2.080  13.909  1.7421  0.8671 -0.0383
  696TMC3    C110287   3.213   1.880  13.912  0.1160  0.7456 -0.4184
  696TMC3    C210288   3.253   1.961  14.018 -0.7323 -0.4080 -0.1837
  696TMC3    C310289   3.162   2.042  14.073 -0.3104 -0.0586  0.2531
  696TMC3    C410290   3.097   1.895  13.849  0.2131 -0.3224 -0.2180
  696TMC3    C510291   3.004   1.981  13.907  0.6883 -0.0227 -0.5279
  696TMC3    C610292   3.029   2.051  14.022 -0.7081 -1.0188  0.2861
  696TMC3     C10293   3.324   1.808  13.841  0.0718 -0.3581 -0.7067
  696TMC3     O10294   3.302   1.708  13.774  0.3267  0.1144 -0.1382
  696TMC3     H10295   3.347   1.947  14.070 -0.4882  0.9906 -0.2469
  696TMC3    H110296   3.087   1.855  13.749 -1.8400 -2.8862  1.0084
  696TMC3    H210297   2.956   2.113  14.072  0.5439  0.5330  0.1882
  696TMC3    C710298   2.920   2.063  13.816  0.9471 -0.1870  0.2759
  696TMC3    C810299   3.211   2.180  14.100  0.0333 -0.2612 -0.4718
  696TMC3    O110300   2.853   2.009  13.728 -0.4128  0.3096 -0.4860
  696TMC3    O210301   3.133   2.264  14.058 -0.0374  0.1319  0.3903
  697MPD2     C10302   3.403   3.958  15.563 -0.4412  0.4465 -0.0478
  697MPD2    C110303   3.325   3.931  15.445  0.2372  0.4316 -0.8765
  697MPD2    C210304   3.317   4.032  15.353 -0.2641  0.1522  0.5187
  697MPD2    C310305   3.363   4.160  15.373  0.6315  0.5481 -0.1007
  697MPD2    C410306   3.430   4.190  15.490 -0.2036  0.1227  0.6839
  697MPD2    C510307   3.456   4.087  15.580  0.0040  0.4943  0.5890
  697MPD2     H10308   3.266   4.009  15.260  1.8059 -1.7413 -0.1501
  697MPD2    H110309   3.476   4.286  15.513  0.6039  0.3158 -1.7709
  697MPD2    H210310   3.433   3.886  15.638  0.4616  0.2099 -0.6382
  697MPD2    H310311   3.516   4.109  15.668 -0.1505 -2.1740  1.3577
  697MPD2     N10312   3.327   4.262  15.274 -0.3639 -0.3781 -0.4888
  697MPD2    H510313   3.278   4.231  15.191 -2.1288  0.5171  0.2203
  697MPD2    N110314   3.277   3.804  15.416 -0.1303 -0.3631 -0.3270
  697MPD2    H710315   3.237   3.799  15.323 -0.4343  0.6149 -0.2454
  698TMC3    C110316   3.314   4.460  15.162  0.5910  0.1336  0.1596
  698TMC3    C210317   3.313   4.595  15.174 -0.3163 -0.4705  0.2269
  698TMC3    C310318   3.235   4.671  15.088  0.1006 -0.5215 -0.5273
  698TMC3    C410319   3.227   4.402  15.071  0.0829  0.0186 -0.1872
  698TMC3    C510320   3.154   4.478  14.979 -0.2465  0.4005 -0.1715
  698TMC3    C610321   3.161   4.619  14.984  0.5617 -0.0617  1.2230
  698TMC3     C10322   3.366   4.390  15.284 -0.2939 -0.4508  0.2033
  698TMC3     O10323   3.389   4.458  15.382 -0.2318  0.7918 -0.4054
  698TMC3     H10324   3.378   4.644  15.245 -0.1370 -1.2255  0.5787
  698TMC3    H110325   3.231   4.296  15.047  1.1682  0.1695 -0.7009
  698TMC3    H210326   3.092   4.682  14.930  0.1003 -0.1157  1.7493
  698TMC3    C710327   3.084   4.413  14.872 -0.1710 -0.2422 -0.5679
  698TMC3    C810328   3.227   0.088  15.097 -0.4939 -0.8281  0.2061
  698TMC3    O110329   3.067   4.484  14.776 -0.8075  0.2048 -0.0706
  698TMC3    O210330   3.120   0.138  15.068  0.3729  0.0282 -0.6204
  699TMC3    C110331   3.044   2.185  12.793  0.4540  0.4661  0.2396
  699TMC3    C210332   3.034   2.055  12.840 -0.0268 -0.1887 -0.2277
  699TMC3    C310333   2.949   2.029  12.945  0.0314  0.0725  0.3941
  699TMC3    C410334   2.975   2.290  12.852  0.1916  0.2464  0.2334
  699TMC3    C510335   2.904   2.263  12.966 -0.7086 -0.5782 -0.5889
  699TMC3    C610336   2.884   2.131  13.011 -0.1508 -0.1843 -0.3518
  699TMC3     C10337   3.140   2.210  12.684 -0.0386 -0.2674 -0.3190
  699TMC3     O10338   3.227   2.124  12.683  0.0875  0.0665 -0.0568
  699TMC3     H10339   3.101   1.983  12.792 -0.2831 -0.8628  0.4173
  699TMC3    H110340   2.979   2.394  12.823  1.4316  0.1741  0.1086
  699TMC3    H210341   2.808   2.105  13.083  0.5959 -0.5459  0.3033
  699TMC3    C710342   2.809   2.361  12.993 -0.0086 -0.0095 -0.3918
  699TMC3    C810343   2.936   1.892  13.000  0.0737 -0.5366 -0.5189
  699TMC3    O110344   2.802   2.458  12.922 -0.3444 -0.6304  0.1983
  699TMC3    O210345   2.843   1.878  13.076 -0.4398 -0.1881 -0.5158
  700TMC3    C110346   2.111   4.445  16.998  0.9017  0.1510  0.4192
  700TMC3    C210347   2.208   4.348  16.992 -0.3022  0.0267 -1.2262
  700TMC3    C310348   2.232   4.264  17.091  0.1670  0.9265 -0.2173
  700TMC3    C410349   2.031   4.456  17.109 -0.0067 -0.1399  0.3352
  700TMC3    C510350   2.066   4.369  17.210 -0.4346 -0.7323  0.5966
  700TMC3    C610351   2.157   4.264  17.207  0.2378 -0.2649 -0.2614
  700TMC3     C10352   2.136   4.567  16.920  0.3610  0.0250  0.1584
  700TMC3     O10353   2.036   4.636  16.899  0.3584  0.0772  0.3844
  700TMC3     H10354   2.251   4.324  16.895 -1.0840 -1.0696 -1.2914
  700TMC3    H110355   1.947   4.523  17.124 -0.9060 -0.4720 -3.4141
  700TMC3    H210356   2.192   4.221  17.300 -0.8128  1.0067  0.7259
  700TMC3    C710357   2.092   4.447  17.331 -0.1888  0.5221 -0.7198
  700TMC3    C810358   2.335   4.159  17.073  0.2753  0.6704  0.5704
  700TMC3    O110359   2.208   4.441  17.375 -0.0637 -0.1920 -0.3739
  700TMC3    O210360   2.417   4.173  16.984  0.2157 -0.2385 -0.0170
  701TMC3    C110361   2.274   3.318  15.652 -0.3291 -0.6503 -0.1046
  701TMC3    C210362   2.274   3.243  15.537  0.4031  0.1092 -0.2532
  701TMC3    C310363   2.369   3.270  15.442 -0.7739 -0.2639 -0.1024
  701TMC3    C410364   2.364   3.414  15.675  0.0109  0.0376  0.2744
  701TMC3    C510365   2.458   3.434  15.577  0.1524 -0.1306 -0.0558
  701TMC3    C610366   2.462   3.367  15.463 -0.6900  0.4221 -0.0981
  701TMC3     C10367   2.167   3.307  15.746 -0.8482  0.4122 -0.6009
  701TMC3     O10368   2.139   3.192  15.781 -0.8268 -0.2029  0.0043
  701TMC3     H10369   2.217   3.151  15.529  0.8047  0.0546 -2.3373
  701TMC3    H110370   2.364   3.468  15.769  0.7045  2.2942 -1.0259
  701TMC3    H210371   2.540   3.392  15.393 -0.4982  0.3695  0.0959
  701TMC3    C710372   2.556   3.541  15.595 -0.2153 -0.2291  0.3463
  701TMC3    C810373   2.390   3.178  15.336 -0.1895  0.5073  0.5476
  701TMC3    O110374   2.606   3.588  15.494 -0.1463 -0.2177  0.4344
  701TMC3    O210375   2.504   3.188  15.294 -0.3628 -0.2424 -0.4448
  702MPD2     C10376   1.887   0.607  11.090 -0.4763 -0.0684 -0.3980
  702MPD2    C110377   1.826   0.721  11.038 -0.9360 -0.0518  0.9352
  702MPD2    C210378   1.864   0.786  10.922  0.6116  0.6522 -0.1262
  702MPD2    C310379   1.963   0.723  10.847  0.3134  0.0528 -0.3933
  702MPD2    C410380   2.035   0.611  10.901 -0.0850 -0.1865 -0.9893
  702MPD2    C510381   2.001   0.555  11.023  0.1990  0.0002  0.2093
  702MPD2     H10382   1.799   0.862  10.880  1.9891  2.7867  1.6046
  702MPD2    H110383   2.119   0.582  10.840 -0.0472 -1.8182 -0.1760
  702MPD2    H210384   1.855   0.561  11.183 -1.0347 -0.1573 -0.6417
  702MPD2    H310385   2.051   0.463  11.053  0.6886  0.1489 -0.1404
  702MPD2     N10386   1.998   0.747  10.708  0.0239 -0.2926  0.3309
  702MPD2    H510387   2.080   0.702  10.670 -1.6925 -3.0291 -0.1609
  702MPD2    N110388   1.717   0.782  11.109 -0.3547  0.1681 -0.4097
  702MPD2    H710389   1.678   0.869  11.075 -0.3857  1.0690  1.9166
  703TMC3    C110390   1.977   0.799  10.479 -0.0131 -0.3453 -0.1834
  703TMC3    C210391   1.892   0.847  10.386  0.1733 -0.0917  1.1824
  703TMC3    C310392   1.940   0.910  10.274 -0.4965  0.2191 -0.0826
  703TMC3    C410393   2.116   0.808  10.457  0.1226  0.0952 -0.2400
  703TMC3    C510394   2.160   0.858  10.336 -0.1743  0.0811 -0.2511
  703TMC3    C610395   2.069   0.913  10.239 -0.1244  0.4493 -0.1355
  703TMC3     C10396   1.925   0.817  10.616 -0.2679 -0.0438 -0.3810
  703TMC3     O10397   1.817   0.875  10.625  0.8455  0.5352  0.0653
  703TMC3     H10398   1.785   0.835  10.401  0.4566 -1.2754  2.2998
  703TMC3    H110399   2.181   0.798  10.543  0.2973  2.6145 -0.0700
  703TMC3    H210400   2.113   0.943  10.144  1.7142 -1.4600  0.1181
  703TMC3    C710401   2.297   0.875  10.311  1.2294 -0.1921 -0.8757
  703TMC3    C810402   1.858   1.001  10.208 -0.2394  0.2494 -0.8162
  703TMC3    O110403   2.333   0.942  10.216 -0.1172 -0.1617  0.4324
  703TMC3    O210404   1.885   1.042  10.096  0.4963  0.3340  0.2993
  704TMC3    C110405   4.214   3.990  12.450  0.3203  0.1990  0.8487
  704TMC3    C210406   4.339   4.020  12.399 -1.1482  0.6160  0.7428
  704TMC3    C310407   4.442   3.955  12.466 -0.1279 -1.0910  0.0890
  704TMC3    C410408   4.188   3.878  12.529  0.6773 -0.8590 -0.7201
  704TMC3    C510409   4.292   3.814  12.590  0.1965  0.2478 -0.1317
  704TMC3    C610410   4.426   3.857  12.561  0.3573  0.0969 -0.6487
  704TMC3     C10411   4.094   4.027  12.374  0.7263  0.2569 -0.2701
  704TMC3     O10412   3.984   4.018  12.422 -0.1873  0.0453  0.4641
  704TMC3     H10413   4.363   4.098  12.328 -2.3136  1.4639  1.2790
  704TMC3    H110414   4.085   3.857  12.555  1.1070  1.0277  2.5357
  704TMC3    H210415   4.501   3.794  12.607  0.3654  0.2625 -0.4347
  704TMC3    C710416   4.282   3.665  12.586 -0.0750  0.5837 -0.1193
  704TMC3    C810417   4.556   3.957  12.379 -0.3721 -0.3408  0.6913
  704TMC3    O110418   4.379   3.599  12.552 -0.5689 -0.2350 -0.3953
  704TMC3    O210419   4.554   3.997  12.260 -0.8752  0.1657 -0.2095
  705MPD2     C10420   3.579   1.821  16.477  0.1383  0.6080  0.1929
  705MPD2    C110421   3.595   1.935  16.548  0.3022 -0.0999 -0.5359
  705MPD2    C210422   3.483   2.019  16.569  0.6699 -0.1764 -0.1588
  705MPD2    C310423   3.362   1.996  16.489  0.5220 -0.1531 -0.4034
  705MPD2    C410424   3.359   1.885  16.423 -0.4735 -0.1286 -0.0455
  705MPD2    C510425   3.456   1.801  16.419  0.3087 -0.1957  0.4863
  705MPD2     H10426   3.498   2.110  16.625  0.5213  0.3810 -1.0142
  705MPD2    H110427   3.277   1.858  16.358 -0.3777  0.5704 -0.4613
  705MPD2    H210428   3.661   1.750  16.466 -1.0849 -1.0069  1.6223
  705MPD2    H310429   3.444   1.724  16.344  0.1411  0.2558  0.0533
  705MPD2     N10430   3.256   2.088  16.472 -0.2842  0.7460  0.5200
  705MPD2    H510431   3.168   2.058  16.430 -0.0179  3.3286 -1.8219
  705MPD2    N110432   3.725   1.972  16.591  0.1364  0.0520 -0.1724
  705MPD2    H710433   3.733   2.049  16.657  0.0586  0.3841 -0.5501
  706TMC3    C110434   4.181   2.006  16.512 -0.4180  0.1907 -0.2642
  706TMC3    C210435   4.169   2.143  16.489 -0.1910 -0.1653  0.1918
  706TMC3    C310436   4.048   2.198  16.519 -0.0779 -0.6701  0.4900
  706TMC3    C410437   4.080   1.933  16.564  0.0724 -0.5060  0.0885
  706TMC3    C510438   3.959   1.996  16.595 -0.0869  0.7366 -0.0196
  706TMC3    C610439   3.933   2.131  16.566  0.0586 -0.4827  0.2028
  706TMC3     C10440   4.291   1.932  16.460  0.7542  0.8588 -0.3037
  706TMC3     O10441   4.334   1.834  16.530 -0.1088 -0.0293 -0.1821
  706TMC3     H10442   4.244   2.207  16.443 -0.8049 -0.3503 -1.0855
  706TMC3    H110443   4.088   1.825  16.563  0.8483 -0.4303 -2.3849
  706TMC3    H210444   3.838   2.182  16.572 -1.0613 -2.6313  0.5430
  706TMC3    C710445   3.840   1.901  16.582  1.0022 -0.7439  0.4438
  706TMC3    C810446   4.034   2.340  16.488 -0.1290  0.2105  0.3180
  706TMC3    O110447   3.867   1.792  16.536 -0.0234 -0.1073  0.3350
  706TMC3    O210448   4.116   2.392  16.411  0.2461  0.1489 -0.0165
  707TMC3    C110449   0.731   1.251   0.520 -0.2743  0.5558 -0.4014
  707TMC3    C210450   0.762   1.249   0.654 -0.3943  0.9640  0.5465
  707TMC3    C310451   0.667   1.231   0.745  0.4674 -0.1908 -0.4403
  707TMC3    C410452   0.604   1.223   0.479  0.1915  0.1831 -0.6929
  707TMC3    C510453   0.514   1.194   0.573  0.0718  0.6865 -0.3040
  707TMC3    C610454   0.544   1.195   0.707 -0.2842 -0.6398 -0.3374
  707TMC3     C10455   0.840   1.268   0.431 -0.1679 -0.1109  0.4156
  707TMC3     O10456   0.950   1.236   0.481  0.0899 -0.3902  0.1867
  707TMC3     H10457   0.863   1.277   0.683  0.5498 -0.0551 -1.7566
  707TMC3    H110458   0.574   1.223   0.374 -3.1489 -0.4009  0.2563
  707TMC3    H210459   0.469   1.160   0.777 -3.1683 -0.5268 -3.3724
  707TMC3    C710460   0.388   1.136   0.538  0.5019 -0.4378 -0.1692
  707TMC3    C810461   0.673   1.254   0.886 -0.3042 -0.4588  0.6099
  707TMC3    O110462   0.338   1.175   0.432 -0.1649 -0.4073  0.0832
  707TMC3    O210463   0.570   1.249   0.948 -0.1061 -0.6550  0.0273
  708MPD2     C10464   2.364   0.066  13.698  0.7586  0.5224 -0.2794
  708MPD2    C110465   2.340   0.191  13.763  0.2013  0.8073  0.1143
  708MPD2    C210466   2.330   0.197  13.898  0.0764 -0.7950  0.3130
  708MPD2    C310467   2.328   0.078  13.966  0.4084 -0.1559  0.5735
  708MPD2    C410468   2.330   4.675  13.908  0.2301 -0.1822  0.2715
  708MPD2    C510469   2.353   4.669  13.770  0.1094  0.5797  0.1023
  708MPD2     H10470   2.329   0.293  13.948 -0.3024 -0.4243 -0.3928
  708MPD2    H110471   2.322   4.583  13.965 -2.5848 -0.3006 -0.3299
  708MPD2    H210472   2.373   0.054  13.590  4.3082  0.9800 -0.0436
  708MPD2    H310473   2.357   4.573  13.720  0.3243  1.1283 -0.9357
  708MPD2     N10474   2.304   0.080  14.099  0.3570  0.1437 -0.5813
  708MPD2    H510475   2.251   0.000  14.132 -0.3859  1.2640  0.8982
  708MPD2    N110476   2.346   0.313  13.687  0.8471  1.0886  0.0977
  708MPD2    H710477   2.335   0.308  13.586 -0.2573 -2.6983  0.4078
  709TMC3    C110478   2.357   0.542  13.637  0.4998 -0.3176  0.1624
  709TMC3    C210479   2.303   0.520  13.518  0.4571 -0.0254 -0.5578
  709TMC3    C310480   2.212   0.601  13.460  0.1568 -0.2482 -0.3606
  709TMC3    C410481   2.329   0.660  13.695 -0.6121  0.2435 -0.6239
  709TMC3    C510482   2.215   0.731  13.657 -0.0578  0.1513  0.2653
  709TMC3    C610483   2.159   0.705  13.530  0.6728  0.5506  1.0629
  709TMC3     C10484   2.350   0.441  13.738  0.7062  1.1112 -0.0317
  709TMC3     O10485   2.347   0.487  13.853 -0.0788 -0.1146 -0.4034
  709TMC3     H10486   2.346   0.430  13.476  0.4524  0.2658 -1.1857
  709TMC3    H110487   2.377   0.683  13.790 -1.9070  0.1851  0.0382
  709TMC3    H210488   2.068   0.754  13.496 -1.2893 -2.9547  1.2169
  709TMC3    C710489   2.122   0.772  13.763  0.3965  0.2007  0.2169
  709TMC3    C810490   2.163   0.561  13.331  1.1742 -0.4139  0.0397
  709TMC3    O110491   2.026   0.842  13.732  0.4299  0.0636  0.4583
  709TMC3    O210492   2.183   0.440  13.317 -0.3338  0.2810 -0.2502
  710TMC3    C110493   2.703   2.273   0.564  0.5518 -0.4652 -0.6079
  710TMC3    C210494   2.721   2.252   0.431 -0.2649  0.3860 -0.5005
  710TMC3    C310495   2.812   2.152   0.390  0.2756 -0.3318 -0.6022
  710TMC3    C410496   2.783   2.207   0.657  0.2266 -0.5138 -0.4281
  710TMC3    C510497   2.875   2.112   0.608 -0.9028  0.8206  0.2770
  710TMC3    C610498   2.888   2.085   0.475 -0.5573  0.3321 -0.0607
  710TMC3     C10499   2.598   2.360   0.602 -0.6695 -0.1843  0.3427
  710TMC3     O10500   2.527   2.406   0.513  0.2286  0.1162  0.5245
  710TMC3     H10501   2.667   2.316   0.362 -2.7096 -1.0299  0.0688
  710TMC3    H110502   2.775   2.216   0.765 -1.9313  2.1587 -0.8066
  710TMC3    H210503   2.949   2.005   0.435  0.7824  0.8316  0.9846
  710TMC3    C710504   2.962   2.049   0.698 -0.4991  0.5239 -0.1479
  710TMC3    C810505   2.849   2.132   0.253  0.2604 -0.4342  0.7135
  710TMC3    O110506   2.940   2.058   0.819 -0.1577 -0.2142  0.0437
  710TMC3    O210507   2.962   2.083   0.235  0.0778  0.7583  0.3692
  711TMC3    C110508   2.891   2.821  15.102  0.3493 -0.0317  0.7977
  711TMC3    C210509   2.946   2.928  15.166 -0.5004  0.5361 -0.1808
  711TMC3    C310510   3.041   2.902  15.258 -0.8146  0.6880 -0.0554
  711TMC3    C410511   2.930   2.695  15.124 -0.6908  1.2753  0.4505
  711TMC3    C510512   3.026   2.673  15.215  0.2547 -0.3416  0.1073
  711TMC3    C610513   3.086   2.772  15.283 -0.7338 -0.7101 -0.1336
  711TMC3     C10514   2.833   2.845  14.970 -0.0110  0.0066  0.3569
  711TMC3     O10515   2.851   2.756  14.891 -0.5233  0.4819 -0.6268
  711TMC3     H10516   2.932   3.032  15.138  2.5286  0.4344 -2.0654
  711TMC3    H110517   2.894   2.612  15.064 -1.8243  1.6741  0.5716
  711TMC3    H210518   3.173   2.758  15.346 -0.0497  2.7294 -0.3004
  711TMC3    C710519   3.077   2.543  15.240 -0.3202 -0.1041  0.5120
  711TMC3    C810520   3.102   3.018  15.324 -0.7160  0.3785  0.2659
  711TMC3    O110521   3.201   2.537  15.262  0.1661  0.2705 -0.6356
  711TMC3    O210522   3.028   3.115  15.336 -0.0245 -0.0815 -0.4056
  712MPD2     C10523   0.010   4.144  13.950  0.2003  0.4243  0.2479
  712MPD2    C110524   4.632   4.218  13.894  0.6181 -0.0941 -0.6814
  712MPD2    C210525   4.665   4.321  13.808 -0.2534  0.5397 -0.2479
  712MPD2    C310526   0.070   4.369  13.795  1.2981  0.4088  0.8002
  712MPD2    C410527   0.171   4.290  13.852 -0.2080  0.2661  0.5109
  712MPD2    C510528   0.142   4.188  13.940  0.1606  0.0414 -0.2783
  712MPD2     H10529   4.581   4.374  13.764 -1.4424 -0.0435  1.3560
  712MPD2    H110530   0.275   4.314  13.836 -0.3701 -0.1128 -1.0713
  712MPD2    H210531   4.705   4.058  14.010 -0.4859  0.0383 -0.6301
  712MPD2    H310532   0.219   4.123  13.982  0.3662  0.6826  0.3544
  712MPD2     N10533   0.112   4.463  13.698  0.1821 -0.2312  0.0574
  712MPD2    H510534   0.211   4.468  13.676  0.1632  0.5484  0.1449
  712MPD2    N110535   4.496   4.179  13.890  0.2950 -0.4819 -0.0224
  712MPD2    H710536   4.431   4.214  13.821 -0.7365 -0.1508  1.1091
  713TMC3    C110537   0.096   4.611  13.514 -0.9342 -0.2360  0.0591
  713TMC3    C210538   0.211   4.672  13.555  0.2154  0.3559 -0.9530
  713TMC3    C310539   0.237   0.071  13.504 -0.2150  0.4490  0.1919
  713TMC3    C410540   0.022   4.666  13.410 -0.0895  0.4200  0.4469
  713TMC3    C510541   0.071   0.059  13.358  0.2674  0.1071 -0.6237
  713TMC3    C610542   0.173   0.133  13.405  0.2900 -0.0384  0.6778
  713TMC3     C10543   0.027   4.527  13.614  0.3379  0.6617  0.1905
  713TMC3     O10544   4.624   4.529  13.611 -0.0106  0.8535 -0.3191
  713TMC3     H10545   0.265   4.621  13.634 -1.4098  0.1279  0.0216
  713TMC3    H110546   4.646   4.627  13.387 -0.1969  0.8819  0.1329
  713TMC3    H210547   0.215   0.217  13.351 -2.3652  0.0650 -1.2289
  713TMC3    C710548   4.695   0.152  13.308  0.7083  0.6131 -0.0769
  713TMC3    C810549   0.365   0.133  13.533  0.2875 -0.1184 -0.0114
  713TMC3    O110550   4.709   0.270  13.342  0.4334 -0.3395 -0.0470
  713TMC3    O210551   0.378   0.250  13.500 -0.0309 -0.2094 -0.6061
  714MPD2     C10552   1.657   2.242   1.941  0.0583 -0.5571  0.6007
  714MPD2    C110553   1.707   2.243   1.810  0.2001 -0.8244  0.5406
  714MPD2    C210554   1.651   2.322   1.716  1.0685 -0.2588 -0.5867
  714MPD2    C310555   1.561   2.417   1.750 -0.4615  0.7089  0.5623
  714MPD2    C410556   1.528   2.439   1.884  0.0499 -0.1128  0.4317
  714MPD2    C510557   1.583   2.350   1.976  0.2803 -0.4675 -0.0831
  714MPD2     H10558   1.679   2.325   1.612 -1.0159  2.4123 -1.0817
  714MPD2    H110559   1.462   2.517   1.921  0.1945  0.1610  0.1103
  714MPD2    H210560   1.693   2.181   2.023  0.2612 -0.5161  0.5425
  714MPD2    H310561   1.551   2.352   2.079 -0.8709 -1.7401 -0.4193
  714MPD2     N10562   1.506   2.496   1.644 -0.0082 -0.4268  0.2747
  714MPD2    H510563   1.523   2.463   1.549 -1.8716 -1.1674  0.2054
  714MPD2    N110564   1.815   2.161   1.787  0.1086 -0.0207  0.2226
  714MPD2    H710565   1.847   2.106   1.867  0.6522  0.6614  0.4809
  715TMC3    C110566   1.989   2.059   1.661  0.1055 -0.3377 -0.4542
  715TMC3    C210567   2.047   2.042   1.535  0.1811 -0.6168  0.5817
  715TMC3    C310568   2.167   1.975   1.525 -0.1425 -0.5678 -0.5461
  715TMC3    C410569   2.047   2.009   1.774  0.9483  0.2894  0.9047
  715TMC3    C510570   2.176   1.962   1.752 -0.2111 -0.3674 -0.4275
  715TMC3    C610571   2.237   1.935   1.634  0.1611  1.4521  0.1867
  715TMC3     C10572   1.881   2.162   1.669  0.3595  0.2010  0.6745
  715TMC3     O10573   1.874   2.235   1.572  0.2298 -0.2009  0.1268
  715TMC3     H10574   2.004   2.093   1.449  0.5505 -0.0935  0.7032
  715TMC3    H110575   2.019   2.049   1.871 -1.7392  0.5703  0.0162
  715TMC3    H210576   2.340   1.901   1.632 -0.1131  0.4997  2.3331
  715TMC3    C710577   2.255   1.965   1.871  0.1762  0.6241  0.0077
  715TMC3    C810578   2.230   1.952   1.399  0.3211  0.1704 -0.2307
  715TMC3    O110579   2.357   2.021   1.851 -0.3367 -0.1037  0.1563
  715TMC3    O210580   2.156   1.952   1.299  0.5157 -0.0493 -0.0222
  716MPD2     C10581   1.597   0.304  10.065  0.3739 -0.5473  0.9347
  716MPD2    C110582   1.559   0.250   9.943 -0.1892 -0.8271  0.1795
  716MPD2    C210583   1.657   0.176   9.872  0.1618 -0.8087  0.1726
  716MPD2    C310584   1.782   0.165   9.923 -0.2996  0.3590  0.4135
  716MPD2    C410585   1.820   0.210  10.052 -0.5771  0.0999 -0.5453
  716MPD2    C510586   1.720   0.281  10.124 -0.0837 -0.3876 -0.4426
  716MPD2     H10587   1.641   0.131   9.775  0.7683 -0.4276 -0.1021
  716MPD2    H110588   1.918   0.208  10.098 -0.7218 -1.3850 -0.3275
  716MPD2    H210589   1.525   0.356  10.126  1.3923 -2.3712  3.7227
  716MPD2    H310590   1.732   0.303  10.229 -0.7485 -2.4918  0.0732
  716MPD2     N10591   1.865   0.087   9.837  0.1286  0.2866 -0.6496
  716MPD2    H510592   1.828   0.051   9.750  0.7965 -2.0379  0.0354
  716MPD2    N110593   1.424   0.258   9.902  0.7783  0.1872 -0.2490
  716MPD2    H710594   1.358   0.297   9.968  1.4390  0.4574  0.2453
  717TMC3    C110595   2.084   0.006   9.749 -0.4580 -0.1760  0.0579
  717TMC3    C210596   2.019   4.709   9.628  0.1458 -0.4271  0.4138
  717TMC3    C310597   2.059   4.609   9.545 -0.5245  0.8365  0.8467
  717TMC3    C410598   2.193   4.652   9.789  0.3947 -0.7835  0.1586
  717TMC3    C510599   2.233   4.558   9.696  0.0823 -0.1722 -0.1010
  717TMC3    C610600   2.164   4.531   9.577  0.1408 -0.2375  0.1313
  717TMC3     C10601   2.006   0.075   9.851 -0.2264 -0.7943  0.0381
  717TMC3     O10602   2.070   0.119   9.945 -0.0163  0.3500 -0.1447
  717TMC3     H10603   1.929   0.041   9.600  1.3948  1.8676  0.8539
  717TMC3    H110604   2.225   4.650   9.893  1.3595 -0.3500 -0.1354
  717TMC3    H210605   2.206   4.465   9.502  0.6001 -1.2503  1.2764
  717TMC3    C710606   2.357   4.477   9.726 -0.0410 -1.3047 -0.7893
  717TMC3    C810607   1.969   4.570   9.437 -0.1548 -0.3654 -0.0116
  717TMC3    O110608   2.383   4.380   9.656  0.0162  0.1061 -0.3967
  717TMC3    O210609   1.880   4.649   9.414 -0.3150 -0.1753 -0.1032
  718MPD2     C10610   1.506   4.546  13.504  0.3338 -0.1285  0.3815
  718MPD2    C110611   1.436   4.523  13.389  0.6722  0.3154  0.0904
  718MPD2    C210612   1.365   4.402  13.383 -0.4581 -0.3271  1.0403
  718MPD2    C310613   1.345   4.321  13.490  0.6647  0.4198 -0.0888
  718MPD2    C410614   1.405   4.350  13.606 -0.3141  0.2772  0.1637
  718MPD2    C510615   1.495   4.459  13.607 -0.3719 -0.1042  0.6162
  718MPD2     H10616   1.305   4.370  13.298  1.3688 -0.5389 -0.1897
  718MPD2    H110617   1.386   4.292  13.695 -0.3254 -0.4424 -0.3140
  718MPD2    H210618   1.568   4.634  13.514 -0.1565  0.2460  0.0721
  718MPD2    H310619   1.542   4.487  13.701 -1.7472  5.5004 -0.3915
  718MPD2     N10620   1.263   4.204  13.469  0.4733 -0.2335 -0.1619
  718MPD2    H510621   1.225   4.189  13.376 -1.6148 -1.0264  0.8315
  718MPD2    N110622   1.441   4.616  13.286 -0.0200  0.2791 -0.1387
  718MPD2    H710623   1.514   4.684  13.272  0.5112  0.2827  2.6804
  719TMC3    C110624   1.387   4.676  13.059 -0.3007  0.6741  0.0331
  719TMC3    C210625   1.292   4.695  12.966 -0.2386 -0.2410  0.4540
  719TMC3    C310626   1.323   4.688  12.833  0.6965 -0.1488 -0.9281
  719TMC3    C410627   1.519   4.683  13.024  0.3244  0.1895  0.7058
  719TMC3    C510628   1.547   4.701  12.890  0.7419  0.0086 -0.6355
  719TMC3    C610629   1.450   4.701  12.792  0.1918  0.6707 -0.2858
  719TMC3     C10630   1.353   4.599  13.177  0.5354  0.3796 -0.3493
  719TMC3     O10631   1.240   4.554  13.175 -0.1268  0.3945 -0.0377
  719TMC3     H10632   1.185   4.684  12.985  0.0447  0.3119  2.3584
  719TMC3    H110633   1.599   4.652  13.090 -0.0572  0.6666  1.3978
  719TMC3    H210634   1.467   4.708  12.685 -0.3824  0.5443 -0.3836
  719TMC3    C710635   1.683   4.689  12.832 -0.8179  0.0929 -0.3453
  719TMC3    C810636   1.279   4.562  12.775  0.0043 -0.1769 -0.5305
  719TMC3    O110637   1.697   0.027  12.730 -0.0725  0.6254  0.2955
  719TMC3    O210638   1.325   4.538  12.665  0.0013  0.2974  0.3051
  720MPD2     C10639   4.106   1.563  13.660 -0.2020  0.0089 -0.7420
  720MPD2    C110640   4.194   1.575  13.559 -0.7111  0.2602  1.0307
  720MPD2    C210641   4.314   1.515  13.576 -0.0917  1.0092 -0.3344
  720MPD2    C310642   4.346   1.449  13.688 -0.4628 -1.1147 -0.6970
  720MPD2    C410643   4.251   1.426  13.780 -0.1522  0.0111  0.3068
  720MPD2    C510644   4.133   1.491  13.767 -0.6743 -0.4068  0.0373
  720MPD2     H10645   4.398   1.526  13.509 -0.2832  0.5226 -0.6565
  720MPD2    H110646   4.247   1.359  13.865  3.0130 -0.7082 -0.1040
  720MPD2    H210647   4.006   1.603  13.644 -0.2629  0.0237 -0.3200
  720MPD2    H310648   4.060   1.454  13.838 -1.9819  1.0539 -0.5520
  720MPD2     N10649   4.484   1.412  13.701 -0.0113 -0.0342 -0.1388
  720MPD2    H510650   4.542   1.455  13.630 -1.3224  0.4637 -0.9068
  720MPD2    N110651   4.175   1.641  13.439 -0.3957 -0.2073  0.3642
  720MPD2    H710652   4.246   1.634  13.366 -0.9706 -1.0938 -0.1011
  721TMC3    C110653   4.683   1.353  13.819  0.8172 -0.5532  0.3233
  721TMC3    C210654   0.013   1.288  13.917  0.1158 -0.7500  0.1051
  721TMC3    C310655   0.148   1.282  13.921 -0.3707 -0.1187  0.5699
  721TMC3    C410656   0.031   1.399  13.708  0.4867  0.7677 -0.3256
  721TMC3    C510657   0.170   1.379  13.710 -0.4044 -0.4339  0.5801
  721TMC3    C610658   0.223   1.310  13.810 -0.3479  0.0153  0.1213
  721TMC3     C10659   4.537   1.355  13.811 -0.4948 -0.1238  0.3410
  721TMC3     O10660   4.475   1.310  13.905  0.1483 -0.2535  0.4029
  721TMC3     H10661   4.677   1.244  13.998  1.0857  0.3759  1.4084
  721TMC3    H110662   4.707   1.461  13.631 -0.6328  0.1435 -0.1597
  721TMC3    H210663   0.331   1.297  13.816 -0.4709 -1.8427 -1.7487
  721TMC3    C710664   0.254   1.437  13.611  0.2227 -0.0483 -0.0896
  721TMC3    C810665   0.223   1.212  14.026 -0.5474  0.0478  0.1398
  721TMC3    O110666   0.374   1.406  13.617  0.2223  0.1262  0.3920
  721TMC3    O210667   0.339   1.183  14.007 -0.1087  0.5798  0.2176
  722MPD2     C10668   3.612   4.470  12.870  0.0907  0.5537  0.5429
  722MPD2    C110669   3.620   4.561  12.758  0.4780 -0.3174  0.4584
  722MPD2    C210670   3.506   4.600  12.703  0.3387  0.6360  0.1384
  722MPD2    C310671   3.388   4.535  12.735 -0.2197 -0.2238  0.7940
  722MPD2    C410672   3.381   4.447  12.841  0.2548 -0.7322 -0.7043
  722MPD2    C510673   3.492   4.423  12.913 -1.2491 -0.1496 -0.3509
  722MPD2     H10674   3.514   4.670  12.620  1.8650  1.0182  0.6190
  722MPD2    H110675   3.285   4.410  12.874  0.2503 -1.5933 -1.6805
  722MPD2    H210676   3.690   4.426  12.930  0.8780  1.1791 -0.0046
  722MPD2    H310677   3.486   4.369  13.007  0.0898  0.1712 -0.0804
  722MPD2     N10678   3.277   4.552  12.646  0.2161 -0.3496  0.2740
  722MPD2    H510679   3.303   4.619  12.575  1.1533 -1.4282 -0.3982
  722MPD2    N110680   3.744   4.615  12.719  0.6342  0.2117  0.4716
  722MPD2    H710681   3.744   4.679  12.640 -1.6095 -0.1840  0.1489
  723TMC3    C110682   3.053   4.530  12.549  0.8968 -0.2797  0.2100
  723TMC3    C210683   2.932   4.466  12.567 -0.0125  0.1506 -0.5328
  723TMC3    C310684   2.826   4.527  12.507 -0.0526  0.3494  0.1304
  723TMC3    C410685   3.072   4.648  12.485  0.3212  0.6086 -0.1157
  723TMC3    C510686   2.961   4.710  12.448 -0.5700 -0.8491 -0.5575
  723TMC3    C610687   2.836   4.655  12.459 -0.3580 -0.1772  0.0610
  723TMC3     C10688   3.149   4.496  12.656  0.1573 -0.0572 -1.0302
  723TMC3     O10689   3.098   4.423  12.742 -0.0623  0.3407  0.7897
  723TMC3     H10690   2.929   4.363  12.600  1.7842  0.4508  0.5732
  723TMC3    H110691   3.166   4.699  12.467  0.4231  0.7359  0.7902
  723TMC3    H210692   2.745   4.700  12.420  0.8511  3.0024  0.8911
  723TMC3    C710693   2.971   0.138  12.428  0.5781  0.1042  0.0499
  723TMC3    C810694   2.694   4.500  12.554 -0.0872 -0.6692 -0.7203
  723TMC3    O110695   3.074   0.186  12.384  0.4176  0.0168 -0.3873
  723TMC3    O210696   2.601   4.565  12.510 -0.1616 -0.0084 -0.4102
  724TMC3    C110697   4.420   3.556   8.714  0.4762  0.7074  0.1960
  724TMC3    C210698   4.302   3.602   8.764  0.8577 -0.5116 -0.1877
  724TMC3    C310699   4.294   3.653   8.890  0.0563 -0.1903  0.7724
  724TMC3    C410700   4.533   3.564   8.786  0.3940  0.5235 -0.3401
  724TMC3    C510701   4.526   3.602   8.917 -0.5497 -0.9228  0.3566
  724TMC3    C610702   4.403   3.638   8.968 -0.0169  0.1096  0.5052
  724TMC3     C10703   4.411   3.463   8.594  0.2910 -0.8239 -0.4362
  724TMC3     O10704   4.516   3.402   8.566 -0.5448  0.7957  0.3526
  724TMC3     H10705   4.222   3.630   8.696 -0.5517 -2.5425  0.6351
  724TMC3    H110706   4.621   3.514   8.747 -2.0741 -3.6107 -0.6194
  724TMC3    H210707   4.396   3.676   9.070  1.6123  0.2545  0.5636
  724TMC3    C710708   4.640   3.589   9.005  0.0055  0.1670 -0.7801
  724TMC3    C810709   4.163   3.698   8.936  0.6002  0.6072  0.2400
  724TMC3    O110710   4.721   3.510   8.970  0.3569 -0.2032 -0.2125
  724TMC3    O210711   4.076   3.675   8.856  0.1057  0.3655  0.3647
  725TMC3    C110712   0.440   1.768  12.828 -0.1220 -1.1904 -0.6289
  725TMC3    C210713   0.358   1.769  12.715 -0.0203 -0.6477 -0.3884
  725TMC3    C310714   0.330   1.649  12.654  0.4789  0.4937 -0.4711
  725TMC3    C410715   0.505   1.655  12.869 -0.0025  0.2135 -0.0613
  725TMC3    C510716   0.455   1.535  12.814  0.0216  0.2032  0.3153
  725TMC3    C610717   0.375   1.531  12.704 -0.1129 -0.0092  0.2622
  725TMC3     C10718   0.481   1.898  12.865 -0.1415  0.3711  0.3117
  725TMC3     O10719   0.407   1.988  12.829  0.2897 -0.2511 -0.4315
  725TMC3     H10720   0.319   1.863  12.678 -1.0642 -0.2521  1.7058
  725TMC3    H110721   0.578   1.660  12.949 -0.6516  2.3827  0.4217
  725TMC3    H210722   0.350   1.444  12.645  1.4152 -0.3264  0.0708
  725TMC3    C710723   0.548   1.426  12.821 -0.9057  0.3065  0.2085
  725TMC3    C810724   0.259   1.641  12.526 -0.0406  0.3833 -0.7784
  725TMC3    O110725   0.550   1.367  12.712  0.5960  0.1794  0.0798
  725TMC3    O210726   0.194   1.540  12.500 -0.1320 -0.3213 -0.2540
  726MPD2     C10727   3.314   2.863  10.292 -0.3840  0.2754  0.1534
  726MPD2    C110728   3.257   2.902  10.174 -0.2376  0.3389  0.2313
  726MPD2    C210729   3.141   2.841  10.122  0.7826  0.2977  0.0469
  726MPD2    C310730   3.080   2.741  10.197 -0.1792 -0.1889  0.6668
  726MPD2    C410731   3.143   2.692  10.312  0.1394 -0.5047 -0.5113
  726MPD2    C510732   3.256   2.754  10.351  0.2277 -0.1664 -0.1415
  726MPD2     H10733   3.093   2.891  10.039 -0.0031 -2.0252 -0.8877
  726MPD2    H110734   3.116   2.608  10.375 -1.2686  0.2774 -0.0966
  726MPD2    H210735   3.395   2.922  10.332  0.1765 -0.4675  0.0973
  726MPD2    H310736   3.284   2.706  10.445  0.3927 -0.6202 -0.4244
  726MPD2     N10737   2.953   2.684  10.175  0.7440 -0.2349  1.1293
  726MPD2    H510738   2.928   2.608  10.237 -0.7875  0.0759  0.8903
  726MPD2    N110739   3.320   3.007  10.108 -0.1268  0.4685 -0.0296
  726MPD2    H710740   3.393   3.059  10.156  0.7113 -0.8800  0.1446
  727TMC3    C110741   3.375   3.153   9.940 -0.4246 -0.8330 -0.1859
  727TMC3    C210742   3.397   3.259  10.026 -0.6681  0.0653  0.0293
  727TMC3    C310743   3.438   3.379   9.980 -0.3499 -0.3511  0.2628
  727TMC3    C410744   3.402   3.168   9.807  0.2598  0.0531 -0.6523
  727TMC3    C510745   3.434   3.291   9.763  0.2335 -0.6569  0.1167
  727TMC3    C610746   3.457   3.401   9.844 -0.5179 -0.0610 -0.1349
  727TMC3     C10747   3.296   3.043   9.978 -0.0715  0.2323  0.3983
  727TMC3     O10748   3.244   2.976   9.892  0.5978  0.3078  0.2150
  727TMC3     H10749   3.372   3.254  10.131  1.8250  2.5870  0.7502
  727TMC3    H110750   3.370   3.095   9.734  0.7430 -1.4413  0.6393
  727TMC3    H210751   3.506   3.487   9.802 -0.2138  0.6647  1.7140
  727TMC3    C710752   3.460   3.305   9.620 -0.5318  0.4992 -0.1934
  727TMC3    C810753   3.439   3.486  10.080 -1.0653 -0.6804  0.4617
  727TMC3    O110754   3.485   3.197   9.563 -0.1676  0.1869  0.1290
  727TMC3    O210755   3.467   3.459  10.192 -0.2652  0.3317  0.3440
  728TMC3    C110756   2.236   1.616  14.905 -0.1651 -0.1202 -0.8924
  728TMC3    C210757   2.367   1.584  14.879 -0.7650 -0.5797 -0.6203
  728TMC3    C310758   2.432   1.657  14.786 -0.1115 -0.2803 -0.8432
  728TMC3    C410759   2.164   1.714  14.836  0.2265 -0.4358 -0.0997
  728TMC3    C510760   2.235   1.787  14.743 -0.0758  0.6829  0.0358
  728TMC3    C610761   2.374   1.764  14.720 -0.0592 -0.8888 -0.4441
  728TMC3     C10762   2.193   1.581  15.036  0.3960 -0.0490 -0.1827
  728TMC3     O10763   2.285   1.551  15.108  0.2601 -0.4310 -0.0704
  728TMC3     H10764   2.407   1.497  14.930 -2.4158  0.7998  3.0156
  728TMC3    H110765   2.056   1.721  14.845  0.0471 -0.4728 -2.2612
  728TMC3    H210766   2.427   1.818  14.642 -1.1704  0.7412 -0.0687
  728TMC3    C710767   2.154   1.859  14.647  0.3899  0.5528  0.5016
  728TMC3    C810768   2.556   1.607  14.730 -0.2042  0.4147  0.0465
  728TMC3    O110769   2.039   1.820  14.632 -0.2812 -0.0889  0.7315
  728TMC3    O210770   2.613   1.683  14.655 -0.2902 -0.3554 -0.1164
  729MPD2     C10771   4.127   2.826  16.709 -0.8299  0.0232 -0.2895
  729MPD2    C110772   4.162   2.701  16.752  0.0828 -1.2825  0.2931
  729MPD2    C210773   4.105   2.641  16.861  0.2635  0.8800 -0.2606
  729MPD2    C310774   4.036   2.727  16.950 -0.0625  0.2571  0.1161
  729MPD2    C410775   4.012   2.858  16.919 -0.2607 -0.4793 -0.0417
  729MPD2    C510776   4.039   2.891  16.792  0.3287 -0.3291 -0.0052
  729MPD2     H10777   4.129   2.538  16.884  2.0242  1.3233 -0.1272
  729MPD2    H110778   3.971   2.925  16.994 -2.4838 -3.2511  1.2212
  729MPD2    H210779   4.168   2.875  16.621  0.8837 -1.2759 -0.2262
  729MPD2    H310780   4.013   2.990  16.756  2.1606  1.3719  3.3409
  729MPD2     N10781   3.994   2.680  17.083  0.4667 -0.3108  0.1839
  729MPD2    H510782   3.986   2.750  17.156  1.0618  1.4249 -1.4128
  729MPD2    N110783   4.271   2.640  16.689 -0.5166 -0.1148  0.2937
  729MPD2    H710784   4.299   2.675  16.598 -1.9767 -0.9123 -0.4638
  730TMC3    C110785   4.011   2.550  17.278  0.1852  0.4382  0.5326
  730TMC3    C210786   4.118   2.484  17.326 -0.6968 -0.0211  0.2281
  730TMC3    C310787   4.188   2.540  17.422  0.3449 -0.7692 -0.1204
  730TMC3    C410788   3.971   2.668  17.340  0.0159 -0.1670 -0.5383
  730TMC3    C510789   4.043   2.728  17.435 -1.0192  0.2821 -0.0064
  730TMC3    C610790   4.156   2.659  17.475  0.0850 -0.3336  0.1636
  730TMC3     C10791   4.002   2.550  17.126  0.7088  0.5600 -0.4133
  730TMC3     O10792   4.042   2.451  17.070 -0.6025  0.6155 -0.5964
  730TMC3     H10793   4.148   2.388  17.286 -1.7328  1.3347 -3.7792
  730TMC3    H110794   3.884   2.723  17.306 -0.8042 -2.2364 -1.7899
  730TMC3    H210795   4.228   2.705  17.542  0.1336  2.1711 -1.5893
  730TMC3    C710796   4.075   2.864  17.403  0.1044 -0.1378  0.2906
  730TMC3    C810797   4.293   2.462  17.484  0.0098  0.1546 -0.9382
  730TMC3    O110798   4.079   2.897  17.281 -0.6941 -0.7474 -0.0330
  730TMC3    O210799   4.290   2.341  17.473 -0.2439 -0.1948 -0.3292
  731MPD2     C10800   0.174   0.911  12.579  0.0297 -0.5778  0.1401
  731MPD2    C110801   0.081   0.933  12.476 -0.1266 -0.1928 -0.2269
  731MPD2    C210802   4.683   0.867  12.473  0.1927  0.5290  0.6367
  731MPD2    C310803   4.647   0.790  12.582 -0.1187  0.5110 -0.2896
  731MPD2    C410804   0.019   0.768  12.679 -0.1872  0.3208  0.7723
  731MPD2    C510805   0.144   0.818  12.677  0.2960  0.2701  0.5730
  731MPD2     H10806   4.616   0.878  12.388  1.0548 -0.1010 -0.1404
  731MPD2    H110807   0.001   0.704  12.764  0.2753 -0.3868  0.3306
  731MPD2    H210808   0.266   0.967  12.582 -0.0078 -0.5154  0.1239
  731MPD2    H310809   0.211   0.803  12.760  0.6421  1.6838  0.5552
  731MPD2     N10810   4.506   0.748  12.594  0.2872 -0.5427 -0.6029
  731MPD2    H510811   4.440   0.763  12.519 -0.1876  0.7566  0.0732
  731MPD2    N110812   0.125   1.025  12.375  0.2034 -0.0777 -0.3179
  731MPD2    H710813   0.220   1.059  12.387  0.8178 -1.0925 -2.2427
  732TMC3    C110814   0.118   1.175  12.204 -0.3860 -0.6680 -0.0664
  732TMC3    C210815   0.061   1.293  12.171 -0.4602 -0.4781  0.5466
  732TMC3    C310816   0.129   1.378  12.092  0.0525 -0.3281  0.5873
  732TMC3    C410817   0.238   1.139  12.161 -0.4397  0.1874  0.8239
  732TMC3    C510818   0.301   1.216  12.068 -0.0445  0.0590 -0.0056
  732TMC3    C610819   0.253   1.341  12.034  0.3189 -0.5989 -0.4694
  732TMC3     C10820   0.047   1.084  12.288  0.2723  0.3763  0.8557
  732TMC3     O10821   4.647   1.089  12.293  0.1906 -0.1467  0.4945
  732TMC3     H10822   4.696   1.324  12.227 -0.4215 -1.3231  1.0828
  732TMC3    H110823   0.270   1.037  12.178  0.7147  0.5246  0.6582
  732TMC3    H210824   0.294   1.401  11.954 -0.3733  2.3501  1.3948
  732TMC3    C710825   0.435   1.171  12.039 -0.3854 -0.4247 -0.5215
  732TMC3    C810826   0.048   1.451  12.005  0.0068  0.5291 -0.3361
  732TMC3    O110827   0.468   1.061  12.081 -0.0243  0.8520 -0.4746
  732TMC3    O210828   0.109   1.508  11.917 -0.1740  0.0494 -0.0321
  733TMC3    C110829   1.102   3.783  13.429 -0.0240 -0.2868  0.3435
  733TMC3    C210830   1.168   3.869  13.512 -0.4526  0.2288 -0.1336
  733TMC3    C310831   1.233   3.982  13.457 -0.0376 -0.2399  0.3963
  733TMC3    C410832   1.134   3.783  13.295  0.2787 -0.3310  0.4743
  733TMC3    C510833   1.208   3.885  13.242 -0.1245 -0.0274  0.2814
  733TMC3    C610834   1.254   3.985  13.323 -0.8155 -0.1880  0.2035
  733TMC3     C10835   0.961   3.781  13.441  0.6266 -0.1050  0.9520
  733TMC3     O10836   0.909   3.802  13.336 -0.0562  0.6726 -0.2624
  733TMC3     H10837   1.152   3.867  13.619 -0.4200  0.8104 -0.1198
  733TMC3    H110838   1.087   3.712  13.228 -1.0128 -0.4946  1.5512
  733TMC3    H210839   1.327   4.054  13.284  1.3495 -2.4170  0.2827
  733TMC3    C710840   1.188   3.916  13.096  0.6354  0.3537 -0.4014
  733TMC3    C810841   1.267   4.090  13.542  0.2792 -0.0403 -0.0117
  733TMC3    O110842   1.184   3.831  13.007 -0.7119  0.9235 -0.0192
  733TMC3    O210843   1.314   4.058  13.655 -0.1556  0.1331  0.3369
  734MPD2     C10844   2.413   1.995  12.433 -0.0808 -0.0999  0.3885
  734MPD2    C110845   2.334   1.907  12.366 -0.1456 -0.3713 -0.1937
  734MPD2    C210846   2.320   1.922  12.230 -0.2223 -0.5013 -0.2476
  734MPD2    C310847   2.376   2.030  12.163  0.0104 -0.2415  0.3980
  734MPD2    C410848   2.456   2.117  12.233  0.5379 -0.4382 -0.1730
  734MPD2    C510849   2.470   2.098  12.367 -0.2342 -0.0310  0.1546
  734MPD2     H10850   2.261   1.855  12.168 -2.0454  0.8331  0.0377
  734MPD2    H110851   2.503   2.199  12.181  1.9247 -2.0664 -1.4686
  734MPD2    H210852   2.429   1.994  12.541  2.6991 -3.0502 -0.0667
  734MPD2    H310853   2.526   2.168  12.427  2.2616 -0.8298 -1.2179
  734MPD2     N10854   2.364   2.035  12.017  0.1168  0.8028  0.6094
  734MPD2    H510855   2.295   1.982  11.966  1.0217 -0.0632  0.2882
  734MPD2    N110856   2.287   1.795  12.436  0.2439 -0.4526  0.2021
  734MPD2    H710857   2.321   1.797  12.532  0.9581  0.5837 -0.0641
  735TMC3    C110858   2.183   1.585  12.476  0.5655 -0.7407  0.1712
  735TMC3    C210859   2.092   1.494  12.421  0.7072 -0.4733  0.4925
  735TMC3    C310860   2.131   1.367  12.403 -0.2164 -0.3865  0.4260
  735TMC3    C410861   2.309   1.546  12.526 -0.3235 -0.1575 -0.7594
  735TMC3    C510862   2.339   1.418  12.501  0.1666  0.3796 -0.6736
  735TMC3    C610863   2.254   1.326  12.443  0.2939 -0.5465 -0.1618
  735TMC3     C10864   2.196   1.705  12.394 -0.5052 -0.0895 -0.3546
  735TMC3     O10865   2.141   1.696  12.290  0.1832  0.3654 -0.0376
  735TMC3     H10866   1.996   1.529  12.387 -0.2132 -0.3569  3.2409
  735TMC3    H110867   2.371   1.606  12.591 -0.2262 -0.1965 -0.8158
  735TMC3    H210868   2.290   1.230  12.409 -1.4412 -1.5695  0.9081
  735TMC3    C710869   2.476   1.382  12.520 -0.0418 -0.5005  0.0045
  735TMC3    C810870   2.094   1.307  12.274 -0.0791 -0.5686 -0.1487
  735TMC3    O110871   2.554   1.475  12.524 -0.5096 -0.3481 -0.4848
  735TMC3    O210872   2.094   1.187  12.252 -0.1083  0.3755 -0.0869
  736MPD2     C10873   2.618   1.063  12.606 -0.0569 -0.1336 -0.0654
  736MPD2    C110874   2.617   1.191  12.556  0.1339  0.3522 -0.2627
  736MPD2    C210875   2.723   1.246  12.482 -0.5725  0.3245  0.4426
  736MPD2    C310876   2.839   1.176  12.471 -0.5011 -0.0184 -0.6559
  736MPD2    C410877   2.840   1.054  12.536  0.4365 -0.0549  0.0713
  736MPD2    C510878   2.729   0.997  12.588  0.7991 -0.1719 -1.2226
  736MPD2     H10879   2.714   1.339  12.428 -1.7345  0.1796  0.3776
  736MPD2    H110880   2.922   0.983  12.535 -0.2738 -0.9039  1.1423
  736MPD2    H210881   2.532   1.025  12.659  0.0076  0.6061  0.5812
  736MPD2    H310882   2.730   0.897  12.630  1.4237  0.5915  0.6028
  736MPD2     N10883   2.951   1.214  12.396 -0.0647 -0.0556 -0.5880
  736MPD2    H510884   3.040   1.168  12.409  0.1767  0.2045 -1.3089
  736MPD2    N110885   2.488   1.248  12.548 -0.3123  0.4037 -0.0685
  736MPD2    H710886   2.404   1.197  12.571  0.2960 -0.8465 -0.6081
  737TMC3    C110887   3.094   1.364  12.289 -0.3710  0.5499  1.2428
  737TMC3    C210888   3.135   1.493  12.276  0.6842  0.4094  0.1224
  737TMC3    C310889   3.267   1.514  12.249 -0.2569  0.1072  0.5187
  737TMC3    C410890   3.179   1.257  12.272  0.9148  0.6702  0.1235
  737TMC3    C510891   3.313   1.281  12.253 -0.3501  0.0201  0.7283
  737TMC3    C610892   3.356   1.412  12.241 -0.5312 -0.1275 -0.4691
  737TMC3     C10893   2.961   1.333  12.330  0.3754 -0.2353  0.2934
  737TMC3     O10894   2.882   1.426  12.324  0.1476  0.2868 -0.6952
  737TMC3     H10895   3.065   1.571  12.305  1.3848  0.7089  1.0029
  737TMC3    H110896   3.148   1.154  12.256  1.9526  0.2703  0.6855
  737TMC3    H210897   3.462   1.435  12.238 -0.7753  0.5022 -3.9500
  737TMC3    C710898   3.365   1.203  12.148  0.2256  0.4848  0.6499
  737TMC3    C810899   3.306   1.622  12.159 -0.3647 -0.0206  0.2386
  737TMC3    O110900   3.344   1.084  12.146 -0.2623 -0.5107  0.0400
  737TMC3    O210901   3.424   1.631  12.140 -0.1954  0.4777 -0.1672
  738MPD2     C10902   3.260   0.363  15.179  0.0188 -0.1656  0.4917
  738MPD2    C110903   3.369   0.285  15.150 -0.5396 -0.1743  0.5708
  738MPD2    C210904   3.492   0.342  15.160  0.2047  0.0229 -0.5599
  738MPD2    C310905   3.506   0.478  15.189 -0.3123 -0.1628 -0.0560
  738MPD2    C410906   3.397   0.551  15.224  0.2223  0.7586  0.1374
  738MPD2    C510907   3.269   0.497  15.213 -0.0674 -0.9984 -0.2044
  738MPD2     H10908   3.583   0.285  15.147 -0.5029 -0.9780 -1.1452
  738MPD2    H110909   3.405   0.659  15.232  2.0164  0.6215  0.1778
  738MPD2    H210910   3.158   0.326  15.167 -0.2505  1.0848 -1.0975
  738MPD2    H310911   3.179   0.554  15.233  1.9003  1.1302  2.5208
  738MPD2     N10912   3.627   0.556  15.174 -0.8429 -0.3062  0.4170
  738MPD2    H510913   3.628   0.654  15.203  1.8939 -0.5464  1.1881
  738MPD2    N110914   3.348   0.149  15.121 -0.0921 -0.7172  0.3422
  738MPD2    H710915   3.431   0.091  15.119  0.7888  0.6474 -1.9690
  739TMC3    C110916   3.841   0.602  15.085  0.1917  0.4076 -0.2980
  739TMC3    C210917   3.926   0.581  14.983  0.1887  0.2334 -0.4234
  739TMC3    C310918   4.035   0.657  14.985 -0.3276  0.6339 -0.1353
  739TMC3    C410919   3.864   0.689  15.189 -0.1868 -0.6644  0.1043
  739TMC3    C510920   3.975   0.761  15.186  0.2075 -0.3185 -0.6841
  739TMC3    C610921   4.066   0.750  15.082 -0.4793 -0.1702  0.1447
  739TMC3     C10922   3.736   0.503  15.099  0.0165  0.7726  0.5684
  739TMC3     O10923   3.761   0.398  15.044  0.5134  0.0856 -0.1275
  739TMC3     H10924   3.907   0.502  14.911  1.0784 -1.3496  1.0986
  739TMC3    H110925   3.810   0.677  15.282 -0.1561  2.2655  0.4940
  739TMC3    H210926   4.156   0.808  15.092 -1.5058  1.5014 -0.3367
  739TMC3    C710927   4.005   0.826  15.315 -0.5316 -0.3172 -0.4732
  739TMC3    C810928   4.096   0.663  14.854  0.1853 -1.0519 -0.2037
  739TMC3    O110929   3.918   0.828  15.398 -0.0764 -0.4316 -0.1749
  739TMC3    O210930   4.032   0.631  14.755  0.8578 -0.4417  0.0276
  740TMC3    C110931   4.067   1.638  14.309 -0.0187  0.1806  0.6420
  740TMC3    C210932   4.081   1.726  14.413 -0.1745 -0.0454  0.8836
  740TMC3    C310933   4.202   1.800  14.420 -0.5104  0.2968  0.3079
  740TMC3    C410934   4.161   1.622  14.213  0.2451 -0.7863 -0.0435
  740TMC3    C510935   4.281   1.680  14.233  0.7460 -0.3141  1.2593
  740TMC3    C610936   4.308   1.769  14.341 -0.1958 -0.0959 -0.1220
  740TMC3     C10937   3.952   1.548  14.322  0.9482 -0.2925  0.0676
  740TMC3     O10938   3.965   1.443  14.259 -1.0663  0.3436 -0.1386
  740TMC3     H10939   4.006   1.735  14.491  1.1175 -2.5431  2.4062
  740TMC3    H110940   4.140   1.561  14.125  1.4036 -0.1764 -0.7478
  740TMC3    H210941   4.405   1.815  14.357 -0.5846  0.7543 -0.1786
  740TMC3    C710942   4.386   1.668  14.132  0.6830  0.4230  0.3595
  740TMC3    C810943   4.223   1.886  14.536 -0.0215  0.6200 -0.0839
  740TMC3    O110944   4.504   1.656  14.178 -0.4223  0.2892 -0.0134
  740TMC3    O210945   4.137   1.884  14.623  0.1060  0.3590 -0.3270
  741TMC3    C110946   3.805   1.130  14.490 -0.5798 -0.2321  0.1867
  741TMC3    C210947   3.765   1.017  14.419 -0.0374 -0.1925  0.0382
  741TMC3    C310948   3.646   0.960  14.464 -0.7383  0.5420 -0.2349
  741TMC3    C410949   3.731   1.175  14.601  0.0611  0.1713 -0.0123
  741TMC3    C510950   3.617   1.117  14.633  0.6054 -0.0700  0.5298
  741TMC3    C610951   3.569   1.010  14.565 -0.3419  0.3640  0.2418
  741TMC3     C10952   3.938   1.182  14.465 -0.4123 -0.2208  0.4428
  741TMC3     O10953   3.991   1.127  14.370  0.2051  0.1662 -0.3307
  741TMC3     H10954   3.819   0.988  14.330 -0.1489 -1.4294  0.3656
  741TMC3    H110955   3.763   1.274  14.632  0.8226  0.3497 -1.3876
  741TMC3    H210956   3.467   0.974  14.580  0.6140 -1.5000  2.2707
  741TMC3    C710957   3.558   1.126  14.765  0.6175  0.3046 -0.4789
  741TMC3    C810958   3.590   0.855  14.382 -0.6732 -0.4762 -0.2955
  741TMC3    O110959   3.494   1.035  14.807  0.3147  0.1404  0.4601
  741TMC3    O210960   3.646   0.817  14.277  0.6727 -0.8739  0.6422
  742TMC3    C110961   3.734   4.429  15.467 -0.0246 -0.3661 -0.0645
  742TMC3    C210962   3.699   4.428  15.329  0.7236  0.0445  0.0288
  742TMC3    C310963   3.733   4.315  15.259 -0.4204  0.8476  0.6952
  742TMC3    C410964   3.811   4.335  15.523  0.5958 -0.5965  0.1716
  742TMC3    C510965   3.846   4.232  15.445  0.1814 -0.3800  0.3725
  742TMC3    C610966   3.814   4.224  15.309 -0.5782 -0.0772 -0.8659
  742TMC3     C10967   3.690   4.536  15.559 -0.0015 -0.1090 -0.8961
  742TMC3     O10968   3.705   4.514  15.678 -0.3370 -0.1641  0.5902
  742TMC3     H10969   3.608   4.479  15.300  0.2870 -1.1774 -0.7055
  742TMC3    H110970   3.837   4.325  15.628  1.7585  3.5145  0.2918
  742TMC3    H210971   3.862   4.147  15.250  0.9451  1.3812 -1.5565
  742TMC3    C710972   3.939   4.132  15.492 -0.4956 -0.5388 -0.4770
  742TMC3    C810973   3.673   4.292  15.123 -0.5447  0.6319 -0.1896
  742TMC3    O110974   3.939   4.030  15.425 -0.5457  0.0606  0.1147
  742TMC3    O210975   3.686   4.183  15.065 -0.1086 -0.1808  0.7980
  743MPD2     C10976   1.379   1.284   1.841 -0.6596 -0.2835  0.7201
  743MPD2    C110977   1.486   1.226   1.776 -0.4010  0.2471 -0.2203
  743MPD2    C210978   1.594   1.186   1.854  0.2413  0.6050  0.6717
  743MPD2    C310979   1.598   1.206   1.985 -0.4574  0.9735 -0.2223
  743MPD2    C410980   1.494   1.272   2.042  0.1429  0.0706 -0.5246
  743MPD2    C510981   1.377   1.307   1.971  0.4650  0.9503  0.1121
  743MPD2     H10982   1.677   1.139   1.803 -1.3736 -1.6939  0.1610
  743MPD2    H110983   1.490   1.297   2.147 -2.9019 -0.9375 -0.3863
  743MPD2    H210984   1.295   1.318   1.781 -0.7598 -0.6594  0.6473
  743MPD2    H310985   1.303   1.369   2.020 -2.0065 -1.2017 -0.9363
  743MPD2     N10986   1.704   1.154   2.052  0.2797 -0.1201  0.3290
  743MPD2    H510987   1.773   1.098   2.002  1.5840  2.0156 -0.2328
  743MPD2    N110988   1.472   1.211   1.633  0.2242 -0.0094 -0.4489
  743MPD2    H710989   1.394   1.251   1.580 -0.9215 -2.2038 -0.4244
  744TMC3    C110990   1.527   1.145   1.423 -0.3492 -0.0382  0.4720
  744TMC3    C210991   1.427   1.218   1.365  0.1824 -0.3500 -0.2545
  744TMC3    C310992   1.405   1.200   1.226  0.0758 -0.1731  0.1379
  744TMC3    C410993   1.610   1.069   1.338  0.3934 -0.3379  0.0637
  744TMC3    C510994   1.593   1.060   1.205 -0.1019  0.2209 -0.3828
  744TMC3    C610995   1.485   1.123   1.149 -0.2243  0.4615 -0.3831
  744TMC3     C10996   1.569   1.157   1.559  1.1836 -0.3712 -0.1548
  744TMC3     O10997   1.683   1.120   1.589 -0.2931  0.0856 -0.4582
  744TMC3     H10998   1.370   1.291   1.422  0.6892 -0.7722  0.8018
  744TMC3    H110999   1.710   1.051   1.376  0.5339  0.1633 -0.0743
  744TMC3    H211000   1.460   1.102   1.045 -1.0696  3.6052 -0.7875
  744TMC3    C711001   1.670   0.964   1.126 -0.2166 -0.1484  0.5915
  744TMC3    C811002   1.284   1.236   1.159  0.3208 -0.6151 -0.4446
  744TMC3    O111003   1.647   0.959   1.006  0.0306 -0.1945 -0.3289
  744TMC3    O211004   1.272   1.236   1.036 -0.2930 -0.2057  0.4454
  745TMC3    C111005   4.316   4.033  13.912 -1.0981  0.2688  0.6439
  745TMC3    C211006   4.238   3.970  14.005  0.4304 -0.0276  0.0096
  745TMC3    C311007   4.124   3.911  13.953 -0.3942  0.3503 -0.6819
  745TMC3    C411008   4.286   4.032  13.782 -0.0009 -0.2870  0.0280
  745TMC3    C511009   4.170   3.982  13.736 -0.3272  0.1342 -0.3024
  745TMC3    C611010   4.086   3.914  13.816 -0.3647  1.1133 -0.2531
  745TMC3     C11011   4.449   4.070  13.958 -0.3716 -0.1734 -0.7033
  745TMC3     O11012   4.490   4.011  14.056 -0.4134  0.1669 -0.1141
  745TMC3     H11013   4.272   3.973  14.108 -1.7235 -0.3969  0.7273
  745TMC3    H111014   4.354   4.082  13.714  0.1200 -2.2491 -1.3107
  745TMC3    H211015   3.990   3.876  13.784  0.6761 -1.6089 -0.1157
  745TMC3    C711016   4.149   3.975  13.593 -0.7480  0.6391  0.8123
  745TMC3    C811017   4.028   3.853  14.048  0.2041 -0.0750  0.3952
  745TMC3    O111018   4.041   3.962  13.543 -0.2735 -0.0472 -0.2589
  745TMC3    O211019   3.955   3.765  14.010 -0.3057 -0.3982  0.2060
  746TMC3    C111020   1.415   0.999  11.283 -0.2621 -0.3361 -0.1503
  746TMC3    C211021   1.532   0.930  11.240  0.0609  0.5056  0.4273
  746TMC3    C311022   1.528   0.795  11.258 -0.4275 -0.0807  0.4301
  746TMC3    C411023   1.324   0.947  11.362  0.5126  0.2325 -0.4984
  746TMC3    C511024   1.331   0.807  11.374  0.4914 -0.8101  0.0136
  746TMC3    C611025   1.430   0.729  11.316  0.2671  0.3816  0.3004
  746TMC3     C11026   1.405   1.146  11.259 -0.2563  0.6559 -0.6887
  746TMC3     O11027   1.372   1.224  11.346 -0.5313 -0.0644  0.3561
  746TMC3     H11028   1.612   0.980  11.186 -0.7787  0.2087 -1.0948
  746TMC3    H111029   1.235   1.004  11.387  0.7362  0.0880  0.5901
  746TMC3    H211030   1.415   0.621  11.317  1.2612  0.2317 -1.3472
  746TMC3    C711031   1.196   0.740  11.380  0.4628  0.4239 -0.5223
  746TMC3    C811032   1.633   0.713  11.201 -0.6658 -0.8773  0.3700
  746TMC3    O111033   1.176   0.654  11.295  0.1342 -0.5956 -0.2352
  746TMC3    O211034   1.642   0.599  11.238 -0.1721 -0.1457 -0.5278
  747TMC3    C111035   3.941   1.566  11.355  0.2557  0.1739 -0.6063
  747TMC3    C211036   3.834   1.485  11.374  0.4634  0.6582  0.5407
  747TMC3    C311037   3.796   1.464  11.499  0.2621  0.4060 -0.3241
  747TMC3    C411038   4.006   1.640  11.450 -0.2455  0.9096 -0.2625
  747TMC3    C511039   3.960   1.623  11.576 -0.2555  0.7320  0.0863
  747TMC3    C611040   3.851   1.541  11.604 -0.2009  0.5479 -0.3397
  747TMC3     C11041   3.972   1.589  11.209 -0.4824 -0.7625 -0.3472
  747TMC3     O11042   4.027   1.693  11.186  0.7784 -0.3023 -0.3153
  747TMC3     H11043   3.791   1.427  11.293  0.3424  1.1043  0.2852
  747TMC3    H111044   4.088   1.703  11.419  0.0299  0.1111 -1.1460
  747TMC3    H211045   3.829   1.513  11.706  2.5001  0.3534  0.1935
  747TMC3    C711046   4.047   1.673  11.685 -0.3227 -0.3080  0.2258
  747TMC3    C811047   3.713   1.355  11.540  0.2086  0.1858 -0.1524
  747TMC3    O111048   4.146   1.739  11.647 -0.0242  0.1843 -0.2595
  747TMC3    O211049   3.696   1.265  11.466 -0.4667 -0.6382 -0.1820
  748MPD2     C11050   0.173   1.920   1.154  0.1637  0.2133  0.9437
  748MPD2    C111051   0.248   1.863   1.253  0.4022 -0.3069  0.3177
  748MPD2    C211052   0.380   1.836   1.224 -0.2346  0.1396 -0.4842
  748MPD2    C311053   0.439   1.882   1.109  0.7205  0.4726 -0.1313
  748MPD2    C411054   0.360   1.929   1.010 -0.3394  0.1025  0.0828
  748MPD2    C511055   0.227   1.948   1.030  0.1918 -0.7479  0.0574
  748MPD2     H11056   0.435   1.792   1.306 -1.0240 -0.4529 -0.2728
  748MPD2    H111057   0.397   1.954   0.911 -0.1471 -1.5441 -0.2615
  748MPD2    H211058   0.067   1.937   1.172  0.1505  1.5038 -0.3333
  748MPD2    H311059   0.176   1.986   0.942  0.7505  1.0700  0.5130
  748MPD2     N11060   0.577   1.861   1.096 -0.3603 -0.8940 -0.1934
  748MPD2    H511061   0.628   1.808   1.166  0.6278 -0.2284 -0.4097
  748MPD2    N111062   0.179   1.825   1.368 -0.0847  0.5856 -0.7765
  748MPD2    H711063   0.084   1.862   1.373 -0.8980 -1.6656  0.5636
  749TMC3    C111064   0.800   1.848   1.002 -0.0671  0.4433  0.4640
  749TMC3    C211065   0.836   1.765   1.114  0.0338  0.0753  0.8284
  749TMC3    C311066   0.966   1.714   1.123  0.3554  0.2198  0.6037
  749TMC3    C411067   0.884   1.874   0.896 -0.1635 -0.1188  0.5755
  749TMC3    C511068   1.007   1.817   0.908 -0.1206  0.0679 -0.2347
  749TMC3    C611069   1.055   1.744   1.023 -0.0417  0.3419 -0.2392
  749TMC3     C11070   0.658   1.894   0.985  0.0524 -0.4161 -0.1230
  749TMC3     O11071   0.638   1.965   0.890 -0.4546  1.3126  0.1943
  749TMC3     H11072   0.770   1.732   1.193  2.6535 -1.5821  2.3408
  749TMC3    H111073   0.864   1.942   0.814 -2.4227  0.0569  1.2683
  749TMC3    H211074   1.160   1.717   1.023 -0.4519 -1.2966  0.2722
  749TMC3    C711075   1.112   1.890   0.837  1.0725 -0.5825 -0.1549
  749TMC3    C811076   1.013   1.663   1.251 -0.0938 -0.4846  0.3892
  749TMC3    O111077   1.099   2.009   0.819 -0.5593 -0.4533  0.0854
  749TMC3    O211078   0.937   1.693   1.340  0.1924 -0.4678  0.5863
  750MPD2     C11079   1.680   2.939  10.810  0.7204 -1.1206 -0.0648
  750MPD2    C111080   1.546   2.903  10.845  0.3342 -0.1211  0.4688
  750MPD2    C211081   1.496   2.787  10.797 -0.6054 -0.1638  0.0117
  750MPD2    C311082   1.569   2.702  10.716 -0.1810  0.1410  0.2602
  750MPD2    C411083   1.706   2.732  10.689  0.0273 -0.8373  0.3597
  750MPD2    C511084   1.756   2.851  10.734 -0.3919  0.1869 -0.3819
  750MPD2     H11085   1.401   2.747  10.831 -1.1513  1.9583  1.0106
  750MPD2    H111086   1.759   2.670  10.618  0.2598 -0.9951  0.6730
  750MPD2    H211087   1.725   3.035  10.835 -1.2884  0.1022 -1.2350
  750MPD2    H311088   1.859   2.876  10.713 -0.0755 -1.3497 -0.6052
  750MPD2     N11089   1.513   2.588  10.657  0.0524  0.0608  0.1122
  750MPD2    H511090   1.582   2.525  10.618  0.3759  0.6635 -0.2972
  750MPD2    N111091   1.478   2.998  10.922  0.2956  0.1958 -0.3764
  750MPD2    H711092   1.537   3.069  10.964  1.4285 -0.8322 -0.2445
  751TMC3    C111093   1.346   2.417  10.582 -0.2423  0.5267 -0.2121
  751TMC3    C211094   1.226   2.359  10.604  0.9050 -0.1403  0.2303
  751TMC3    C311095   1.184   2.251  10.527  0.0616 -0.3801  0.7404
  751TMC3    C411096   1.430   2.370  10.486  0.0443 -0.1331 -0.5176
  751TMC3    C511097   1.379   2.276  10.405 -0.0030  0.1779 -0.0742
  751TMC3    C611098   1.259   2.221  10.413  0.6592 -0.8976 -0.0893
  751TMC3     C11099   1.380   2.547  10.653 -0.2260  0.4973 -0.0764
  751TMC3     O11100   1.283   2.600  10.707 -0.1121 -0.1410 -0.4050
  751TMC3     H11101   1.174   2.389  10.694  0.2442  1.0228 -0.5328
  751TMC3    H111102   1.532   2.397  10.507 -0.5720  0.0368  2.3523
  751TMC3    H211103   1.226   2.148  10.340  0.8528 -1.8487  0.7826
  751TMC3    C711104   1.487   2.184  10.361 -0.6585 -0.4710 -0.4253
  751TMC3    C811105   1.137   2.131  10.591 -0.0058  0.1148  0.2800
  751TMC3    O111106   1.600   2.228  10.348  0.4323 -0.7546 -0.4487
  751TMC3    O211107   1.166   2.027  10.537  0.1567  0.0583  0.2337
  752TMC3    C111108   4.709   2.007  17.556  0.6159  0.2873  0.0912
  752TMC3    C211109   0.067   1.912  17.613 -0.4891 -0.3012  0.2817
  752TMC3    C311110   0.027   1.854   0.036  0.6046 -0.0390 -0.5506
  752TMC3    C411111   4.583   2.034  17.602  0.6029 -0.5186  0.6963
  752TMC3    C511112   4.535   1.961   0.015 -0.5122 -0.1925 -0.2046
  752TMC3    C611113   4.615   1.869   0.075  0.3825 -0.8681 -0.2933
  752TMC3     C11114   0.065   2.120  17.497  0.1259 -0.3262 -0.5564
  752TMC3     O11115   0.182   2.133  17.534  0.3009  0.4725 -0.2245
  752TMC3     H11116   0.152   1.885  17.552  0.0232  0.0974  0.8222
  752TMC3    H111117   4.527   2.113  17.554  1.2804 -0.6520 -0.3049
  752TMC3    H211118   4.582   1.820   0.166 -0.2655  1.9936  1.0100
  752TMC3    C711119   4.412   2.001   0.081  0.1534 -0.4757  0.0715
  752TMC3    C811120   0.105   1.761   0.113 -0.0216 -0.1870  0.4292
  752TMC3    O111121   4.313   2.033   0.021  0.1446  0.2124 -0.0889
  752TMC3    O211122   0.046   1.719   0.213  0.2613 -0.7583 -0.1425
  753TMC3    C111123   2.518   3.546  13.327 -0.3028  0.1638 -0.1642
  753TMC3    C211124   2.574   3.566  13.447 -0.3482 -0.0871 -0.4438
  753TMC3    C311125   2.622   3.458  13.512  0.2984 -0.3295  0.6776
  753TMC3    C411126   2.489   3.421  13.282  0.1410  0.3888  0.6649
  753TMC3    C511127   2.536   3.312  13.355 -0.0547  0.0229 -0.9242
  753TMC3    C611128   2.612   3.328  13.468  0.0601  0.4052  0.1580
  753TMC3     C11129   2.470   3.655  13.244  0.1693  0.1267  0.2952
  753TMC3     O11130   2.389   3.628  13.155  0.5798 -0.0138 -0.3444
  753TMC3     H11131   2.587   3.670  13.475  0.6393 -0.7364  1.4787
  753TMC3    H111132   2.434   3.402  13.190  2.2762  2.8232 -1.1229
  753TMC3    H211133   2.643   3.238  13.520  0.3157  0.3708 -0.0576
  753TMC3    C711134   2.458   3.184  13.360  0.6618 -0.1176 -0.2806
  753TMC3    C811135   2.714   3.475  13.628 -0.1167 -0.2612 -0.2214
  753TMC3    O111136   2.511   3.081  13.406 -0.0144 -0.0145 -0.1988
  753TMC3    O211137   2.762   3.373  13.675  0.2611  0.0285  0.7332
  754MPD2     C11138   0.851   3.387  12.889  0.2229 -0.1703 -0.1640
  754MPD2    C111139   0.914   3.278  12.938 -0.1991 -0.3419  0.4346
  754MPD2    C211140   0.850   3.154  12.929  0.8066  0.3232  0.3441
  754MPD2    C311141   0.715   3.147  12.901  0.7908 -0.0534  0.0300
  754MPD2    C411142   0.656   3.259  12.851 -0.0052 -0.3100 -0.0370
  754MPD2    C511143   0.719   3.383  12.848  0.1138 -0.1528  0.1666
  754MPD2     H11144   0.909   3.065  12.943 -0.5262 -0.5613  0.2688
  754MPD2    H111145   0.549   3.254  12.838  0.3311  1.1519 -3.3415
  754MPD2    H211146   0.891   3.487  12.897 -1.3483  0.5175 -0.8038
  754MPD2    H311147   0.667   3.472  12.813  2.4699  1.5870  1.1573
  754MPD2     N11148   0.641   3.026  12.890  0.0009 -0.2744  0.3330
  754MPD2    H511149   0.549   3.041  12.850  0.8279 -2.2097 -2.2892
  754MPD2    N111150   1.040   3.303  12.987  0.1182 -0.5741 -0.5916
  754MPD2    H711151   1.075   3.395  12.963  1.5043 -0.4353  1.9241
  755MPD2     C11152   4.606   3.113  12.680 -0.1228 -0.3670  0.0667
  755MPD2    C111153   4.599   3.026  12.787  0.7570  0.5538 -0.8835
  755MPD2    C211154   4.699   2.940  12.808  0.1321 -1.2821  0.1105
  755MPD2    C311155   0.098   2.949  12.730  0.3950 -0.0210  0.2406
  755MPD2    C411156   0.101   3.026  12.619  0.3280  0.3439 -0.2732
  755MPD2    C511157   4.714   3.105  12.596 -0.0782 -0.0645 -0.0542
  755MPD2     H11158   4.696   2.865  12.887 -2.8626  1.5154  2.6689
  755MPD2    H111159   0.186   3.028  12.551 -1.3771  2.1930 -2.3432
  755MPD2    H211160   4.527   3.183  12.656  0.5905  0.4856  0.2197
  755MPD2    H311161   0.009   3.173  12.513 -1.6771  0.3609 -0.0341
  755MPD2     N11162   0.217   2.886  12.771 -0.2240 -0.6476  0.2755
  755MPD2    H511163   0.301   2.910  12.720 -1.0260 -0.0948 -0.7851
  755MPD2    N111164   4.492   3.021  12.874  0.3772  0.0650 -0.3871
  755MPD2    H711165   4.483   2.946  12.942 -1.2733 -0.1255 -0.8098
  756MPD2     C11166   1.878   2.378   9.038 -0.6533 -0.0953 -0.1812
  756MPD2    C111167   1.822   2.315   9.154 -0.0895 -0.6622 -0.6039
  756MPD2    C211168   1.765   2.190   9.149 -0.3664 -0.2326 -0.0249
  756MPD2    C311169   1.754   2.128   9.026 -0.4717 -0.2791  0.3269
  756MPD2    C411170   1.797   2.196   8.913 -0.2144  0.1698 -0.2847
  756MPD2    C511171   1.859   2.317   8.917  0.1693  0.2429 -0.4309
  756MPD2     H11172   1.729   2.145   9.241  1.2702  1.0634  1.2325
  756MPD2    H111173   1.786   2.156   8.813 -0.3151 -0.2288 -0.1122
  756MPD2    H211174   1.926   2.475   9.043 -0.6407 -0.0604 -1.0549
  756MPD2    H311175   1.895   2.366   8.827 -1.6061 -0.1427 -1.3533
  756MPD2     N11176   1.700   1.994   9.024 -0.0467  0.2673 -0.4945
  756MPD2    H511177   1.681   1.948   9.112 -0.7439  0.4411 -0.5596
  756MPD2    N111178   1.842   2.375   9.280 -0.4997  0.0622 -0.2532
  756MPD2    H711179   1.808   2.324   9.362  2.6455 -0.8651  0.4873
  757MPD2     C11180   1.023   1.169   8.840  0.1305  0.2078  0.0726
  757MPD2    C111181   1.071   1.181   8.967 -0.4861  0.0893  0.7717
  757MPD2    C211182   1.178   1.266   9.002 -0.3045 -0.3961  0.4299
  757MPD2    C311183   1.230   1.342   8.906 -0.1514  0.1774  0.0621
  757MPD2    C411184   1.169   1.344   8.779  0.1598 -0.4480 -0.6470
  757MPD2    C511185   1.076   1.251   8.743 -0.3702  0.7707  0.5135
  757MPD2     H11186   1.223   1.273   9.101 -0.1543 -1.7491  0.4600
  757MPD2    H111187   1.215   1.392   8.693 -1.3912  0.7891 -0.7836
  757MPD2    H211188   0.948   1.096   8.812 -0.2104 -0.3947  2.5459
  757MPD2    H311189   1.036   1.241   8.643  1.1216 -1.5057  0.1467
  757MPD2     N11190   1.348   1.416   8.929  0.7184 -0.5317  0.0707
  757MPD2    H511191   1.381   1.404   9.025  0.4673 -3.0158 -0.1538
  757MPD2    N111192   0.996   1.107   9.070  0.3107  0.0506 -0.3727
  757MPD2    H711193   0.924   1.043   9.039  1.4457 -1.0011 -0.8257
  758MPD2     C11194   1.188   2.166  15.574  0.0320 -0.1969  0.0009
  758MPD2    C111195   1.212   2.080  15.677 -0.3294 -0.2932 -0.2993
  758MPD2    C211196   1.183   2.118  15.808  0.3030  0.1257  0.1884
  758MPD2    C311197   1.138   2.252  15.822  0.7241 -0.0071  0.0272
  758MPD2    C411198   1.106   2.334  15.720  0.0175 -0.1155  0.1957
  758MPD2    C511199   1.130   2.284  15.596 -0.0022 -0.4152  1.0107
  758MPD2     H11200   1.211   2.056  15.892  1.5082  0.5036  0.0591
  758MPD2    H111201   1.056   2.430  15.732  1.1655  0.5705 -0.4906
  758MPD2    H211202   1.203   2.136  15.471  1.2590 -1.5978  0.5954
  758MPD2    H311203   1.120   2.351  15.512  1.3946 -0.5333  0.7528
  758MPD2     N11204   1.110   2.309  15.952 -0.1296  0.0278  0.1100
  758MPD2    H511205   1.055   2.394  15.962 -0.5585 -0.3550  0.9767
  758MPD2    N111206   1.266   1.953  15.639  0.1622  0.4538  0.1946
  758MPD2    H711207   1.309   1.958  15.547 -2.5217  3.0314 -0.9161
  759MPD2     C11208   0.365   0.707  10.501  1.0100 -0.7818  0.0218
  759MPD2    C111209   0.298   0.587  10.523 -0.3445  0.1772  0.5295
  759MPD2    C211210   0.354   0.473  10.460  0.3815  0.2094  0.4707
  759MPD2    C311211   0.449   0.471  10.368  0.3080 -0.3277 -0.1242
  759MPD2    C411212   0.512   0.590  10.347 -0.5921  0.0303 -0.2701
  759MPD2    C511213   0.463   0.705  10.408  0.5306 -0.1855  0.8772
  759MPD2     H11214   0.310   0.376  10.483 -4.6982  2.6081  1.0235
  759MPD2    H111215   0.582   0.598  10.265 -0.6485 -1.2606 -0.4589
  759MPD2    H211216   0.342   0.798  10.554 -0.8783 -0.9217 -0.5501
  759MPD2    H311217   0.506   0.801  10.384  0.1104 -0.1691  0.1945
  759MPD2     N11218   0.498   0.347  10.316  0.9443 -0.0815 -0.1747
  759MPD2    H511219   0.467   0.269  10.374 -3.9708  2.5660  0.8112
  759MPD2    N111220   0.193   0.585  10.617  0.1057 -0.3179 -0.0046
  759MPD2    H711221   0.151   0.494  10.630 -0.4120 -0.1495 -0.5376
  760MPD2     C11222   4.481   2.724  11.452  0.0806  0.4383 -0.5653
  760MPD2    C111223   4.608   2.721  11.423 -0.4668  0.4542  0.4273
  760MPD2    C211224   4.693   2.644  11.497 -0.1674  0.1342 -0.6105
  760MPD2    C311225   4.652   2.571  11.604  0.6837  0.4309 -0.1744
  760MPD2    C411226   4.521   2.569  11.641  0.0604 -1.0093 -0.1885
  760MPD2    C511227   4.435   2.649  11.559  0.1318 -0.1432  0.4827
  760MPD2     H11228   0.076   2.641  11.469 -0.0707 -0.0441 -0.2256
  760MPD2    H111229   4.488   2.519  11.731 -0.2437 -2.9593 -1.3660
  760MPD2    H211230   4.407   2.779  11.396  0.0688  2.7626  1.7422
  760MPD2    H311231   4.330   2.651  11.587  0.8344 -0.1447  3.0682
  760MPD2     N11232   0.019   2.500  11.687  0.0627 -0.1018  0.8022
  760MPD2    H511233   4.697   2.454  11.765  0.3042  1.1573  1.6875
  760MPD2    N111234   4.670   2.809  11.330 -0.3054  0.5546 -0.7017
  760MPD2    H711235   0.048   2.798  11.321 -0.2980  0.4247 -0.4643
  761MPD2     C11236   0.985   1.853  10.998 -0.2256 -0.3679 -0.1313
  761MPD2    C111237   1.034   1.806  10.877 -0.7155  0.5827 -0.6304
  761MPD2    C211238   1.068   1.897  10.774  0.2982  0.2431  0.1687
  761MPD2    C311239   1.062   2.037  10.804  0.3151  0.5580 -0.0392
  761MPD2    C411240   1.012   2.073  10.926 -1.0037  0.2341  0.2253
  761MPD2    C511241   0.973   1.985  11.025  0.6082  0.2423  0.9468
  761MPD2     H11242   1.103   1.865  10.677  0.7671  0.7124  0.1804
  761MPD2    H111243   1.020   2.178  10.950 -1.2119  0.7481 -1.9526
  761MPD2    H211244   0.961   1.784  11.078 -1.3477  0.0508 -0.1101
  761MPD2    H311245   0.948   2.019  11.125  1.9073  0.0272  1.3518
  761MPD2     N11246   1.088   2.144  10.718 -0.8654 -0.0246 -0.2170
  761MPD2    H511247   1.074   2.241  10.742  0.6280  0.4061 -1.0729
  761MPD2    N111248   1.053   1.664  10.865  0.7375 -0.0839 -0.2799
  761MPD2    H711249   1.010   1.606  10.936 -0.6564  1.7981  0.4238
  762MPD2     C11250   1.458   1.330  10.245 -0.1621  0.7192 -0.6154
  762MPD2    C111251   1.466   1.263  10.365  0.9693 -0.3215 -0.1142
  762MPD2    C211252   1.578   1.171  10.381 -0.7639 -0.1149 -0.2695
  762MPD2    C311253   1.665   1.150  10.276  0.2106 -0.0404 -0.1381
  762MPD2    C411254   1.646   1.217  10.151  0.4318  0.0305 -0.1077
  762MPD2    C511255   1.546   1.310  10.141 -0.0930  0.1959 -0.6166
  762MPD2     H11256   1.589   1.118  10.475 -2.3344 -0.7601 -0.4555
  762MPD2    H111257   1.704   1.204  10.060  0.2675  0.6945 -0.3078
  762MPD2    H211258   1.369   1.391  10.231 -0.5722  0.4770  0.9327
  762MPD2    H311259   1.534   1.372  10.053 -1.4011  0.0399 -0.5555
  762MPD2     N11260   1.769   1.056  10.295 -0.1668 -0.7040 -0.1375
  762MPD2    H511261   1.787   1.027  10.391 -0.9045 -2.4286 -0.5270
  762MPD2    N111262   1.373   1.291  10.463 -0.0847  0.9542 -0.1595
  762MPD2    H711263   1.288   1.335  10.427  0.1566 -0.6803 -2.6981
  763MPD2     C11264   3.178   2.244  16.110  0.2401 -0.4528 -0.2579
  763MPD2    C111265   3.048   2.281  16.074 -0.0443 -0.3753 -0.4350
  763MPD2    C211266   3.008   2.410  16.106 -0.1136 -0.1514 -0.4821
  763MPD2    C311267   3.099   2.494  16.163  0.3634 -0.4770 -0.1592
  763MPD2    C411268   3.225   2.459  16.186  0.1603 -0.3367  0.1894
  763MPD2    C511269   3.264   2.338  16.153  0.2349  0.1547 -0.4624
  763MPD2     H11270   2.922   2.458  16.061 -1.3085 -0.7824  1.1142
  763MPD2    H111271   3.305   2.517  16.231 -2.4613  3.9077 -0.6229
  763MPD2    H211272   3.224   2.147  16.096 -0.0143 -0.7155  0.7774
  763MPD2    H311273   3.363   2.307  16.182 -0.2485 -1.1164 -0.1600
  763MPD2     N11274   3.073   2.628  16.184 -0.1266 -0.2088 -0.2053
  763MPD2    H511275   3.146   2.693  16.213  0.1563 -0.1667 -1.0334
  763MPD2    N111276   2.967   2.215  15.975 -0.4929  0.2498 -0.2383
  763MPD2    H711277   2.886   2.263  15.936 -0.6691  0.0767 -0.0821
  764MPD2     C11278   1.620   3.383  17.480 -0.8324  0.2929 -0.6443
  764MPD2    C111279   1.489   3.412  17.502  0.6332  0.4701 -0.0525
  764MPD2    C211280   1.428   3.363  17.615 -0.4541  0.5317  0.4525
  764MPD2    C311281   1.496   3.279   0.012 -0.1347 -0.0333 -0.2065
  764MPD2    C411282   1.631   3.260  17.681  0.7500 -0.2529  0.4524
  764MPD2    C511283   1.692   3.311  17.572 -0.0890 -0.5918  0.0973
  764MPD2     H11284   1.322   3.375  17.630 -0.6575 -0.3828 -0.2581
  764MPD2    H111285   1.683   3.199   0.063  2.9760  0.1537 -0.7934
  764MPD2    H211286   1.681   3.418  17.397  0.5991  0.1924  0.3679
  764MPD2    H311287   1.797   3.286  17.564 -0.0307  0.2288 -1.6906
  764MPD2     N11288   1.430   3.219   0.123  0.5050  0.2855  0.0966
  764MPD2    H511289   1.331   3.239   0.135  0.3715  1.7937 -3.3623
  764MPD2    N111290   1.410   3.477  17.403 -0.1307  0.5578  0.4549
  764MPD2    H711291   1.311   3.495  17.418 -1.1257 -2.0878 -2.9245
  765MPD2     C11292   0.856   0.875  15.825 -0.2089 -0.7734 -0.0397
  765MPD2    C111293   0.878   1.006  15.792 -0.4752 -0.7654 -0.4138
  765MPD2    C211294   0.992   1.043  15.722  0.0586 -0.0133  0.8500
  765MPD2    C311295   1.084   0.944  15.675  0.6414 -0.6080 -0.5259
  765MPD2    C411296   1.057   0.814  15.711 -0.3437  0.5593 -0.0886
  765MPD2    C511297   0.944   0.783  15.777 -0.2452 -0.0295 -0.5404
  765MPD2     H11298   1.018   1.149  15.718 -0.8176  0.1787  0.3453
  765MPD2    H111299   1.129   0.735  15.694 -0.7809  0.0175  0.5773
  765MPD2    H211300   0.763   0.843  15.872  0.0714 -1.3613  0.1167
  765MPD2    H311301   0.925   0.679  15.802  0.4640  0.7260  3.2219
  765MPD2     N11302   1.202   0.976  15.607  0.8309 -0.6079 -0.5215
  765MPD2    H511303   1.262   0.895  15.594  2.3690  0.4371  0.0823
  765MPD2    N111304   0.779   1.101  15.833 -0.2757  0.6866  0.4789
  765MPD2    H711305   0.699   1.060  15.880  1.0974  0.0397  2.2622
  766MPD2     C11306   0.167   1.288  15.313 -0.4374  0.6191  0.1623
  766MPD2    C111307   0.299   1.285  15.347  0.0980 -0.2430  0.2360
  766MPD2    C211308   0.397   1.307  15.256 -0.2578 -0.4286  0.1351
  766MPD2    C311309   0.364   1.323  15.127  0.3192  0.7408  0.3675
  766MPD2    C411310   0.231   1.312  15.082  0.1694 -0.5215  0.7781
  766MPD2    C511311   0.132   1.295  15.177  0.3116 -0.4441  0.2417
  766MPD2     H11312   0.499   1.330  15.286 -0.0720 -0.7383 -0.2744
  766MPD2    H111313   0.202   1.323  14.978 -0.0911 -0.7337  0.8289
  766MPD2    H211314   0.089   1.293  15.388 -0.4115 -1.3002  0.3310
  766MPD2    H311315   0.029   1.304  15.144  0.8349  0.4233 -1.1479
  766MPD2     N11316   0.461   1.361  15.033 -0.1352 -0.2023 -0.6341
  766MPD2    H511317   0.426   1.376  14.939 -1.0292 -1.5795 -0.5161
  766MPD2    N111318   0.336   1.288  15.477  0.0351  0.9238 -0.3191
  766MPD2    H711319   0.262   1.318  15.540 -1.8467 -1.5740 -1.3419
  767MPD2     C11320   4.708   1.538  14.949  0.2087  0.4920  0.6573
  767MPD2    C111321   0.110   1.598  14.927 -0.6011  0.1857 -0.1750
  767MPD2    C211322   0.174   1.584  14.805 -0.0913  0.5660 -0.1124
  767MPD2    C311323   0.116   1.513  14.707 -0.2097 -0.8043 -0.0294
  767MPD2    C411324   4.720   1.447  14.727 -0.0035  0.1917 -0.2557
  767MPD2    C511325   4.658   1.457  14.847 -0.4116 -0.0884 -0.0005
  767MPD2     H11326   0.267   1.636  14.782  1.3186 -3.5022 -3.4733
  767MPD2    H111327   4.681   1.376  14.655 -0.0492  1.1844 -1.1994
  767MPD2    H211328   4.644   1.553  15.035 -2.8051  1.9443 -1.8516
  767MPD2    H311329   4.563   1.405  14.848 -1.8903  2.6182 -1.2066
  767MPD2     N11330   0.190   1.501  14.586  0.1036 -0.0575 -0.5737
  767MPD2    H511331   0.283   1.541  14.582  0.4764 -0.8943 -0.2774
  767MPD2    N111332   0.145   1.690  15.025  0.3239  0.0283 -0.1361
  767MPD2    H711333   0.092   1.706  15.110 -1.3707 -2.9866 -0.6173
  768MPD2     C11334   1.152   0.090  11.047  0.3479 -0.5185 -0.4228
  768MPD2    C111335   1.115   0.082  11.177 -0.3935 -0.2346 -0.1358
  768MPD2    C211336   1.206   0.109  11.273  0.2598 -0.2799  0.3014
  768MPD2    C311337   1.341   0.139  11.238 -0.2548 -0.9862 -0.5085
  768MPD2    C411338   1.369   0.155  11.105 -0.0163 -0.1987  0.4341
  768MPD2    C511339   1.274   0.121  11.008 -0.0760 -0.7386  0.5963
  768MPD2     H11340   1.175   0.111  11.377 -1.1223  0.4299 -0.1285
  768MPD2    H111341   1.473   0.163  11.076 -0.4873  0.8977 -0.9290
  768MPD2    H211342   1.089   0.054  10.966  1.7932 -2.7461 -0.5847
  768MPD2    H311343   1.285   0.113  10.901 -2.0104 -2.5930  0.5347
  768MPD2     N11344   1.450   0.159  11.334 -0.0815  0.3235 -0.1365
  768MPD2    H511345   1.541   0.192  11.302  1.0741 -1.5836  1.2088
  768MPD2    N111346   0.980   0.078  11.221 -0.1993 -0.2097 -0.1597
  768MPD2    H711347   0.968   0.083  11.322 -1.5489 -2.8134 -0.2092
  769MPD2     C11348   2.209   2.921  14.939  0.2641  0.1788 -0.0794
  769MPD2    C111349   2.108   2.916  15.034 -0.2984  0.5993 -0.5936
  769MPD2    C211350   2.137   2.970  15.157  0.1825 -0.0930  0.5473
  769MPD2    C311351   2.254   3.040  15.186 -0.0153  0.0550 -0.1085
  769MPD2    C411352   2.361   3.015  15.096 -0.1249  0.3912  0.1854
  769MPD2    C511353   2.332   2.965  14.973 -0.7169 -0.3117  0.1676
  769MPD2     H11354   2.054   2.972  15.226  0.5415  0.4733  0.9542
  769MPD2    H111355   2.463   3.044  15.118  0.0509 -0.2013  0.1514
  769MPD2    H211356   2.195   2.880  14.840 -0.4560 -1.9820  0.9159
  769MPD2    H311357   2.421   2.962  14.912  1.0340  0.9913  2.6899
  769MPD2     N11358   2.274   3.106  15.311  0.1608 -0.0161 -0.3747
  769MPD2    H511359   2.193   3.122  15.370  0.3885  1.6954 -0.4991
  769MPD2    N111360   1.974   2.871  15.004  0.6858 -0.0703 -0.0465
  769MPD2    H711361   1.956   2.849  14.906 -0.3519 -0.0011  0.1256
  770MPD2     C11362   1.008   2.469  14.945 -0.4385  0.1210  0.1931
  770MPD2    C111363   1.127   2.408  14.906 -0.4184 -0.1380  0.0280
  770MPD2    C211364   1.242   2.488  14.926 -0.3523  0.4770  0.4603
  770MPD2    C311365   1.237   2.616  14.980 -0.0300 -0.1076 -0.1167
  770MPD2    C411366   1.109   2.667  15.014 -0.9942  0.1603  0.1848
  770MPD2    C511367   1.001   2.592  15.001  0.0909 -0.1039  0.1501
  770MPD2     H11368   1.337   2.440  14.902 -1.3092 -1.3765  0.4171
  770MPD2    H111369   1.098   2.771  15.042  0.5254  0.1142  0.9677
  770MPD2    H211370   0.914   2.416  14.930  0.7408 -1.3564 -1.8231
  770MPD2    H311371   0.902   2.629  15.025 -0.1956 -0.7114 -0.1057
  770MPD2     N11372   1.354   2.693  14.990  0.0256  0.0531 -0.2578
  770MPD2    H511373   1.439   2.641  14.970  0.6044 -0.1707  2.8385
  770MPD2    N111374   1.120   2.282  14.844 -0.1735  0.2948  0.8152
  770MPD2    H711375   1.027   2.247  14.820  0.1308 -1.3915  2.0223
  771MPD2     C11376   2.636   0.745  13.485  0.1052  0.2212  0.2839
  771MPD2    C111377   2.627   0.867  13.423 -0.1102 -0.3735  0.3355
  771MPD2    C211378   2.578   0.864  13.294  0.5018 -0.6810  0.5095
  771MPD2    C311379   2.545   0.741  13.234  1.2312 -0.1225 -0.1828
  771MPD2    C411380   2.553   0.618  13.300 -0.1781 -0.2958 -0.0737
  771MPD2    C511381   2.606   0.619  13.429 -0.1192  0.4061 -0.3047
  771MPD2     H11382   2.568   0.961  13.246 -1.3491 -0.1164  2.0406
  771MPD2    H111383   2.526   0.523  13.255  0.2215 -1.1144  1.4287
  771MPD2    H211384   2.654   0.737  13.592 -1.4973 -0.8856  0.4696
  771MPD2    H311385   2.632   0.527  13.480 -1.3514  0.2419  0.0236
  771MPD2     N11386   2.501   0.759  13.099  0.7823 -0.3334 -0.3099
  771MPD2    H511387   2.498   0.852  13.061  0.0681 -0.4979 -0.6395
  771MPD2    N111388   2.665   0.992  13.475 -0.4909 -0.4489 -0.4721
  771MPD2    H711389   2.662   1.066  13.406  0.2694  1.9894  2.0712
  772MPD2     C11390   2.560   1.659  13.872  0.0651  0.0408  0.6728
  772MPD2    C111391   2.538   1.542  13.802  0.2995  0.3091 -0.0918
  772MPD2    C211392   2.406   1.500  13.790 -0.5981  0.0095  0.1847
  772MPD2    C311393   2.296   1.581  13.815 -0.0802  1.1955  0.4399
  772MPD2    C411394   2.324   1.702  13.873  0.4368  0.3891 -0.5160
  772MPD2    C511395   2.450   1.737  13.912  0.1756  0.7577 -0.7784
  772MPD2     H11396   2.390   1.398  13.757  1.8221 -0.5994  0.8693
  772MPD2    H111397   2.243   1.771  13.895  0.1638 -0.0386 -0.1851
  772MPD2    H211398   2.660   1.694  13.896  1.3170 -2.3297 -1.2121
  772MPD2    H311399   2.474   1.825  13.970  4.1226 -0.0134 -1.2466
  772MPD2     N11400   2.165   1.534  13.800 -0.2869 -0.1218  0.4020
  772MPD2    H511401   2.092   1.600  13.823  1.1250  1.6938 -0.2865
  772MPD2    N111402   2.635   1.448  13.758  0.4589  0.1937 -0.5486
  772MPD2    H711403   2.601   1.361  13.720  1.3509 -0.0294 -0.8279
  773MPD2     C11404   2.119   2.713   0.069  0.1481  0.2608  0.3324
  773MPD2    C111405   1.993   2.666   0.039  0.3166 -0.5266  0.4064
  773MPD2    C211406   1.961   2.548   0.096  0.4618 -0.0994  0.2785
  773MPD2    C311407   2.045   2.470   0.171  0.6639  0.1338 -0.2660
  773MPD2    C411408   2.165   2.523   0.211  0.3473 -0.5309  0.4762
  773MPD2    C511409   2.203   2.641   0.150 -0.4566 -0.4839 -0.4574
  773MPD2     H11410   1.866   2.502   0.073  0.0907  1.8286 -2.0568
  773MPD2    H111411   2.229   2.475   0.285  0.0258 -0.0323  1.0795
  773MPD2    H211412   2.167   2.803   0.034  1.7359 -0.8385 -0.3333
  773MPD2    H311413   2.295   2.694   0.172 -1.4984  0.4657  1.6038
  773MPD2     N11414   2.000   2.341   0.198 -0.0876  0.1354  0.2358
  773MPD2    H511415   1.912   2.311   0.158  0.1029 -1.2960  0.9250
  773MPD2    N111416   1.909   2.738  17.642  0.6977  0.2826 -0.0929
  773MPD2    H711417   1.819   2.691  17.629  0.4377  1.2049 -1.5478
  774MPD2     C11418   1.372   2.305  13.276  0.4013 -1.1215  0.3759
  774MPD2    C111419   1.247   2.331  13.315 -0.1707  0.5064  0.8680
  774MPD2    C211420   1.195   2.458  13.318 -0.5159  0.1855 -0.3244
  774MPD2    C311421   1.270   2.564  13.278 -0.4979 -0.2880  0.1129
  774MPD2    C411422   1.398   2.534  13.229 -0.5694 -0.0868 -0.3004
  774MPD2    C511423   1.449   2.407  13.230 -0.1019  0.7615  0.4695
  774MPD2     H11424   1.095   2.477  13.356 -0.2015 -2.4420  1.7479
  774MPD2    H111425   1.462   2.618  13.204 -0.8623  0.0609 -0.5673
  774MPD2    H211426   1.410   2.205  13.258  0.3983 -1.1667  0.6292
  774MPD2    H311427   1.547   2.380  13.191 -0.6741  0.4567 -0.7553
  774MPD2     N11428   1.210   2.694  13.282  0.1770  0.1354 -0.1528
  774MPD2    H511429   1.114   2.686  13.313  0.0827 -2.5456 -1.1743
  774MPD2    N111430   1.177   2.214  13.346  0.6165 -0.2328  0.7337
  774MPD2    H711431   1.227   2.126  13.340 -0.4288 -0.6184 -2.0609
  775MPD2     C11432   2.549   3.036  15.683  0.6430  0.2058  0.5585
  775MPD2    C111433   2.576   3.145  15.762 -0.8103 -0.0927 -0.0269
  775MPD2    C211434   2.684   3.217  15.722  0.5553  0.0069 -0.6582
  775MPD2    C311435   2.757   3.177  15.602 -0.2086  0.1605 -0.6008
  775MPD2    C411436   2.726   3.061  15.531  0.6122  0.1569  0.3798
  775MPD2    C511437   2.621   2.998  15.573 -1.0184 -0.2664  0.1742
  775MPD2     H11438   2.713   3.310  15.770  1.0261 -0.4086 -0.1412
  775MPD2    H111439   2.780   3.036  15.441  0.7314 -1.3989  0.8949
  775MPD2    H211440   2.469   2.972  15.717  0.8055  0.6341  1.7244
  775MPD2    H311441   2.597   2.904  15.525  1.3233  0.0449 -1.6235
  775MPD2     N11442   2.866   3.250  15.544 -0.0207  0.0710 -0.2850
  775MPD2    H511443   2.891   3.218  15.451  2.6049  0.1206  0.4132
  775MPD2    N111444   2.494   3.164  15.871 -0.2714 -0.6299 -0.3313
  775MPD2    H711445   2.417   3.100  15.886 -1.0366  0.2779 -0.3640
  776MPD2     C11446   1.453   3.672  10.954 -0.4164  0.7985  0.5432
  776MPD2    C111447   1.491   3.606  11.070 -0.4345 -0.3476  0.4336
  776MPD2    C211448   1.587   3.661  11.156 -1.4760 -0.6590  0.6119
  776MPD2    C311449   1.635   3.786  11.128 -0.2901 -0.3094 -0.5720
  776MPD2    C411450   1.589   3.852  11.015  0.0181 -0.1275 -0.0463
  776MPD2    C511451   1.500   3.798  10.928 -0.2449 -0.0664 -0.8951
  776MPD2     H11452   1.618   3.613  11.249 -0.2635  0.0833  0.5824
  776MPD2    H111453   1.629   3.948  10.984  1.3006 -0.9351 -0.8952
  776MPD2    H211454   1.392   3.631  10.874  0.2148  1.2007 -0.1436
  776MPD2    H311455   1.458   3.856  10.847  0.8541  2.0847  0.0727
  776MPD2     N11456   1.731   3.851  11.204 -0.6354  0.1316 -0.6539
  776MPD2    H511457   1.763   3.944  11.178  2.5275 -1.0736 -1.1357
  776MPD2    N111458   1.437   3.478  11.084  0.9807 -0.0606  0.2309
  776MPD2    H711459   1.384   3.443  11.005 -0.3127  1.5801  0.3898
  777MPD2     C11460   2.002   1.414   0.742 -0.2407 -0.3346  0.7757
  777MPD2    C111461   1.985   1.308   0.831  0.1616 -0.6081  0.3319
  777MPD2    C211462   1.969   1.178   0.778 -0.2351 -0.3538  0.0304
  777MPD2    C311463   2.008   1.159   0.649 -0.8218  0.2475 -0.0672
  777MPD2    C411464   2.025   1.263   0.563  0.3597 -0.1075  0.1194
  777MPD2    C511465   2.029   1.390   0.614  0.0724  0.1003 -0.0048
  777MPD2     H11466   1.962   1.096   0.849 -2.0399 -1.6685 -1.6292
  777MPD2    H111467   2.055   1.257   0.459 -2.6048 -1.7104 -0.6465
  777MPD2    H211468   1.997   1.518   0.773 -1.2479 -0.8739  2.4202
  777MPD2    H311469   2.047   1.478   0.554 -1.6620  0.6563  0.2870
  777MPD2     N11470   2.015   1.030   0.597 -0.1533  0.2544 -0.8183
  777MPD2    H511471   1.998   0.953   0.660 -1.5602  1.5927  0.4271
  777MPD2    N111472   1.959   1.336   0.967  0.3889 -0.0464  0.1538
  777MPD2    H711473   1.965   1.434   0.990 -2.1406 -0.3031  1.9456
  778MPD2     C11474   3.092   1.099  14.325 -0.0343  0.4977  0.3730
  778MPD2    C111475   3.118   0.969  14.295  0.1239 -0.9512 -0.7417
  778MPD2    C211476   3.217   0.936  14.197  0.5836 -0.0151 -0.0965
  778MPD2    C311477   3.297   1.037  14.140  0.0242  0.5949 -0.1798
  778MPD2    C411478   3.284   1.161  14.198  0.3714  0.2212 -0.5675
  778MPD2    C511479   3.182   1.194  14.282 -0.0791  0.2632  0.5986
  778MPD2     H11480   3.224   0.832  14.167 -3.6882 -1.0368  2.4668
  778MPD2    H111481   3.347   1.242  14.163 -0.3850  1.0034 -0.0988
  778MPD2    H211482   3.018   1.142  14.391 -0.0542 -0.3808  0.9310
  778MPD2    H311483   3.178   1.297  14.317 -0.5403  1.0662 -1.8143
  778MPD2     N11484   3.383   1.007  14.023 -0.2753  0.5100 -0.1433
  778MPD2    H511485   3.392   0.908  14.004  0.6848  0.2975  1.3526
  778MPD2    N111486   3.041   0.863  14.351 -0.7085  0.7242 -0.5636
  778MPD2    H711487   3.072   0.767  14.341  1.9812  1.4432  0.7955
  779MPD2     C11488   2.737   0.005  13.789  0.1995 -0.5249  0.4688
  779MPD2    C111489   2.851   4.719  13.869  0.3879  0.7275 -0.0972
  779MPD2    C211490   2.939   0.102  13.874  0.0621 -0.2697 -0.0224
  779MPD2    C311491   2.918   0.204  13.777 -0.9356  0.0355 -0.1976
  779MPD2    C411492   2.806   0.209  13.698 -0.3681 -0.1055 -0.6419
  779MPD2    C511493   2.716   0.116  13.717 -0.3375  0.4756  1.4163
  779MPD2     H11494   3.027   0.098  13.938  0.8716  0.7051 -1.0864
  779MPD2    H111495   2.808   0.291  13.627  1.7292  0.0135 -0.4686
  779MPD2    H211496   2.659   4.652  13.784 -0.0783 -0.2260  0.2392
  779MPD2    H311497   2.640   0.112  13.639 -0.1572 -0.0521  1.2670
  779MPD2     N11498   3.018   0.310  13.768  0.2222 -0.0857 -0.2431
  779MPD2    H511499   3.085   0.307  13.844  0.6512 -0.5882 -0.6410
  779MPD2    N111500   2.877   4.610  13.950  0.0993  0.8925  0.1706
  779MPD2    H711501   2.965   4.607  14.000 -1.2255  0.1623  2.4729
  780MPD2     C11502   1.526   4.585   0.796 -0.0707  0.8758 -0.3554
  780MPD2    C111503   1.563   4.498   0.696  0.6975 -0.0663 -0.7256
  780MPD2    C211504   1.649   4.535   0.591  0.1896  0.5232  0.1985
  780MPD2    C311505   1.690   4.663   0.581 -0.4233  0.7633 -0.1082
  780MPD2    C411506   1.645   0.028   0.670 -0.3728 -0.0992  0.1644
  780MPD2    C511507   1.570   4.715   0.782 -1.0225 -0.3762  0.5130
  780MPD2     H11508   1.684   4.463   0.519 -1.9293 -0.3123  0.0063
  780MPD2    H111509   1.647   0.134   0.645  0.3155 -0.2769 -0.5302
  780MPD2    H211510   1.463   4.559   0.880 -0.0159  1.1871 -0.2200
  780MPD2    H311511   1.539   0.062   0.859 -0.3316  0.1153  0.3494
  780MPD2     N11512   1.767   4.696   0.465 -0.2883  0.6273 -0.1980
  780MPD2    H511513   1.788   4.616   0.406 -2.4161 -0.0161 -0.0912
  780MPD2    N111514   1.509   4.365   0.713  0.0096  0.1706  0.1260
  780MPD2    H711515   1.451   4.347   0.794  0.5156 -0.3134  0.3806
  781MPD2     C11516   4.043   2.123  11.904  0.3165 -0.2247  0.1592
  781MPD2    C111517   4.131   2.143  12.006 -0.1937  1.0711 -0.7356
  781MPD2    C211518   4.247   2.213  11.976 -0.2111 -0.0527  0.1538
  781MPD2    C311519   4.294   2.226  11.844  0.0697  0.2680  0.0994
  781MPD2    C411520   4.197   2.220  11.746 -0.6064 -0.2088  0.5804
  781MPD2    C511521   4.078   2.165  11.777  0.6615  0.1161  0.4853
  781MPD2     H11522   4.311   2.232  12.061 -0.8815 -1.7743  1.0405
  781MPD2    H111523   4.216   2.242  11.642  2.0893  2.0360  1.5593
  781MPD2    H211524   3.943   2.086  11.925 -0.2575  0.6047 -1.0883
  781MPD2    H311525   4.006   2.173  11.696  0.0195  1.2363  1.1790
  781MPD2     N11526   4.422   2.272  11.808  0.4681  0.3726 -0.6264
  781MPD2    H511527   4.422   2.310  11.714 -0.2434  1.1163 -0.3232
  781MPD2    N111528   4.105   2.102  12.139  0.6485 -0.2840 -0.1071
  781MPD2    H711529   4.172   2.138  12.207  0.2610 -0.2803  0.2734
  782MPD2     C11530   2.244   2.214   9.653 -0.3002 -0.6805 -0.4617
  782MPD2    C111531   2.257   2.193   9.786 -0.0789  0.0057 -0.1942
  782MPD2    C211532   2.312   2.294   9.861  0.2143  0.1591  0.2556
  782MPD2    C311533   2.338   2.418   9.807  1.0731  0.2022  0.1451
  782MPD2    C411534   2.307   2.441   9.670  0.4551  0.4780  0.7866
  782MPD2    C511535   2.267   2.339   9.597  0.7455  0.2409  0.0280
  782MPD2     H11536   2.332   2.282   9.967  0.8098 -1.6445 -0.0649
  782MPD2    H111537   2.331   2.536   9.624  2.5914  0.3171  1.5828
  782MPD2    H211538   2.207   2.133   9.592 -0.0261 -1.2833  0.1739
  782MPD2    H311539   2.243   2.342   9.491 -0.6528 -0.3104  0.3302
  782MPD2     N11540   2.410   2.505   9.890  0.8339  0.3174 -0.1709
  782MPD2    H511541   2.424   2.486   9.989 -1.3895  1.4201  0.3734
  782MPD2    N111542   2.218   2.065   9.833  0.6276 -0.6065  0.7142
  782MPD2    H711543   2.208   1.994   9.761 -0.2815  0.4183 -0.1795
  783MPD2     C11544   1.441   1.824  10.391  0.1163  0.6138  0.6104
  783MPD2    C111545   1.508   1.939  10.361  0.1331  0.1441 -0.7404
  783MPD2    C211546   1.627   1.934  10.291  0.1064 -0.2154 -0.2763
  783MPD2    C311547   1.694   1.816  10.276 -0.4115 -0.2152 -0.3695
  783MPD2    C411548   1.633   1.700  10.329  0.5802 -0.0137  0.3113
  783MPD2    C511549   1.505   1.704  10.375 -0.3508  0.2695  0.5754
  783MPD2     H11550   1.674   2.028  10.263 -0.9258  0.6937  1.0561
  783MPD2    H111551   1.687   1.607  10.346 -0.2534 -0.5360  0.0544
  783MPD2    H211552   1.342   1.835  10.434  0.0981  1.9696  0.2114
  783MPD2    H311553   1.461   1.609  10.405  0.3007 -0.6814 -1.4388
  783MPD2     N11554   1.825   1.835  10.222 -0.2788 -0.2788  0.3407
  783MPD2    H511555   1.859   1.928  10.197 -0.4209  0.4744  2.9955
  783MPD2    N111556   1.446   2.059  10.387  0.1068 -0.3036  0.1017
  783MPD2    H711557   1.356   2.045  10.432  1.0351 -0.4882  1.9092
  784MPD2     C11558   4.288   2.123   1.005  0.8762 -0.3394 -0.0485
  784MPD2    C111559   4.318   2.257   1.022  0.0200  0.4395  1.0031
  784MPD2    C211560   4.232   2.347   0.961 -0.1503  0.4122  1.1049
  784MPD2    C311561   4.130   2.311   0.876  0.3628  0.7182  0.2373
  784MPD2    C411562   4.113   2.176   0.852 -0.3521 -0.0429  0.1372
  784MPD2    C511563   4.192   2.083   0.917  0.2773 -0.1990  0.3356
  784MPD2     H11564   4.251   2.452   0.978  0.2814  0.6290 -0.7117
  784MPD2    H111565   4.026   2.143   0.797  0.8631 -2.0646 -0.5615
  784MPD2    H211566   4.328   2.047   1.070  0.6246 -0.2400  0.2247
  784MPD2    H311567   4.153   1.982   0.916 -1.5268  0.4864  1.5529
  784MPD2     N11568   4.056   2.412   0.807  0.0444 -0.1581 -0.1843
  784MPD2    H511569   4.074   2.509   0.831 -0.1593 -0.5730  1.6083
  784MPD2    N111570   4.423   2.299   1.114  0.0914  0.2174  0.4227
  784MPD2    H711571   4.432   2.398   1.135 -0.5846  0.0676  1.4334
  785MPD2     C11572   0.097   1.056  11.134  0.2534  0.1340  0.4120
  785MPD2    C111573   0.076   1.108  11.006  0.2461 -0.8113  0.0503
  785MPD2    C211574   4.691   1.064  10.935  0.2155 -0.1547  0.3703
  785MPD2    C311575   4.605   0.969  10.987 -0.5734 -0.1016 -0.1415
  785MPD2    C411576   4.632   0.904  11.106 -0.4051 -0.2659 -0.1101
  785MPD2    C511577   0.018   0.954  11.177 -0.0712 -0.1891  0.0218
  785MPD2     H11578   4.660   1.119  10.847 -1.1207  0.4252  1.2030
  785MPD2    H111579   4.557   0.842  11.153 -2.0586  1.7569 -0.0765
  785MPD2    H211580   0.184   1.092  11.187  1.0626 -0.5169 -0.4837
  785MPD2    H311581   0.046   0.912  11.273  0.7414 -0.6380 -0.4120
  785MPD2     N11582   4.477   0.963  10.929 -0.3697  0.0908  0.2532
  785MPD2    H511583   4.460   1.015  10.843  0.8031  1.9642  1.1589
  785MPD2    N111584   0.158   1.217  10.970 -0.1022 -0.4040 -0.7425
  785MPD2    H711585   0.226   1.250  11.038 -0.5499  0.5124 -0.7420
  786MPD2     C11586   3.422   4.423  14.692 -0.0446  0.4892 -0.0805
  786MPD2    C111587   3.432   4.301  14.755  0.5612 -0.2785  0.4032
  786MPD2    C211588   3.495   4.290  14.878  0.2021  0.6090  0.0099
  786MPD2    C311589   3.547   4.410  14.940 -0.0031 -0.8786  1.0796
  786MPD2    C411590   3.515   4.526  14.885  0.1254  0.0100 -0.4582
  786MPD2    C511591   3.459   4.534  14.763  0.2020  0.4484 -0.7108
  786MPD2     H11592   3.497   4.194  14.927 -2.6566  0.8081  0.5157
  786MPD2    H111593   3.533   4.617  14.940  0.5305 -0.6782  0.5281
  786MPD2    H211594   3.395   4.438  14.588  1.0672  1.0964 -0.2836
  786MPD2    H311595   3.438   4.633  14.726  1.3537  1.2931  0.9151
  786MPD2     N11596   3.617   4.409  15.066  0.6949 -0.0291 -0.3293
  786MPD2    H511597   3.630   4.501  15.108 -1.6962  0.4167 -0.5735
  786MPD2    N111598   3.388   4.186  14.692  0.3510 -0.1220  0.6728
  786MPD2    H711599   3.403   4.098  14.741  0.6382  0.1838  1.1389
  787MPD2     C11600   3.419   3.754  15.069 -0.1385  0.0378 -0.0716
  787MPD2    C111601   3.357   3.689  14.963 -0.2250  0.0739 -0.6271
  787MPD2    C211602   3.361   3.552  14.964 -0.0402  0.2670 -0.4344
  787MPD2    C311603   3.437   3.481  15.053  0.5231  0.0114  0.1303
  787MPD2    C411604   3.495   3.548  15.160 -0.0619  0.1594 -0.1980
  787MPD2    C511605   3.492   3.689  15.165 -0.8257  0.0857  0.1138
  787MPD2     H11606   3.307   3.500  14.885 -0.6825  2.5895 -1.5342
  787MPD2    H111607   3.565   3.495  15.223  0.4145  0.7607 -0.2170
  787MPD2    H211608   3.415   3.862  15.072  0.9942  0.0577  0.6235
  787MPD2    H311609   3.553   3.737  15.241 -0.2830  0.4726 -0.5620
  787MPD2     N11610   3.452   3.343  15.039  0.6042  0.1548  0.0416
  787MPD2    H511611   3.407   3.299  14.960  1.1947  1.0121 -0.7712
  787MPD2    N111612   3.293   3.776  14.870 -0.6638  0.0500  0.3881
  787MPD2    H711613   3.305   3.877  14.875  0.4362 -0.0321 -0.6542
  788MPD2     C11614   0.362   2.174   0.382  0.1853  0.3565  0.0406
  788MPD2    C111615   0.465   2.085   0.360 -0.5956 -0.3609  0.4335
  788MPD2    C211616   0.527   2.090   0.234  0.2317  0.3502 -0.0561
  788MPD2    C311617   0.489   2.175   0.132  0.0489 -0.4531  0.7044
  788MPD2    C411618   0.392   2.262   0.156  0.2353  0.4004 -0.3694
  788MPD2    C511619   0.321   2.258   0.275  0.4620  0.4396 -0.4308
  788MPD2     H11620   0.602   2.014   0.217 -1.2076 -1.2669  0.8430
  788MPD2    H111621   0.370   2.320   0.067  1.0571 -1.0653 -1.5256
  788MPD2    H211622   0.306   2.185   0.475 -0.0001  1.1433 -0.1601
  788MPD2    H311623   0.232   2.320   0.277 -0.1012 -0.4560  1.7222
  788MPD2     N11624   0.534   2.152  17.685 -0.2291 -0.0658 -0.1959
  788MPD2    H511625   0.481   2.199  17.613 -0.3517 -0.7500 -0.5514
  788MPD2    N111626   0.499   1.983   0.450  0.0953 -0.1062 -0.3737
  788MPD2    H711627   0.565   1.919   0.407 -1.3430 -2.4061  0.8282
  789MPD2     C11628   0.737   1.458  16.621  0.6203 -0.4807 -0.7572
  789MPD2    C111629   0.622   1.384  16.624  0.4711 -0.5690 -1.2333
  789MPD2    C211630   0.501   1.440  16.670  0.2456 -0.8051  0.2663
  789MPD2    C311631   0.496   1.574  16.681  0.3925  0.3208  0.2929
  789MPD2    C411632   0.608   1.655  16.648 -0.4752 -0.3978 -0.4769
  789MPD2    C511633   0.731   1.598  16.626 -0.3541 -0.5070 -0.6394
  789MPD2     H11634   0.412   1.382  16.688 -0.9468  0.5726 -1.1820
  789MPD2    H111635   0.603   1.764  16.645 -0.8440 -0.3956  0.1597
  789MPD2    H211636   0.835   1.417  16.602 -0.0706 -0.6403 -3.9334
  789MPD2    H311637   0.811   1.669  16.609 -1.1860  0.2495 -1.3950
  789MPD2     N11638   0.386   1.643  16.725  0.3396  0.1713  0.4582
  789MPD2    H511639   0.388   1.744  16.735 -1.4178  0.2476  0.0330
  789MPD2    N111640   0.632   1.248  16.598  0.0478 -0.4281 -0.0840
  789MPD2    H711641   0.540   1.208  16.583 -1.2368  2.1107  0.9847
  790MPD2     C11642   1.521   3.506  13.733  0.5593  0.4269  0.2728
  790MPD2    C111643   1.594   3.406  13.680 -0.1096  0.1687 -0.0588
  790MPD2    C211644   1.610   3.396  13.545  0.0245  0.3222  0.4006
  790MPD2    C311645   1.543   3.491  13.465 -1.0777  1.4259  0.0910
  790MPD2    C411646   1.481   3.596  13.522 -0.3988  0.0001  0.1189
  790MPD2    C511647   1.466   3.608  13.660 -0.3635 -0.6624  0.0646
  790MPD2     H11648   1.685   3.328  13.506  0.7778  1.3473  0.0626
  790MPD2    H111649   1.433   3.678  13.469 -1.1804 -0.0731  0.7131
  790MPD2    H211650   1.492   3.508  13.838 -2.1995 -0.4431 -0.4723
  790MPD2    H311651   1.414   3.694  13.702  1.7967 -0.5355  2.4647
  790MPD2     N11652   1.573   3.485  13.324  0.1409 -0.2861  0.2536
  790MPD2    H511653   1.637   3.410  13.299  1.3147  0.3990  1.1709
  790MPD2    N111654   1.642   3.307  13.772 -0.4050  0.2846 -0.0592
  790MPD2    H711655   1.623   3.320  13.870  1.6495  1.3276  0.1966
  791MPD2     C11656   1.123   3.597  12.659  0.3294  0.2767  0.1399
  791MPD2    C111657   1.200   3.487  12.691  0.1060 -0.0626 -0.3036
  791MPD2    C211658   1.143   3.363  12.671 -0.1813  0.0575  0.1044
  791MPD2    C311659   1.025   3.348  12.606  1.1357 -0.1617 -0.2133
  791MPD2    C411660   0.956   3.458  12.563 -0.3478  0.9789  0.0476
  791MPD2    C511661   1.006   3.578  12.599  0.4891 -0.0404  0.1117
  791MPD2     H11662   1.188   3.274  12.714 -0.6413 -0.4137 -0.3794
  791MPD2    H111663   0.858   3.450  12.516 -1.4314  2.3008  2.0881
  791MPD2    H211664   1.159   3.696  12.683  2.8627 -0.4707 -0.6448
  791MPD2    H311665   0.946   3.665  12.576  1.3144  0.2774 -0.8400
  791MPD2     N11666   0.976   3.218  12.592  0.1224  0.1915  0.2910
  791MPD2    H511667   1.022   3.137  12.633 -1.2766  0.0977  1.6972
  791MPD2    N111668   1.322   3.502  12.763 -0.3829  0.0170  0.1532
  791MPD2    H711669   1.347   3.597  12.790  2.2664  0.1292 -2.7685
  792MPD2     C11670   2.140   3.146  10.661  0.4906 -0.0111 -0.5412
  792MPD2    C111671   2.009   3.179  10.637  0.2027 -0.0295  1.1366
  792MPD2    C211672   1.940   3.101  10.544  0.1801  0.9434  0.4781
  792MPD2    C311673   1.989   2.975  10.509 -0.4522 -0.0061 -0.0605
  792MPD2    C411674   2.120   2.941  10.537  0.5315  0.2524 -0.1604
  792MPD2    C511675   2.194   3.036  10.603  0.4150  0.2604 -0.2937
  792MPD2     H11676   1.840   3.128  10.512  0.3960 -0.8587 -1.7426
  792MPD2    H111677   2.166   2.855  10.491  0.1406  0.4026 -0.8301
  792MPD2    H211678   2.215   3.196  10.720 -0.5516 -0.1826  0.9307
  792MPD2    H311679   2.300   3.030  10.623  0.2990  1.2387  0.5893
  792MPD2     N11680   1.925   2.877  10.429  0.1570  0.3364  0.4030
  792MPD2    H511681   1.978   2.795  10.401  0.1394  0.3767  0.2515
  792MPD2    N111682   1.953   3.290  10.709 -0.5798 -0.0602  0.1452
  792MPD2    H711683   2.018   3.334  10.772 -0.3218 -1.6760  1.0261
  793MPD2     C11684   1.414   2.344   9.855 -0.0112 -0.0072 -0.9995
  793MPD2    C111685   1.487   2.458   9.887 -0.4373 -0.0562 -0.0025
  793MPD2    C211686   1.463   2.526  10.004 -0.0612 -0.8484  0.3778
  793MPD2    C311687   1.367   2.484  10.094 -0.1547 -0.5942 -0.1835
  793MPD2    C411688   1.277   2.390  10.051  0.8263  0.9062 -0.0856
  793MPD2    C511689   1.299   2.318   9.933 -0.7208  0.1375 -0.6270
  793MPD2     H11690   1.521   2.617  10.014 -0.7908 -0.5376  1.7528
  793MPD2    H111691   1.187   2.364  10.105  0.8466 -0.1001 -0.5478
  793MPD2    H211692   1.436   2.280   9.770 -1.6792  0.0437 -1.4700
  793MPD2    H311693   1.226   2.240   9.915 -0.4809 -0.7675  2.3183
  793MPD2     N11694   1.331   2.545  10.217 -0.8161 -0.0716 -0.3421
  793MPD2    H511695   1.231   2.535  10.230 -0.8496 -0.7836 -1.1067
  793MPD2    N111696   1.598   2.501   9.809 -0.0574  0.6633  0.7344
  793MPD2    H711697   1.664   2.572   9.843 -0.4913  1.5319 -0.2463
  794MPD2     C11698   1.724   2.785  16.846 -0.4568  0.4841  0.5357
  794MPD2    C111699   1.619   2.840  16.923  0.0107 -0.0751  0.1805
  794MPD2    C211700   1.489   2.835  16.875 -0.7118  0.8730 -0.4711
  794MPD2    C311701   1.462   2.783  16.751  0.0864 -0.4272 -0.1254
  794MPD2    C411702   1.563   2.724  16.678  0.8166 -0.3987 -0.1343
  794MPD2    C511703   1.692   2.724  16.725 -0.0094  0.1265 -0.1024
  794MPD2     H11704   1.404   2.863  16.936 -1.5298 -1.0590 -0.7169
  794MPD2    H111705   1.540   2.678  16.583 -1.2277 -2.5956  1.4020
  794MPD2    H211706   1.824   2.772  16.886 -0.5291  0.5846  0.7493
  794MPD2    H311707   1.773   2.687  16.663  0.3919 -0.6989  0.9144
  794MPD2     N11708   1.336   2.787  16.684 -0.4862  0.5721 -0.5173
  794MPD2    H511709   1.334   2.758  16.586 -0.2844  3.1061 -1.2546
  794MPD2    N111710   1.635   2.895  17.050  0.2634  0.1853 -0.4058
  794MPD2    H711711   1.557   2.917  17.111 -0.1303  1.9204 -1.5409
  795MPD2     C11712   4.339   0.301  12.978 -0.2667 -0.4363  1.0150
  795MPD2    C111713   4.357   0.168  12.962  0.4234 -0.0255  0.2335
  795MPD2    C211714   4.447   0.101  13.037  0.4802 -0.1422  0.2377
  795MPD2    C311715   4.525   0.166  13.133 -0.1070  0.0578 -0.6045
  795MPD2    C411716   4.504   0.300  13.143  0.1966  0.0889  0.5268
  795MPD2    C511717   4.406   0.364  13.072  0.1766  0.4634  0.1728
  795MPD2     H11718   4.462   4.717  13.021  0.2909  0.0504 -1.2208
  795MPD2    H111719   4.568   0.365  13.201 -0.6680  1.1935  0.2535
  795MPD2    H211720   4.269   0.358  12.918  0.3600 -0.7036  0.0345
  795MPD2    H311721   4.389   0.471  13.082  0.1666  0.5341 -0.6422
  795MPD2     N11722   4.621   0.097  13.208 -0.1291  0.1012 -0.8436
  795MPD2    H511723   4.622   4.719  13.193 -0.7521 -0.0549  0.1120
  795MPD2    N111724   4.289   0.101  12.857 -0.4270  0.0462  0.1214
  795MPD2    H711725   4.296   4.722  12.856 -0.3573  0.0616 -1.0070
  796MPD2     C11726   3.472   1.539  15.788 -0.4159 -0.1925 -0.5355
  796MPD2    C111727   3.531   1.603  15.897 -0.2971  0.4004 -0.2191
  796MPD2    C211728   3.505   1.737  15.906  0.0692  0.2155  0.2564
  796MPD2    C311729   3.429   1.806  15.812  0.4587  0.1442  0.3185
  796MPD2    C411730   3.376   1.736  15.709  0.2867  0.0200  0.1131
  796MPD2    C511731   3.394   1.608  15.696  0.4370 -0.6826  0.3069
  796MPD2     H11732   3.547   1.794  15.988 -0.5127  1.3412 -0.2275
  796MPD2    H111733   3.322   1.779  15.626  1.5518 -0.4418 -0.9542
  796MPD2    H211734   3.476   1.431  15.779  0.4305 -0.1053 -1.2840
  796MPD2    H311735   3.339   1.551  15.622  1.5450  2.6601 -3.0417
  796MPD2     N11736   3.415   1.947  15.829 -0.2776  0.2985  0.2960
  796MPD2    H511737   3.460   1.977  15.915  0.6036 -0.1276 -0.0068
  796MPD2    N111738   3.594   1.522  15.984  0.4988  0.5584 -0.3073
  796MPD2    H711739   3.600   1.423  15.966 -3.5065  0.6648 -2.1148
  797MPD2     C11740   3.826   0.548  17.560 -0.3877  0.7328  0.2620
  797MPD2    C111741   3.875   0.644  17.634  1.0683 -0.1499 -0.4419
  797MPD2    C211742   3.920   0.761  17.575 -0.6041  0.5906  0.6655
  797MPD2    C311743   3.920   0.769  17.435 -0.2576  0.3044 -0.2941
  797MPD2    C411744   3.867   0.659  17.363 -0.9647  0.1475  0.2029
  797MPD2    C511745   3.808   0.557  17.426 -0.5094  0.3205 -0.0172
  797MPD2     H11746   3.946   0.846  17.638 -1.0579  2.1774 -1.3166
  797MPD2    H111747   3.858   0.657  17.255  1.6014  1.9731 -0.0494
  797MPD2    H211748   3.778   0.465  17.610 -0.8432  1.5702  1.2177
  797MPD2    H311749   3.755   0.488  17.361  1.4056  0.6132 -1.9130
  797MPD2     N11750   3.973   0.887  17.376  0.4734  0.4396 -0.3654
  797MPD2    H511751   4.019   0.956  17.435  0.1447  2.0949 -2.0700
  797MPD2    N111752   3.895   0.640   0.082  0.1053  0.1086  0.2208
  797MPD2    H711753   3.952   0.715   0.121  0.2128 -0.4203  1.0717
  798MPD2     C11754   3.904   1.375   0.132  0.9424 -0.4139  0.0987
  798MPD2    C111755   3.944   1.270   0.062  0.8304  0.6953  0.4990
  798MPD2    C211756   3.942   1.145   0.125  0.6507 -0.3868 -0.6255
  798MPD2    C311757   3.895   1.129   0.252 -0.1742  0.2983 -0.0216
  798MPD2    C411758   3.857   1.247   0.322  0.3523 -0.2411  0.3105
  798MPD2    C511759   3.869   1.368   0.266  0.7876  0.5897  0.0422
  798MPD2     H11760   3.988   1.060   0.077 -3.6389 -2.8959 -0.2815
  798MPD2    H111761   3.823   1.248   0.425  2.1459  1.8843  0.8904
  798MPD2    H211762   3.912   1.477   0.097  0.8663 -0.2746  0.4911
  798MPD2    H311763   3.836   1.455   0.321 -0.6747  1.1716 -1.7922
  798MPD2     N11764   3.900   1.005   0.311  0.4026  0.3441 -0.3023
  798MPD2    H511765   3.943   0.934   0.254 -1.0458 -0.8518  0.1074
  798MPD2    N111766   3.980   1.288  17.615  0.3466 -0.3383  0.3090
  798MPD2    H711767   3.978   1.385  17.584  1.3431 -0.2347  0.5872
  799MPD2     C11768   3.242   2.628  14.731  0.4220  0.1144 -0.1620
  799MPD2    C111769   3.331   2.626  14.625  0.6689 -0.1498  0.4158
  799MPD2    C211770   3.303   2.686  14.508 -0.4671 -0.2441 -0.2177
  799MPD2    C311771   3.190   2.764  14.502 -0.0110 -1.0253 -0.4777
  799MPD2    C411772   3.101   2.767  14.610 -0.2482 -0.0539  0.2364
  799MPD2    C511773   3.131   2.709  14.728 -0.8992 -0.4912  0.7771
  799MPD2     H11774   3.372   2.681  14.425  0.8335  0.0413  0.8474
  799MPD2    H111775   3.026   2.845  14.604 -0.4771 -0.2599  0.4177
  799MPD2    H211776   3.261   2.585  14.829 -1.4766  1.4171  0.7953
  799MPD2    H311777   3.063   2.722  14.811 -0.0001 -0.1464  1.4533
  799MPD2     N11778   3.150   2.834  14.389 -0.4279  0.0487  0.4644
  799MPD2    H511779   3.077   2.906  14.392 -2.4028 -1.8061 -2.8402
  799MPD2    N111780   3.458   2.564  14.646  0.4787  0.2365  0.6060
  799MPD2    H711781   3.523   2.565  14.568  0.0125  0.8997  0.2223
  800MPD2     C11782   4.022   3.736  14.535 -0.1501 -0.3452 -0.1841
  800MPD2    C111783   4.072   3.864  14.527 -0.0622 -0.5262  0.2180
  800MPD2    C211784   4.075   3.920  14.399 -0.2349 -0.4705 -0.0124
  800MPD2    C311785   4.032   3.847  14.291  0.2485  0.0439  0.2318
  800MPD2    C411786   3.988   3.718  14.299  0.2032 -0.8666  0.1013
  800MPD2    C511787   3.977   3.668  14.425 -0.6312  0.9458  0.5893
  800MPD2     H11788   4.101   4.022  14.374  3.1248 -0.8658  1.7637
  800MPD2    H111789   3.946   3.659  14.218  0.1167 -1.2666  0.4406
  800MPD2    H211790   4.004   3.686  14.630 -0.0012  0.9661  0.5264
  800MPD2    H311791   3.939   3.568  14.436  2.6628 -0.4397 -0.6289
  800MPD2     N11792   4.051   3.913  14.169 -0.5887 -0.1126  0.3724
  800MPD2    H511793   4.099   4.003  14.171 -0.0360 -0.4115  0.7003
  800MPD2    N111794   4.089   3.944  14.645  0.1317  0.1131 -0.4151
  800MPD2    H711795   4.095   3.892  14.732  0.0148 -0.1292 -0.5503
  801MPD2     C11796   4.422   4.690  14.617 -0.1394 -0.1670  0.0987
  801MPD2    C111797   4.305   4.659  14.674 -0.5907 -0.4756 -0.0343
  801MPD2    C211798   4.197   0.019  14.667 -0.0784  0.1170 -0.1952
  801MPD2    C311799   4.205   0.145  14.623 -0.3435  0.4246 -0.4045
  801MPD2    C411800   4.321   0.178  14.567  0.2182  0.0018 -0.0537
  801MPD2    C511801   4.436   0.097  14.571 -0.6395 -0.3199 -0.3426
  801MPD2     H11802   4.106   4.696  14.703 -0.0551 -0.4140 -0.8065
  801MPD2    H111803   4.338   0.276  14.523  0.2282  0.2233  0.4437
  801MPD2    H211804   4.506   4.622  14.605 -1.4424 -1.4740 -1.8293
  801MPD2    H311805   4.532   0.117  14.524 -0.5659 -0.0321 -0.0737
  801MPD2     N11806   4.091   0.233  14.603  0.1512 -0.2262  0.0114
  801MPD2    H511807   4.094   0.295  14.523  1.5564  0.1127  0.3192
  801MPD2    N111808   4.283   4.530  14.732  0.1993 -0.8009 -0.3525
  801MPD2    H711809   4.186   4.512  14.755 -0.9455  4.3847 -1.0758
  802MPD2     C11810   3.051   0.455   0.825  0.3695 -0.5535  0.1040
  802MPD2    C111811   3.024   0.589   0.812 -0.3751  0.1825 -0.2536
  802MPD2    C211812   3.120   0.669   0.742  0.3509 -0.0285 -0.2739
  802MPD2    C311813   3.233   0.624   0.680  0.7411 -0.8651  0.3006
  802MPD2    C411814   3.258   0.489   0.689 -0.1511  0.4438 -0.2150
  802MPD2    C511815   3.167   0.415   0.756  0.9315 -0.4948 -1.5126
  802MPD2     H11816   3.093   0.773   0.729 -1.3287 -0.2022  1.9522
  802MPD2    H111817   3.352   0.447   0.654  0.4967  0.6551  1.3073
  802MPD2    H211818   2.978   0.377   0.843  1.1910 -1.7454 -1.6732
  802MPD2    H311819   3.188   0.309   0.761 -2.8908 -1.2314 -1.1673
  802MPD2     N11820   3.309   0.718   0.609 -0.4010 -0.1720  0.1210
  802MPD2    H511821   3.264   0.809   0.602  0.2843  0.2247  0.8810
  802MPD2    N111822   2.902   0.643   0.840  0.0892  0.0962  0.0717
  802MPD2    H711823   2.882   0.740   0.818  2.2642  0.6797  0.7261
  803MPD2     C11824   4.430   3.344  11.681  1.2744  0.2892  0.0784
  803MPD2    C111825   4.531   3.351  11.769  0.3751 -0.9733 -0.8036
  803MPD2    C211826   4.530   3.268  11.881 -0.6399 -0.2437 -0.9228
  803MPD2    C311827   4.422   3.193  11.921 -0.3129 -0.3052 -0.0031
  803MPD2    C411828   4.304   3.213  11.848 -0.1959  0.6419  0.1596
  803MPD2    C511829   4.313   3.286  11.732 -0.7005 -0.0119 -0.2700
  803MPD2     H11830   4.624   3.257  11.935 -0.6211  0.5782 -0.7865
  803MPD2    H111831   4.215   3.155  11.869  0.2019  0.2374  0.7268
  803MPD2    H211832   4.433   3.398  11.586 -0.7305 -0.2948 -0.3008
  803MPD2    H311833   4.222   3.307  11.677 -0.9500 -1.2773 -0.3369
  803MPD2     N11834   4.413   3.111  12.037  0.0584 -0.0790  0.4569
  803MPD2    H511835   4.324   3.066  12.058  0.3862 -0.9133  0.0760
  803MPD2    N111836   4.636   3.437  11.756 -0.6320  0.3094 -0.0715
  803MPD2    H711837   4.703   3.435  11.833  1.4561 -0.9688 -1.9246
  804MPD2     C11838   4.030   4.264  16.874  0.4832  0.8301 -0.1633
  804MPD2    C111839   4.010   4.258  17.014  0.1416  0.0613  0.1979
  804MPD2    C211840   4.029   4.379  17.083  0.3016 -0.2123  0.3149
  804MPD2    C311841   4.096   4.485  17.032 -0.1118 -0.2528 -0.8176
  804MPD2    C411842   4.123   4.485  16.899 -0.3109  0.9351  0.2143
  804MPD2    C511843   4.087   4.381  16.822  0.3909  0.0137  0.1012
  804MPD2     H11844   4.012   4.380  17.190 -0.3010  0.5544  0.2090
  804MPD2    H111845   4.179   4.563  16.849 -0.2067 -0.6914 -2.2218
  804MPD2    H211846   4.015   4.180  16.808  0.9517  1.0852 -0.5987
  804MPD2    H311847   4.109   4.384  16.716 -2.1678  0.8156 -0.4159
  804MPD2     N11848   4.123   4.591  17.123 -0.3842  0.5317  0.3895
  804MPD2    H511849   4.083   4.588  17.216  1.1809 -2.8891  0.9408
  804MPD2    N111850   3.970   4.144  17.084  0.4770  0.3809 -0.2145
  804MPD2    H711851   3.972   4.162  17.184 -1.7857 -0.6777  0.0088
  805MPD2     C11852   3.282   3.227  15.466  0.6430 -0.3692  0.2384
  805MPD2    C111853   3.301   3.088  15.461 -0.5656 -0.3547 -0.3867
  805MPD2    C211854   3.409   3.028  15.528  0.0716  0.1353  0.5012
  805MPD2    C311855   3.490   3.094  15.609  0.3053 -0.6598  0.1739
  805MPD2    C411856   3.470   3.229  15.619  0.1013  0.2919 -0.6864
  805MPD2    C511857   3.374   3.295  15.545 -0.0699  0.0330 -0.0835
  805MPD2     H11858   3.432   2.925  15.507 -2.2897  0.2944 -3.0844
  805MPD2    H111859   3.545   3.296  15.660 -2.2073  1.4268  1.6217
  805MPD2    H211860   3.208   3.280  15.407  2.8151  0.2405 -1.9379
  805MPD2    H311861   3.364   3.402  15.556 -0.6060 -0.0665  0.3972
  805MPD2     N11862   3.590   3.020  15.680 -0.1036 -0.4998 -0.6734
  805MPD2    H511863   3.605   2.921  15.664 -0.2727 -0.5453 -0.5440
  805MPD2    N111864   3.226   3.002  15.375 -0.0745 -0.3491 -0.1133
  805MPD2    H711865   3.272   2.914  15.353  0.2015 -0.1425 -0.3594
  806MPD2     C11866   2.955   2.450   0.314  0.1123 -0.1874 -0.6814
  806MPD2    C111867   3.084   2.429   0.365  0.7688 -0.6338 -0.7652
  806MPD2    C211868   3.183   2.422   0.275  0.0264  0.2245 -1.0404
  806MPD2    C311869   3.169   2.428   0.138  0.6533 -0.8011  0.5125
  806MPD2    C411870   3.040   2.445   0.089  0.0141  0.4992  0.5030
  806MPD2    C511871   2.936   2.448   0.176  0.2334 -0.8291 -0.1413
  806MPD2     H11872   3.287   2.416   0.306 -0.5860 -0.4115  0.9344
  806MPD2    H111873   3.015   2.461  17.676 -2.4889 -0.1522  1.0202
  806MPD2    H211874   2.870   2.442   0.382 -0.8899  1.4614 -1.7377
  806MPD2    H311875   2.838   2.461   0.131 -0.7368  0.9436  2.4330
  806MPD2     N11876   3.291   2.443   0.069 -0.2676  0.1312  0.3434
  806MPD2    H511877   3.378   2.448   0.121 -0.4959  1.6724  0.5507
  806MPD2    N111878   3.105   2.404   0.499 -0.0469 -0.2232 -0.3635
  806MPD2    H711879   3.043   2.451   0.563  0.8873 -2.9079  2.5320
  807MPD2     C11880   2.807   2.304   1.205  0.1564 -0.3308 -0.5349
  807MPD2    C111881   2.921   2.229   1.205  0.0180  0.1587  0.2676
  807MPD2    C211882   2.956   2.160   1.322  0.1605  0.1440 -0.6185
  807MPD2    C311883   2.878   2.158   1.433 -0.0841  0.4312 -0.5279
  807MPD2    C411884   2.753   2.217   1.424  0.0717 -0.6611  0.6373
  807MPD2    C511885   2.727   2.296   1.311  0.2056  0.0369 -0.8127
  807MPD2     H11886   3.052   2.110   1.327 -1.2253 -2.4790 -0.0600
  807MPD2    H111887   2.693   2.220   1.515 -0.9145  0.3512 -0.0372
  807MPD2    H211888   2.768   2.355   1.117  1.0268  0.0836 -0.6812
  807MPD2    H311889   2.632   2.348   1.318 -0.6004 -1.1015 -3.1606
  807MPD2     N11890   2.932   2.100   1.547 -0.8005 -0.0427  0.2254
  807MPD2    H511891   3.021   2.057   1.526 -0.1217  0.4695  2.0539
  807MPD2    N111892   3.013   2.225   1.095  0.1657 -0.0011 -0.0943
  807MPD2    H711893   3.090   2.158   1.096 -0.5230 -0.7594  2.3932
  808MPD2     C11894   3.782   0.136   9.538 -0.3871 -0.0260 -0.3866
  808MPD2    C111895   3.892   0.119   9.623 -0.3173 -0.0499  0.8076
  808MPD2    C211896   3.927   0.229   9.709  0.0066 -0.2478 -0.4168
  808MPD2    C311897   3.852   0.343   9.708  0.0759 -0.7521 -0.9497
  808MPD2    C411898   3.744   0.357   9.623  0.1720  0.0917  0.8037
  808MPD2    C511899   3.719   0.257   9.538 -0.0135  0.9993 -0.0568
  808MPD2     H11900   4.019   0.215   9.763  0.3868  2.5664 -0.3630
  808MPD2    H111901   3.672   0.437   9.627  0.5767  0.5092 -0.3266
  808MPD2    H211902   3.756   0.067   9.459  1.0574 -1.9299  0.7979
  808MPD2    H311903   3.638   0.279   9.470  1.6697  2.3379 -1.6239
  808MPD2     N11904   3.873   0.447   9.798  0.0968 -0.0127  0.0459
  808MPD2    H511905   3.818   0.531   9.786 -0.6358 -0.3038  1.2486
  808MPD2    N111906   3.974   0.007   9.629  0.2047 -0.0296 -0.7598
  808MPD2    H711907   4.057   0.012   9.688  1.2318 -1.2391 -2.1158
  809MPD2     C11908   4.556   0.743   9.452 -0.4884 -0.8243  0.0003
  809MPD2    C111909   4.567   0.658   9.560  0.2447 -0.5046 -0.1148
  809MPD2    C211910   4.466   0.661   9.656  0.2197  0.3008 -0.4402
  809MPD2    C311911   4.357   0.748   9.641 -0.1457 -0.2448 -0.0453
  809MPD2    C411912   4.343   0.820   9.522  0.1867  0.0449  0.6063
  809MPD2    C511913   4.448   0.822   9.438 -0.6043  0.4425  0.3173
  809MPD2     H11914   4.468   0.591   9.739 -0.2920  0.8469  0.0314
  809MPD2    H111915   4.258   0.886   9.506  0.5448 -0.0222 -1.5615
  809MPD2    H211916   4.619   0.741   9.363 -0.8226  2.6050 -0.3229
  809MPD2    H311917   4.441   0.876   9.345 -0.1392 -1.6828 -0.9306
  809MPD2     N11918   4.253   0.766   9.744  0.6389  0.6759 -0.2069
  809MPD2    H511919   4.167   0.812   9.717  0.3874  0.1373 -0.3238
  809MPD2    N111920   4.677   0.565   9.583  0.7368  0.1673 -0.1611
  809MPD2    H711921   4.660   0.490   9.649 -1.0951  1.5012  0.8752
  810MPD2     C11922   3.354   3.095  10.989 -0.4501  0.2997 -0.3388
  810MPD2    C111923   3.419   3.146  10.886 -0.2522 -1.1311 -0.0873
  810MPD2    C211924   3.409   3.278  10.855 -0.3331  0.2115 -0.5095
  810MPD2    C311925   3.328   3.357  10.934 -0.5161  0.6547 -0.8934
  810MPD2    C411926   3.255   3.301  11.036  0.6519  0.0002  0.3540
  810MPD2    C511927   3.270   3.164  11.066  0.1626 -0.1129 -0.5038
  810MPD2     H11928   3.464   3.314  10.769  0.2667 -3.1675 -1.5515
  810MPD2    H111929   3.181   3.356  11.093  1.3601  0.5551  0.7360
  810MPD2    H211930   3.365   2.990  11.014  1.5458  0.8691  1.1509
  810MPD2    H311931   3.214   3.109  11.140  0.3705  0.0574 -0.2204
  810MPD2     N11932   3.302   3.493  10.910  0.4281  0.4362 -0.3738
  810MPD2    H511933   3.248   3.548  10.975 -1.9838  1.5061 -3.2938
  810MPD2    N111934   3.491   3.049  10.813 -0.3044  0.0396  0.2218
  810MPD2    H711935   3.486   2.954  10.848  1.9381  0.2316  1.0775
  811MPD2     C11936   3.721   2.921   9.997  0.0218 -0.0982  0.3904
  811MPD2    C111937   3.759   2.973  10.115  0.3150 -0.4664  0.1679
  811MPD2    C211938   3.793   3.108  10.119  0.3016 -0.8230 -0.0748
  811MPD2    C311939   3.796   3.185  10.004  0.0777 -0.2559  0.4891
  811MPD2    C411940   3.764   3.129   9.884  0.3962 -0.3137 -0.2748
  811MPD2    C511941   3.721   2.996   9.879  0.1959  0.3330 -0.0857
  811MPD2     H11942   3.804   3.161  10.213 -2.9179  0.1512 -0.2497
  811MPD2    H111943   3.771   3.179   9.788 -0.3402 -0.2348 -0.2865
  811MPD2    H211944   3.683   2.819   9.989 -0.6227  0.1431  0.3529
  811MPD2    H311945   3.684   2.960   9.783  1.2090 -1.2361  0.1237
  811MPD2     N11946   3.818   3.322  10.022 -0.2975 -0.0813  0.8609
  811MPD2    H511947   3.826   3.354  10.118  2.4677 -2.0771  1.2775
  811MPD2    N111948   3.747   2.895  10.224  0.5252 -0.0542 -0.2178
  811MPD2    H711949   3.674   2.824  10.223  1.6853 -1.2606  0.5990
  812MPD2     C11950   2.529   3.570  12.280  0.1350 -0.0188 -0.7662
  812MPD2    C111951   2.430   3.578  12.380  0.4649 -0.1887  0.1438
  812MPD2    C211952   2.418   3.473  12.467 -0.3749 -0.4977 -0.4891
  812MPD2    C311953   2.503   3.363  12.465  0.1299 -0.8415  0.2754
  812MPD2    C411954   2.593   3.348  12.358  0.0027 -0.2837  0.5596
  812MPD2    C511955   2.601   3.456  12.269  0.6263  0.8000  0.0331
  812MPD2     H11956   2.342   3.473  12.544 -0.2557  0.9656 -0.3748
  812MPD2    H111957   2.663   3.266  12.351  1.1953  0.8743 -0.9624
  812MPD2    H211958   2.548   3.648  12.207  0.3034  0.3049 -0.3807
  812MPD2    H311959   2.668   3.437  12.186  3.5305  1.7435  2.1832
  812MPD2     N11960   2.493   3.265  12.568 -0.3794 -0.1271  0.5469
  812MPD2    H511961   2.408   3.270  12.624 -1.8325 -1.6299 -1.5397
  812MPD2    N111962   2.348   3.691  12.385 -0.2241 -0.1217  0.6161
  812MPD2    H711963   2.359   3.755  12.308 -0.1519  0.8581  1.4493
  813MPD2     C11964   1.695   0.616  12.609 -0.6139 -0.4231  0.1913
  813MPD2    C111965   1.665   0.749  12.630  0.5144  0.4099  0.1592
  813MPD2    C211966   1.630   0.778  12.762  0.8554  0.2834  0.2664
  813MPD2    C311967   1.647   0.684  12.866  0.2684 -0.5021  0.1061
  813MPD2    C411968   1.689   0.560  12.843  0.5305 -0.3559 -1.1111
  813MPD2    C511969   1.709   0.519  12.711  0.5023 -0.3156 -0.5181
  813MPD2     H11970   1.597   0.877  12.791  0.7202  0.3342 -0.0609
  813MPD2    H111971   1.724   0.494  12.922 -0.3804  0.4555 -0.0310
  813MPD2    H211972   1.721   0.589  12.507 -0.2099 -0.7145  0.3703
  813MPD2    H311973   1.735   0.415  12.697  0.3655 -0.0760 -2.4626
  813MPD2     N11974   1.638   0.733  12.994 -0.4350  0.1721  0.2496
  813MPD2    H511975   1.602   0.828  12.985  0.7779  0.4881 -1.2511
  813MPD2    N111976   1.655   0.834  12.520  0.0148 -0.1209  0.0949
  813MPD2    H711977   1.627   0.786  12.434  0.0350  0.2220 -0.1012
  814MPD2     C11978   2.054   2.010  12.545 -0.3994  0.4996  0.1482
  814MPD2    C111979   2.056   2.062  12.415 -0.0941 -0.0770  0.1108
  814MPD2    C211980   2.112   2.184  12.401  1.2921  0.4635  0.7397
  814MPD2    C311981   2.161   2.259  12.507  0.6804 -0.1503 -0.7346
  814MPD2    C411982   2.160   2.204  12.630 -0.2115 -0.3543 -0.1559
  814MPD2    C511983   2.112   2.077  12.647 -0.1863 -0.6123  0.0107
  814MPD2     H11984   2.108   2.230  12.303 -1.2280 -1.8230 -0.2263
  814MPD2    H111985   2.208   2.246  12.718 -1.0411  0.5394 -0.1284
  814MPD2    H211986   2.014   1.910  12.555 -0.1240  0.4908  1.1360
  814MPD2    H311987   2.096   2.038  12.747  0.8007  0.1507  0.4658
  814MPD2     N11988   2.233   2.377  12.488  0.1370 -0.0870  0.3962
  814MPD2    H511989   2.280   2.415  12.570  0.0705 -2.7148  1.6557
  814MPD2    N111990   1.985   2.008  12.303 -0.3239  0.0978  0.0380
  814MPD2    H711991   2.006   2.054  12.215 -2.9255 -2.6551 -2.0421
  815MPD2     C11992   2.937   0.062  11.874  0.3087 -0.0946 -0.0324
  815MPD2    C111993   2.857   4.674  11.871 -0.5252 -0.8583 -0.2212
  815MPD2    C211994   2.757   4.661  11.968 -0.0935 -0.7616 -0.0049
  815MPD2    C311995   2.745   0.028  12.068 -0.2406  0.2658 -0.3857
  815MPD2    C411996   2.839   0.134  12.081  0.1991  0.2170 -0.6796
  815MPD2    C511997   2.931   0.143  11.984 -0.0337 -0.1024  0.4482
  815MPD2     H11998   2.682   4.584  11.958  0.3952 -1.2919  0.3888
  815MPD2    H111999   2.823   0.208  12.158  2.3776 -0.9648  0.8904
  815MPD2    H212000   3.008   0.090  11.797 -0.0269  2.6635  0.6563
  815MPD2    H312001   2.995   0.230  11.991 -3.2842  2.3849 -0.7571
  815MPD2     N12002   2.629   0.014  12.145  0.0864 -0.3988  0.2305
  815MPD2    H512003   2.571   4.655  12.128  1.4030 -1.0438 -1.1731
  815MPD2    N112004   2.865   4.569  11.768 -0.1250  0.2975 -0.5362
  815MPD2    H712005   2.908   4.589  11.678 -1.7025  1.5363 -1.0020
  816MPD2     C12006   2.336   3.806  17.192  0.3656 -0.5225 -1.0451
  816MPD2    C112007   2.381   3.917  17.133  0.7159 -0.2017  0.2030
  816MPD2    C212008   2.500   3.908  17.069 -0.3742  0.0275 -0.0605
  816MPD2    C312009   2.577   3.795  17.077  0.8790 -0.2666 -0.4255
  816MPD2    C412010   2.530   3.679  17.139  0.0314  0.0512  0.5338
  816MPD2    C512011   2.406   3.687  17.190 -0.7799  0.0356 -0.0560
  816MPD2     H12012   2.537   3.995  17.017  0.5539  0.5405  1.4417
  816MPD2    H112013   2.579   3.582  17.139  0.1655  0.1085 -1.9800
  816MPD2    H212014   2.248   3.806  17.255  1.1837  1.4784  0.1188
  816MPD2    H312015   2.367   3.606  17.249 -0.1026  0.3338  0.7940
  816MPD2     N12016   2.707   3.801  17.013 -0.3660  0.4549  0.6395
  816MPD2    H512017   2.731   3.892  16.975 -0.4597  0.7346  1.2505
  816MPD2    N112018   2.306   4.039  17.142 -0.3753 -0.1480  0.5012
  816MPD2    H712019   2.216   4.030  17.189 -1.8888 -0.9060 -2.5773
  817MPD2     C12020   2.344   0.450  10.489 -0.0612 -0.5673 -0.7027
  817MPD2    C112021   2.410   0.476  10.377  0.4646 -0.3166  0.2198
  817MPD2    C212022   2.339   0.499  10.263  0.2007  0.2243  0.5240
  817MPD2    C312023   2.200   0.488  10.256  0.2910 -0.7864 -0.2757
  817MPD2    C412024   2.137   0.475  10.380 -0.1347  0.1100 -1.1489
  817MPD2    C512025   2.210   0.456  10.498 -0.3400  1.1008  0.4021
  817MPD2     H12026   2.400   0.514  10.175  1.3080  1.6087  1.5193
  817MPD2    H112027   2.032   0.455  10.393  0.4630 -1.9327  0.4466
  817MPD2    H212028   2.401   0.431  10.579 -2.2044 -0.1018  0.7591
  817MPD2    H312029   2.164   0.450  10.596 -0.5843 -0.4425  0.1901
  817MPD2     N12030   2.141   0.507  10.128 -0.7815 -0.3501 -0.2824
  817MPD2    H512031   2.205   0.521  10.051  1.2389  0.3715  1.4976
  817MPD2    N112032   2.547   0.450  10.370 -0.5625 -0.6760  0.4720
  817MPD2    H712033   2.593   0.478  10.283 -0.4139  0.3292  0.8678
  818MPD2     C12034   1.285   0.932  10.353 -0.0007 -0.2774  0.5248
  818MPD2    C112035   1.196   0.836  10.411 -0.6589 -0.5402 -0.5623
  818MPD2    C212036   1.234   0.707  10.410  0.2119 -0.9855 -0.2152
  818MPD2    C312037   1.354   0.675  10.353 -0.3571  0.8653 -0.3004
  818MPD2    C412038   1.431   0.770  10.295 -0.4648  0.2987 -0.1514
  818MPD2    C512039   1.401   0.899  10.295  0.0593 -0.8263 -0.0582
  818MPD2     H12040   1.171   0.637  10.464 -0.8389  0.0923 -0.0503
  818MPD2    H112041   1.528   0.747  10.251 -0.1940  0.5410  0.3184
  818MPD2    H212042   1.260   1.037  10.353  2.0222  0.2041  1.5008
  818MPD2    H312043   1.461   0.968  10.238 -2.0510  0.5050 -0.6237
  818MPD2     N12044   1.409   0.546  10.367 -0.5893  0.9494  0.2970
  818MPD2    H512045   1.507   0.534  10.345 -1.1756  0.0672 -1.8365
  818MPD2    N112046   1.077   0.874  10.479 -0.1671 -0.2701  0.3768
  818MPD2    H712047   1.027   0.798  10.523 -0.7499 -0.6717 -0.9658
  819MPD2     C12048   3.814   2.363  15.693 -0.0199  0.8015 -0.1144
  819MPD2    C112049   3.841   2.229  15.699  0.1294  0.2934 -0.1763
  819MPD2    C212050   3.949   2.184  15.775  0.4918  0.3735 -0.1370
  819MPD2    C312051   4.031   2.273  15.846  0.1427 -0.7674  0.0461
  819MPD2    C412052   4.002   2.406  15.837  0.1244 -0.0351 -0.0195
  819MPD2    C512053   3.894   2.446  15.767 -0.4850  0.1460 -0.1677
  819MPD2     H12054   3.956   2.078  15.794 -0.0998  0.8358  2.6052
  819MPD2    H112055   4.061   2.488  15.879  0.0311 -0.5427  1.1134
  819MPD2    H212056   3.730   2.400  15.635 -0.3294 -1.2922 -1.0030
  819MPD2    H312057   3.878   2.553  15.760 -0.2191  0.1718 -0.3744
  819MPD2     N12058   4.132   2.229  15.933 -0.0548  0.0516  0.4452
  819MPD2    H512059   4.148   2.129  15.931  3.0776  0.5842 -1.2146
  819MPD2    N112060   3.745   2.155  15.626  0.3779  0.2811  0.3642
  819MPD2    H712061   3.674   2.216  15.585  0.9130  0.8391  0.2719
  820MPD2     C12062   2.909   2.229  15.154  0.7982 -0.1606  0.5330
  820MPD2    C112063   3.009   2.306  15.200 -0.2703  0.0909  0.1126
  820MPD2    C212064   3.130   2.252  15.240  0.0469  0.5035  0.4044
  820MPD2    C312065   3.150   2.117  15.225  0.2721 -0.5319 -0.2743
  820MPD2    C412066   3.044   2.041  15.178 -1.1866 -0.2441 -0.7363
  820MPD2    C512067   2.924   2.093  15.145  0.5102 -0.0509  0.4047
  820MPD2     H12068   3.205   2.313  15.289  1.1535 -0.7939  0.3286
  820MPD2    H112069   3.044   1.933  15.170 -2.4908 -0.5228  2.9215
  820MPD2    H212070   2.824   2.275  15.106  0.5676  0.0735  1.1746
  820MPD2    H312071   2.840   2.033  15.112  2.0155 -0.3762 -2.8148
  820MPD2     N12072   3.264   2.040  15.269 -0.1983 -0.6208  1.1582
  820MPD2    H512073   3.263   1.940  15.252 -1.3803 -0.2793 -0.7797
  820MPD2    N112074   2.982   2.448  15.205 -0.6658  0.5656 -0.0808
  820MPD2    H712075   2.890   2.482  15.178 -1.7720 -2.2703  0.1599
  821MPD2     C12076   4.195   3.957  13.293  0.0228 -0.2273 -0.8545
  821MPD2    C112077   4.295   3.963  13.391 -0.0323 -0.4202  0.0596
  821MPD2    C212078   4.427   3.950  13.350 -0.2674  0.3827 -0.3035
  821MPD2    C312079   4.456   3.931  13.217  0.8088 -0.2659 -0.3473
  821MPD2    C412080   4.358   3.946  13.122 -0.2738 -0.0577  0.1118
  821MPD2    C512081   4.227   3.955  13.159 -0.1283  0.1124 -0.4880
  821MPD2     H12082   4.509   3.938  13.421  1.0969  2.3095 -1.5575
  821MPD2    H112083   4.380   3.943  13.016 -4.3018  2.2865 -0.7875
  821MPD2    H212084   4.089   3.967  13.315  0.2170 -0.2530  0.0830
  821MPD2    H312085   4.159   3.964  13.075 -0.6717 -0.4539 -0.1175
  821MPD2     N12086   4.587   3.908  13.171  0.6743 -0.9543  0.2635
  821MPD2    H512087   4.611   3.934  13.076  2.7215 -1.6785  0.5759
  821MPD2    N112088   4.269   3.974  13.533 -0.2518  0.2649  0.2604
  821MPD2    H712089   4.353   3.969  13.590  0.3871 -1.0581 -0.7870
  822MPD2     C12090   0.009   3.764  15.874  0.2233  0.1575  0.5000
  822MPD2    C112091   0.005   3.729  16.009 -1.0118 -0.0901 -0.8926
  822MPD2    C212092   4.690   3.811  16.111 -0.3352 -0.0420 -0.3897
  822MPD2    C312093   4.646   3.938  16.079 -0.2122 -0.1041  0.0966
  822MPD2    C412094   4.634   3.972  15.945  0.6710  0.1400 -0.7517
  822MPD2    C512095   4.675   3.892  15.846  0.6584 -0.3122 -0.0711
  822MPD2     H12096   4.689   3.771  16.212  1.5303  2.4122  0.5990
  822MPD2    H112097   4.602   4.073  15.924  0.2570  0.3706  0.9693
  822MPD2    H212098   0.032   3.693  15.796  0.6719  0.3657  0.4440
  822MPD2    H312099   4.667   3.932  15.745 -1.3170 -0.1084  0.1646
  822MPD2     N12100   4.630   4.023  16.183  0.2240 -0.4503 -0.1386
  822MPD2    H512101   4.636   4.000  16.282  1.0839 -0.7646 -0.2671
  822MPD2    N112102   0.049   3.605  16.054  0.3617 -0.5736  0.3059
  822MPD2    H712103   0.037   3.581  16.152 -1.9585 -1.1043 -0.1075
  823MPD2     C12104   4.374   4.255  16.958 -0.2110  0.1639  0.6740
  823MPD2    C112105   4.385   4.163  16.850 -0.2889  0.3182  0.7911
  823MPD2    C212106   4.378   4.030  16.880 -0.6337 -0.1653  0.0330
  823MPD2    C312107   4.351   3.990  17.008 -0.4798  0.4206 -0.0175
  823MPD2    C412108   4.334   4.082  17.109 -0.5354  1.0688  0.4348
  823MPD2    C512109   4.344   4.211  17.085 -0.0485 -0.2260 -0.8663
  823MPD2     H12110   4.389   3.958  16.801 -0.8118 -0.3211  0.1483
  823MPD2    H112111   4.319   4.056  17.214  1.2419  3.4138  1.2716
  823MPD2    H212112   4.378   4.359  16.931 -2.6577 -0.0336 -0.4235
  823MPD2    H312113   4.322   4.293  17.153  2.7347 -0.9528  0.9377
  823MPD2     N12114   4.357   3.850  17.047  0.1812  0.1876  0.1876
  823MPD2    H512115   4.335   3.818  17.141 -1.1884  1.0120  0.1425
  823MPD2    N112116   4.411   4.217  16.726 -0.3978 -0.2604  0.2606
  823MPD2    H712117   4.442   4.313  16.720 -1.0318 -0.0536  0.2855
  824MPD2     C12118   0.029   2.812  15.884 -0.4697  0.6667 -0.9365
  824MPD2    C112119   0.150   2.875  15.910 -0.0856  0.1810  0.3235
  824MPD2    C212120   0.265   2.812  15.872 -0.0888  0.6956 -0.0729
  824MPD2    C312121   0.262   2.689  15.803  0.0541  0.2813  1.0416
  824MPD2    C412122   0.139   2.629  15.777  0.0603  0.0828 -0.1012
  824MPD2    C512123   0.028   2.696  15.816 -0.4350 -0.1147  0.1701
  824MPD2     H12124   0.359   2.865  15.884  2.2595 -3.4202 -0.3568
  824MPD2    H112125   0.131   2.538  15.718 -1.1802  0.3010 -0.2730
  824MPD2    H212126   4.661   2.865  15.911 -0.4579 -0.6432  1.6433
  824MPD2    H312127   4.652   2.655  15.799 -1.0187  0.2607  2.6593
  824MPD2     N12128   0.383   2.633  15.761  0.8245  0.0266 -0.7297
  824MPD2    H512129   0.469   2.685  15.755 -0.1428  1.6255 -0.7949
  824MPD2    N112130   0.158   3.003  15.973 -0.0393 -0.1502  0.1976
  824MPD2    H712131   0.072   3.058  15.973 -0.5688 -0.9840 -0.7974
  825MPD2     C12132   1.139   2.671  15.409  0.7027 -0.5901  0.0965
  825MPD2    C112133   1.014   2.715  15.434 -0.1499 -0.3795  0.0282
  825MPD2    C212134   1.006   2.856  15.463 -0.1462 -0.7349 -0.1285
  825MPD2    C312135   1.116   2.945  15.458 -0.9058 -0.4568 -0.0522
  825MPD2    C412136   1.244   2.891  15.421 -0.4724 -0.0015 -0.4978
  825MPD2    C512137   1.250   2.754  15.397  0.4159 -0.2515 -0.1624
  825MPD2     H12138   0.911   2.894  15.500  1.4336  1.9796  1.1729
  825MPD2    H112139   1.332   2.953  15.411  0.1071 -0.4010  1.9883
  825MPD2    H212140   1.153   2.566  15.389 -1.3267 -0.7059 -0.7034
  825MPD2    H312141   1.349   2.722  15.369  0.2968  0.8933 -1.9070
  825MPD2     N12142   1.101   3.083  15.475 -0.7486 -0.0963 -0.7512
  825MPD2    H512143   1.179   3.139  15.441 -0.1677 -0.1273  0.5362
  825MPD2    N112144   0.902   2.623  15.436 -0.2284  0.0896 -1.0635
  825MPD2    H712145   0.923   2.528  15.410 -1.6838 -1.3830  3.1626
  826MPD2     C12146   4.374   2.996  13.425  0.9365 -0.1215  0.4729
  826MPD2    C112147   4.431   3.112  13.389 -0.2665  0.5900  0.4462
  826MPD2    C212148   4.417   3.223  13.470  0.3698 -0.3489 -0.5184
  826MPD2    C312149   4.364   3.209  13.595  0.3206 -0.1314  0.7394
  826MPD2    C412150   4.311   3.090  13.629  0.2180 -0.3055  0.3932
  826MPD2    C512151   4.305   2.986  13.538 -0.2974 -0.0294  0.4347
  826MPD2     H12152   4.454   3.320  13.439 -1.1712  0.4103  0.0166
  826MPD2    H112153   4.250   3.076  13.718  1.0963  0.4199  1.1103
  826MPD2    H212154   4.382   2.910  13.360 -2.6876 -1.0252  1.2248
  826MPD2    H312155   4.251   2.895  13.564  0.9434 -0.6634  0.7873
  826MPD2     N12156   4.354   3.315  13.694 -0.0675 -0.0513  0.1702
  826MPD2    H512157   4.302   3.300  13.780  0.1448 -1.1314  0.1027
  826MPD2    N112158   4.505   3.123  13.274  0.0391  0.7831 -0.5393
  826MPD2    H712159   4.550   3.042  13.233 -0.3606  1.3779 -2.1651
  827MPD2     C12160   1.415   4.307   9.996  0.5916 -0.1134  0.3968
  827MPD2    C112161   1.534   4.291  10.066  0.3166  1.1462  0.9249
  827MPD2    C212162   1.613   4.184  10.025 -0.1001 -0.0553 -0.0178
  827MPD2    C312163   1.590   4.118   9.909  0.6262 -0.1034 -0.2523
  827MPD2    C412164   1.474   4.136   9.839  0.3779 -0.1647 -0.6413
  827MPD2    C512165   1.385   4.231   9.885 -0.4254 -0.1384 -0.6218
  827MPD2     H12166   1.707   4.167  10.077 -0.3430 -1.2987  0.0078
  827MPD2    H112167   1.451   4.072   9.754 -1.0423 -1.4828  0.7084
  827MPD2    H212168   1.347   4.388  10.019  0.4951 -0.2038  0.4337
  827MPD2    H312169   1.290   4.229   9.833 -0.6044 -2.2034 -0.2367
  827MPD2     N12170   1.687   4.027   9.867  0.0905 -0.1005 -0.1770
  827MPD2    H512171   1.778   4.027   9.912 -0.0392  0.5717  0.0880
  827MPD2    N112172   1.564   4.377  10.171  0.5079  0.1462  0.1014
  827MPD2    H712173   1.506   4.459  10.188  1.2875  1.1952 -2.2878
  828MPD2     C12174   4.609   4.320  12.515 -0.2711  0.0655 -0.2884
  828MPD2    C112175   4.599   4.317  12.379  0.2224 -0.3741 -0.3450
  828MPD2    C212176   4.700   4.255  12.316  0.2924  0.1294 -0.5674
  828MPD2    C312177   0.093   4.198  12.382  0.2407 -0.1809 -0.5718
  828MPD2    C412178   0.100   4.211  12.519 -0.6200 -0.2919 -0.2742
  828MPD2    C512179   4.717   4.272  12.588 -0.1332  0.9586 -0.6609
  828MPD2     H12180   4.692   4.250  12.208 -1.1499  1.6483 -0.5374
  828MPD2    H112181   0.188   4.168  12.567 -0.6931  2.2097  2.0815
  828MPD2    H212182   4.528   4.365  12.571 -0.9833  1.6943 -2.6769
  828MPD2    H312183   4.718   4.288  12.696 -0.8169  0.4324 -0.5794
  828MPD2     N12184   0.197   4.133  12.307 -0.3246  1.1464 -0.4826
  828MPD2    H512185   0.284   4.112  12.356  0.0106 -1.6101 -2.2947
  828MPD2    N112186   4.488   4.372  12.304 -0.4227  0.2450 -0.0526
  828MPD2    H712187   4.507   4.364  12.205 -0.9446 -0.3961 -0.1041
  829MPD2     C12188   0.017   4.320  11.570  0.2425  0.2283 -0.3625
  829MPD2    C112189   4.605   4.329  11.537  0.1654 -0.1805 -0.0762
  829MPD2    C212190   4.511   4.369  11.632  0.5106  0.3421  1.1176
  829MPD2    C312191   4.549   4.383  11.768  0.5089  1.0795 -0.1232
  829MPD2    C412192   4.679   4.350  11.804  0.0936  0.0687 -0.4230
  829MPD2    C512193   0.051   4.323  11.706  0.1428  0.2321  0.6902
  829MPD2     H12194   4.412   4.393  11.597  0.3658 -0.9008  0.6689
  829MPD2    H112195   4.700   4.354  11.910 -1.0368  1.9687 -0.2721
  829MPD2    H212196   0.097   4.295  11.502  0.5800 -1.9482  0.8649
  829MPD2    H312197   0.150   4.315  11.749 -0.1245  2.7855  1.7957
  829MPD2     N12198   4.458   4.417  11.869  0.4158  0.9007  0.3185
  829MPD2    H512199   4.495   4.408  11.963  1.1320  2.8825  0.2211
  829MPD2    N112200   4.578   4.318  11.400  0.1653 -0.2958 -0.1012
  829MPD2    H712201   4.654   4.286  11.342 -0.6391  1.2123 -1.9640
  830MPD2     C12202   0.217   1.982  15.813  0.0065  0.0863  0.5064
  830MPD2    C112203   0.102   2.051  15.795 -0.4494 -0.4535 -0.0747
  830MPD2    C212204   0.092   2.133  15.685 -0.0640  0.6689  0.4630
  830MPD2    C312205   0.198   2.150  15.602  0.9170  0.4771 -0.9178
  830MPD2    C412206   0.319   2.088  15.629 -0.0606  0.3635  0.4569
  830MPD2    C512207   0.326   2.004  15.736 -0.4029  0.0165  0.1060
  830MPD2     H12208   0.001   2.185  15.658  1.1071  1.2246 -2.4070
  830MPD2    H112209   0.403   2.092  15.562  1.1971  0.1771  2.0244
  830MPD2    H212210   0.240   1.919  15.898  0.4804 -0.6692 -0.1760
  830MPD2    H312211   0.423   1.957  15.751 -0.1296  0.9471  1.2133
  830MPD2     N12212   0.197   2.242  15.491 -0.4016 -1.0565  0.6324
  830MPD2    H512213   0.287   2.273  15.455 -0.7621 -1.4591 -0.6254
  830MPD2    N112214   4.722   2.042  15.894  0.4706 -0.3222 -0.2589
  830MPD2    H712215   0.018   1.996  15.983  0.6862 -0.6337 -0.4664
  831MPD2     C12216   0.056   3.931  16.506 -0.5351 -1.1112  0.0261
  831MPD2    C112217   0.109   3.818  16.442  0.0317 -0.6914  0.0100
  831MPD2    C212218   0.035   3.699  16.444  0.0948  0.0247 -0.9910
  831MPD2    C312219   4.634   3.698  16.493 -0.4399  0.0294  0.4651
  831MPD2    C412220   4.593   3.799  16.573 -0.5918  0.4995  0.8881
  831MPD2    C512221   4.661   3.920  16.580  0.0598  0.0024 -0.2951
  831MPD2     H12222   0.079   3.608  16.405 -1.9722 -0.8978 -1.1554
  831MPD2    H112223   4.491   3.803  16.612 -0.6205 -0.1151  0.8662
  831MPD2    H212224   0.108   4.027  16.503  1.7199 -2.3982 -2.0286
  831MPD2    H312225   4.619   3.999  16.641  0.6874 -0.4256  0.7050
  831MPD2     N12226   4.549   3.589  16.477  0.7936  0.3171  0.7408
  831MPD2    H512227   4.465   3.582  16.533  0.1067 -1.0623 -0.4849
  831MPD2    N112228   0.231   3.827  16.376 -0.0548  0.1622  0.3866
  831MPD2    H712229   0.272   3.735  16.359 -0.6273 -0.6607  3.5030
  832MPD2     C12230   3.179   0.512  17.376 -0.1953 -0.9169  0.0291
  832MPD2    C112231   3.163   0.603  17.274 -0.4458  0.5030 -0.1591
  832MPD2    C212232   3.130   0.554  17.146  0.4264 -1.0056  0.1495
  832MPD2    C312233   3.103   0.417  17.127  0.7492 -0.5700  0.4986
  832MPD2    C412234   3.129   0.336  17.236 -0.1206  0.4372 -0.1369
  832MPD2    C512235   3.164   0.377  17.359 -0.3715 -0.0963 -0.6989
  832MPD2     H12236   3.106   0.626  17.068 -0.6904 -1.7643 -0.2030
  832MPD2    H112237   3.107   0.230  17.223  0.6625  0.0809  1.5288
  832MPD2    H212238   3.203   0.540  17.478 -0.5429  1.2419 -0.4772
  832MPD2    H312239   3.169   0.305  17.441  0.5611 -0.4333 -1.0537
  832MPD2     N12240   3.060   0.353  17.011 -0.6133 -0.2119 -0.1025
  832MPD2    H512241   3.058   0.252  17.006  0.9550 -0.1021 -2.8528
  832MPD2    N112242   3.180   0.740  17.311 -0.5040  0.3864  0.5032
  832MPD2    H712243   3.204   0.759  17.408  1.4132 -0.7877  0.2674
  833MPD2     C12244   0.310   2.358  12.282 -0.4714  0.1698  0.1115
  833MPD2    C112245   0.375   2.450  12.205  0.3346  0.5375  0.1196
  833MPD2    C212246   0.497   2.418  12.155  0.4777 -0.3154 -0.4980
  833MPD2    C312247   0.560   2.290  12.166  0.3144 -0.1683  0.3405
  833MPD2    C412248   0.494   2.197  12.246 -0.2336 -0.0806  0.6781
  833MPD2    C512249   0.373   2.240  12.308  0.0105  0.0500 -0.5308
  833MPD2     H12250   0.548   2.493  12.095 -0.8313 -0.4033 -1.7223
  833MPD2    H112251   0.528   2.098  12.273 -3.2186 -1.0814  0.7873
  833MPD2    H212252   0.217   2.376  12.336 -0.3950 -0.3871  0.4381
  833MPD2    H312253   0.315   2.160  12.354  1.7251  0.0219  1.6164
  833MPD2     N12254   0.684   2.265  12.106  0.0975 -0.1321  0.4118
  833MPD2    H512255   0.712   2.337  12.040 -0.0454  0.2511  0.7723
  833MPD2    N112256   0.319   2.585  12.193 -0.0327  0.3116  0.1616
  833MPD2    H712257   0.236   2.595  12.249  1.1794  0.4131  1.9465
  834MPD2     C12258   0.841   1.487  11.588 -0.0178  0.7152 -0.0558
  834MPD2    C112259   0.724   1.524  11.655 -0.2843 -0.4232 -0.2540
  834MPD2    C212260   0.708   1.650  11.712  0.5316 -0.6944 -0.6043
  834MPD2    C312261   0.819   1.736  11.704  0.2351 -0.0437  0.3866
  834MPD2    C412262   0.937   1.701  11.633  0.1893  0.4055 -0.0761
  834MPD2    C512263   0.947   1.572  11.580  0.6453  0.3298 -0.0019
  834MPD2     H12264   0.617   1.672  11.768  1.3595  2.4039 -0.4825
  834MPD2    H112265   1.026   1.762  11.617  0.2534  0.2906 -0.1668
  834MPD2    H212266   0.843   1.391  11.538 -0.7493 -0.2735  1.8462
  834MPD2    H312267   1.041   1.547  11.532 -0.0022 -2.2855  0.1205
  834MPD2     N12268   0.812   1.862  11.758  0.0456  0.3727 -0.0328
  834MPD2    H512269   0.731   1.874  11.817  0.3081 -2.1297  0.8433
  834MPD2    N112270   0.611   1.443  11.638 -0.3898 -0.0351  0.5224
  834MPD2    H712271   0.621   1.362  11.579  1.8366  0.9700 -0.4591
  835MPD2     C12272   0.096   4.282  10.740  1.0448 -0.6589 -0.3377
  835MPD2    C112273   0.104   4.363  10.846 -0.2929  0.0973  0.0999
  835MPD2    C212274   0.191   4.337  10.950 -0.1620  0.6873  0.0927
  835MPD2    C312275   0.273   4.222  10.947  0.0911  0.4772 -0.1627
  835MPD2    C412276   0.267   4.140  10.839 -0.1176 -0.4670 -0.4466
  835MPD2    C512277   0.179   4.169  10.735  0.3426 -0.0636  0.2061
  835MPD2     H12278   0.175   4.406  11.032 -0.1541  0.4459  0.2964
  835MPD2    H112279   0.332   4.054  10.822  0.5998 -0.6484  3.2369
  835MPD2    H212280   0.019   4.286  10.664 -0.0995  0.7791  0.9058
  835MPD2    H312281   0.173   4.102  10.650 -0.2702 -0.0213  0.2183
  835MPD2     N12282   0.372   4.187  11.042  0.3735  0.2117  0.4155
  835MPD2    H512283   0.411   4.095  11.022  0.9471  0.1908  1.6030
  835MPD2    N112284   0.030   4.481  10.862  0.2324  0.1913 -0.3866
  835MPD2    H712285   0.044   4.539  10.944  1.9209 -2.1087  0.9096
  836MPD2     C12286   0.824   4.119  11.857 -0.7256  0.2218 -0.2772
  836MPD2    C112287   0.725   4.194  11.788  0.4118 -0.1939  0.1772
  836MPD2    C212288   0.645   4.287  11.853  0.8293 -0.3544  0.1218
  836MPD2    C312289   0.658   4.306  11.983 -0.0978  0.0601 -0.1747
  836MPD2    C412290   0.751   4.229  12.050 -0.4873  0.7981  0.4487
  836MPD2    C512291   0.839   4.140  11.985  0.5841 -0.0196  0.1929
  836MPD2     H12292   0.565   4.341  11.803 -0.4176  0.5213  3.0804
  836MPD2    H112293   0.769   4.238  12.157 -1.0744  0.2691  0.5924
  836MPD2    H212294   0.892   4.052  11.805  0.6798  0.9770  0.5970
  836MPD2    H312295   0.909   4.083  12.045  1.0631 -0.7491 -1.0644
  836MPD2     N12296   0.573   4.385  12.060  0.4751  0.1177  0.0160
  836MPD2    H512297   0.599   4.382  12.158 -0.7717  1.8601  0.4067
  836MPD2    N112298   0.710   4.166  11.652  0.2321 -0.5396  0.1957
  836MPD2    H712299   0.752   4.081  11.615 -0.5425 -1.6815  1.9705
  837MPD2     C12300   3.641   3.819  10.568  0.3810 -0.1001 -0.2133
  837MPD2    C112301   3.683   3.902  10.463 -0.3475 -0.2842  0.1560
  837MPD2    C212302   3.641   4.031  10.458  0.2039 -0.1076 -0.0073
  837MPD2    C312303   3.554   4.082  10.549  0.0985 -0.6639  0.2981
  837MPD2    C412304   3.525   4.014  10.665  0.2103 -0.0851  1.0095
  837MPD2    C512305   3.569   3.880  10.673  0.3065 -0.1534 -0.8639
  837MPD2     H12306   3.659   4.095  10.372  0.3375  1.2911  1.0493
  837MPD2    H112307   3.457   4.064  10.733 -2.0082 -2.9316  0.9096
  837MPD2    H212308   3.665   3.714  10.578 -1.3058 -0.2463  2.3889
  837MPD2    H312309   3.548   3.836  10.769 -0.3285  0.7337 -0.5943
  837MPD2     N12310   3.520   4.218  10.520  0.0053 -0.5612  0.1568
  837MPD2    H512311   3.561   4.257  10.436  0.0249 -2.1638 -0.5715
  837MPD2    N112312   3.754   3.856  10.344 -0.2221 -0.2515 -0.0823
  837MPD2    H712313   3.782   3.930  10.280  0.8871  0.2731  1.0102
  838MPD2     C12314   2.193   2.973  11.486 -0.3885 -0.0356  0.1902
  838MPD2    C112315   2.084   2.884  11.468 -0.1531  0.1213  0.3270
  838MPD2    C212316   1.999   2.863  11.572 -0.7775  0.0064  0.0080
  838MPD2    C312317   2.005   2.952  11.679 -0.1831  0.1347 -0.2351
  838MPD2    C412318   2.095   3.050  11.687 -0.0393  0.3352  0.3393
  838MPD2    C512319   2.191   3.059  11.593 -0.0015 -0.2398  0.3512
  838MPD2     H12320   1.927   2.784  11.552 -2.2497  1.5295 -0.7805
  838MPD2    H112321   2.098   3.125  11.765  1.0144  1.1164 -0.4726
  838MPD2    H212322   2.270   2.984  11.411 -0.7369  0.8539 -0.0449
  838MPD2    H312323   2.268   3.136  11.592 -1.1180  0.8593 -0.3994
  838MPD2     N12324   1.917   2.948  11.794 -0.0254  0.5254  0.6394
  838MPD2    H512325   1.915   3.030  11.854 -0.1040  0.5387  0.6185
  838MPD2    N112326   2.068   2.795  11.358  0.3228  0.0776  0.5346
  838MPD2    H712327   1.987   2.734  11.361  1.8594 -1.9178  1.1696
  839MPD2     C12328   1.342   2.513  11.239 -1.0248  0.5731  0.6327
  839MPD2    C112329   1.427   2.414  11.201  0.0249 -0.0494  0.5223
  839MPD2    C212330   1.543   2.457  11.144  0.1613 -0.5516  0.0584
  839MPD2    C312331   1.573   2.593  11.130  0.0590 -0.1223  0.5225
  839MPD2    C412332   1.488   2.685  11.170  0.6229 -0.4548 -0.2605
  839MPD2    C512333   1.371   2.643  11.226  0.1119 -0.6448  1.3720
  839MPD2     H12334   1.621   2.388  11.113 -1.1811 -2.9020  1.8465
  839MPD2    H112335   1.516   2.789  11.186  2.4179 -1.0311  0.3642
  839MPD2    H212336   1.243   2.500  11.282 -0.4353  0.5175  1.9687
  839MPD2    H312337   1.295   2.713  11.256 -1.3101 -1.5362 -0.1318
  839MPD2     N12338   1.698   2.639  11.091  0.6167 -0.7138 -0.4180
  839MPD2    H512339   1.723   2.732  11.123 -1.0898 -0.5893  0.5135
  839MPD2    N112340   1.396   2.274  11.218  0.1040  0.5243 -0.4936
  839MPD2    H712341   1.472   2.213  11.189 -0.1802  0.1235 -0.3918
  840MPD2     C12342   2.149   0.015  10.484 -0.0115  0.0926 -0.2993
  840MPD2    C112343   2.098   4.664  10.582  0.3089  0.4070 -0.3539
  840MPD2    C212344   2.172   4.647  10.702 -0.6510  0.0152  0.0018
  840MPD2    C312345   2.290   4.708  10.713  0.8112  0.4448  0.0549
  840MPD2    C412346   2.337   0.073  10.614 -0.1141 -0.2027  0.3383
  840MPD2    C512347   2.265   0.080  10.499  0.3683 -0.1166 -0.2584
  840MPD2     H12348   2.144   4.573  10.776  0.0138  0.5900  0.8315
  840MPD2    H112349   2.441   0.102  10.624 -0.7589  2.5112 -1.1166
  840MPD2    H212350   2.095   0.016  10.391 -0.4173 -2.3475 -0.0823
  840MPD2    H312351   2.312   0.138  10.420  2.2019 -0.9605  0.2009
  840MPD2     N12352   2.384   4.694  10.820 -0.6751  0.5541  0.1804
  840MPD2    H512353   2.455   0.044  10.826 -1.1334  0.9866  0.3561
  840MPD2    N112354   1.984   4.597  10.552 -0.6497 -0.1485  0.3962
  840MPD2    H712355   1.948   4.602  10.458  0.6946 -1.2976 -0.1794
  841MPD2     C12356   1.946   3.903  14.749 -0.3231 -0.5338 -0.7857
  841MPD2    C112357   2.050   3.881  14.664 -0.2413  0.3519 -0.3975
  841MPD2    C212358   2.159   3.972  14.666 -0.3878 -0.2651 -0.1295
  841MPD2    C312359   2.162   4.076  14.750 -0.0321  0.2425  0.7358
  841MPD2    C412360   2.057   4.096  14.832 -0.3708 -0.2711 -0.1943
  841MPD2    C512361   1.947   4.015  14.827  0.1257  0.2814  0.0008
  841MPD2     H12362   2.247   3.940  14.611 -1.7672 -3.4128 -0.5542
  841MPD2    H112363   2.040   4.188  14.887 -1.9821 -1.0992  0.7035
  841MPD2    H212364   1.858   3.844  14.770 -0.7978 -0.2296 -1.9425
  841MPD2    H312365   1.859   4.021  14.891  2.6479  0.0619  3.4903
  841MPD2     N12366   2.274   4.162  14.774 -0.0859 -0.2425 -0.3562
  841MPD2    H512367   2.263   4.236  14.842 -1.4173 -1.0835  0.3395
  841MPD2    N112368   2.062   3.768  14.587  0.2876 -0.3991  0.6620
  841MPD2    H712369   2.137   3.762  14.518  0.0986 -3.1714  0.7185
  842MPD2     C12370   2.480   0.429  16.478 -0.1254  0.4400  0.8081
  842MPD2    C112371   2.341   0.432  16.504  0.5453  0.3056  0.1453
  842MPD2    C212372   2.296   0.432  16.635  0.3574 -0.4241  0.1891
  842MPD2    C312373   2.391   0.441  16.738  0.3436  0.3212 -0.2791
  842MPD2    C412374   2.529   0.447  16.702 -0.9922  0.2548 -0.2556
  842MPD2    C512375   2.575   0.431  16.576 -0.5756  0.1785 -0.1278
  842MPD2     H12376   2.192   0.453  16.658  0.5051  0.7003 -0.1733
  842MPD2    H112377   2.596   0.448  16.786 -1.2695 -0.0568 -0.0288
  842MPD2    H212378   2.506   0.422  16.373 -0.6207 -2.6811  0.8990
  842MPD2    H312379   2.681   0.433  16.553 -0.9370  0.1278 -1.8342
  842MPD2     N12380   2.359   0.453  16.877 -0.0842 -0.5237  0.1296
  842MPD2    H512381   2.438   0.457  16.940 -0.4188  2.4230  0.3664
  842MPD2    N112382   2.249   0.443  16.398  0.4239 -0.0680 -0.3646
  842MPD2    H712383   2.292   0.458  16.307  0.1782 -1.2405 -0.6818
  843MPD2     C12384   0.957   0.852   0.866  0.0826 -0.9442 -1.2507
  843MPD2    C112385   0.822   0.869   0.831  0.0911  0.2021  0.0863
  843MPD2    C212386   0.796   0.884   0.699 -0.3959  0.6306 -0.1912
  843MPD2    C312387   0.886   0.875   0.597 -0.0994 -0.1287  0.3669
  843MPD2    C412388   1.017   0.848   0.631  0.4030  0.3646  0.6226
  843MPD2    C512389   1.048   0.835   0.761 -0.6329  0.3560 -0.2904
  843MPD2     H12390   0.691   0.891   0.673 -0.5721 -1.4357 -0.0040
  843MPD2    H112391   1.098   0.856   0.559 -0.4014  1.1060 -0.2114
  843MPD2    H212392   0.997   0.857   0.966  0.5132 -0.7659 -1.4318
  843MPD2    H312393   1.152   0.820   0.788  0.2513 -0.5293 -4.2421
  843MPD2     N12394   0.869   0.885   0.455  0.8265  0.3504 -0.0009
  843MPD2    H512395   0.950   0.875   0.395  0.4912 -2.5253 -0.0062
  843MPD2    N112396   0.733   0.878   0.934 -0.4430 -0.1640 -0.0097
  843MPD2    H712397   0.784   0.874   1.022 -2.6895 -1.1482  1.2335
  844MPD2     C12398   3.288   4.613  16.720  0.4241  0.1344 -0.3210
  844MPD2    C112399   3.264   0.004  16.636 -0.0605 -0.5926 -0.1185
  844MPD2    C212400   3.292   0.130  16.692 -0.7205 -0.1157 -0.3123
  844MPD2    C312401   3.333   0.151  16.821  0.8158  0.1943 -0.8086
  844MPD2    C412402   3.365   0.042  16.897  0.3484 -0.0908 -0.9269
  844MPD2    C512403   3.333   4.638  16.846 -0.8781 -0.5336 -0.5256
  844MPD2     H12404   3.291   0.216  16.626 -2.6245 -1.6497 -2.2992
  844MPD2    H112405   3.412   0.047  16.995 -0.0333  2.4567 -0.8669
  844MPD2    H212406   3.265   4.509  16.700  0.3112  0.0192  0.4193
  844MPD2    H312407   3.371   4.558  16.909  0.6164  1.8554  1.6608
  844MPD2     N12408   3.362   0.288  16.856  0.6591 -0.2117 -0.4016
  844MPD2    H512409   3.345   0.363  16.791  3.0299  0.9577  0.3522
  844MPD2    N112410   3.207   4.715  16.508 -0.1079  0.0148 -0.1580
  844MPD2    H712411   3.179   0.075  16.455 -1.9235 -0.6338 -0.2093
  845MPD2     C12412   3.121   1.206  16.681  0.4568  0.1866 -0.3593
  845MPD2    C112413   3.061   1.165  16.798  0.3500 -0.5185  0.7855
  845MPD2    C212414   3.113   1.047  16.856  0.4837 -0.0028 -0.1328
  845MPD2    C312415   3.210   0.971  16.789 -0.2019 -0.0927 -0.2440
  845MPD2    C412416   3.245   1.000  16.661  0.3614  0.3475 -0.1054
  845MPD2    C512417   3.202   1.117  16.605 -0.2976 -0.4606  0.4012
  845MPD2     H12418   3.075   1.008  16.950  1.5716 -0.1803  0.2337
  845MPD2    H112419   3.302   0.934  16.596  3.4413  1.3652  1.5395
  845MPD2    H212420   3.110   1.300  16.629 -0.4292  0.4501  0.3035
  845MPD2    H312421   3.248   1.146  16.512 -0.2496  0.8201  0.8308
  845MPD2     N12422   3.266   0.861  16.859  0.5775 -0.1296 -0.0317
  845MPD2    H512423   3.243   0.845  16.956  1.0658 -1.1566 -0.0900
  845MPD2    N112424   2.971   1.243  16.859 -0.5007 -1.0187 -0.0526
  845MPD2    H712425   2.959   1.334  16.816  0.3714 -0.9520 -0.1543
  846MPD2     C12426   4.567   1.764  13.663  0.0762 -0.1082 -0.6583
  846MPD2    C112427   4.440   1.812  13.672  0.2776  0.2988 -0.3218
  846MPD2    C212428   4.366   1.794  13.783  0.3257  0.0691 -0.5634
  846MPD2    C312429   4.425   1.736  13.892  0.9676  0.7982  0.2034
  846MPD2    C412430   4.556   1.684  13.885  0.1065  0.1260  0.4945
  846MPD2    C512431   4.627   1.697  13.769 -0.3547  0.6567 -0.1281
  846MPD2     H12432   4.264   1.830  13.783 -0.0613 -1.0574  2.6319
  846MPD2    H112433   4.607   1.630  13.963  2.4137 -1.3579 -2.0536
  846MPD2    H212434   4.627   1.770  13.573  1.4055  2.8279  0.4184
  846MPD2    H312435   0.009   1.669  13.763 -0.1100  1.6748 -0.8655
  846MPD2     N12436   4.340   1.717  14.009  0.0799  0.5781  0.3560
  846MPD2    H512437   4.241   1.735  13.998  0.0116 -0.0713 -0.1300
  846MPD2    N112438   4.381   1.905  13.576 -0.8295 -0.0853  0.0642
  846MPD2    H712439   4.295   1.954  13.602 -1.7584  0.0320 -3.2305
  847MPD2     C12440   4.677   2.363  14.233 -0.1098 -0.2892 -0.1147
  847MPD2    C112441   4.647   2.456  14.327 -0.1862  0.6833  0.4312
  847MPD2    C212442   0.002   2.464  14.440  0.1951 -0.2283 -0.2069
  847MPD2    C312443   0.113   2.381  14.461  0.1524 -0.5619 -0.5612
  847MPD2    C412444   0.148   2.293  14.357 -0.4444  0.1898  0.4178
  847MPD2    C512445   0.057   2.283  14.248 -0.0587  0.2498 -0.1131
  847MPD2     H12446   4.693   2.530  14.520  2.1997 -0.7984  1.0460
  847MPD2    H112447   0.222   2.214  14.363  0.1319  0.7502  0.6785
  847MPD2    H212448   4.617   2.331  14.148 -1.0810  1.5397 -0.1299
  847MPD2    H312449   0.068   2.200  14.179  2.0409  0.3989  0.0385
  847MPD2     N12450   0.187   2.392  14.580 -0.3592  0.7898 -0.9791
  847MPD2    H512451   0.153   2.458  14.649  0.3910  0.4584 -0.2875
  847MPD2    N112452   4.534   2.546  14.326 -0.3998 -0.0743 -0.0959
  847MPD2    H712453   4.547   2.629  14.383  1.5374 -0.6827  0.3465
  848MPD2     C12454   2.763   0.498  16.246 -0.2511  0.2553  0.3512
  848MPD2    C112455   2.856   0.552  16.322  0.6765  0.0400  0.6795
  848MPD2    C212456   2.883   0.685  16.304  0.2165  0.9189  0.9176
  848MPD2    C312457   2.823   0.751  16.201  0.3136  0.2313  0.1658
  848MPD2    C412458   2.725   0.689  16.132 -0.1124  0.1881 -0.6834
  848MPD2    C512459   2.688   0.564  16.159 -0.4945  0.0218 -0.6368
  848MPD2     H12460   2.943   0.738  16.377  0.8337 -1.1485  1.9124
  848MPD2    H112461   2.681   0.737  16.046 -1.6010  3.4662  1.8798
  848MPD2    H212462   2.730   0.395  16.252  1.7925 -0.3115  1.6798
  848MPD2    H312463   2.618   0.502  16.104 -1.6749 -0.6769  1.6239
  848MPD2     N12464   2.831   0.893  16.183 -0.4408 -0.0822 -0.5173
  848MPD2    H512465   2.777   0.936  16.108  0.3072  0.7553 -0.5830
  848MPD2    N112466   2.919   0.481  16.425 -0.1254  0.2964 -0.0708
  848MPD2    H712467   2.986   0.535  16.479 -3.2655  2.1746  1.9238
  849MPD2     C12468   1.993   0.808  14.021  0.0748 -0.5224 -0.4846
  849MPD2    C112469   2.077   0.710  13.996  0.0199 -0.3140  0.6565
  849MPD2    C212470   2.101   0.620  14.100  0.2662  0.9424 -0.7240
  849MPD2    C312471   2.046   0.634  14.229 -0.7785 -0.0313  0.0526
  849MPD2    C412472   1.981   0.752  14.260  0.2879 -0.0390  0.2116
  849MPD2    C512473   1.961   0.836  14.152  0.6769 -0.4601  0.7654
  849MPD2     H12474   2.181   0.551  14.075 -1.4034 -1.7682  1.4658
  849MPD2    H112475   1.936   0.769  14.357 -1.5341  1.4390 -0.9121
  849MPD2    H212476   1.970   0.887  13.951 -1.9645  1.2964  2.2278
  849MPD2    H312477   1.893   0.918  14.168 -0.1831 -1.9316  4.6786
  849MPD2     N12478   2.052   0.533  14.326  0.8009 -1.0629 -0.6849
  849MPD2    H512479   2.035   0.553  14.424  2.7008  0.6715 -0.7165
  849MPD2    N112480   2.148   0.697  13.875  0.0552  0.6194  0.0525
  849MPD2    H712481   2.227   0.633  13.870  0.6986  1.3528  0.8792
  850MPD2     C12482   4.379   3.208  14.984  0.1224 -0.1087 -0.2238
  850MPD2    C112483   4.411   3.311  15.069 -0.6758  0.0468  0.7513
  850MPD2    C212484   4.540   3.315  15.123 -0.1742 -0.2820  0.3833
  850MPD2    C312485   4.630   3.214  15.096 -0.7394  0.3437  0.0853
  850MPD2    C412486   4.607   3.112  15.009  0.3249  0.0902  0.9439
  850MPD2    C512487   4.482   3.116  14.950 -0.1764 -0.4582  0.0888
  850MPD2     H12488   4.556   3.394  15.195 -2.7707  0.1232  0.5101
  850MPD2    H112489   4.674   3.034  14.975 -0.7155 -0.9035  1.1657
  850MPD2    H212490   4.289   3.189  14.927 -0.0389  0.0190 -0.0121
  850MPD2    H312491   4.450   3.050  14.871  0.4309  0.7771 -1.2045
  850MPD2     N12492   0.041   3.218  15.145 -0.0706  0.2127 -0.2426
  850MPD2    H512493   0.107   3.153  15.102 -0.8703 -0.6648 -0.1407
  850MPD2    N112494   4.309   3.405  15.100  0.1040 -0.7828  0.1157
  850MPD2    H712495   4.231   3.405  15.035 -1.6105  2.0370  2.1441
  851MPD2     C12496   0.156   3.162  15.640  0.0505 -0.1118 -0.0280
  851MPD2    C112497   0.043   3.143  15.572  0.0956 -0.0402 -0.1382
  851MPD2    C212498   0.025   3.028  15.498  0.6130  0.1070 -0.0917
  851MPD2    C312499   0.117   2.928  15.503 -0.7193  0.1371  0.3503
  851MPD2    C412500   0.231   2.950  15.577  0.7516  0.9697  0.3839
  851MPD2    C512501   0.251   3.063  15.642 -0.4685  0.4843 -0.4593
  851MPD2     H12502   4.664   3.022  15.429  0.9296  0.1720 -0.4834
  851MPD2    H112503   0.308   2.874  15.587  0.7321  0.7878 -0.7788
  851MPD2    H212504   0.175   3.249  15.701 -1.8078  0.4264 -0.2007
  851MPD2    H312505   0.346   3.079  15.693 -1.0116 -0.3063  0.7911
  851MPD2     N12506   0.081   2.807  15.435  0.0255 -0.4392 -0.2056
  851MPD2    H512507   4.708   2.803  15.399  0.0451  1.0454 -0.3998
  851MPD2    N112508   4.675   3.249  15.580  0.3880 -0.0745  0.2565
  851MPD2    H712509   0.001   3.336  15.601  1.7211 -0.8691  0.4995
  852MPD2     C12510   4.039   1.041  10.342 -0.3549  0.9478  0.3435
  852MPD2    C112511   4.155   1.102  10.384 -0.1182  0.3408 -0.0310
  852MPD2    C212512   4.233   1.159  10.292  0.1223 -0.0809 -0.3880
  852MPD2    C312513   4.214   1.147  10.154 -0.2270 -0.6728  0.8616
  852MPD2    C412514   4.115   1.073  10.112 -0.0253  0.6867  0.0645
  852MPD2    C512515   4.026   1.026  10.203 -0.5929  0.5967  0.5286
  852MPD2     H12516   4.326   1.206  10.320 -0.3826  2.3055 -2.7156
  852MPD2    H112517   4.086   1.054  10.009 -2.9399  2.2291  0.6191
  852MPD2    H212518   3.966   0.992  10.405 -1.1179  1.4326 -0.1673
  852MPD2    H312519   3.944   0.966  10.167  1.7218 -2.7182  0.7064
  852MPD2     N12520   4.310   1.198  10.064 -0.4793  0.5340 -0.8400
  852MPD2    H512521   4.379   1.259  10.106 -0.8513 -1.6581  3.0078
  852MPD2    N112522   4.186   1.101  10.524  0.2521  0.3292 -0.1170
  852MPD2    H712523   4.274   1.147  10.546  1.2871 -1.4856 -0.4291
  853MPD2     C12524   1.659   1.433  12.358 -0.4122 -0.1988 -0.1431
  853MPD2    C112525   1.526   1.462  12.341 -0.2182 -0.7026  0.7661
  853MPD2    C212526   1.464   1.447  12.214 -0.1375 -0.2859 -0.3260
  853MPD2    C312527   1.533   1.385  12.109 -0.2736 -0.5911  0.4849
  853MPD2    C412528   1.667   1.357  12.131 -0.1733 -0.4991  0.2340
  853MPD2    C512529   1.728   1.385  12.254 -0.3880  0.2096 -0.1187
  853MPD2     H12530   1.355   1.452  12.220 -0.1859 -1.0035 -0.6404
  853MPD2    H112531   1.727   1.309  12.054 -1.1146 -0.1020 -0.7521
  853MPD2    H212532   1.712   1.452  12.451 -0.8103  0.8185 -0.1241
  853MPD2    H312533   1.834   1.365  12.261 -0.2471  0.7764 -0.5644
  853MPD2     N12534   1.482   1.363  11.981 -0.5381 -0.1558  0.2664
  853MPD2    H512535   1.546   1.334  11.908 -1.0544 -1.9204  0.5100
  853MPD2    N112536   1.456   1.489  12.458 -0.3745 -0.4978  0.7555
  853MPD2    H712537   1.512   1.500  12.542 -0.8821 -0.8185  1.1384
  854MPD2     C12538   3.070   1.004  12.916 -1.0926  0.5368 -0.0793
  854MPD2    C112539   3.122   1.126  12.872  0.0790 -0.2666 -0.0229
  854MPD2    C212540   3.261   1.145  12.890  0.7751 -0.1625 -0.6316
  854MPD2    C312541   3.347   1.054  12.947  0.4139 -0.7810 -0.2197
  854MPD2    C412542   3.290   0.929  12.988 -0.1426 -0.0860  0.2486
  854MPD2    C512543   3.154   0.917  12.969  0.2583 -0.5196 -0.6373
  854MPD2     H12544   3.300   1.241  12.860 -0.0716  0.7694  1.2738
  854MPD2    H112545   3.345   0.846  13.032  3.2294  2.2042  0.3875
  854MPD2    H212546   2.964   0.984  12.901 -1.4744  2.1928  0.4600
  854MPD2    H312547   3.123   0.818  13.002 -2.5407  1.2070  1.9376
  854MPD2     N12548   3.482   1.067  12.972  0.1238  0.0899  0.2038
  854MPD2    H512549   3.525   0.992  13.025 -0.3220  0.1158  0.5940
  854MPD2    N112550   3.034   1.224  12.823  0.0189  0.0652  0.1494
  854MPD2    H712551   2.938   1.217  12.853 -0.2136  0.9693 -0.3856
  855MPD2     C12552   3.902   1.212  13.749 -0.0469 -0.3287 -0.2399
  855MPD2    C112553   3.969   1.098  13.706 -0.3986  0.3726 -0.1213
  855MPD2    C212554   3.975   1.086  13.567 -0.4086 -0.3283 -0.3888
  855MPD2    C312555   3.953   1.194  13.479 -0.2145  0.3512  0.5531
  855MPD2    C412556   3.899   1.306  13.531  0.2875 -0.0248  0.4015
  855MPD2    C512557   3.876   1.314  13.665 -0.3199 -0.2635 -0.0374
  855MPD2     H12558   3.991   0.987  13.526  0.2709 -0.1105 -0.6509
  855MPD2    H112559   3.871   1.390  13.467  1.6401  0.9194  1.0460
  855MPD2    H212560   3.876   1.232  13.852 -0.4474 -2.0600 -0.0016
  855MPD2    H312561   3.824   1.397  13.710 -2.5995 -1.7528  0.0787
  855MPD2     N12562   3.937   1.181  13.342 -0.0662  0.3009 -0.6274
  855MPD2    H512563   3.917   1.269  13.297  1.1444  2.0565  2.2609
  855MPD2    N112564   4.018   0.992  13.794  0.5923  0.2930  0.5469
  855MPD2    H712565   4.058   0.912  13.746 -0.2734 -0.4842  1.1332
  856MPD2     C12566   0.590   1.919  13.840 -0.2067  0.8640  0.4798
  856MPD2    C112567   0.648   1.982  13.947  0.1214 -0.3867 -0.7281
  856MPD2    C212568   0.605   2.102  13.992  0.2798  0.6268 -0.1371
  856MPD2    C312569   0.498   2.167  13.938  0.4653  0.3730  1.0035
  856MPD2    C412570   0.454   2.114  13.818 -0.4997  0.0520 -0.1891
  856MPD2    C512571   0.497   1.989  13.770 -0.1899 -1.0249 -0.1417
  856MPD2     H12572   0.658   2.145  14.076 -0.2909 -0.2028  0.6435
  856MPD2    H112573   0.377   2.159  13.757 -0.7777  0.3772  0.4061
  856MPD2    H212574   0.604   1.815  13.815 -2.4911  0.5580  0.4989
  856MPD2    H312575   0.463   1.947  13.676  0.5077 -0.6631 -0.5574
  856MPD2     N12576   0.443   2.284  13.986 -0.3037 -0.4545 -0.0590
  856MPD2    H512577   0.368   2.333  13.937 -0.3752 -1.0430 -0.5356
  856MPD2    N112578   0.753   1.931  14.023  0.2346  0.3098 -0.5532
  856MPD2    H712579   0.803   1.996  14.083 -1.6021  1.9503 -0.7980
  857MPD2     C12580   2.377   4.145  12.734  0.1952 -0.9041  0.0844
  857MPD2    C112581   2.503   4.093  12.745  0.0197 -0.3863  0.5658
  857MPD2    C212582   2.605   4.188  12.728  0.3471 -0.0418  0.7252
  857MPD2    C312583   2.583   4.319  12.688  0.8664 -0.6332  0.1785
  857MPD2    C412584   2.452   4.363  12.675 -0.1509 -0.5930  0.0737
  857MPD2    C512585   2.353   4.278  12.698  0.2835  0.3969 -0.3120
  857MPD2     H12586   2.708   4.159  12.743  0.4522 -0.4680 -0.7870
  857MPD2    H112587   2.423   4.464  12.648  0.3764  0.0899  2.0060
  857MPD2    H212588   2.289   4.083  12.745 -1.6018  1.1618 -2.9230
  857MPD2    H312589   2.255   4.324  12.690 -0.9579 -2.8960 -3.7687
  857MPD2     N12590   2.695   4.395  12.644  0.6753 -0.3083  0.0590
  857MPD2    H512591   2.787   4.353  12.658  1.0156  0.4907  0.2372
  857MPD2    N112592   2.516   3.952  12.764 -0.1971  0.0532  0.1181
  857MPD2    H712593   2.435   3.893  12.780 -1.2874  1.7125  0.6551
  858MPD2     C12594   2.896   3.287  16.645 -0.1242 -1.1863  0.2822
  858MPD2    C112595   3.010   3.217  16.649  0.3210  0.4766 -0.2340
  858MPD2    C212596   3.105   3.245  16.752  0.3412  0.4505  0.1315
  858MPD2    C312597   3.074   3.315  16.864  0.3224  0.1850 -0.3986
  858MPD2    C412598   2.944   3.369  16.869  0.2706 -0.6196  0.3860
  858MPD2    C512599   2.862   3.356  16.757 -0.2000  0.2995  0.0810
  858MPD2     H12600   3.202   3.197  16.746  0.0568 -0.2122  0.8087
  858MPD2    H112601   2.911   3.421  16.959 -0.1372 -0.7513  0.3139
  858MPD2    H212602   2.818   3.278  16.571 -0.1100 -2.0969  0.3717
  858MPD2    H312603   2.758   3.384  16.770  0.0027  1.0824 -0.0265
  858MPD2     N12604   3.159   3.337  16.979 -0.2645 -0.0039 -0.0551
  858MPD2    H512605   3.119   3.396  17.051 -2.7226 -2.1377  0.3735
  858MPD2    N112606   3.044   3.128  16.549 -0.0628 -0.1534  0.5297
  858MPD2    H712607   3.139   3.093  16.540 -0.0178  0.0835  0.0524
  859MPD2     C12608   1.680   0.391  15.462 -0.7560 -0.2956 -0.2895
  859MPD2    C112609   1.821   0.397  15.448  0.9310 -0.3622 -0.5203
  859MPD2    C212610   1.894   0.293  15.507 -0.6010  0.3414 -0.3350
  859MPD2    C312611   1.825   0.200  15.593  0.1777  0.6990 -0.0411
  859MPD2    C412612   1.690   0.219  15.622  0.0584  0.0878 -0.0555
  859MPD2    C512613   1.617   0.309  15.551  0.0092  0.4773 -0.8079
  859MPD2     H12614   2.002   0.282  15.502 -0.7253 -1.2313  0.1504
  859MPD2    H112615   1.643   0.143  15.685  3.4304 -2.7544 -0.9659
  859MPD2    H212616   1.617   0.465  15.414 -0.3778  0.2854  0.1001
  859MPD2    H312617   1.511   0.321  15.572  0.1848  2.5468 -1.0403
  859MPD2     N12618   1.889   0.085  15.653 -0.5301 -0.3990 -0.5171
  859MPD2    H512619   1.830   0.016  15.697  1.9960 -1.4877  1.1463
  859MPD2    N112620   1.887   0.487  15.361 -0.6649  0.1269  0.0561
  859MPD2    H712621   1.987   0.467  15.368 -0.6953 -0.7071 -1.8726
  860MPD2     C12622   4.544   1.542  11.836 -0.0451 -0.8880 -0.1254
  860MPD2    C112623   4.532   1.454  11.937 -0.5213 -0.3084 -0.2229
  860MPD2    C212624   4.412   1.388  11.960 -0.6618 -0.0227 -0.3736
  860MPD2    C312625   4.314   1.400  11.868 -0.0010 -0.4954  0.5778
  860MPD2    C412626   4.327   1.479  11.759  0.2189 -0.1047  0.2892
  860MPD2    C512627   4.434   1.564  11.749  0.1354 -0.3420 -0.4006
  860MPD2     H12628   4.393   1.332  12.051 -1.1163  2.4012  1.0181
  860MPD2    H112629   4.242   1.490  11.692 -2.0177  0.0513  3.1177
  860MPD2    H212630   4.631   1.607  11.837 -0.7108 -0.0601  2.5719
  860MPD2    H312631   4.442   1.621  11.657  1.1305 -1.1291 -0.8013
  860MPD2     N12632   4.211   1.307  11.887 -0.4621 -0.1058  0.6563
  860MPD2    H512633   4.200   1.259  11.976 -1.8231 -1.6384 -0.3436
  860MPD2    N112634   4.639   1.414  12.017  0.1015  0.7857  0.7581
  860MPD2    H712635   4.614   1.345  12.087 -0.9503  0.3093 -0.0704
  861MPD2     C12636   2.530   3.233  10.895  0.2094  0.1597 -0.2471
  861MPD2    C112637   2.525   3.343  10.985  0.1580 -0.5561  0.0875
  861MPD2    C212638   2.515   3.472  10.935 -0.2845 -0.3824  0.1469
  861MPD2    C312639   2.524   3.487  10.794  0.0297  0.8281  0.6242
  861MPD2    C412640   2.538   3.380  10.708 -0.3088 -0.2332  0.1397
  861MPD2    C512641   2.537   3.251  10.757  0.5328  0.3688 -0.2836
  861MPD2     H12642   2.503   3.553  11.005 -1.1417 -1.2779  1.0256
  861MPD2    H112643   2.549   3.387  10.601  2.0488 -1.4460  0.3134
  861MPD2    H212644   2.544   3.135  10.938  0.3826  0.5399  0.5525
  861MPD2    H312645   2.542   3.170  10.685  0.7475  0.6814 -0.6115
  861MPD2     N12646   2.507   3.615  10.731 -1.0687  0.0286  0.0368
  861MPD2    H512647   2.506   3.625  10.630  1.0097 -0.5568 -0.0474
  861MPD2    N112648   2.527   3.324  11.129 -0.3713 -0.1642 -0.3767
  861MPD2    H712649   2.527   3.411  11.180  0.8397  0.1457 -0.9154
  862MPD2     C12650   2.631   3.919  10.083 -0.2790 -0.2958  0.6099
  862MPD2    C112651   2.615   3.828  10.185 -0.1496  0.2609  0.4078
  862MPD2    C212652   2.630   3.696  10.153 -0.5201  0.5398 -0.5416
  862MPD2    C312653   2.654   3.661  10.025  0.1710  0.4355 -0.3073
  862MPD2    C412654   2.674   3.753   9.925 -0.2535 -0.0836  0.2285
  862MPD2    C512655   2.665   3.883   9.959  0.2099  0.2938  0.5331
  862MPD2     H12656   2.597   3.622  10.226 -0.7398  1.6937  0.5398
  862MPD2    H112657   2.696   3.727   9.823  0.1290 -1.3275  0.6243
  862MPD2    H212658   2.625   4.026  10.101  0.8073 -0.1518  0.1305
  862MPD2    H312659   2.682   3.959   9.884  1.4616 -0.7396 -0.2229
  862MPD2     N12660   2.647   3.524  10.001  0.7290 -0.2860  0.3853
  862MPD2    H512661   2.634   3.465  10.082 -1.6698  0.2452  0.3903
  862MPD2    N112662   2.564   3.849  10.312 -0.0277 -0.5387 -0.6223
  862MPD2    H712663   2.531   3.765  10.357 -0.0547 -1.0115 -1.5159
  863MPD2     C12664   1.680   2.435  16.405 -0.2631  0.5498  0.1916
  863MPD2    C112665   1.570   2.434  16.481  0.5586 -0.4986 -0.4843
  863MPD2    C212666   1.586   2.401  16.617 -0.1027  0.3546  0.1347
  863MPD2    C312667   1.712   2.358  16.665  0.3182  0.0121 -0.3547
  863MPD2    C412668   1.817   2.340  16.571  0.5310 -0.4950 -0.5958
  863MPD2    C512669   1.803   2.390  16.446  0.1864 -0.4286 -0.5568
  863MPD2     H12670   1.501   2.391  16.683  0.2802 -0.2781  0.5423
  863MPD2    H112671   1.916   2.301  16.594  0.9617  0.1620 -1.3446
  863MPD2    H212672   1.688   2.472  16.303  1.2029  0.2899  0.2229
  863MPD2    H312673   1.880   2.384  16.370  0.6259 -1.0796 -0.0510
  863MPD2     N12674   1.739   2.308  16.796 -0.0538 -0.0814  0.1904
  863MPD2    H512675   1.830   2.269  16.818  0.1746 -0.2741 -1.1113
  863MPD2    N112676   1.451   2.454  16.411  0.6457  0.1423  0.7994
  863MPD2    H712677   1.455   2.451  16.310  0.8608 -0.7281  0.8325
  864MPD2     C12678   2.128   3.172  17.383 -0.9156 -0.2607  0.8096
  864MPD2    C112679   2.188   3.131  17.264 -0.2811  0.2642  0.4445
  864MPD2    C212680   2.212   3.217  17.161  0.1062 -0.5118  0.2759
  864MPD2    C312681   2.179   3.347  17.174 -0.3381  0.7273 -0.4745
  864MPD2    C412682   2.119   3.395  17.287 -0.1911 -0.2966 -0.4462
  864MPD2    C512683   2.086   3.305  17.391 -0.0834 -0.2674 -0.2970
  864MPD2     H12684   2.246   3.178  17.066  0.2903 -2.6283  1.2178
  864MPD2    H112685   2.086   3.498  17.293 -0.0832 -0.3341  0.6788
  864MPD2    H212686   2.093   3.104  17.459 -2.4474 -0.2651  0.0987
  864MPD2    H312687   2.037   3.339  17.481  0.3359 -0.6491  0.0697
  864MPD2     N12688   2.210   3.445  17.075  0.4660  0.0280 -0.1327
  864MPD2    H512689   2.166   3.535  17.090 -0.1825 -0.6272  1.9374
  864MPD2    N112690   2.199   2.986  17.254  0.0161  0.4340  0.0248
  864MPD2    H712691   2.150   2.938  17.329  0.1644  1.0077  0.4908
  865MPD2     C12692   2.296   3.831  16.245  0.7057  0.1502 -0.6455
  865MPD2    C112693   2.263   3.724  16.322  0.2507  1.0851  0.2047
  865MPD2    C212694   2.225   3.738  16.453 -0.1466  0.2379 -0.0349
  865MPD2    C312695   2.191   3.864  16.502  0.2697  0.0841 -0.0239
  865MPD2    C412696   2.214   3.970  16.420  0.9307 -0.3744 -0.0475
  865MPD2    C512697   2.263   3.957  16.295 -0.8196  0.5779 -1.2152
  865MPD2     H12698   2.209   3.655  16.520 -2.7150 -0.4999 -1.5196
  865MPD2    H112699   2.188   4.073  16.445  1.9998 -0.6493  2.1378
  865MPD2    H212700   2.331   3.821  16.143  2.0815  1.3978 -0.3140
  865MPD2    H312701   2.280   4.049  16.240 -0.0040 -0.1182 -2.1318
  865MPD2     N12702   2.154   3.897  16.632 -0.4233 -0.3403  0.6011
  865MPD2    H512703   2.149   3.996  16.650  0.0532 -0.7027  2.7044
  865MPD2    N112704   2.295   3.605  16.260  0.3331  0.4438  0.3007
  865MPD2    H712705   2.323   3.598  16.163  1.7674  0.0807  0.7367
  866MPD2     C12706   3.453   3.767  11.550  0.6525  0.0522  0.0787
  866MPD2    C112707   3.436   3.647  11.488 -0.7059  0.2638  0.6551
  866MPD2    C212708   3.331   3.632  11.401 -0.3020  0.2565 -0.6220
  866MPD2    C312709   3.230   3.727  11.390  0.1165  0.6268 -0.7967
  866MPD2    C412710   3.234   3.840  11.475  0.3484 -0.0002  1.1837
  866MPD2    C512711   3.349   3.855  11.547  0.3512  0.4372  0.1478
  866MPD2     H12712   3.329   3.540  11.342 -1.8290  0.3261 -0.6804
  866MPD2    H112713   3.161   3.919  11.483  1.0100  0.9007 -1.5959
  866MPD2    H212714   3.537   3.793  11.614  3.3586 -2.6751 -2.3465
  866MPD2    H312715   3.361   3.954  11.590 -1.3257  1.5096 -1.8251
  866MPD2     N12716   3.110   3.716  11.316  0.0741 -0.1714 -0.0149
  866MPD2    H512717   3.027   3.767  11.343 -0.8554 -2.9793  2.4212
  866MPD2    N112718   3.523   3.534  11.513  0.1399 -0.3269  0.1099
  866MPD2    H712719   3.485   3.445  11.483  1.4993 -0.4476 -1.2906
  867MPD2     C12720   0.694   3.299  16.757  0.1382  0.6763 -0.2243
  867MPD2    C112721   0.815   3.235  16.779  0.1571 -0.8894  0.0428
  867MPD2    C212722   0.893   3.290  16.879  0.3196 -0.4651 -0.0062
  867MPD2    C312723   0.854   3.408  16.939 -0.2948  0.2979 -0.0150
  867MPD2    C412724   0.741   3.472  16.897 -0.3874 -0.4208 -0.1375
  867MPD2    C512725   0.665   3.420  16.801 -0.1394  0.1939 -0.2925
  867MPD2     H12726   0.982   3.240  16.915  1.3712  0.7386 -0.9329
  867MPD2    H112727   0.705   3.568  16.934  1.1041  0.2315 -0.3514
  867MPD2    H212728   0.635   3.257  16.677 -1.9874  1.9953  0.6472
  867MPD2    H312729   0.576   3.475  16.773  0.1940  0.1621 -1.4516
  867MPD2     N12730   0.936   3.482  17.029 -0.1595  0.4232 -0.0061
  867MPD2    H512731   0.888   3.563  17.068  2.0075  1.6294  0.1434
  867MPD2    N112732   0.859   3.114  16.718 -0.9070 -0.4259  0.2146
  867MPD2    H712733   0.940   3.066  16.757  0.1981  0.5932 -0.8457
  868MPD2     C12734   2.542   2.505  13.086 -0.0392 -0.2076 -0.4712
  868MPD2    C112735   2.603   2.394  13.146 -0.5957 -1.0481 -0.6735
  868MPD2    C212736   2.542   2.343  13.258  0.8907  0.7935  0.7782
  868MPD2    C312737   2.420   2.391  13.310 -0.0928 -0.1910 -0.3830
  868MPD2    C412738   2.365   2.508  13.254 -0.3796 -1.0333  0.3075
  868MPD2    C512739   2.435   2.561  13.149  0.2651 -0.3165 -0.4258
  868MPD2     H12740   2.589   2.264  13.316 -1.3299 -0.9044  0.2802
  868MPD2    H112741   2.277   2.558  13.292  0.5916  0.6834  0.2882
  868MPD2    H212742   2.597   2.562  13.012  0.4188 -3.3679 -2.5395
  868MPD2    H312743   2.396   2.653  13.107  0.7999  1.1919  2.3967
  868MPD2     N12744   2.361   2.316  13.414  0.4792 -0.2809 -0.7382
  868MPD2    H512745   2.416   2.237  13.445  2.1299  1.0795 -0.2106
  868MPD2    N112746   2.730   2.333  13.102 -0.2527 -0.2086 -0.0459
  868MPD2    H712747   2.769   2.264  13.165 -0.8459  0.2536  0.8279
  869MPD2     C12748   4.336   1.681   2.310  0.1215  0.1113  0.2449
  869MPD2    C112749   4.400   1.562   2.274 -0.7477 -0.1047  0.2396
  869MPD2    C212750   4.410   1.532   2.139 -0.1781 -0.3040  0.4913
  869MPD2    C312751   4.360   1.607   2.038 -0.0927 -0.0074 -0.1856
  869MPD2    C412752   4.291   1.723   2.075  0.4957 -0.3612 -0.1510
  869MPD2    C512753   4.286   1.765   2.208  0.2984 -1.0099 -0.3395
  869MPD2     H12754   4.474   1.454   2.100 -0.2205  0.1327 -0.4513
  869MPD2    H112755   4.256   1.789   1.996  1.2361 -0.9876 -1.0066
  869MPD2    H212756   4.334   1.706   2.416  1.9903 -0.0546  0.3261
  869MPD2    H312757   4.249   1.865   2.231 -1.9629 -1.3980 -2.2699
  869MPD2     N12758   4.366   1.568   1.900  0.3946 -0.7760 -0.3711
  869MPD2    H512759   4.309   1.625   1.838 -1.2530  0.8498  2.6735
  869MPD2    N112760   4.457   1.483   2.374 -0.7135  0.7949 -0.3080
  869MPD2    H712761   4.461   1.526   2.466 -0.4208  0.4417 -0.1562
  870MPD2     C12762   4.235   3.555   1.920  0.2807  0.1311 -0.4111
  870MPD2    C112763   4.136   3.468   1.881 -0.2040 -0.8410 -0.1859
  870MPD2    C212764   4.023   3.519   1.825  0.1252  0.3765  0.1593
  870MPD2    C312765   4.011   3.659   1.805 -0.1250  0.2824 -0.7644
  870MPD2    C412766   4.108   3.743   1.846  0.2022  0.3964  0.6254
  870MPD2    C512767   4.219   3.690   1.903 -1.0049  0.1327  0.2026
  870MPD2     H12768   3.948   3.455   1.781 -0.6323  0.7078  0.9739
  870MPD2    H112769   4.095   3.851   1.840  0.2558  0.4080  0.7185
  870MPD2    H212770   4.329   3.524   1.965  0.0950  0.0509 -0.0804
  870MPD2    H312771   4.296   3.762   1.926 -0.5409  0.6044 -2.7505
  870MPD2     N12772   3.894   3.709   1.737  0.7343  0.5771 -0.3377
  870MPD2    H512773   3.834   3.642   1.690  1.8249  0.3175 -1.3394
  870MPD2    N112774   4.164   3.332   1.902 -0.5239  0.3710  0.2105
  870MPD2    H712775   4.255   3.309   1.939 -0.8293 -1.8167 -0.3828
  871MPD2     C12776   4.715   3.303  16.580  0.1775 -0.5065 -0.5093
  871MPD2    C112777   4.669   3.255  16.700  0.4110  0.1978 -0.2806
  871MPD2    C212778   4.647   3.118  16.708 -0.2705  0.1510 -0.1834
  871MPD2    C312779   4.687   3.035  16.606 -0.4484  0.2337 -0.3107
  871MPD2    C412780   0.017   3.083  16.492 -0.2975  0.1868 -0.0505
  871MPD2    C512781   0.023   3.219  16.471  0.1815  0.5085 -0.1310
  871MPD2     H12782   4.611   3.073  16.800  0.6734 -0.9567 -0.3485
  871MPD2    H112783   0.055   3.015  16.417  0.0185 -2.0691  2.1780
  871MPD2    H212784   0.020   3.408  16.578 -1.4735 -0.0354  1.8304
  871MPD2    H312785   0.061   3.259  16.378  0.2393 -2.5870 -1.4408
  871MPD2     N12786   4.659   2.896  16.629  0.3954  0.6012  0.4732
  871MPD2    H512787   4.587   2.876  16.698 -1.5072 -1.6233 -2.1831
  871MPD2    N112788   4.635   3.338  16.814 -0.0806 -0.1103 -0.0954
  871MPD2    H712789   4.645   3.438  16.797  0.8960 -0.1940 -0.0200
  872MPD2     C12790   0.355   1.877  13.369  0.3936  1.1589  0.3516
  872MPD2    C112791   0.444   1.787  13.433 -0.1063 -0.2039  0.1385
  872MPD2    C212792   0.389   1.671  13.485 -0.1017  0.4707 -0.1188
  872MPD2    C312793   0.249   1.650  13.483 -0.4805  0.2952 -0.1195
  872MPD2    C412794   0.168   1.743  13.434  0.4093  0.6060  0.2451
  872MPD2    C512795   0.219   1.852  13.372  0.6828  0.5192  0.1751
  872MPD2     H12796   0.452   1.607  13.545 -0.2349 -1.1557 -1.7238
  872MPD2    H112797   0.063   1.721  13.423  0.6573 -1.3303  1.8828
  872MPD2    H212798   0.384   1.971  13.323  1.5195  1.6341  2.0295
  872MPD2    H312799   0.153   1.914  13.312  1.7852 -0.5513 -2.1538
  872MPD2     N12800   0.189   1.540  13.544 -0.3617 -0.4464  0.0237
  872MPD2    H512801   0.088   1.536  13.548 -0.3588 -1.4446 -1.0831
  872MPD2    N112802   0.587   1.809  13.437  0.3502  0.7743  0.2198
  872MPD2    H712803   0.641   1.729  13.467 -3.2740 -2.0549 -0.7439
  873MPD2     C12804   2.699   1.032   1.306 -0.3699  0.4246 -1.2876
  873MPD2    C112805   2.565   1.058   1.308 -0.3761 -0.2659 -0.3643
  873MPD2    C212806   2.471   0.954   1.298 -0.6315 -0.5853  0.1368
  873MPD2    C312807   2.512   0.825   1.301 -0.5384  0.0077  0.2381
  873MPD2    C412808   2.650   0.803   1.310  0.1355  0.1932 -0.2501
  873MPD2    C512809   2.743   0.907   1.307  0.8718  0.2839  0.3280
  873MPD2     H12810   2.365   0.979   1.300 -0.5530 -0.2160 -0.1577
  873MPD2    H112811   2.688   0.701   1.307 -1.1703 -0.2409 -2.0022
  873MPD2    H212812   2.778   1.105   1.316 -1.0451  0.7294  1.6204
  873MPD2    H312813   2.850   0.892   1.318  0.7544 -1.0845 -0.3354
  873MPD2     N12814   2.427   0.712   1.293 -0.2544 -0.2177 -0.0232
  873MPD2    H512815   2.476   0.623   1.284 -0.1268 -0.2412  0.8409
  873MPD2    N112816   2.531   1.191   1.303 -0.3252 -0.1342 -0.1814
  873MPD2    H712817   2.605   1.259   1.314 -1.4824  1.0401  0.3494
  874MPD2     C12818   2.140   1.130  15.947  0.5107  0.1131  0.6219
  874MPD2    C112819   2.183   1.036  16.034  0.3347  0.0939  0.6786
  874MPD2    C212820   2.298   1.061  16.112  0.7114 -1.0106  0.6427
  874MPD2    C312821   2.363   1.185  16.103  0.9150 -0.1712  0.0056
  874MPD2    C412822   2.324   1.274  16.003 -0.1543  0.3864  0.3626
  874MPD2    C512823   2.214   1.241  15.927  0.0929  0.3647 -0.4380
  874MPD2     H12824   2.335   0.986  16.181  2.1937 -0.9721 -0.1325
  874MPD2    H112825   2.366   1.373  15.995  0.1118  0.0697 -2.0774
  874MPD2    H212826   2.067   1.109  15.870  1.1166 -1.7723  0.5458
  874MPD2    H312827   2.179   1.306  15.848 -0.0992  0.9536  0.1310
  874MPD2     N12828   2.483   1.197  16.168  0.2040 -0.1438  0.0876
  874MPD2    H512829   2.509   1.118  16.227 -1.3132 -0.6921  0.0139
  874MPD2    N112830   2.118   0.914  16.043  0.4155 -0.3202  0.0446
  874MPD2    H712831   2.027   0.900  16.001 -0.3840  2.7867  0.7120
  875MPD2     C12832   2.851   4.032  14.633  0.2267  0.7540 -0.1045
  875MPD2    C112833   2.895   4.160  14.582 -0.0528 -0.1322 -0.4110
  875MPD2    C212834   2.956   4.244  14.664 -0.0289  0.4448 -0.0390
  875MPD2    C312835   2.978   4.204  14.802  0.3394  0.8675 -0.5002
  875MPD2    C412836   2.929   4.082  14.851  0.3370  0.2859  0.0285
  875MPD2    C512837   2.876   3.997  14.764  0.2128 -0.1780 -0.3638
  875MPD2     H12838   2.983   4.344  14.633  0.5020  0.0599 -0.8090
  875MPD2    H112839   2.950   4.042  14.949  1.8584 -0.2702 -0.5102
  875MPD2    H212840   2.800   3.961  14.569  1.7624 -1.2424  0.8978
  875MPD2    H312841   2.841   3.899  14.792 -0.1135 -0.2479 -0.9997
  875MPD2     N12842   3.048   4.281  14.897  0.4081 -0.5874 -0.7401
  875MPD2    H512843   3.066   4.251  14.992  1.8152 -0.7277 -1.0527
  875MPD2    N112844   2.882   4.176  14.437 -0.2138 -0.0013 -0.2666
  875MPD2    H712845   2.834   4.105  14.383  0.4819 -0.1604 -0.6829
  876MPD2     C12846   1.873   0.678  15.755  0.0417 -0.1162 -0.5708
  876MPD2    C112847   2.008   0.683  15.762 -0.5774 -0.2165 -0.1311
  876MPD2    C212848   2.077   0.565  15.806 -0.2183  0.6093 -0.0014
  876MPD2    C312849   2.007   0.455  15.855  0.1270 -0.1535  0.3702
  876MPD2    C412850   1.869   0.453  15.842 -0.0771  0.1594 -0.1805
  876MPD2    C512851   1.802   0.565  15.797 -0.3350 -0.3239  0.4048
  876MPD2     H12852   2.183   0.555  15.791 -0.1708 -0.7688  1.2341
  876MPD2    H112853   1.818   0.358  15.856  0.4312 -0.1040 -0.0936
  876MPD2    H212854   1.824   0.771  15.730 -2.0827 -1.2674 -0.7355
  876MPD2    H312855   1.695   0.556  15.784 -0.1676  0.2849 -1.3152
  876MPD2     N12856   2.082   0.349  15.916 -0.4501 -0.3745 -0.1313
  876MPD2    H512857   2.180   0.335  15.897 -0.3869 -0.4427  0.2460
  876MPD2    N112858   2.076   0.792  15.705 -0.4047  0.1486 -0.3332
  876MPD2    H712859   2.019   0.875  15.692  0.6305  0.8385 -0.5382
  877MPD2     C12860   1.960   1.166  15.127 -0.0852 -0.5851 -0.5939
  877MPD2    C112861   2.097   1.178  15.143 -0.0763 -0.0636 -0.2238
  877MPD2    C212862   2.179   1.214  15.037  0.0786 -0.0861 -0.2497
  877MPD2    C312863   2.122   1.238  14.914  0.0727  0.1944  1.0817
  877MPD2    C412864   1.988   1.221  14.889 -0.0333  0.7509  0.0295
  877MPD2    C512865   1.911   1.180  14.994 -0.1852  0.1936 -0.5125
  877MPD2     H12866   2.285   1.232  15.050 -0.0240  0.8526 -0.7301
  877MPD2    H112867   1.941   1.255  14.798  1.4674  1.9862 -0.2846
  877MPD2    H212868   1.894   1.131  15.205  2.5816 -2.0005  1.0186
  877MPD2    H312869   1.808   1.175  14.961 -0.5123 -1.1167  0.6749
  877MPD2     N12870   2.199   1.260  14.795  0.3860  0.3323 -0.1176
  877MPD2    H512871   2.146   1.265  14.708 -0.8056  0.4600  0.6133
  877MPD2    N112872   2.166   1.161  15.268 -0.6018 -1.3789 -0.4110
  877MPD2    H712873   2.267   1.173  15.273 -0.4983 -0.8314 -3.5167
  878MPD2     C12874   2.004   0.606  12.851  0.4631 -0.4182  0.1241
  878MPD2    C112875   1.997   0.729  12.913 -0.7049 -0.6272  0.0819
  878MPD2    C212876   2.033   0.750  13.042  0.4233 -0.1061  0.2839
  878MPD2    C312877   2.073   0.643  13.120  1.4333  0.3027  0.0539
  878MPD2    C412878   2.077   0.522  13.054 -0.2804  0.5918 -0.4591
  878MPD2    C512879   2.057   0.504  12.921  0.3132 -0.1233  0.4152
  878MPD2     H12880   2.026   0.843  13.098 -2.6580 -0.5839  0.6830
  878MPD2    H112881   2.118   0.437  13.108 -1.7562 -0.9546 -1.7625
  878MPD2    H212882   1.981   0.591  12.746 -0.9641  3.0236 -0.0591
  878MPD2    H312883   2.089   0.416  12.868 -0.9873 -0.1814 -0.2770
  878MPD2     N12884   2.101   0.659  13.256  0.4821 -0.1129 -0.0454
  878MPD2    H512885   2.092   0.752  13.297  0.5167  0.2822 -0.9343
  878MPD2    N112886   1.954   0.836  12.828  0.4477  0.2181 -0.0814
  878MPD2    H712887   1.921   0.812  12.735  0.4699  2.0232 -0.5680
  879MPD2     C12888   2.649   1.841  16.536 -0.2066  0.3251  0.5490
  879MPD2    C112889   2.566   1.780  16.627  0.5242  0.1389 -0.2484
  879MPD2    C212890   2.495   1.667  16.594 -0.1758  0.2322 -0.2537
  879MPD2    C312891   2.518   1.607  16.466  0.4150  0.3277 -0.3349
  879MPD2    C412892   2.590   1.671  16.369  0.8085  0.2427 -0.2439
  879MPD2    C512893   2.661   1.785  16.409 -0.0662  0.4848  0.5630
  879MPD2     H12894   2.431   1.621  16.668 -0.5122 -0.5014 -0.9972
  879MPD2    H112895   2.600   1.632  16.269 -1.5674  0.6777 -0.6588
  879MPD2    H212896   2.696   1.934  16.566  2.1169 -0.4957 -0.5099
  879MPD2    H312897   2.710   1.840  16.330  0.6616 -0.4449  0.3757
  879MPD2     N12898   2.443   1.493  16.419  0.6996  0.0821  0.1154
  879MPD2    H512899   2.458   1.476  16.320 -0.2728 -5.1783  0.8767
  879MPD2    N112900   2.550   1.844  16.750 -0.6327  0.6395 -0.5689
  879MPD2    H712901   2.615   1.921  16.756 -0.0854  0.1396 -0.0125
  880MPD2     C12902   4.116   3.290   0.374  0.4882 -0.9495  0.5954
  880MPD2    C112903   4.029   3.300   0.484  0.0923 -0.0456  0.3635
  880MPD2    C212904   4.026   3.186   0.568 -0.5105  0.1577  0.3262
  880MPD2    C312905   4.089   3.066   0.533 -0.5475 -0.0251 -0.9642
  880MPD2    C412906   4.161   3.056   0.419  0.0686 -0.0077 -0.7563
  880MPD2    C512907   4.180   3.175   0.346 -0.0805  0.3523 -0.3419
  880MPD2     H12908   3.962   3.184   0.655 -0.4721 -1.0813  0.3238
  880MPD2    H112909   4.218   2.967   0.396 -0.2243 -0.3958  0.0314
  880MPD2    H212910   4.141   3.372   0.308  1.3577 -1.8286 -0.1535
  880MPD2    H312911   4.243   3.170   0.258 -0.3346  0.8309 -0.5523
  880MPD2     N12912   4.053   2.961   0.616 -0.8649  0.0262  0.1154
  880MPD2    H512913   4.009   2.990   0.703  0.8018  2.0259  0.2750
  880MPD2    N112914   3.941   3.411   0.502  0.0771  0.8485 -0.0258
  880MPD2    H712915   3.960   3.492   0.444 -0.9903 -1.0134 -2.9508
  881MPD2     C12916   3.767   4.177  17.671 -0.1345 -0.5194 -0.4119
  881MPD2    C112917   3.812   4.049  17.662 -0.0708 -0.5120  0.9204
  881MPD2    C212918   3.806   3.959   0.084  0.5326 -0.2956 -0.0415
  881MPD2    C312919   3.756   4.017   0.202 -0.2853 -0.0944  0.6964
  881MPD2    C412920   3.729   4.146   0.213 -0.4139  0.4907 -1.0171
  881MPD2    C512921   3.747   4.229   0.105  0.1393 -0.0862  0.0550
  881MPD2     H12922   3.829   3.853   0.077 -0.3462 -0.5451  0.9808
  881MPD2    H112923   3.683   4.186   0.302 -0.4675 -3.4073  0.6910
  881MPD2    H212924   3.761   4.235  17.580  0.5872  1.5749  0.8794
  881MPD2    H312925   3.728   4.335   0.121 -2.0758 -0.6614  1.3441
  881MPD2     N12926   3.723   3.933   0.321 -0.3845  0.6079 -0.0494
  881MPD2    H512927   3.713   3.981   0.410 -1.5280  0.8008 -0.2768
  881MPD2    N112928   3.829   3.999  17.531  0.3285  0.0925  0.1571
  881MPD2    H712929   3.806   4.060  17.453 -0.3711 -0.4680 -0.0744
  882MPD2     C12930   2.258   1.223  13.978  0.0415  0.7154 -0.3091
  882MPD2    C112931   2.194   1.256  14.097 -0.5311  0.5010 -0.2766
  882MPD2    C212932   2.062   1.229  14.105  0.8940  0.0102  0.1746
  882MPD2    C312933   1.993   1.182  13.998  0.0871  0.6466  0.3260
  882MPD2    C412934   2.051   1.141  13.881  0.3373 -0.1666  0.8059
  882MPD2    C512935   2.188   1.163  13.876  0.8348  0.1224 -0.1156
  882MPD2     H12936   2.007   1.249  14.196  1.0522  1.2296 -0.0033
  882MPD2    H112937   2.003   1.089  13.799  2.1165  0.8461 -0.8933
  882MPD2    H212938   2.364   1.229  13.958  0.4875  2.1050  2.4873
  882MPD2    H312939   2.238   1.140  13.783 -0.9860  0.1559 -1.1017
  882MPD2     N12940   1.855   1.148  14.006 -0.3785 -0.0853 -0.1599
  882MPD2    H512941   1.820   1.085  13.934 -2.0502 -1.4638  1.8658
  882MPD2    N112942   2.275   1.309  14.202 -0.2077 -0.1175 -0.2504
  882MPD2    H712943   2.365   1.344  14.171 -0.7313 -0.6617 -2.4381
  883MPD2     C12944   3.879   1.615  15.809  0.0213  0.1931  0.3662
  883MPD2    C112945   3.951   1.502  15.791  0.1136  0.3047  1.0691
  883MPD2    C212946   4.050   1.467  15.879  0.1278  0.7714 -0.0147
  883MPD2    C312947   4.077   1.551  15.984 -0.4436  0.7745  0.8222
  883MPD2    C412948   4.007   1.666  16.008 -0.2773  0.1861 -0.1354
  883MPD2    C512949   3.916   1.701  15.909 -0.1426 -0.1577  0.3853
  883MPD2     H12950   4.121   1.388  15.860 -1.9632 -1.0647 -0.1178
  883MPD2    H112951   4.029   1.743  16.082  1.6199  0.2051 -0.7250
  883MPD2    H212952   3.807   1.659  15.741 -1.5636 -1.2373  1.1269
  883MPD2    H312953   3.850   1.786  15.919  1.6452  0.8493  3.5179
  883MPD2     N12954   4.189   1.504  16.063 -0.3040  0.2900  0.5391
  883MPD2    H512955   4.237   1.425  16.020  1.2788  0.4702  1.9640
  883MPD2    N112956   3.922   1.402  15.693 -0.0903  0.0089  0.5446
  883MPD2    H712957   3.986   1.323  15.693  1.6055  1.3782  0.3684
  884MPD2     C12958   1.037   1.709  15.124 -0.7844 -0.1221 -0.2193
  884MPD2    C112959   0.951   1.764  15.026 -0.3265  0.1188 -0.3920
  884MPD2    C212960   0.828   1.788  15.071  0.4637 -0.0419 -0.2123
  884MPD2    C312961   0.777   1.748  15.193 -0.6688  0.1447  0.9825
  884MPD2    C412962   0.858   1.678  15.275 -0.3657  0.6672 -0.2205
  884MPD2    C512963   0.990   1.658  15.243 -0.5226 -0.2190 -0.8466
  884MPD2     H12964   0.765   1.843  15.002  0.0710  0.5111  0.5884
  884MPD2    H112965   0.817   1.656  15.373  1.1991 -0.9208  0.0908
  884MPD2    H212966   1.145   1.697  15.119 -0.8898 -1.1270  0.0421
  884MPD2    H312967   1.057   1.615  15.317 -2.7677 -0.4838  1.0115
  884MPD2     N12968   0.646   1.783  15.228 -0.3485 -0.0571  0.4258
  884MPD2    H512969   0.597   1.849  15.168  1.0952  0.9721  0.3685
  884MPD2    N112970   1.003   1.804  14.898  0.1373  0.4746 -0.1512
  884MPD2    H712971   0.951   1.868  14.839 -0.4450  0.1641  0.0224
  885MPD2     C12972   3.664   2.039   0.158 -0.7983 -0.3815  0.0073
  885MPD2    C112973   3.761   1.955   0.112 -0.0269  0.6400 -0.3303
  885MPD2    C212974   3.764   1.929  17.666 -0.3581 -0.6392 -0.1912
  885MPD2    C312975   3.675   1.991  17.579  0.0189  0.5858 -0.5789
  885MPD2    C412976   3.594   2.094  17.628  0.3087 -0.7952  0.5523
  885MPD2    C512977   3.592   2.115   0.067 -0.0766 -0.3117 -0.0129
  885MPD2     H12978   3.838   1.858  17.631  1.5731  1.3827 -0.1760
  885MPD2    H112979   3.523   2.140  17.560  1.6662  0.9298  0.3050
  885MPD2    H212980   3.646   2.048   0.265  0.2116 -1.4395  0.2659
  885MPD2    H312981   3.509   2.171   0.108  1.0599  0.8104  0.7312
  885MPD2     N12982   3.684   1.960  17.436 -0.1222  0.1519  0.0549
  885MPD2    H512983   3.761   1.896  17.418 -0.0495 -0.3108  1.9299
  885MPD2    N112984   3.843   1.888   0.203  0.1228  0.4874 -0.2525
  885MPD2    H712985   3.823   1.907   0.300 -0.5054  3.2342 -0.9105
  886MPD2     C12986   0.773   0.620  15.551 -0.1514 -0.6291  0.5238
  886MPD2    C112987   0.874   0.603  15.459 -0.3538 -0.1953  0.0413
  886MPD2    C212988   0.915   0.711  15.384  0.1233  0.6065  0.1010
  886MPD2    C312989   0.855   0.834  15.380  0.4452 -0.3293  0.2057
  886MPD2    C412990   0.741   0.840  15.461 -0.4865  0.1187 -0.1114
  886MPD2    C512991   0.705   0.741  15.549 -0.4417 -0.1446 -0.6059
  886MPD2     H12992   0.995   0.694  15.313  0.5908  1.3485  0.4526
  886MPD2    H112993   0.679   0.930  15.464  1.8467  1.7436 -0.8310
  886MPD2    H212994   0.734   0.549  15.623 -1.9239  0.6321  0.8249
  886MPD2    H312995   0.623   0.766  15.614  0.6273  0.9107  0.3368
  886MPD2     N12996   0.887   0.936  15.288 -0.2037  0.0842 -0.0654
  886MPD2    H512997   0.816   1.004  15.263 -0.4949 -0.4214 -0.6071
  886MPD2    N112998   0.941   0.479  15.449 -0.0193 -0.2581 -0.3826
  886MPD2    H712999   1.022   0.472  15.389  0.0566  0.3457 -0.3429
  887MPD2     C13000   1.352   0.444  14.977  0.4913  0.2466  0.2441
  887MPD2    C113001   1.268   0.476  15.079 -0.5399  0.1369 -0.4856
  887MPD2    C213002   1.273   0.601  15.138  0.1371 -0.7974  0.1316
  887MPD2    C313003   1.376   0.694  15.108 -1.2129  0.0086 -0.0397
  887MPD2    C413004   1.457   0.662  15.001 -0.9259 -0.3774 -0.7874
  887MPD2    C513005   1.443   0.540  14.934  0.2287 -0.2724 -0.4655
  887MPD2     H13006   1.199   0.611  15.217  0.3240 -0.1476  0.2291
  887MPD2    H113007   1.534   0.728  14.962  0.7598  0.8113  4.4785
  887MPD2    H213008   1.338   0.349  14.927  0.8747 -0.1577  0.8991
  887MPD2    H313009   1.498   0.523  14.842  0.9636 -1.0564  0.1309
  887MPD2     N13010   1.389   0.808  15.189  0.3246  0.6266  0.0357
  887MPD2    H513011   1.315   0.821  15.257  1.5913  3.4133  0.9020
  887MPD2    N113012   1.175   0.385  15.137  1.3310  0.1762  0.2049
  887MPD2    H713013   1.126   0.412  15.222 -0.6703 -0.7698 -0.6461
  888MPD2     C13014   3.168   0.783  14.694  0.0539 -0.2565  0.3634
  888MPD2    C113015   3.108   0.820  14.813 -0.2701 -0.2062  0.3135
  888MPD2    C213016   3.097   0.952  14.857 -0.1585  0.3498 -0.9387
  888MPD2    C313017   3.151   1.046  14.775  0.3249 -0.1298  0.4235
  888MPD2    C413018   3.207   1.012  14.651 -0.4003  0.3110 -0.1665
  888MPD2    C513019   3.215   0.884  14.615  0.4519 -0.0752 -0.4030
  888MPD2     H13020   3.052   0.976  14.952 -1.4315 -0.1360 -1.4135
  888MPD2    H113021   3.252   1.071  14.572  1.0997 -0.1791  0.3371
  888MPD2    H213022   3.171   0.683  14.651  1.2596 -0.7997  1.7364
  888MPD2    H313023   3.265   0.864  14.521 -1.7548  1.2587 -1.8505
  888MPD2     N13024   3.143   1.178  14.825  0.6066 -0.1720  0.4419
  888MPD2    H513025   3.095   1.187  14.914 -0.2919 -2.7549  0.2119
  888MPD2    N113026   3.058   0.720  14.906  0.3069  0.2475  0.1655
  888MPD2    H713027   2.991   0.755  14.974 -0.5143  0.8125 -0.9342
  889MPD2     C13028   2.913   0.428  12.364  0.4676 -0.8687  0.8318
  889MPD2    C113029   2.848   0.343  12.456  0.9274 -1.2688 -0.1690
  889MPD2    C213030   2.730   0.392  12.504  0.0279  0.0076 -0.0086
  889MPD2    C313031   2.690   0.520  12.486 -0.4139 -0.2811  0.2658
  889MPD2    C413032   2.753   0.603  12.406 -0.4073 -0.7845 -0.4078
  889MPD2    C513033   2.856   0.550  12.333 -0.3712 -0.4557  0.7439
  889MPD2     H13034   2.674   0.321  12.564 -0.0482 -0.6104 -0.8061
  889MPD2    H113035   2.712   0.701  12.386  1.9467  0.6101  1.6039
  889MPD2    H213036   2.970   0.377  12.287  0.3094 -0.0119  0.1444
  889MPD2    H313037   2.903   0.617  12.261 -0.5783 -1.7333 -0.5708
  889MPD2     N13038   2.581   0.556  12.561  0.1178 -0.4284  0.4742
  889MPD2    H513039   2.555   0.493  12.636  0.8358 -0.2594  0.8612
  889MPD2    N113040   2.865   0.208  12.468 -0.5849  0.1736 -0.0298
  889MPD2    H713041   2.787   0.159  12.511 -0.6126 -0.1082 -0.3914
  890MPD2     C13042   2.098   2.218  14.288 -0.4792  0.6069 -0.0153
  890MPD2    C113043   2.201   2.259  14.368  0.1087  0.1944 -0.3088
  890MPD2    C213044   2.240   2.171  14.466  0.4726 -0.2850 -0.1678
  890MPD2    C313045   2.178   2.051  14.487 -0.6676  0.3387  0.1984
  890MPD2    C413046   2.066   2.014  14.410  0.2576  0.2871 -0.6222
  890MPD2    C513047   2.032   2.094  14.302  0.4903  0.2600 -0.1248
  890MPD2     H13048   2.331   2.192  14.521 -0.2362  1.7385  0.2457
  890MPD2    H113049   2.024   1.916  14.426  0.1708  0.3626 -0.3833
  890MPD2    H213050   2.077   2.281  14.202 -0.4717 -0.3074 -0.7001
  890MPD2    H313051   1.947   2.068  14.241  1.7468 -2.3919 -0.7472
  890MPD2     N13052   2.224   1.963  14.587  0.2790 -0.0387 -0.4349
  890MPD2    H513053   2.307   2.000  14.632 -0.8366  1.4453  0.3881
  890MPD2    N113054   2.264   2.382  14.347  1.0809  0.7265  0.2102
  890MPD2    H713055   2.245   2.436  14.263 -0.5041  0.2762  0.2664
  891MPD2     C13056   4.713   0.544  16.463  0.2632 -0.0801 -0.9147
  891MPD2    C113057   4.659   0.468  16.560  0.2807  0.5344  0.1333
  891MPD2    C213058   0.025   0.440  16.664 -0.2149 -0.2505 -0.4857
  891MPD2    C313059   0.155   0.473  16.673  0.3740  0.4499  0.0233
  891MPD2    C413060   0.204   0.561  16.579  0.0999 -0.1015 -0.0024
  891MPD2    C513061   0.117   0.588  16.476 -0.2602  0.2395 -0.0093
  891MPD2     H13062   4.712   0.378  16.746 -1.5036 -1.0604 -1.6540
  891MPD2    H113063   0.305   0.601  16.580 -0.1633  0.5927 -0.5993
  891MPD2    H213064   4.655   0.580  16.379  0.2903  0.7733 -0.5620
  891MPD2    H313065   0.144   0.661  16.401 -0.6835  0.8117  0.3983
  891MPD2     N13066   0.230   0.427  16.780  0.3105  0.0416  0.5259
  891MPD2    H513067   0.181   0.378  16.855 -1.6598 -1.1524 -1.5493
  891MPD2    N113068   4.530   0.424  16.556 -0.0816 -0.5678  0.5599
  891MPD2    H713069   4.476   0.436  16.471  1.2712 -1.3636 -0.4109
  892MPD2     C13070   1.282   1.437  14.765 -0.4962 -0.4573  0.8496
  892MPD2    C113071   1.187   1.398  14.669  0.1101  0.1455  0.4575
  892MPD2    C213072   1.230   1.363  14.546 -0.8120  0.0064  0.2958
  892MPD2    C313073   1.363   1.353  14.509  0.9475 -0.3774  0.1738
  892MPD2    C413074   1.461   1.392  14.601  0.3284  0.0502 -0.8596
  892MPD2    C513075   1.419   1.431  14.727 -0.3049  1.0022 -0.0785
  892MPD2     H13076   1.155   1.334  14.473  0.6834 -1.7692 -0.5486
  892MPD2    H113077   1.565   1.400  14.571  0.7121  0.4405  0.5967
  892MPD2    H213078   1.259   1.476  14.864 -0.6704  0.2811  0.5173
  892MPD2    H313079   1.494   1.457  14.801 -1.1458  0.6195  0.9068
  892MPD2     N13080   1.413   1.295  14.388  0.4008  0.0923  0.4413
  892MPD2    H513081   1.514   1.283  14.384  0.4150 -0.1547  1.8179
  892MPD2    N113082   1.053   1.410  14.697  0.0581 -1.2925 -0.9424
  892MPD2    H713083   0.987   1.401  14.619  0.0084  0.0034 -1.0472
  893MPD2     C13084   4.272   0.479   1.225  0.0273 -0.0652  0.0515
  893MPD2    C113085   4.274   0.555   1.346 -0.7258  0.2687 -0.0324
  893MPD2    C213086   4.224   0.683   1.340  0.5788 -0.6632  0.0732
  893MPD2    C313087   4.177   0.740   1.225 -0.6097 -0.2279 -0.7578
  893MPD2    C413088   4.181   0.661   1.106  0.6787  0.3088 -0.1204
  893MPD2    C513089   4.224   0.531   1.106  0.0044  0.2968 -0.1392
  893MPD2     H13090   4.219   0.745   1.429 -2.8487 -2.5407  1.1741
  893MPD2    H113091   4.160   0.706   1.009 -1.8359  0.6870  0.6031
  893MPD2    H213092   4.296   0.373   1.232 -0.7982 -0.2292  0.4638
  893MPD2    H313093   4.232   0.486   1.007  1.5178 -0.7319  0.4444
  893MPD2     N13094   4.128   0.870   1.204 -0.3466 -0.4834  0.0969
  893MPD2    H513095   4.095   0.889   1.110 -0.3449 -0.1499  0.1637
  893MPD2    N113096   4.325   0.501   1.473 -0.4215 -0.2827  0.2910
  893MPD2    H713097   4.354   0.404   1.469  0.7574  0.0865 -0.1086
  894MPD2     C13098   0.770   2.132   1.318 -0.1823 -0.8296 -1.5826
  894MPD2    C113099   0.865   2.104   1.412 -0.5434  0.2318  0.3230
  894MPD2    C213100   0.973   2.192   1.422  0.1042 -0.4097 -0.2641
  894MPD2    C313101   0.988   2.308   1.343 -0.0692 -0.1364  0.3821
  894MPD2    C413102   0.881   2.335   1.260 -0.2897 -0.4250 -0.5536
  894MPD2    C513103   0.771   2.248   1.247 -0.1059 -0.3455  0.1995
  894MPD2     H13104   1.049   2.177   1.497  0.8444 -0.9995 -1.1314
  894MPD2    H113105   0.865   2.411   1.184  0.0616  0.0333 -0.1662
  894MPD2    H213106   0.679   2.073   1.316 -0.7141 -0.0392 -0.4704
  894MPD2    H313107   0.690   2.276   1.182 -0.3407 -0.2212  0.5445
  894MPD2     N13108   1.104   2.387   1.354  0.0446  0.5643  0.0065
  894MPD2    H513109   1.183   2.360   1.412 -1.3029 -2.6273  0.3480
  894MPD2    N113110   0.847   1.999   1.512 -0.0377 -0.6124  0.5002
  894MPD2    H713111   0.753   1.961   1.515  0.0322 -0.7693  0.6754
  895MPD2     C13112   0.177   0.902  13.965 -0.2442  0.4902  0.0598
  895MPD2    C113113   0.175   0.933  13.832 -0.2847  0.0126 -0.7474
  895MPD2    C213114   0.285   0.899  13.760  0.0702  1.4043  0.3671
  895MPD2    C313115   0.405   0.848  13.814 -0.7863  0.7054 -0.2356
  895MPD2    C413116   0.403   0.816  13.953 -0.3945 -0.1302  0.0039
  895MPD2    C513117   0.282   0.845  14.024  0.7795 -0.4891 -0.2686
  895MPD2     H13118   0.287   0.927  13.656  0.1625 -1.5753 -0.4070
  895MPD2    H113119   0.490   0.776  14.005  0.5975  2.8301  0.6284
  895MPD2    H213120   0.096   0.928  14.033 -2.0847 -0.4966 -1.7700
  895MPD2    H313121   0.280   0.826  14.131 -0.3474  1.2368  0.0036
  895MPD2     N13122   0.516   0.837  13.732  0.1052 -0.2596 -0.5660
  895MPD2    H513123   0.504   0.863  13.634  0.4934  0.7665 -0.3405
  895MPD2    N113124   0.058   0.991  13.775 -0.1307  0.1877 -0.1207
  895MPD2    H713125   4.702   0.989  13.839  0.3116 -0.0618  0.4119
  896MPD2     C13126   2.742   2.552   2.297 -0.0650  0.4542 -0.9458
  896MPD2    C113127   2.722   2.604   2.171  0.0427 -0.3919 -0.2394
  896MPD2    C213128   2.610   2.576   2.099 -0.1885 -0.1252  0.4858
  896MPD2    C313129   2.502   2.515   2.154 -0.4098  0.6972  0.3022
  896MPD2    C413130   2.511   2.474   2.283 -0.2048  0.4060  0.9598
  896MPD2    C513131   2.630   2.486   2.347  0.1464 -0.1767 -0.4002
  896MPD2     H13132   2.608   2.593   1.992  0.2164 -2.0340  0.1853
  896MPD2    H113133   2.434   2.414   2.332 -0.2742 -0.0021  0.3541
  896MPD2    H213134   2.839   2.543   2.345 -0.8986  1.2916  0.9296
  896MPD2    H313135   2.645   2.449   2.448  2.1527  2.8374  0.4281
  896MPD2     N13136   2.396   2.471   2.075  0.0879  0.8023  0.4835
  896MPD2    H513137   2.383   2.509   1.981  1.6702 -0.4438 -0.2495
  896MPD2    N113138   2.836   2.662   2.113  0.1038  0.2763 -0.0263
  896MPD2    H713139   2.923   2.663   2.166 -0.9202 -2.1629  1.6784
  897MPD2     C13140   3.955   0.696  10.921  0.0253  0.8231  0.1977
  897MPD2    C113141   3.837   0.683  10.858  0.3259 -0.1770  0.1058
  897MPD2    C213142   3.745   0.585  10.898  0.3211 -0.0667 -0.7578
  897MPD2    C313143   3.791   0.486  10.984 -0.2532  0.4818  0.0389
  897MPD2    C413144   3.916   0.494  11.039  0.2746 -0.6396  0.6207
  897MPD2    C513145   4.001   0.598  11.010  0.2435 -0.6206 -0.1965
  897MPD2     H13146   3.655   0.571  10.839 -0.0700 -1.3351  0.1279
  897MPD2    H113147   3.951   0.424  11.115  1.3797 -1.2455 -0.4428
  897MPD2    H213148   4.025   0.772  10.888  0.7567  0.9300  2.0195
  897MPD2    H313149   4.095   0.607  11.062 -1.5236  1.0397  2.6956
  897MPD2     N13150   3.709   0.374  11.014  0.0480  0.0368 -0.4078
  897MPD2    H513151   3.622   0.367  10.963 -0.5729 -0.8511  0.7685
  897MPD2    N113152   3.806   0.776  10.759 -0.5534  0.1982  0.1559
  897MPD2    H713153   3.867   0.856  10.767 -0.0385 -0.4591  2.9483
  898MPD2     C13154   0.616   0.667  16.799 -1.1571 -0.1597 -0.2593
  898MPD2    C113155   0.733   0.718  16.859  0.9360 -0.2496  0.0548
  898MPD2    C213156   0.733   0.846  16.911  0.6169  0.5381  0.5758
  898MPD2    C313157   0.621   0.925  16.911 -0.2418 -0.2037  0.5348
  898MPD2    C413158   0.508   0.872  16.853 -0.4677  0.5242 -0.4939
  898MPD2    C513159   0.506   0.745  16.798  0.3827  0.3163 -0.2012
  898MPD2     H13160   0.830   0.884  16.939  1.2789 -2.1866  2.0487
  898MPD2    H113161   0.413   0.923  16.846 -0.5175  0.5453  0.3375
  898MPD2    H213162   0.614   0.562  16.770 -1.4725  0.1100 -1.2081
  898MPD2    H313163   0.419   0.693  16.759 -0.0774  1.3352 -0.5234
  898MPD2     N13164   0.631   1.056  16.958 -0.4204 -0.1079  0.2863
  898MPD2    H513165   0.710   1.083  17.016 -1.8694  1.2835  1.6103
  898MPD2    N113166   0.855   0.652  16.872  0.0108 -0.3214 -0.3082
  898MPD2    H713167   0.933   0.696  16.920  0.4448  0.4085 -1.6888
  899MPD2     C13168   1.175   2.148  17.318 -0.7836  0.4557 -1.1129
  899MPD2    C113169   1.294   2.130  17.375  0.7598 -0.1582 -0.1828
  899MPD2    C213170   1.308   2.152  17.511  0.3443 -0.1068  0.8232
  899MPD2    C313171   1.203   2.210  17.583 -0.0377 -0.3567  0.0309
  899MPD2    C413172   1.080   2.227  17.524 -0.9449  0.3226 -0.4647
  899MPD2    C513173   1.069   2.193  17.391 -0.1090 -0.5107 -0.6079
  899MPD2     H13174   1.398   2.126  17.565  0.4081  1.8625  1.6715
  899MPD2    H113175   1.001   2.275  17.580 -0.1060  1.3297 -0.1440
  899MPD2    H213176   1.156   2.132  17.212  0.1221  2.7872 -1.6402
  899MPD2    H313177   0.978   2.202  17.332 -0.5259 -1.5768 -0.1396
  899MPD2     N13178   1.214   2.239   0.031  0.3895 -0.2366  0.0859
  899MPD2    H513179   1.137   2.285   0.078  0.3630  1.2269 -1.4006
  899MPD2    N113180   1.410   2.101  17.295 -0.2381  0.6457 -0.2657
  899MPD2    H713181   1.393   2.090  17.195  3.3478 -1.0823 -0.7160
  900MPD2     C13182   1.315   3.571  12.380 -0.3468  0.8602 -0.4828
  900MPD2    C113183   1.272   3.457  12.311 -0.0223  0.6039  0.5563
  900MPD2    C213184   1.184   3.476  12.208  0.0674  0.9100 -0.4095
  900MPD2    C313185   1.137   3.600  12.177  0.0695  0.5037 -0.6530
  900MPD2    C413186   1.189   3.716  12.239 -0.0514 -0.4099  0.3493
  900MPD2    C513187   1.273   3.699  12.344 -0.1735  0.1121  0.3658
  900MPD2     H13188   1.142   3.393  12.152 -1.8532  1.7123 -0.1540
  900MPD2    H113189   1.152   3.814  12.211 -1.0496 -1.5822 -2.4605
  900MPD2    H213190   1.378   3.561  12.467 -1.4385 -0.1720  0.1935
  900MPD2    H313191   1.315   3.783  12.398 -1.2918  0.5597  0.5420
  900MPD2     N13192   1.030   3.599  12.084 -0.0739 -0.5029 -0.7961
  900MPD2    H513193   0.997   3.506  12.059 -3.8675  0.0656  2.0516
  900MPD2    N113194   1.306   3.328  12.350 -0.1869 -0.4954  0.4651
  900MPD2    H713195   1.344   3.329  12.444  1.3900 -1.0594 -0.1713
  901MPD2     C13196   1.153   2.542  12.964 -0.6917 -0.6704 -0.1213
  901MPD2    C113197   1.247   2.514  12.868 -0.2385  0.0083  0.6059
  901MPD2    C213198   1.315   2.610  12.799 -0.4009 -0.2328 -0.4161
  901MPD2    C313199   1.260   2.731  12.792  0.3863 -0.5914 -0.0826
  901MPD2    C413200   1.159   2.770  12.878 -0.7262 -0.3807 -0.9453
  901MPD2    C513201   1.108   2.673  12.966 -0.3595 -0.0325 -0.4945
  901MPD2     H13202   1.408   2.581  12.753  0.6311  0.1510  1.4207
  901MPD2    H113203   1.124   2.872  12.879 -0.0961 -0.1707 -0.2212
  901MPD2    H213204   1.119   2.464  13.032 -0.2127 -1.4927 -0.8245
  901MPD2    H313205   1.022   2.695  13.028 -1.1986  0.4182 -1.7989
  901MPD2     N13206   1.313   2.824  12.701  0.3103 -0.2166 -0.0084
  901MPD2    H513207   1.389   2.790  12.643 -0.0816  0.5923 -0.9870
  901MPD2    N113208   1.284   2.380  12.849  0.5489  0.2561 -0.2051
  901MPD2    H713209   1.260   2.308  12.916 -1.7238 -0.0892 -1.3965
  902MPD2     C13210   0.675   1.231  13.100 -0.2583  0.5320 -0.1998
  902MPD2    C113211   0.659   1.277  12.971 -0.0259 -0.5867  0.2656
  902MPD2    C213212   0.718   1.204  12.868 -0.1812 -0.2093 -0.0292
  902MPD2    C313213   0.782   1.085  12.890  0.3812 -0.4853  0.3476
  902MPD2    C413214   0.789   1.037  13.022  0.0949 -0.4378 -0.5153
  902MPD2    C513215   0.740   1.113  13.120  0.4425  0.6266  0.0246
  902MPD2     H13216   0.719   1.243  12.767 -2.8881  1.2479  0.4908
  902MPD2    H113217   0.837   0.943  13.045  1.7679  0.8534  1.3319
  902MPD2    H213218   0.657   1.298  13.183  1.2502 -0.7846  1.1991
  902MPD2    H313219   0.761   1.076  13.220  1.2556 -0.0861 -0.4120
  902MPD2     N13220   0.849   1.011  12.782  1.1683 -0.4636 -0.0850
  902MPD2    H513221   0.888   0.919  12.802  0.8381 -0.3300  1.1609
  902MPD2    N113222   0.592   1.398  12.946  0.3372 -0.1060 -0.0395
  902MPD2    H713223   0.565   1.460  13.021  0.3262 -0.2442  0.0711
  903MPD2     C13224   0.936   1.278  12.051  0.1122 -0.3709 -0.1307
  903MPD2    C113225   0.870   1.166  12.097 -0.1396 -0.9681 -0.1104
  903MPD2    C213226   0.736   1.160  12.080 -0.0309  0.5377  0.5522
  903MPD2    C313227   0.669   1.267  12.024 -0.0084  0.1640  0.1396
  903MPD2    C413228   0.744   1.368  11.973  0.0818  0.4917 -0.1546
  903MPD2    C513229   0.877   1.368  11.975  0.4862  0.3076  0.1470
  903MPD2     H13230   0.677   1.073  12.105 -3.0313  1.7111 -2.5126
  903MPD2    H113231   0.699   1.454  11.924 -0.5628  1.0033  1.3350
  903MPD2    H213232   1.040   1.296  12.076 -0.1096 -1.6518  1.6653
  903MPD2    H313233   0.926   1.452  11.927  2.0356 -1.4447 -1.3229
  903MPD2     N13234   0.528   1.276  12.004 -0.2280  0.4037 -0.6301
  903MPD2    H513235   0.488   1.367  11.985 -0.1079  0.8413  1.3081
  903MPD2    N113236   0.941   1.074  12.179 -0.3850 -1.1036  0.0049
  903MPD2    H713237   1.031   1.104  12.216 -0.4727 -0.5450 -0.2317
  904MPD2     C13238   0.197   0.004  13.886  0.3098 -0.5717 -0.0497
  904MPD2    C113239   0.235   0.133  13.886 -0.3485 -0.1801  0.7386
  904MPD2    C213240   0.370   0.156  13.915 -0.1556 -0.0823 -0.3926
  904MPD2    C313241   0.457   0.064  13.945 -0.1504 -0.9147 -0.5138
  904MPD2    C413242   0.410   4.656  13.962  0.3274 -0.0741  0.4899
  904MPD2    C513243   0.280   4.627  13.929 -0.5083  0.4722  0.0482
  904MPD2     H13244   0.416   0.253  13.903 -2.0044  0.6728 -1.3461
  904MPD2    H113245   0.480   4.580  13.996  0.5933  0.5177  1.2621
  904MPD2    H213246   0.098   4.692  13.858  0.2026 -0.0542 -0.3129
  904MPD2    H313247   0.247   4.526  13.950  2.3769 -0.6647 -0.9065
  904MPD2     N13248   0.589   0.104  13.953 -0.1595 -0.0759 -0.0044
  904MPD2    H513249   0.609   0.202  13.939  0.7889 -0.0513  1.5318
  904MPD2    N113250   0.156   0.239  13.831 -0.0615 -0.5525 -0.0438
  904MPD2    H713251   0.193   0.333  13.830 -0.7803 -0.2730 -0.4003
  905MPD2     C13252   0.211   0.468  13.187  0.4442 -0.1720 -0.1651
  905MPD2    C113253   0.218   0.529  13.310 -0.0746  0.4139 -0.6612
  905MPD2    C213254   0.326   0.617  13.332 -0.0005 -0.9340  0.0551
  905MPD2    C313255   0.429   0.631  13.240  1.2265  0.3589 -0.9431
  905MPD2    C413256   0.418   0.563  13.116  0.0661  0.3336  0.5185
  905MPD2    C513257   0.310   0.480  13.094  0.3916  0.7000 -0.0316
  905MPD2     H13258   0.335   0.662  13.431 -1.2629  1.6608 -1.0020
  905MPD2    H113259   0.500   0.569  13.046 -0.8078  0.5640 -0.4701
  905MPD2    H213260   0.122   0.408  13.175  0.4726 -0.1541 -0.4534
  905MPD2    H313261   0.294   0.433  12.997  1.4680 -0.4543  0.3410
  905MPD2     N13262   0.553   0.694  13.270 -0.4015  0.1825  0.6487
  905MPD2    H513263   0.625   0.683  13.199 -1.0482  2.4332 -0.3510
  905MPD2    N113264   0.121   0.505  13.407  0.1352  0.9730  0.2508
  905MPD2    H713265   0.067   0.421  13.388  0.5175  0.7268  0.2302
  906MPD2     C13266   2.325   4.544  11.666  0.3103  0.5019 -0.0076
  906MPD2    C113267   2.273   4.505  11.544  0.0758  0.5186 -0.5414
  906MPD2    C213268   2.163   4.428  11.536 -0.6004 -0.0095  0.3951
  906MPD2    C313269   2.087   4.403  11.644 -0.3578  0.0692  0.0991
  906MPD2    C413270   2.138   4.440  11.767 -0.4066  0.4235  0.0208
  906MPD2    C513271   2.254   4.508  11.776 -0.1681 -0.8384 -0.3259
  906MPD2     H13272   2.134   4.399  11.436 -1.0069 -1.9131  1.0781
  906MPD2    H113273   2.101   4.415  11.866  1.1914 -0.8543  0.3066
  906MPD2    H213274   2.397   4.624  11.676  0.6977  0.2938 -1.2369
  906MPD2    H313275   2.280   4.543  11.875  0.2041 -0.0786 -0.6863
  906MPD2     N13276   1.961   4.328  11.636  0.5983  0.1453 -0.4041
  906MPD2    H513277   1.925   4.285  11.721 -0.3353 -0.2864 -1.0155
  906MPD2    N113278   2.333   4.544  11.426  0.1959  0.0750 -0.1087
  906MPD2    H713279   2.275   4.524  11.345 -1.1512  0.6474  0.7068
  907MPD2     C13280   0.848   3.797  15.713  0.0768 -0.6612  0.1594
  907MPD2    C113281   0.917   3.680  15.711 -0.1650  0.4088  0.0299
  907MPD2    C213282   1.031   3.680  15.789  0.9782  0.0158  0.1387
  907MPD2    C313283   1.086   3.781  15.859  0.1601  0.5609 -0.3270
  907MPD2    C413284   1.007   3.896  15.869 -0.2141 -0.3748 -0.2840
  907MPD2    C513285   0.895   3.903  15.785 -0.0535  0.0940 -0.1861
  907MPD2     H13286   1.082   3.586  15.772  1.5933  0.3265  0.2664
  907MPD2    H113287   1.027   3.978  15.937 -2.3306  0.4356 -0.6226
  907MPD2    H213288   0.761   3.805  15.650  0.8719 -1.1877 -1.0114
  907MPD2    H313289   0.837   3.995  15.783 -1.6412 -0.9443 -1.7125
  907MPD2     N13290   1.210   3.754  15.923  0.1521  0.0732 -0.6684
  907MPD2    H513291   1.248   3.661  15.913 -0.0543 -0.0815 -0.0454
  907MPD2    N113292   0.890   3.564  15.633 -0.1229 -0.2896  0.4488
  907MPD2    H713293   0.952   3.485  15.646  0.1878 -0.0801  0.2479
  908MPD2     C13294   3.455   0.625   9.860  0.2160 -0.8608  0.6503
  908MPD2    C113295   3.525   0.554   9.947  1.0263  0.0351 -0.1670
  908MPD2    C213296   3.582   0.617  10.056  0.5284 -0.4054  0.2031
  908MPD2    C313297   3.581   0.753  10.073  0.4220  0.6062 -0.2151
  908MPD2    C413298   3.503   0.826   9.977 -0.5089  0.1153  0.2266
  908MPD2    C513299   3.447   0.754   9.871 -0.9054  0.0324 -0.2042
  908MPD2     H13300   3.628   0.547  10.125  0.0777 -1.3197 -0.4197
  908MPD2    H113301   3.473   0.927  10.002 -1.2201  0.1969 -0.9122
  908MPD2    H213302   3.404   0.580   9.776 -2.6131 -0.0599  1.9110
  908MPD2    H313303   3.379   0.808   9.805  0.2359 -1.5494 -2.6714
  908MPD2     N13304   3.635   0.804  10.193 -0.2960  0.6182  0.0293
  908MPD2    H513305   3.663   0.736  10.263  1.6018  1.7554  0.3629
  908MPD2    N113306   3.517   0.416   9.921  0.1373 -0.0414  0.4034
  908MPD2    H713307   3.478   0.399   9.828  0.6893 -1.2939  0.3993
  909MPD2     C13308   4.068   2.548  11.399 -0.0840 -0.6036  0.0816
  909MPD2    C113309   4.036   2.676  11.359  0.0578 -0.1264 -0.6611
  909MPD2    C213310   3.939   2.733  11.442 -0.0517 -0.1349  0.7115
  909MPD2    C313311   3.891   2.681  11.554 -0.6504 -0.5487  0.1151
  909MPD2    C413312   3.933   2.559  11.595 -0.9258 -0.4710  0.0565
  909MPD2    C513313   4.026   2.493  11.518 -0.6026  0.3123 -0.1963
  909MPD2     H13314   3.901   2.832  11.418  2.8600  0.5948 -0.8872
  909MPD2    H113315   3.899   2.514  11.688 -2.3636 -2.5805 -1.4991
  909MPD2    H213316   4.138   2.487  11.344  2.5666  0.8448  1.8819
  909MPD2    H313317   4.069   2.399  11.548  0.7536  1.2649  0.8195
  909MPD2     N13318   3.795   2.765  11.630  0.0650 -0.1875 -0.6206
  909MPD2    H513319   3.766   2.850  11.584  1.1195  0.7463  0.4202
  909MPD2    N113320   4.078   2.737  11.243  0.0343 -0.0145 -0.0606
  909MPD2    H713321   4.060   2.836  11.231  0.6677 -0.0167 -1.0334
  910MPD2     C13322   0.272   4.579  16.046 -0.5366  0.2310  0.2388
  910MPD2    C113323   0.395   4.561  15.994  0.1880 -0.4968  0.4911
  910MPD2    C213324   0.399   4.554  15.855 -1.1301  0.4946  0.7320
  910MPD2    C313325   0.292   4.574  15.781  0.8321 -0.1094 -0.4826
  910MPD2    C413326   0.176   4.595  15.834 -0.2374 -0.0757 -0.7997
  910MPD2    C513327   0.165   4.592  15.969 -0.2437  0.3867 -0.3016
  910MPD2     H13328   0.491   4.526  15.803 -1.1740 -0.6465  1.2805
  910MPD2    H113329   0.092   4.609  15.766 -0.3048  0.3714 -0.6292
  910MPD2    H213330   0.245   4.578  16.150 -1.4283 -2.2701 -0.0086
  910MPD2    H313331   0.071   4.597  16.023 -0.7759  0.4930 -1.2268
  910MPD2     N13332   0.298   4.571  15.638 -0.0120 -0.2662 -0.3011
  910MPD2    H513333   0.209   4.561  15.590  0.4243  1.1496 -1.4043
  910MPD2    N113334   0.513   4.543  16.076  0.6865  0.5907  0.0274
  910MPD2    H713335   0.595   4.516  16.023 -0.1757 -0.7215 -0.6263
  911MPD2     C13336   3.745   0.436  16.776  0.2743  0.7982  0.0991
  911MPD2    C113337   3.678   0.380  16.676  0.1908 -0.3323 -0.2311
  911MPD2    C213338   3.628   0.453  16.565 -0.3079 -0.1606  0.2913
  911MPD2    C313339   3.644   0.596  16.570  0.7303  0.4779 -0.3618
  911MPD2    C413340   3.699   0.656  16.683  0.2577  0.4938  0.1545
  911MPD2    C513341   3.744   0.578  16.785 -0.2481  0.6417 -0.3672
  911MPD2     H13342   3.559   0.407  16.495 -2.7221  1.8374  1.3397
  911MPD2    H113343   3.702   0.762  16.706  0.5361 -0.0754  2.7527
  911MPD2    H213344   3.788   0.372  16.853 -1.7624  0.0186  0.5976
  911MPD2    H313345   3.797   0.619  16.870 -0.2214 -0.1277 -0.0108
  911MPD2     N13346   3.591   0.669  16.461 -0.1988  0.4942  0.0033
  911MPD2    H513347   3.544   0.617  16.388  0.1409  0.3419 -0.1035
  911MPD2    N113348   3.673   0.237  16.680  0.2519 -0.5775  0.6238
  911MPD2    H713349   3.705   0.196  16.767  0.8338 -1.5396 -0.0508
  912MPD2     C13350   3.004   0.620  15.942  0.3774 -0.1075  0.1572
  912MPD2    C113351   3.089   0.594  16.045  0.0003 -0.3558  0.3889
  912MPD2    C213352   3.102   0.465  16.097 -0.2901 -0.2416  0.8540
  912MPD2    C313353   3.032   0.358  16.046  0.3279 -0.1091  0.2847
  912MPD2    C413354   2.951   0.383  15.938 -0.1280 -0.0519 -0.0324
  912MPD2    C513355   2.940   0.508  15.886  0.6344 -0.2590 -0.6646
  912MPD2     H13356   3.175   0.436  16.172  0.4844 -1.9684 -0.5281
  912MPD2    H113357   2.888   0.310  15.889 -0.2823  1.1583 -1.6043
  912MPD2    H213358   2.986   0.718  15.899  1.6855 -0.1008 -0.3670
  912MPD2    H313359   2.895   0.518  15.788  0.6646 -1.4303 -0.7947
  912MPD2     N13360   3.059   0.229  16.105 -0.7329 -0.1558 -0.6868
  912MPD2    H513361   3.109   0.231  16.193 -0.7416  0.2767 -0.6878
  912MPD2    N113362   3.167   0.703  16.090 -0.2985  0.3718  0.0258
  912MPD2    H713363   3.159   0.795  16.049 -1.4727  0.3951  0.2954
  913MPD2     C13364   3.952   2.069  10.847 -0.5262  0.2526 -0.0166
  913MPD2    C113365   3.892   1.976  10.767 -0.2230 -0.0313 -0.4011
  913MPD2    C213366   3.931   1.979  10.633  0.2652  0.3420  0.6821
  913MPD2    C313367   4.027   2.068  10.589 -0.0245 -0.2645 -0.3288
  913MPD2    C413368   4.084   2.161  10.675  0.1175  0.0074 -0.3060
  913MPD2    C513369   4.053   2.158  10.807  0.2724 -0.0203  0.3579
  913MPD2     H13370   3.883   1.914  10.561  0.2614  0.4671  0.5721
  913MPD2    H113371   4.148   2.241  10.640  0.0622  0.4051  0.5027
  913MPD2    H213372   3.907   2.094  10.942  2.4427 -1.8206  1.9288
  913MPD2    H313373   4.092   2.230  10.877 -0.1956 -0.3886  0.9909
  913MPD2     N13374   4.076   2.078  10.453 -0.1869  0.8229  0.6325
  913MPD2    H513375   4.139   2.155  10.439  0.2810  0.3403  0.0617
  913MPD2    N113376   3.786   1.894  10.819 -0.4377  0.6044  0.1458
  913MPD2    H713377   3.780   1.902  10.920  1.2161  2.0231  0.1361
  914MPD2     C13378   1.684   2.282  12.005 -0.6722  0.9211  0.1816
  914MPD2    C113379   1.620   2.377  12.085 -0.2433 -0.2781  0.2769
  914MPD2    C213380   1.565   2.329  12.203  0.4382 -0.0604 -0.3465
  914MPD2    C313381   1.595   2.212  12.254 -0.8847 -0.2580  0.6769
  914MPD2    C413382   1.650   2.112  12.175 -0.1940 -0.2160  0.5290
  914MPD2    C513383   1.698   2.152  12.045 -0.7653 -0.0266 -0.2217
  914MPD2     H13384   1.501   2.393  12.262  0.7236 -0.0703 -0.0270
  914MPD2    H113385   1.676   2.011  12.206 -1.6098  0.1225  2.8347
  914MPD2    H213386   1.714   2.310  11.905  0.7312 -1.0805  0.0513
  914MPD2    H313387   1.745   2.079  11.980 -1.8574 -0.9186 -0.0098
  914MPD2     N13388   1.552   2.185  12.387 -0.9074  0.0027  0.1289
  914MPD2    H513389   1.521   2.266  12.438 -0.7369  1.1530 -1.6024
  914MPD2    N113390   1.617   2.513  12.046 -0.2429  0.7529 -0.2151
  914MPD2    H713391   1.666   2.539  11.961  0.4398 -1.8071 -0.6034
  915MPD2     C13392   4.502   1.729  16.042  0.1393 -0.7165 -0.0776
  915MPD2    C113393   4.376   1.792  16.018  0.4108 -0.1644  0.2314
  915MPD2    C213394   4.315   1.868  16.114  0.5021 -0.2999 -0.6897
  915MPD2    C313395   4.372   1.879  16.235  0.6775  0.0904  0.2869
  915MPD2    C413396   4.494   1.816  16.260  0.0942 -0.8037 -0.2072
  915MPD2    C513397   4.555   1.746  16.161  0.0162  0.4536  0.4034
  915MPD2     H13398   4.212   1.900  16.101  0.8062  0.2582 -1.7283
  915MPD2    H113399   4.544   1.823  16.355  1.1087  1.1901 -0.8882
  915MPD2    H213400   4.543   1.660  15.970  0.8693  1.3256 -1.6073
  915MPD2    H313401   4.650   1.696  16.177  0.4736  1.3201  0.3635
  915MPD2     N13402   4.289   1.946  16.326  0.5574 -0.2181 -0.5345
  915MPD2    H513403   4.210   2.002  16.295 -0.5569 -0.0364  2.6217
  915MPD2    N113404   4.326   1.778  15.886  0.5338  0.1057 -0.6184
  915MPD2    H713405   4.376   1.711  15.829 -1.3407  1.6263 -4.0801
  916MPD2     C13406   2.509   0.116  15.556  0.2059 -0.0273 -0.0241
  916MPD2    C113407   2.511   0.032  15.663 -0.0528 -0.1072  0.0608
  916MPD2    C213408   2.610   4.655  15.665  0.1590  0.2525 -0.1815
  916MPD2    C313409   2.707   4.641  15.568  0.2339 -0.5449  0.2066
  916MPD2    C413410   2.696   0.001  15.460 -0.4817 -0.3677  0.8370
  916MPD2    C513411   2.598   0.097  15.450  0.1570 -0.0851 -0.3019
  916MPD2     H13412   2.618   4.583  15.746  0.6255  1.0969  0.5258
  916MPD2    H113413   2.768   4.705  15.382 -1.6090 -1.2711  0.0085
  916MPD2    H213414   2.439   0.199  15.547 -0.4279 -0.6027 -0.3958
  916MPD2    H313415   2.595   0.165  15.365 -0.6385  1.1514  0.7073
  916MPD2     N13416   2.797   4.527  15.578 -0.0139 -0.0901  0.2288
  916MPD2    H513417   2.791   4.461  15.654  1.9927  2.5576  2.6808
  916MPD2    N113418   2.425   0.050  15.769 -0.3817 -0.0432 -0.2242
  916MPD2    H713419   2.382   0.141  15.784  1.6587  0.6735  1.2128
  917MPD2     C13420   2.411   2.414  10.850 -0.2001  0.6092 -0.3593
  917MPD2    C113421   2.491   2.436  10.956  0.2651  0.2936  0.3734
  917MPD2    C213422   2.625   2.465  10.932  0.5895  0.0086 -0.2898
  917MPD2    C313423   2.677   2.470  10.803 -0.9981  0.3642  0.2341
  917MPD2    C413424   2.590   2.461  10.694 -0.2475  0.1203 -0.5472
  917MPD2    C513425   2.459   2.432  10.723  0.7140 -0.4801 -0.5329
  917MPD2     H13426   2.687   2.486  11.019  0.2150  1.9124 -0.4895
  917MPD2    H113427   2.630   2.488  10.597  1.2641 -0.2116 -0.0190
  917MPD2    H213428   2.307   2.397  10.876  0.8432  0.3437  3.6116
  917MPD2    H313429   2.390   2.424  10.640  0.6216  0.1981 -0.5260
  917MPD2     N13430   2.804   2.522  10.767  0.4862  0.7037  0.2483
  917MPD2    H513431   2.817   2.538  10.668  0.1145 -0.3633  0.0232
  917MPD2    N113432   2.436   2.426  11.086 -0.0876  0.3049  0.3605
  917MPD2    H713433   2.342   2.390  11.099  0.0733  0.1153  1.0004
  918MPD2     C13434   2.440   2.870  11.959 -0.0331  0.0861 -0.7278
  918MPD2    C113435   2.539   2.830  11.880 -0.4354 -0.2176  0.5814
  918MPD2    C213436   2.495   2.776  11.766  0.2464 -0.0513 -0.2659
  918MPD2    C313437   2.363   2.735  11.741  0.1778  0.4367  0.5400
  918MPD2    C413438   2.263   2.772  11.825 -0.0232 -0.5624 -0.1533
  918MPD2    C513439   2.304   2.850  11.933  0.0059 -0.2867  0.1128
  918MPD2     H13440   2.566   2.734  11.695  0.4636  2.5821 -1.6140
  918MPD2    H113441   2.156   2.752  11.824 -0.2739  0.6768  0.9913
  918MPD2    H213442   2.461   2.913  12.056 -1.2136  0.4780 -0.6477
  918MPD2    H313443   2.230   2.869  12.009  1.4925  2.2429  0.9203
  918MPD2     N13444   2.347   2.657  11.628  0.6316  0.5087 -0.3743
  918MPD2    H513445   2.430   2.624  11.580 -1.0303 -3.1251 -0.7654
  918MPD2    N113446   2.670   2.865  11.898  0.3923 -0.1676 -0.1072
  918MPD2    H713447   2.728   2.846  11.817 -0.5183 -0.8413 -0.5990
  919MPD2     C13448   3.320   1.850  11.978 -0.1093  0.4715 -0.2613
  919MPD2    C113449   3.207   1.771  11.991  0.1481 -0.2663 -0.5693
  919MPD2    C213450   3.106   1.779  11.898 -0.5653 -0.4718  0.1454
  919MPD2    C313451   3.127   1.855  11.781  0.5694  0.0209  0.0159
  919MPD2    C413452   3.241   1.933  11.768 -0.3559 -0.1066 -0.0222
  919MPD2    C513453   3.336   1.933  11.866  0.1778 -0.6644 -0.0807
  919MPD2     H13454   3.019   1.716  11.914  0.2167 -1.8120 -0.8775
  919MPD2    H113455   3.256   1.985  11.674  1.5497  0.1367  0.4099
  919MPD2    H213456   3.406   1.832  12.042 -0.7019 -0.4471  0.2711
  919MPD2    H313457   3.435   1.973  11.843  0.5403 -0.9607  0.9510
  919MPD2     N13458   3.037   1.856  11.674  0.4678  0.3715 -0.0901
  919MPD2    H513459   3.072   1.882  11.582  1.0958 -0.7012 -0.1614
  919MPD2    N113460   3.199   1.673  12.098 -0.2779 -0.3975  0.0387
  919MPD2    H713461   3.112   1.624  12.113 -1.0273  0.9450  0.1258
  920MPD2     C13462   3.022   1.826  10.700 -0.6176  0.3101 -0.6876
  920MPD2    C113463   2.935   1.718  10.714 -0.3648 -0.1637 -0.4649
  920MPD2    C213464   2.890   1.694  10.842 -0.3439 -0.0461  0.5817
  920MPD2    C313465   2.930   1.771  10.953 -0.1457 -0.3921  0.1806
  920MPD2    C413466   3.013   1.877  10.930 -0.2203  0.1485  0.0492
  920MPD2    C513467   3.058   1.910  10.803 -0.4529 -0.1330 -0.0941
  920MPD2     H13468   2.816   1.618  10.863 -0.2604  0.3729  2.3794
  920MPD2    H113469   3.032   1.945  11.013  2.8278  1.4604 -1.7093
  920MPD2    H213470   3.072   1.845  10.606 -4.0458 -0.3251 -2.6091
  920MPD2    H313471   3.129   1.988  10.778 -1.1709  0.4364 -0.3806
  920MPD2     N13472   2.877   1.737  11.082 -0.0871 -0.4812 -0.2309
  920MPD2    H513473   2.794   1.679  11.078 -0.1379 -0.5994  2.3845
  920MPD2    N113474   2.887   1.640  10.605  0.0028  0.3496  0.3150
  920MPD2    H713475   2.817   1.573  10.635  0.5965 -0.7981 -0.8684
  921MPD2     C13476   3.867   0.257  17.089 -0.1819 -0.3141 -0.1842
  921MPD2    C113477   3.913   0.171  16.991  0.0956 -1.0140  0.3842
  921MPD2    C213478   3.869   0.043  16.991 -0.0477  0.8677  0.0686
  921MPD2    C313479   3.762   0.000  17.070 -0.1653  0.1547  0.1691
  921MPD2    C413480   3.717   0.086  17.169 -0.7293 -0.1735  0.3254
  921MPD2    C513481   3.762   0.218  17.176 -0.4796  0.0596  0.1120
  921MPD2     H13482   3.891   4.703  16.905 -1.2562 -1.0117  1.1259
  921MPD2    H113483   3.635   0.064  17.237 -0.0799 -0.6754  0.9388
  921MPD2    H213484   3.893   0.362  17.092  0.9219 -0.6184  1.0759
  921MPD2    H313485   3.716   0.285  17.248 -0.7727  1.3252 -1.2531
  921MPD2     N13486   3.699   4.598  17.041  0.3966  0.5416  0.5140
  921MPD2    H513487   3.645   4.570  17.122 -1.8315 -0.6147 -1.3772
  921MPD2    N113488   4.012   0.216  16.901 -0.1496 -0.0554  0.0625
  921MPD2    H713489   4.069   0.296  16.926 -1.1069  0.2988  1.1392
  922MPD2     C13490   0.042   2.430  17.687 -0.9441 -0.0923 -0.2954
  922MPD2    C113491   0.037   2.547  17.613 -0.1000 -0.0356  0.3721
  922MPD2    C213492   4.641   2.583  17.547  0.6448  0.4084 -0.4191
  922MPD2    C313493   4.531   2.502  17.553 -0.2208 -0.2515 -0.4573
  922MPD2    C413494   4.536   2.395  17.637  0.7984  1.0054 -0.6200
  922MPD2    C513495   4.649   2.360   0.011 -1.1518  0.8227 -0.1200
  922MPD2     H13496   4.639   2.674  17.488  1.8726 -0.5452 -1.9301
  922MPD2    H113497   4.453   2.326  17.653  1.4731  0.8032  2.0774
  922MPD2    H213498   0.135   2.395   0.038 -1.0826  1.8264  1.6243
  922MPD2    H313499   4.640   2.273   0.075  2.2120  1.9866  1.9512
  922MPD2     N13500   4.407   2.541  17.495  0.4001 -0.1272 -0.7448
  922MPD2    H513501   4.408   2.634  17.454 -0.7061 -0.1570 -0.8512
  922MPD2    N113502   0.155   2.631  17.601  0.0488 -0.7921 -0.5895
  922MPD2    H713503   0.158   2.708  17.535 -0.2834 -1.0085 -0.8524
  923MPD2     C13504   1.758   4.195   9.166 -0.8327 -0.0660  0.3635
  923MPD2    C113505   1.702   4.312   9.211  0.0991 -0.6249 -0.1040
  923MPD2    C213506   1.779   4.406   9.282  0.2412  0.2191  0.4652
  923MPD2    C313507   1.911   4.377   9.301 -0.0526  0.2448  0.5218
  923MPD2    C413508   1.961   4.253   9.260  0.5503  0.1557 -0.1732
  923MPD2    C513509   1.889   4.166   9.191 -0.5637 -0.7097 -0.0242
  923MPD2     H13510   1.734   4.502   9.305  2.1333  1.2388 -0.0833
  923MPD2    H113511   2.067   4.233   9.270  0.6562  0.3891 -0.8342
  923MPD2    H213512   1.694   4.126   9.111  0.3563 -0.2278 -0.8305
  923MPD2    H313513   1.936   4.073   9.164 -0.4578 -0.1179 -1.8633
  923MPD2     N13514   1.998   4.449   9.381  1.2653  0.7260 -0.1484
  923MPD2    H513515   2.082   4.403   9.416  1.4673  1.5279  0.4182
  923MPD2    N113516   1.560   4.318   9.201 -0.0299  0.0603  0.1149
  923MPD2    H713517   1.509   4.237   9.167  0.1219 -0.2055  0.5110
  924MPD2     C13518   1.350   3.141  16.313 -0.0737 -0.3540 -0.1619
  924MPD2    C113519   1.394   3.257  16.374 -0.4765  0.2653 -0.2230
  924MPD2    C213520   1.464   3.348  16.300  0.3731  0.0143  0.0028
  924MPD2    C313521   1.474   3.328  16.159 -0.1159  0.2012  0.5426
  924MPD2    C413522   1.414   3.215  16.099  0.1038 -0.6796 -0.6647
  924MPD2    C513523   1.362   3.117  16.181  0.1874  1.0977 -0.1572
  924MPD2     H13524   1.506   3.434  16.351  1.1623 -0.5340  0.2840
  924MPD2    H113525   1.431   3.211  15.992  0.9893  1.0184 -0.5841
  924MPD2    H213526   1.291   3.073  16.373  0.5891 -0.1363  0.7396
  924MPD2    H313527   1.322   3.023  16.145 -0.1863  1.1733  0.0514
  924MPD2     N13528   1.533   3.427  16.077 -0.4076 -0.2237 -0.0443
  924MPD2    H513529   1.509   3.420  15.979 -0.4526  0.8954 -0.1186
  924MPD2    N113530   1.371   3.290  16.506 -0.1200 -0.3327  0.3176
  924MPD2    H713531   1.398   3.387  16.520 -1.5835  0.3093 -1.2895
  925MPD2     C13532   0.315   1.047  14.252  0.4762  0.8777  0.3380
  925MPD2    C113533   0.193   1.118  14.247 -0.1016  0.3256 -0.0319
  925MPD2    C213534   0.103   1.110  14.349  0.2198 -0.1846 -0.2749
  925MPD2    C313535   0.134   1.037  14.466  0.5044 -0.3250  0.2867
  925MPD2    C413536   0.252   0.963  14.471  0.8249 -0.0327 -0.2224
  925MPD2    C513537   0.339   0.966  14.363  0.1964 -0.5784  0.0828
  925MPD2     H13538   0.009   1.164  14.346  0.0583 -0.3638  1.7358
  925MPD2    H113539   0.277   0.913  14.564  2.1649  1.1480  0.0492
  925MPD2    H213540   0.388   1.029  14.174 -1.3002 -1.8279 -0.7298
  925MPD2    H313541   0.423   0.897  14.360 -0.1585 -0.9527 -1.2679
  925MPD2     N13542   0.063   1.061  14.583  0.0978  0.0100 -0.2400
  925MPD2    H513543   0.111   1.029  14.666  0.6948 -0.8875 -0.9342
  925MPD2    N113544   0.144   1.193  14.135  0.4479  0.2139  0.4841
  925MPD2    H713545   0.049   1.228  14.139 -0.3697 -2.0542  0.7535
  926MPD2     C13546   4.500   4.282  13.345 -0.2100 -0.1629 -0.0634
  926MPD2    C113547   4.455   4.389  13.271  0.2076  0.1544  0.2583
  926MPD2    C213548   4.522   4.439  13.162 -0.3752 -0.1416  0.1395
  926MPD2    C313549   4.650   4.408  13.150 -0.1727 -0.4295 -0.1203
  926MPD2    C413550   4.701   4.305  13.224  0.0201 -0.3176  0.2795
  926MPD2    C513551   4.626   4.244  13.322  0.1342 -0.1616 -0.4939
  926MPD2     H13552   4.478   4.521  13.106 -2.6800 -1.4166  0.0658
  926MPD2    H113553   0.082   4.280  13.207 -0.4924 -0.8807 -1.9425
  926MPD2    H213554   4.442   4.229  13.419  1.0922  1.0524  1.8340
  926MPD2    H313555   4.666   4.153  13.364  0.0409 -0.0899 -0.2528
  926MPD2     N13556   0.018   4.486  13.068 -0.5092 -0.1057  0.2820
  926MPD2    H513557   0.119   4.484  13.082 -0.0523  0.2031 -3.1573
  926MPD2    N113558   4.329   4.446  13.290 -0.4822  0.1158 -0.0463
  926MPD2    H713559   4.293   4.526  13.239 -0.0638  0.4932  0.2465
  927MPD2     C13560   2.624   2.156  17.653  0.2566  0.0065  0.2621
  927MPD2    C113561   2.742   2.138   0.028  0.4325  0.0937  0.5854
  927MPD2    C213562   2.861   2.114  17.654 -0.9518  0.1661 -0.2618
  927MPD2    C313563   2.856   2.109  17.515  0.4991  0.0358 -0.4987
  927MPD2    C413564   2.738   2.123  17.450 -0.1019 -0.1487 -0.4624
  927MPD2    C513565   2.617   2.142  17.520 -0.0117  0.0036 -0.2622
  927MPD2     H13566   2.959   2.104   0.007 -0.4641  0.8795 -1.1722
  927MPD2    H113567   2.734   2.106  17.344 -0.0996  1.1775 -0.6773
  927MPD2    H213568   2.532   2.172   0.018  0.1401 -0.0649  0.0929
  927MPD2    H313569   2.522   2.148  17.469 -1.6919 -0.4042  2.7766
  927MPD2     N13570   2.983   2.109  17.446  0.7455  0.9349 -0.1792
  927MPD2    H513571   3.066   2.115  17.504 -0.0450  0.4900  1.0072
  927MPD2    N113572   2.739   2.142   0.169  0.3852  0.2411  0.0361
  927MPD2    H713573   2.649   2.170   0.206 -0.6925  0.7672 -2.9793
  928MPD2     C13574   1.813   0.640   1.248 -0.2624 -0.2212  0.3866
  928MPD2    C113575   1.786   0.750   1.159 -0.3565 -0.4219 -0.2518
  928MPD2    C213576   1.834   0.735   1.030 -0.5135  0.6090  0.0142
  928MPD2    C313577   1.906   0.625   0.988 -0.6049  0.4489  0.7065
  928MPD2    C413578   1.941   0.528   1.070 -0.2166 -0.3207 -0.1804
  928MPD2    C513579   1.888   0.535   1.198  0.1692  0.0460 -0.1013
  928MPD2     H13580   1.809   0.807   0.952 -2.5376 -1.0851 -0.9180
  928MPD2    H113581   1.985   0.435   1.034  0.3679 -0.0201 -0.2424
  928MPD2    H213582   1.776   0.641   1.350 -0.2580  1.0808  0.3808
  928MPD2    H313583   1.911   0.451   1.262 -1.3815  2.1433  3.2398
  928MPD2     N13584   1.952   0.606   0.853  0.0492 -0.9912  0.2138
  928MPD2    H513585   1.972   0.515   0.814 -1.2746 -1.0071 -0.4189
  928MPD2    N113586   1.716   0.859   1.206 -0.7720  0.3791 -0.0533
  928MPD2    H713587   1.691   0.862   1.304 -1.1136  1.0663 -0.1548
  929MPD2     C13588   1.844   0.116  11.013  1.0326 -0.2360 -0.8696
  929MPD2    C113589   1.757   0.018  10.981  0.0425 -0.1592 -0.3014
  929MPD2    C213590   1.715   0.015  10.847  0.2017  0.1579 -0.0399
  929MPD2    C313591   1.763   0.098  10.748  0.5299  0.7093  0.0318
  929MPD2    C413592   1.869   0.179  10.786  0.0220  0.2507 -0.3388
  929MPD2    C513593   1.895   0.195  10.918  0.2015 -0.0038  0.2405
  929MPD2     H13594   1.623   4.685  10.824  0.3982 -1.2781  2.3294
  929MPD2    H113595   1.919   0.237  10.709 -1.0277 -0.1028 -1.2848
  929MPD2    H213596   1.876   0.133  11.115 -0.2058  0.8337 -0.6536
  929MPD2    H313597   1.966   0.272  10.947 -1.4298  1.7898 -0.5216
  929MPD2     N13598   1.693   0.094  10.622  0.3725 -0.7066  0.6884
  929MPD2    H513599   1.596   0.065  10.631  0.3226 -0.4472  0.9716
  929MPD2    N113600   1.708   4.654  11.083 -0.5454  0.2580  0.2806
  929MPD2    H713601   1.729   4.676  11.180 -1.8838  0.6251  0.4741
  930MPD2     C13602   3.609   2.501  14.126  0.1615  0.0025 -0.5160
  930MPD2    C113603   3.501   2.496  14.045 -0.1279  0.3206 -0.1223
  930MPD2    C213604   3.408   2.387  14.053  0.1201 -0.1774  0.1991
  930MPD2    C313605   3.416   2.294  14.155 -0.2245 -0.0464  0.8860
  930MPD2    C413606   3.523   2.310  14.238  0.0437  0.5888 -0.3812
  930MPD2    C513607   3.613   2.411  14.228 -0.1934  0.9169 -0.0172
  930MPD2     H13608   3.333   2.384  13.975 -1.3912  2.4086  1.5293
  930MPD2    H113609   3.551   2.236  14.312 -0.0101  0.4587 -0.4912
  930MPD2    H213610   3.688   2.576  14.122  1.1346 -1.1434 -2.6963
  930MPD2    H313611   3.702   2.418  14.289  1.1813  0.2140 -1.9550
  930MPD2     N13612   3.336   2.181  14.154  0.0755  0.0195 -0.6860
  930MPD2    H513613   3.358   2.108  14.221  0.6657 -0.1892 -1.1103
  930MPD2    N113614   3.507   2.589  13.942 -0.2511 -0.3200  0.4224
  930MPD2    H713615   3.593   2.642  13.943  0.3561 -1.2714 -0.3925
  931MPD2     C13616   3.267   1.871   0.598  0.1190  0.2076 -0.4482
  931MPD2    C113617   3.185   1.931   0.689  0.4314  0.1099  0.1902
  931MPD2    C213618   3.212   1.916   0.822 -0.5389  0.4555  0.1807
  931MPD2    C313619   3.329   1.858   0.868 -0.0312 -0.5736  1.0156
  931MPD2    C413620   3.420   1.800   0.774  0.5531  0.3297  0.5368
  931MPD2    C513621   3.382   1.808   0.645 -0.2280  0.0033 -0.3631
  931MPD2     H13622   3.159   1.971   0.898  0.0811  2.0430 -0.5404
  931MPD2    H113623   3.516   1.760   0.804  0.4710 -0.8639 -0.7827
  931MPD2    H213624   3.246   1.877   0.492  0.3594  1.3861 -0.4278
  931MPD2    H313625   3.458   1.778   0.574 -0.0486  1.2407 -0.6940
  931MPD2     N13626   3.360   1.849   1.010  0.3028  0.9827  0.4192
  931MPD2    H513627   3.432   1.781   1.033  0.1291  0.5101 -0.4647
  931MPD2    N113628   3.073   2.004   0.634  0.0759 -0.1651  0.5542
  931MPD2    H713629   3.071   2.019   0.534 -1.9582 -1.1790  0.4354
  932MPD2     C13630   4.541   1.141  11.723 -0.6947 -0.1578  0.4604
  932MPD2    C113631   4.667   1.139  11.765 -0.1936 -0.0474  0.2445
  932MPD2    C213632   4.705   1.052  11.868 -0.2219 -0.5198  0.0002
  932MPD2    C313633   4.610   0.973  11.931 -0.5034  0.0710  0.1590
  932MPD2    C413634   4.476   0.982  11.893 -0.5085 -0.6146 -0.5184
  932MPD2    C513635   4.448   1.063  11.784 -0.0838 -0.5163  0.1285
  932MPD2     H13636   0.083   1.066  11.907  0.3731 -2.5722 -0.7920
  932MPD2    H113637   4.404   0.917  11.942  1.6004 -2.3725  0.2429
  932MPD2    H213638   4.511   1.202  11.639 -0.8005 -1.6032 -0.5432
  932MPD2    H313639   4.342   1.052  11.762 -0.5242  2.8557  0.6081
  932MPD2     N13640   4.634   0.872  12.020  0.5461  0.3368 -0.2762
  932MPD2    H513641   4.562   0.819  12.068 -1.3595  1.1289 -2.2992
  932MPD2    N113642   0.045   1.226  11.708  0.0099  0.2826  0.8189
  932MPD2    H713643   0.140   1.211  11.740  0.0968  0.2231  0.5305
  933MPD2     C13644   0.955   1.285   1.317  1.0074 -0.2246 -0.3108
  933MPD2    C113645   1.043   1.264   1.209  0.6333 -0.3359  0.3427
  933MPD2    C213646   0.988   1.249   1.084 -0.4349 -0.2141  0.2376
  933MPD2    C313647   0.852   1.257   1.065 -0.0915 -0.1629 -0.4481
  933MPD2    C413648   0.767   1.285   1.169 -0.8873  0.1454  0.7329
  933MPD2    C513649   0.822   1.310   1.289  0.1743 -0.0303  0.1159
  933MPD2     H13650   1.049   1.208   1.004  0.2484 -1.8514  1.6031
  933MPD2    H113651   0.658   1.278   1.169 -0.9933  1.9706 -1.4784
  933MPD2    H213652   0.988   1.292   1.420 -0.0146 -0.6504  0.0495
  933MPD2    H313653   0.751   1.330   1.369  1.4715 -0.9808  1.5155
  933MPD2     N13654   0.804   1.232   0.933  0.3080 -0.2413  0.2123
  933MPD2    H513655   0.880   1.220   0.867 -0.9822  0.0356 -1.3294
  933MPD2    N113656   1.182   1.245   1.244 -0.4420  0.3508  0.3951
  933MPD2    H713657   1.210   1.227   1.339 -0.9312 -1.7608  0.1386
  934MPD2     C13658   2.310   1.917   2.382 -0.3017 -0.2560 -0.4819
  934MPD2    C113659   2.388   1.976   2.281 -0.0525 -0.0863  0.6161
  934MPD2    C213660   2.350   1.973   2.150  0.3894  0.5966  0.1157
  934MPD2    C313661   2.243   1.899   2.107  0.1002  0.4098 -0.3815
  934MPD2    C413662   2.157   1.841   2.203 -0.3233  0.1367 -0.1835
  934MPD2    C513663   2.194   1.857   2.338  0.2784  0.3192 -0.4662
  934MPD2     H13664   2.405   2.023   2.072  0.2200 -1.3548 -1.2431
  934MPD2    H113665   2.069   1.787   2.172  0.0584 -1.7746  2.0467
  934MPD2    H213666   2.334   1.916   2.487  0.3922  2.0142 -0.6180
  934MPD2    H313667   2.139   1.801   2.414  0.6590 -2.7087 -2.4230
  934MPD2     N13668   2.194   1.893   1.978 -1.0268 -0.1822  0.2014
  934MPD2    H513669   2.112   1.841   1.950 -0.5280 -2.2156  2.5721
  934MPD2    N113670   2.506   2.050   2.318 -0.3871 -0.0060  0.5252
  934MPD2    H713671   2.563   2.082   2.240 -0.3816  0.0902  0.5688
  935MPD2     C13672   2.623   1.905   1.067  0.5701 -0.0426 -0.2226
  935MPD2    C113673   2.487   1.909   1.047  0.2966 -0.1891 -0.6188
  935MPD2    C213674   2.396   1.931   1.153 -0.1976 -0.1778 -1.1909
  935MPD2    C313675   2.446   1.951   1.283 -0.6378 -0.5062 -0.8746
  935MPD2    C413676   2.578   1.952   1.302  0.2389  0.6300 -0.0368
  935MPD2    C513677   2.669   1.920   1.201 -0.5659  0.0206 -0.7074
  935MPD2     H13678   2.289   1.933   1.137 -0.1347  1.2115 -1.4587
  935MPD2    H113679   2.619   1.975   1.399 -0.8364 -2.0257  1.0425
  935MPD2    H213680   2.699   1.889   0.992  1.4608 -0.7232  0.8138
  935MPD2    H313681   2.777   1.918   1.212 -0.7329  1.1506  1.0885
  935MPD2     N13682   2.367   1.962   1.400 -0.4867 -0.7815 -0.4019
  935MPD2    H513683   2.412   1.982   1.489  0.7092 -1.7637 -0.7803
  935MPD2    N113684   2.432   1.889   0.917 -0.2224 -0.1719 -0.1782
  935MPD2    H713685   2.331   1.889   0.909 -0.1620 -0.0017 -0.9389
  936MPD2     C13686   1.199   4.058  12.829 -0.8656 -0.4678 -0.2919
  936MPD2    C113687   1.195   4.121  12.954  0.2118 -0.2745 -0.4236
  936MPD2    C213688   1.203   4.256  12.964  0.4004  0.0177  0.9080
  936MPD2    C313689   1.216   4.335  12.854 -1.1994  0.4258 -1.2932
  936MPD2    C413690   1.226   4.269  12.734  0.0338  0.4401 -0.4999
  936MPD2    C513691   1.219   4.134  12.721 -0.0500  0.4300  0.8374
  936MPD2     H13692   1.200   4.306  13.060  1.1375  1.4582  0.2012
  936MPD2    H113693   1.232   4.318  12.638 -2.9023  2.7896  0.5324
  936MPD2    H213694   1.190   3.952  12.807 -3.2417  0.2340 -2.7429
  936MPD2    H313695   1.228   4.097  12.619  1.4122 -1.8479  1.7937
  936MPD2     N13696   1.239   4.472  12.874  0.1855 -0.2549 -0.1449
  936MPD2    H513697   1.241   4.505  12.970  3.0633  0.4652 -0.4420
  936MPD2    N113698   1.177   4.054  13.080  0.4344  0.0470  0.9501
  936MPD2    H713699   1.164   4.111  13.163 -1.3393  0.9908  0.0230
  937MPD2     C13700   3.497   1.088  11.903  0.0789 -0.1095 -0.2455
  937MPD2    C113701   3.464   1.228  11.918 -0.4868  0.2065  0.5011
  937MPD2    C213702   3.519   1.313  11.829 -0.3168 -0.7952 -0.0605
  937MPD2    C313703   3.586   1.271  11.720 -1.0034 -0.4131  0.0308
  937MPD2    C413704   3.614   1.135  11.696 -0.7850 -0.3631  0.4080
  937MPD2    C513705   3.563   1.044  11.792 -0.5106 -0.0579  0.4150
  937MPD2     H13706   3.521   1.418  11.854  1.2362 -0.1670 -2.8479
  937MPD2    H113707   3.676   1.101  11.614 -0.1519 -1.5091  1.3638
  937MPD2    H213708   3.482   1.012  11.979 -2.0615  0.0005 -0.5473
  937MPD2    H313709   3.581   0.938  11.783 -1.0643  0.0275 -1.7884
  937MPD2     N13710   3.652   1.376  11.660 -0.3462  0.4608  0.3766
  937MPD2    H513711   3.628   1.469  11.693 -3.1242  0.5958 -2.0250
  937MPD2    N113712   3.411   1.282  12.046 -0.8137 -0.0278  0.6802
  937MPD2    H713713   3.410   1.383  12.053  2.1320 -0.1535  2.7627
  938MPD2     C13714   1.607   1.890   0.708 -0.0312  0.6218 -0.0292
  938MPD2    C113715   1.531   1.985   0.769  0.0985 -0.1682  0.0689
  938MPD2    C213716   1.395   1.959   0.785 -0.5456 -0.2079 -0.4600
  938MPD2    C313717   1.342   1.834   0.760  0.2386  0.7934 -0.1795
  938MPD2    C413718   1.429   1.737   0.702 -0.1029 -0.2457 -0.0880
  938MPD2    C513719   1.553   1.774   0.670  0.1713  0.5658 -0.2309
  938MPD2     H13720   1.329   2.030   0.833 -1.7968 -0.9358 -1.0999
  938MPD2    H113721   1.402   1.635   0.677  0.2692 -0.3957  0.1178
  938MPD2    H213722   1.712   1.915   0.695 -0.8273  3.4305 -0.9911
  938MPD2    H313723   1.619   1.697   0.631 -0.1512 -0.5497  1.4324
  938MPD2     N13724   1.212   1.804   0.805 -0.3605  0.7557 -0.1883
  938MPD2    H513725   1.207   1.707   0.837 -2.5516  0.6717 -0.7424
  938MPD2    N113726   1.582   2.107   0.823 -0.0160  0.5856  0.1347
  938MPD2    H713727   1.517   2.175   0.861 -0.0893  0.4335  0.2809
  939MPD2     C13728   2.526   3.060   1.254 -0.4317 -0.2639 -0.6049
  939MPD2    C113729   2.453   3.075   1.142  0.3902  0.4140  0.3437
  939MPD2    C213730   2.519   3.067   1.022  0.7629 -0.3622  0.5400
  939MPD2    C313731   2.655   3.047   1.016 -0.2460  0.7744 -0.4083
  939MPD2    C413732   2.728   3.028   1.133 -0.0131  0.0054 -0.4101
  939MPD2    C513733   2.660   3.031   1.252  0.2162  0.2594  0.0793
  939MPD2     H13734   2.474   3.078   0.924 -1.5125 -1.0552  1.5178
  939MPD2    H113735   2.833   3.003   1.130 -0.0500 -0.1762 -0.2310
  939MPD2    H213736   2.482   3.052   1.353  0.9768  0.6114  0.0800
  939MPD2    H313737   2.716   3.027   1.344 -1.6648  1.4838  1.2722
  939MPD2     N13738   2.715   3.032   0.885 -0.0310 -0.0490  0.1431
  939MPD2    H513739   2.652   3.048   0.808  1.3419  2.1536 -0.5139
  939MPD2    N113740   2.318   3.120   1.150 -0.5454  0.0590 -0.2416
  939MPD2    H713741   2.286   3.123   1.247  1.6114  0.3512  0.4659
  940MPD2     C13742   1.565   4.031  12.875 -0.4802  0.5736  0.0616
  940MPD2    C113743   1.652   3.952  12.949  0.1483 -0.0736  0.0362
  940MPD2    C213744   1.725   3.851  12.887 -0.4489 -0.3287  0.4233
  940MPD2    C313745   1.709   3.827  12.758  0.2223 -0.0815 -0.1343
  940MPD2    C413746   1.631   3.912  12.685  0.1117  0.3121  0.0626
  940MPD2    C513747   1.564   4.017  12.742 -0.8261 -0.1329  0.0874
  940MPD2     H13748   1.798   3.803  12.951 -1.3920  1.9877  3.2709
  940MPD2    H113749   1.612   3.893  12.580  2.1845 -1.1883 -0.0427
  940MPD2    H213750   1.502   4.109  12.917 -1.9075 -0.7782  0.4278
  940MPD2    H313751   1.506   4.079  12.674  3.0536  1.8149 -1.5195
  940MPD2     N13752   1.770   3.727  12.688 -0.1279 -0.7513 -0.9613
  940MPD2    H513753   1.746   3.720  12.589 -2.0792 -0.0954 -0.5441
  940MPD2    N113754   1.658   3.967  13.087 -0.1430 -0.1304  0.1332
  940MPD2    H713755   1.731   3.910  13.129 -0.6776 -1.8666 -1.2537
  941MPD2     C13756   1.722   2.855   9.363 -0.2248 -0.2250  0.3652
  941MPD2    C113757   1.676   2.882   9.491 -0.3443  0.0861 -0.0216
  941MPD2    C213758   1.557   2.817   9.526 -0.7087  0.3540  0.2842
  941MPD2    C313759   1.490   2.726   9.447  0.8770  0.5112  0.6488
  941MPD2    C413760   1.545   2.706   9.325  0.0341  0.3362 -0.0604
  941MPD2    C513761   1.671   2.757   9.288 -0.3307 -0.8743 -0.8485
  941MPD2     H13762   1.531   2.842   9.629  1.0494  0.1572  0.7676
  941MPD2    H113763   1.496   2.641   9.254 -1.8649  0.5046  1.0999
  941MPD2    H213764   1.814   2.901   9.328 -2.2403  1.1851 -3.1661
  941MPD2    H313765   1.710   2.739   9.188  1.0789  1.0341 -0.6404
  941MPD2     N13766   1.370   2.661   9.482 -0.2246 -0.0054 -0.1764
  941MPD2    H513767   1.328   2.600   9.412 -1.3253 -0.4646  0.8823
  941MPD2    N113768   1.732   2.965   9.593 -0.2829  0.2957  0.8220
  941MPD2    H713769   1.686   2.978   9.682 -2.1247 -0.7619  0.0160
  942MPD2     C13770   0.686   4.103   9.552 -0.2495 -0.3667  0.1249
  942MPD2    C113771   0.742   4.037   9.444  0.3761  0.7615  0.2663
  942MPD2    C213772   0.876   4.021   9.435  1.4018  0.5232  0.7245
  942MPD2    C313773   0.964   4.075   9.525  0.3979  0.2628  0.2785
  942MPD2    C413774   0.909   4.146   9.632  0.0316  0.2276  0.3752
  942MPD2    C513775   0.773   4.159   9.643 -0.3533 -0.5511 -0.4168
  942MPD2     H13776   0.905   3.961   9.349 -1.1856 -0.0981  0.2952
  942MPD2    H113777   0.972   4.205   9.698  0.1772  0.0726  0.3754
  942MPD2    H213778   0.585   4.141   9.558 -0.5103 -0.7615 -1.9186
  942MPD2    H313779   0.726   4.223   9.716 -1.0837 -3.5139  1.7202
  942MPD2     N13780   1.100   4.069   9.508  0.3983  0.2607 -0.4570
  942MPD2    H513781   1.147   4.117   9.584 -1.8066 -0.0841  1.1301
  942MPD2    N113782   0.665   3.981   9.346 -0.6732  0.1031 -0.0082
  942MPD2    H713783   0.710   3.916   9.282 -0.6197 -1.7226  1.8884
  943MPD2     C13784   0.548   2.650   9.668  0.1195  0.7347  0.1178
  943MPD2    C113785   0.466   2.699   9.573 -0.0319 -0.0244 -0.1654
  943MPD2    C213786   0.506   2.819   9.520 -0.4432  0.9583 -0.1543
  943MPD2    C313787   0.601   2.906   9.574  0.5271 -0.0710 -0.7510
  943MPD2    C413788   0.679   2.857   9.683 -0.5119  0.3326 -0.3077
  943MPD2    C513789   0.653   2.725   9.718 -0.4574 -0.6240  0.6091
  943MPD2     H13790   0.444   2.851   9.436 -3.4651  0.4169  1.8497
  943MPD2    H113791   0.760   2.917   9.723 -0.1045 -0.8576  0.6707
  943MPD2    H213792   0.544   2.550   9.711 -0.3733  0.9260  0.5096
  943MPD2    H313793   0.723   2.665   9.775  1.2791  1.4455  0.6688
  943MPD2     N13794   0.618   3.037   9.525 -0.3649  0.0459  0.7860
  943MPD2    H513795   0.702   3.087   9.553  0.2127 -1.4540  1.7878
  943MPD2    N113796   0.360   2.615   9.521 -0.3746 -0.1373  0.1347
  943MPD2    H713797   0.351   2.524   9.566 -2.6005 -0.9854 -2.0047
  944MPD2     C13798   4.137   2.002  11.379 -0.7777  0.4419 -1.0508
  944MPD2    C113799   4.177   2.078  11.264  0.0258  0.0192  0.3860
  944MPD2    C213800   4.093   2.184  11.231 -0.1823 -0.3031 -0.3298
  944MPD2    C313801   3.982   2.211  11.309 -0.1771  0.1381 -0.2773
  944MPD2    C413802   3.955   2.150  11.429  0.6660 -0.0596  0.1692
  944MPD2    C513803   4.037   2.043  11.462 -0.8164  0.8464 -0.2251
  944MPD2     H13804   4.111   2.246  11.144 -1.8566 -1.9697 -1.8679
  944MPD2    H113805   3.870   2.163  11.495  0.1475  1.0298 -0.7257
  944MPD2    H213806   4.203   1.919  11.401  0.6480  1.6989 -0.6314
  944MPD2    H313807   4.029   1.987  11.554  0.0414  2.9451  1.1453
  944MPD2     N13808   3.898   2.318  11.274 -0.2971  0.3110 -0.2173
  944MPD2    H513809   3.930   2.380  11.200 -0.6819  1.4629  0.5762
  944MPD2    N113810   4.287   2.031  11.193 -0.2973  0.1924  0.1086
  944MPD2    H713811   4.328   1.940  11.211 -0.6281  0.2401  1.0939
    1TCq1    O113812   1.802   2.684  14.110 -0.3214  0.0123  0.3364
    1TCq1    C113813   1.868   2.575  14.156  0.4196  0.2367  0.7601
    1TCq1    O213814   1.834   2.463  14.123 -0.1825  0.9517 -0.5747
    1TCq1    C213815   1.921   2.600  14.290 -0.3145  0.1610  0.6419
    1TCq1    C313816   1.899   2.499  14.380  0.3101 -0.4116  0.7697
    1TCq1    C413817   1.938   2.522  14.508 -0.1288  0.1991 -0.5396
    1TCq1    C513818   1.981   2.650  14.548 -0.1607 -0.6222  0.0339
    1TCq1    C613819   2.004   2.746  14.453 -0.2178  0.6962  0.1196
    1TCq1    C713820   1.975   2.720  14.323 -0.3905  0.2076 -0.7085
    1TCq1    C813821   2.055   2.873  14.501  0.0606 -0.2224 -0.0596
    1TCq1    O413822   2.020   2.896  14.618  0.3330  0.0534 -0.5692
    1TCq1    C913823   1.914   2.408  14.601  0.4806 -0.5300  0.2204
    1TCq1    O513824   1.933   2.441  14.722 -0.3228 -0.0873 -0.4629
    1TCq1    O613825   1.834   2.318  14.565  0.3537 -0.4326 -0.2070
    1TCq1    H113826   1.778   2.751  14.178 -0.9106 -1.2579  1.3883
    1TCq1    H213827   1.857   2.404  14.350 -1.5831  1.0142 -1.0155
    1TCq1    H313828   2.011   2.663  14.651  1.2620 -0.5013 -0.4081
    1TCq1    H413829   2.010   2.790  14.248  1.1802  2.3981  2.0932
    2MPD2     C13830   2.293   3.322  14.510 -0.0123 -0.1675  0.5320
    2MPD2    C113831   2.271   3.289  14.378  0.3414  0.2846 -0.5696
    2MPD2    C213832   2.214   3.169  14.350  0.0618 -0.4296  0.6488
    2MPD2    C313833   2.181   3.076  14.446 -0.3501 -0.3411 -0.0781
    2MPD2    C413834   2.204   3.111  14.579  0.9205 -0.7184  0.6496
    2MPD2    C513835   2.259   3.231  14.610 -0.3359 -0.6711 -0.4445
    2MPD2     H13836   2.186   3.148  14.247 -3.2595 -0.9699  1.6761
    2MPD2    H113837   2.194   3.040  14.661  0.8354  0.2368  1.4673
    2MPD2    H213838   2.345   3.410  14.546  1.3657 -0.3623 -1.0034
    2MPD2    H313839   2.284   3.255  14.713  0.1351  1.3908 -1.0507
    2MPD2     N13840   2.122   2.953  14.408  0.2943 -0.0560 -0.5330
    2MPD2    H513841   2.120   2.940  14.307 -0.0300 -2.3848 -0.2186
    2MPD2    N113842   2.301   3.391  14.288  0.6080 -0.0487  0.0893
    2MPD2    H713843   2.365   3.465  14.315 -0.8794  1.9145 -1.7615
    3TMC2    C113844   2.311   3.497  14.080  0.5316 -0.3060  0.0507
    3TMC2    C213845   2.356   3.607  14.141 -0.3770  0.6748  0.3792
    3TMC2    C313846   2.420   3.706  14.068 -0.0112  0.0788  0.0208
    3TMC2    C413847   2.304   3.498  13.941  1.1013 -0.2633  0.1409
    3TMC2    C513848   2.354   3.604  13.870  0.0293  0.2384 -0.4291
    3TMC2    C613849   2.420   3.706  13.933  0.7651 -0.4098  0.1586
    3TMC2     C13850   2.255   3.391  14.160  0.4145 -0.3008  0.1020
    3TMC2     O13851   2.171   3.319  14.106 -0.2751 -0.1547  0.7618
    3TMC2     H13852   2.350   3.630  14.247 -0.4160  1.5324  0.1920
    3TMC2    H113853   2.261   3.410  13.895  0.2797  1.6635 -2.8265
    3TMC2    H213854   2.471   3.785  13.878  0.7262 -0.1734  0.4636
    3TMC2    C713855   2.299   3.632  13.739 -0.9023 -0.1728 -0.3330
    3TMC2    C813856   2.476   3.818  14.136  0.2023  0.2793  0.4807
    3TMC2    O113857   2.314   3.551  13.648  0.3834  0.1120 -0.6497
    3TMC2    O213858   2.463   3.928  14.083 -0.1515  0.2328 -0.1379
    3TMC2    O513859   2.537   3.792  14.252 -0.5836  0.3916  0.1367
    3TMC2    H513860   2.541   3.696  14.271  1.4985  0.3975 -0.2560
    4MPD2     C13861   1.516   0.310  13.655 -0.3380  0.5418  0.6338
    4MPD2    C113862   1.543   0.248  13.532  0.4591  0.3556 -0.1473
    4MPD2    C213863   1.630   0.142  13.528  0.3237  0.3376 -0.0707
    4MPD2    C313864   1.688   0.103  13.648 -0.3595 -0.2640 -0.0971
    4MPD2    C413865   1.654   0.163  13.768 -0.3056  0.2707  0.6485
    4MPD2    C513866   1.567   0.272  13.771  0.0115 -0.8857  0.1322
    4MPD2     H13867   1.658   0.093  13.436  1.1094 -0.4403  0.5858
    4MPD2    H113868   1.683   0.124  13.865  1.5236  0.1576  0.0490
    4MPD2    H213869   1.442   0.390  13.657 -0.3101  0.5939 -0.6261
    4MPD2    H313870   1.558   0.334  13.860  1.8778 -0.3083 -0.0757
    4MPD2     N13871   1.783   4.720  13.641  0.4843 -0.1747 -0.1018
    4MPD2    H513872   1.826   4.696  13.552  1.3683 -2.1760  0.8687
    4MPD2    N113873   1.485   0.304  13.413  0.3993  0.5785  0.5592
    4MPD2    H713874   1.428   0.386  13.431  0.8950  0.2887  3.4576
    5TCq2    C113875   1.851   4.665  13.745  0.2386 -0.1954 -0.7440
    5TCq2    O213876   1.816   4.651  13.863  0.5306  0.0058  0.7703
    5TCq2    C213877   1.970   4.605  13.696 -0.4848  0.0873  0.1448
    5TCq2    C313878   2.014   4.648  13.575 -0.3698 -0.3515  0.8204
    5TCq2    C413879   2.091   4.579  13.489 -0.8770 -0.5613 -0.5620
    5TCq2    C513880   2.125   4.445  13.524  0.5435 -0.0755  0.2128
    5TCq2    C613881   2.077   4.401  13.642  0.1273 -0.8200  0.3904
    5TCq2    C713882   1.997   4.473  13.733  0.3390 -0.5001  0.1749
    5TCq2    C813883   2.107   4.262  13.673 -0.1887 -0.6976  0.8667
    5TCq2    O413884   2.104   4.230  13.789 -0.1822 -0.2026 -0.0663
    5TCq2    C913885   2.147   4.645  13.371 -0.4463  0.7090 -0.4660
    5TCq2    O513886   2.138   0.049  13.365 -0.7284  0.1814  0.2037
    5TCq2    O613887   2.185   4.568  13.278  0.5031  0.4740 -0.7937
    5TCq2    H213888   1.999   0.029  13.546  2.1728  0.3792  2.0584
    5TCq2    H313889   2.202   4.398  13.464 -0.7460 -0.1934 -1.3301
    5TCq2    H413890   1.940   4.427  13.813  1.3911  0.4922  1.4909
    6MPD1     C13891   0.770   1.686  12.322  0.4788  0.2293  0.4302
    6MPD1    C113892   0.800   1.746  12.442  0.0447  0.5756 -0.6409
    6MPD1    C213893   0.838   1.662  12.549 -0.5060  0.0751 -0.3464
    6MPD1    C313894   0.852   1.525  12.528 -0.2190 -0.0425  0.0056
    6MPD1    C413895   0.823   1.473  12.403 -0.3336  0.7353  0.0048
    6MPD1    C513896   0.778   1.548  12.298  1.2080  0.1346 -0.3374
    6MPD1     H13897   0.869   1.702  12.644 -0.9195  0.5448 -0.4084
    6MPD1    H113898   0.841   1.369  12.377 -1.0477  0.6405 -0.1229
    6MPD1    H213899   0.748   1.745  12.234  0.9844  0.7836  0.6746
    6MPD1    H313900   0.748   1.516  12.199 -3.0186  2.2561  0.2246
    6MPD1     N13901   0.914   1.438  12.633 -0.6554 -0.0028  0.0917
    6MPD1    H513902   0.931   1.344  12.599 -1.9458 -0.8762  1.8172
    6MPD1    N113903   0.784   1.889  12.467 -0.0690  0.2099 -0.0852
    6MPD1    H613904   0.804   1.942  12.383 -1.0423  0.9442  0.1541
    6MPD1    H713905   0.839   1.916  12.548  0.5782  0.9074 -0.7538
    7MPD2     C13906   1.087   1.014  13.359 -1.4663 -0.1257 -0.9033
    7MPD2    C113907   1.096   0.973  13.230 -0.2394 -0.1782  0.3007
    7MPD2    C213908   1.111   0.839  13.205 -0.0982 -0.0846 -0.5637
    7MPD2    C313909   1.122   0.743  13.307  0.5926  0.0040  0.1674
    7MPD2    C413910   1.097   0.791  13.430  0.6151  0.5935  0.2958
    7MPD2    C513911   1.094   0.923  13.461  0.2409  0.2175  0.3542
    7MPD2     H13912   1.143   0.820  13.103  0.3495 -0.5570 -0.3350
    7MPD2    H113913   1.093   0.722  13.514 -0.9345 -1.1609 -1.2170
    7MPD2    H213914   1.103   1.115  13.393 -0.0341 -0.5419 -0.3239
    7MPD2    H313915   1.095   0.952  13.565  0.0171 -0.5539  0.5693
    7MPD2     N13916   1.135   0.607  13.289  0.2477 -0.4862 -0.1265
    7MPD2    H513917   1.136   0.551  13.374 -1.9838 -0.9511 -0.3762
    7MPD2    N113918   1.100   1.065  13.124 -0.2252 -0.0982  0.2747
    7MPD2    H713919   1.114   1.029  13.030 -1.4181 -1.2746  0.5458
    8TMC3    C113920   1.188   0.420  13.156 -0.2145 -0.1650 -0.0599
    8TMC3    C213921   1.281   0.379  13.247  0.1220  0.2291 -0.7535
    8TMC3    C313922   1.385   0.304  13.193 -0.4046  0.9418 -0.4153
    8TMC3    C413923   1.187   0.374  13.027 -0.2491  0.1117  0.0973
    8TMC3    C513924   1.297   0.320  12.980 -0.1626 -1.0619  0.5870
    8TMC3    C613925   1.397   0.278  13.061 -0.3611 -0.3066 -0.6588
    8TMC3     C13926   1.130   0.550  13.164 -0.7326 -0.2036  0.2264
    8TMC3     O13927   1.118   0.605  13.053 -0.7447  0.0635  0.4036
    8TMC3     H13928   1.301   0.438  13.336  2.4268  1.3775 -2.0148
    8TMC3    H113929   1.111   0.384  12.950  0.9091  0.0355 -1.0600
    8TMC3    H213930   1.493   0.244  13.023  0.5586 -0.8891  2.1847
    8TMC3    C713931   1.343   0.381  12.852 -0.1599 -0.4326 -0.4909
    8TMC3    C813932   1.485   0.252  13.288  0.3166 -0.3316 -0.7404
    8TMC3    O113933   1.411   0.316  12.775 -0.1744  0.1150  0.2087
    8TMC3    O213934   1.557   0.160  13.245  0.0921 -0.1382 -0.1359
    9TMC3    C113935   1.034   1.354  12.807 -0.4127  0.0835 -0.5365
    9TMC3    C213936   1.116   1.276  12.725  0.1388  0.2371  0.2989
    9TMC3    C313937   1.193   1.187  12.779  0.0721  0.0187  0.0808
    9TMC3    C413938   1.021   1.343  12.943 -0.8694  0.1370 -0.1120
    9TMC3    C513939   1.103   1.249  12.995  0.3307 -0.3721 -0.4454
    9TMC3    C613940   1.183   1.168  12.916 -0.2956  0.4255 -0.7679
    9TMC3     C13941   0.958   1.462  12.753  0.4871  0.4400 -0.7557
    9TMC3     O13942   0.931   1.558  12.830 -0.2077 -0.3238 -0.3443
    9TMC3     H13943   1.109   1.285  12.618  2.1006  0.3901  0.1829
    9TMC3    H113944   0.955   1.399  13.008  1.5033  0.0273  2.3982
    9TMC3    H213945   1.260   1.113  12.969 -2.4771 -2.8495 -1.0266
    9TMC3    C713946   1.079   1.202  13.130 -0.3261  0.2300 -0.4793
    9TMC3    C813947   1.239   1.078  12.691  0.5235 -0.4189 -0.7970
    9TMC3    O113948   1.047   1.272  13.229 -0.3269  0.2451  0.6744
    9TMC3    O213949   1.259   1.108  12.574 -0.0379 -0.0353  0.2442
   10MPD2     C13950   1.342   0.575  12.609  0.1046  0.2868  0.5442
   10MPD2    C113951   1.312   0.597  12.740  0.3397  0.1218 -0.0851
   10MPD2    C213952   1.289   0.730  12.775 -0.3387 -0.3625 -0.8225
   10MPD2    C313953   1.299   0.843  12.696 -1.2353  0.1094 -0.2037
   10MPD2    C413954   1.316   0.817  12.568 -0.0781 -0.2444 -0.4139
   10MPD2    C513955   1.337   0.684  12.526 -0.2540  0.6040 -0.3698
   10MPD2     H13956   1.263   0.739  12.880 -2.6558 -2.9536 -1.1903
   10MPD2    H113957   1.311   0.892  12.491 -2.2405 -1.5061 -1.4905
   10MPD2    H213958   1.370   0.478  12.570  1.2501 -0.0526  2.2018
   10MPD2    H313959   1.354   0.666  12.420 -1.7053 -0.7271 -0.3827
   10MPD2     N13960   1.274   0.965  12.757 -0.4022  0.3704  0.5650
   10MPD2    H513961   1.259   0.966  12.857  0.4877  0.5576  0.7038
   10MPD2    N113962   1.298   0.509  12.848 -0.1613 -0.3839  0.1951
   10MPD2    H713963   1.250   0.542  12.932  1.4981 -1.3050  1.5132
   11MPD2     C13964   2.189   3.790  13.509 -0.5653 -0.6680  0.3271
   11MPD2    C113965   2.199   3.839  13.635  0.3304  0.5019 -0.1854
   11MPD2    C213966   2.163   3.972  13.659  0.5304  0.2056 -0.1726
   11MPD2    C313967   2.122   4.047  13.552  0.1534  0.5519 -0.4445
   11MPD2    C413968   2.108   3.991  13.430 -0.6115 -0.4315  0.2026
   11MPD2    C513969   2.144   3.862  13.404  0.1050 -0.0377  0.0759
   11MPD2     H13970   2.182   4.012  13.758  1.3177  0.2053 -0.3238
   11MPD2    H113971   2.080   4.045  13.341  1.6739  0.4880  0.0194
   11MPD2    H213972   2.209   3.687  13.483 -1.9244 -0.7354 -0.4333
   11MPD2    H313973   2.134   3.823  13.303 -0.5973  0.5117 -0.0644
   11MPD2     N13974   2.105   4.190  13.555 -0.7743 -0.0040 -0.1502
   11MPD2    H513975   2.098   4.237  13.465  0.6400  0.2819 -0.1152
   11MPD2    N113976   2.246   3.756  13.742  0.1014 -0.0624  0.0698
   11MPD2    H713977   2.232   3.784  13.839 -1.6686  0.1136 -0.2364
    1MPD1     C13978   4.069   0.633  16.434 -0.5059  0.1722 -0.1325
    1MPD1    C113979   4.189   0.698  16.421  0.4272 -0.5885  0.4797
    1MPD1    C213980   4.251   0.742  16.535 -0.3362 -0.6379 -0.0519
    1MPD1    C313981   4.201   0.702  16.663  0.2902 -0.4055 -0.2783
    1MPD1    C413982   4.085   0.630  16.665 -0.2756  0.1303  0.6400
    1MPD1    C513983   4.016   0.597  16.553 -0.1327 -0.9017 -0.4261
    1MPD1     H13984   4.346   0.794  16.526  0.2159 -1.0266  3.3431
    1MPD1    H113985   4.043   0.603  16.761  0.6454 -0.3964  0.8979
    1MPD1    H213986   4.030   0.601  16.338 -0.8627 -1.3493  0.5151
    1MPD1    H313987   3.939   0.522  16.560 -0.0301 -1.0651 -1.0323
    1MPD1     N13988   4.265   0.735  16.788  0.1342  0.4947 -0.4059
    1MPD1    H513989   4.226   0.708  16.878 -2.5462  1.9081 -1.1532
    1MPD1    N113990   4.251   0.718  16.300 -0.0120  0.2267  0.7620
    1MPD1    H613991   4.319   0.793  16.308 -0.7583  1.0580 -0.6011
    1MPD1    H713992   4.185   0.733  16.224 -0.8836 -5.5192  0.3322
    2MPD1     C13993   4.256   0.524   0.060  0.0784  0.0848 -0.6411
    2MPD1    C113994   4.383   0.580   0.048 -0.2393  0.1106 -1.0365
    2MPD1    C213995   4.421   0.628  17.617 -0.6455 -0.4536 -0.2741
    2MPD1    C313996   4.340   0.620  17.502 -0.3148  0.1756  0.0908
    2MPD1    C413997   4.225   0.557  17.511  0.0343 -0.3926  0.6467
    2MPD1    C513998   4.178   0.507  17.633 -0.3567 -0.0056  0.1284
    2MPD1     H13999   4.522   0.667  17.622 -1.4787  1.6028  0.5884
    2MPD1    H114000   4.155   0.544  17.430  1.7416 -2.3600 -0.4905
    2MPD1    H214001   4.222   0.489   0.157 -0.9222 -0.8219 -1.3173
    2MPD1    H314002   4.084   0.454  17.643 -1.2355  1.5900  0.2799
    2MPD1     N14003   4.396   0.658  17.374 -0.4836  0.2362 -0.1957
    2MPD1    H514004   4.483   0.709  17.380 -0.7294  0.4448  1.4153
    2MPD1    N114005   4.458   0.607   0.157 -0.2557  0.0754 -0.1804
    2MPD1    H614006   4.558   0.608   0.139  0.1874 -4.6190  1.8607
    2MPD1    H714007   4.441   0.546   0.238 -1.9830 -0.6972 -1.1285
    3TMC3    C114008   4.430   0.700  17.154  0.7775 -0.9057  0.0518
    3TMC3    C214009   4.565   0.700  17.158 -0.6637 -0.0792 -0.4100
    3TMC3    C314010   4.635   0.755  17.058 -0.4859 -0.8381  0.1691
    3TMC3    C414011   4.360   0.729  17.036 -0.7413  0.1371  0.5302
    3TMC3    C514012   4.434   0.779  16.933 -0.0246  0.2842 -0.1373
    3TMC3    C614013   4.572   0.789  16.941 -0.3829  0.1290 -0.2960
    3TMC3     C14014   4.353   0.621  17.253  0.1806  0.9518 -0.1322
    3TMC3     O14015   4.248   0.561  17.226 -0.0351 -0.0985 -0.0715
    3TMC3     H14016   4.621   0.658  17.241 -0.7411  0.5353 -0.0420
    3TMC3    H114017   4.252   0.741  17.046 -0.8914  0.3359 -1.4420
    3TMC3    H214018   4.630   0.818  16.854  0.5992 -2.9205 -0.6190
    3TMC3    C714019   4.393   0.785  16.798  0.3395  0.0152  0.3892
    3TMC3    C814020   0.059   0.746  17.049  0.2492  0.6656  0.6138
    3TMC3    O114021   4.475   0.822  16.717  0.5970 -0.4499  0.3365
    3TMC3    O214022   0.108   0.767  16.941 -0.1655  0.3877  0.3156
    4MPD1     C14023   0.530   0.702  17.261 -0.3986  0.0876  0.2396
    4MPD1    C114024   0.442   0.726  17.368 -0.3202  0.1364  0.6370
    4MPD1    C214025   0.308   0.742  17.331 -0.1263  0.1503 -0.4921
    4MPD1    C314026   0.255   0.719  17.204 -0.0628 -0.2784  0.3340
    4MPD1    C414027   0.352   0.709  17.106 -0.3089  0.9005  0.6011
    4MPD1    C514028   0.488   0.686  17.134 -0.0509  0.0524 -0.4616
    4MPD1     H14029   0.244   0.769  17.414  0.4857 -0.0602  0.0512
    4MPD1    H114030   0.331   0.708  16.999  0.7388 -1.3167  0.4131
    4MPD1    H214031   0.637   0.701  17.273 -0.4708 -0.3077  0.8735
    4MPD1    H314032   0.559   0.694  17.053 -1.7374 -2.9628 -2.2523
    4MPD1     N14033   0.118   0.731  17.177  0.4434 -0.4803 -0.0734
    4MPD1    H514034   0.047   0.727  17.249 -1.6527 -4.4245 -2.3807
    4MPD1    N114035   0.489   0.764  17.490  0.5239 -0.2261  0.2127
    4MPD1    H614036   0.421   0.752  17.564  0.8986 -1.6547  0.3207
    4MPD1    H714037   0.573   0.709  17.508 -0.7957 -2.4615 -0.5589
    1TCq1    O114038   0.688   4.233  12.550  0.4597 -0.4143  0.3145
    1TCq1    C114039   0.734   4.303  12.436  0.5129 -0.0780 -0.2620
    1TCq1    O214040   0.669   4.320  12.331 -0.5789 -0.3890 -0.1431
    1TCq1    C214041   0.827   4.407  12.481  0.0626 -0.6093 -0.4122
    1TCq1    C314042   0.914   4.453  12.391 -0.3854 -0.2010  0.2144
    1TCq1    C414043   0.985   4.567  12.419 -0.0943 -0.5976  0.1317
    1TCq1    C514044   0.988   4.620  12.543  0.8500  0.1192 -0.3385
    1TCq1    C614045   0.886   4.583  12.624 -0.2362  0.2227  0.1826
    1TCq1    C714046   0.805   4.474  12.597 -0.5459  0.7909 -0.3549
    1TCq1    C814047   0.900   4.618  12.762 -0.0358 -0.0339  0.1263
    1TCq1    O414048   0.940   0.007  12.789 -0.3868 -0.0004  0.6040
    1TCq1    C914049   1.085   4.608  12.325 -0.3074 -0.8423 -0.0068
    1TCq1    O514050   1.184   4.662  12.375  0.1129 -0.6569 -0.0949
    1TCq1    O614051   1.067   4.598  12.203 -0.4697 -0.2562 -0.2178
    1TCq1    H114052   0.750   4.233  12.626  0.7214 -1.4398  0.1077
    1TCq1    H214053   0.929   4.408  12.293 -1.1082  3.2236 -1.4594
    1TCq1    H314054   1.060   4.699  12.566 -0.0595  0.9383 -0.2912
    1TCq1    H414055   0.720   4.440  12.654 -0.1732 -0.0778 -0.3301
    2MPD1     C14056   0.807   4.526  13.255 -0.0666 -0.5975 -0.3092
    2MPD1    C114057   0.783   4.407  13.188 -0.5606 -0.1087 -0.5186
    2MPD1    C214058   0.793   4.406  13.053 -0.4667  0.1510 -1.2183
    2MPD1    C314059   0.832   4.520  12.990  0.1981  0.4298 -0.3846
    2MPD1    C414060   0.870   4.631  13.063 -0.3374 -0.0852 -0.1500
    2MPD1    C514061   0.859   4.636  13.198  0.1921  0.3522  0.1923
    2MPD1     H14062   0.764   4.318  12.996  0.1329 -0.8168 -0.0475
    2MPD1    H114063   0.932   4.709  13.022 -2.2101  1.4863  0.0173
    2MPD1    H214064   0.791   4.530  13.363 -0.6047 -0.8022 -0.3809
    2MPD1    H314065   0.890   0.000  13.256  2.0627 -1.1198  1.3971
    2MPD1     N14066   0.842   4.522  12.849 -0.6821 -0.0525 -0.6143
    2MPD1    H514067   0.814   4.437  12.802  1.6948 -0.6566 -0.9167
    2MPD1    N114068   0.730   4.300  13.258  0.2341 -0.6621 -0.9184
    2MPD1    H614069   0.740   4.210  13.210 -0.7110 -0.9967 -0.4924
    2MPD1    H714070   0.773   4.296  13.350  1.9331  3.4217 -1.5735
    1TCq1    O114071   0.298   4.443   0.237 -0.0224 -0.1803 -0.0056
    1TCq1    C114072   0.315   4.311   0.207 -0.5817  0.0210 -0.4630
    1TCq1    O214073   0.406   4.259   0.142 -0.6380  0.2609  1.0173
    1TCq1    C214074   0.214   4.222   0.263  0.5059 -0.3658 -0.2071
    1TCq1    C314075   0.238   4.088   0.243  0.3502 -0.8178  0.4026
    1TCq1    C414076   0.148   4.000   0.292  0.6285  0.4495 -0.0194
    1TCq1    C514077   0.072   4.035   0.398  1.0074 -0.6498  0.3678
    1TCq1    C614078   0.059   4.171   0.423 -0.6400 -0.6466 -0.0851
    1TCq1    C714079   0.133   4.269   0.359  0.2319  0.0072 -0.1308
    1TCq1    C814080   4.711   4.206   0.544 -0.3538  0.2106 -0.8871
    1TCq1    O414081   4.674   4.322   0.563 -0.0530  0.1720 -0.6286
    1TCq1    C914082   0.177   3.856   0.269 -0.2787 -0.1885 -0.0529
    1TCq1    O514083   0.245   3.824   0.171  0.0371 -0.2206 -0.4588
    1TCq1    O614084   0.102   3.775   0.328 -0.3644 -0.4267  0.7125
    1TCq1    H114085   0.204   4.469   0.250 -0.3720 -1.5104  0.0924
    1TCq1    H214086   0.312   4.057   0.170  2.6124 -0.0041  2.3316
    1TCq1    H314087   0.006   3.960   0.440  0.9171 -1.1874 -0.7487
    1TCq1    H414088   0.120   4.374   0.385  0.9085 -0.0538  0.4697
    2MPD1     C14089   4.628   4.107   1.036  0.2447 -0.4409 -0.4962
    2MPD1    C114090   4.596   3.992   0.971  1.0099  0.8594  1.1632
    2MPD1    C214091   4.618   3.988   0.837  0.9096 -0.5148  0.1891
    2MPD1    C314092   4.650   4.099   0.766 -0.7457  0.0924 -0.3527
    2MPD1    C414093   4.640   4.223   0.832 -0.1817  1.0077 -0.5860
    2MPD1    C514094   4.644   4.226   0.968  0.2812  0.6281 -0.6468
    2MPD1     H14095   4.604   3.901   0.774  1.5200 -0.8676  0.5442
    2MPD1    H114096   4.661   4.316   0.780  0.2144  0.5447 -1.2606
    2MPD1    H214097   4.631   4.109   1.145 -2.1372 -0.7019 -0.4227
    2MPD1    H314098   4.659   4.319   1.022 -1.5524 -0.3939  1.6707
    2MPD1     N14099   4.691   4.095   0.628  0.1477  0.0611  0.1713
    2MPD1    H514100   4.719   4.004   0.593 -1.0622  0.1226 -0.9351
    2MPD1    N114101   4.597   3.871   1.046  0.3050 -0.4558  0.0226
    2MPD1    H614102   4.558   3.887   1.139 -1.0857 -0.9299 -0.4787
    2MPD1    H714103   4.554   3.800   0.988 -0.3957 -0.2458  0.2849
    1MPD1     C14104   1.710   0.861  11.984 -0.4531 -0.0199 -0.5750
    1MPD1    C114105   1.735   0.944  12.090 -0.1635  0.1980  0.5316
    1MPD1    C214106   1.872   0.968  12.114 -0.4759  0.4310 -0.3425
    1MPD1    C314107   1.971   0.889  12.061  0.1307 -0.0094  0.3503
    1MPD1    C414108   1.938   0.794  11.967  0.0738  0.1716  0.2712
    1MPD1    C514109   1.814   0.788  11.926 -0.2849  0.1441  0.5465
    1MPD1     H14110   1.904   1.041  12.188 -0.3147  0.5637 -0.5423
    1MPD1    H114111   2.012   0.743  11.906 -0.1021 -0.4116  0.5483
    1MPD1    H214112   1.609   0.845  11.949  0.0700 -0.9118 -1.6929
    1MPD1    H314113   1.794   0.732  11.835 -1.2218  0.0693  0.7955
    1MPD1     N14114   2.103   0.925  12.099  0.4877  0.3553 -0.5035
    1MPD1    H514115   2.118   1.009  12.155 -0.0632  0.2513 -0.2073
    1MPD1    N114116   1.638   1.031  12.138 -0.7631  0.3652  0.0354
    1MPD1    H614117   1.646   1.065  12.234 -1.9591 -0.7986  0.5530
    1MPD1    H714118   1.543   1.000  12.119 -0.1930 -1.3462  0.0541
    2MPD1     C14119   2.115   1.355  10.283  0.4677  0.2326  0.2353
    2MPD1    C114120   2.251   1.328  10.288 -0.4106 -1.1362 -0.3009
    2MPD1    C214121   2.299   1.274  10.406  0.1730  0.0220 -0.2338
    2MPD1    C314122   2.211   1.228  10.505  0.0824 -0.2180  0.1025
    2MPD1    C414123   2.072   1.248  10.498 -0.4190  0.8404  0.3521
    2MPD1    C514124   2.022   1.305  10.378 -0.1900  0.0720  0.4851
    2MPD1     H14125   2.405   1.256  10.416  0.7572  1.2608 -4.0128
    2MPD1    H114126   1.999   1.209  10.567 -0.7379  1.0175  0.1139
    2MPD1    H214127   2.080   1.403  10.193  0.6208 -0.9658 -0.4568
    2MPD1    H314128   1.916   1.302  10.357  0.0197  0.5570 -0.6409
    2MPD1     N14129   2.265   1.178  10.626 -0.5232 -0.3382 -0.0363
    2MPD1    H514130   2.198   1.126  10.683  0.6707 -2.2156 -0.3319
    2MPD1    N114131   2.327   1.383  10.189  0.1986 -0.3785 -0.3519
    2MPD1    H614132   2.419   1.339  10.191 -0.7585 -2.3734  0.3347
    2MPD1    H714133   2.290   1.390  10.095 -0.5371  1.3420  0.0711
    3MPD1     C14134   2.273   0.256  11.005 -0.1678 -0.0393 -0.5111
    3MPD1    C114135   2.307   0.335  11.114 -0.1796  0.4242 -0.0699
    3MPD1    C214136   2.366   0.457  11.083  0.2830  0.5840  0.0348
    3MPD1    C314137   2.357   0.516  10.960 -0.6318  0.0619 -1.0474
    3MPD1    C414138   2.321   0.434  10.859 -0.4465 -0.0885  0.2785
    3MPD1    C514139   2.275   0.309  10.885 -0.2582  1.4699  0.2373
    3MPD1     H14140   2.418   0.506  11.165  0.1183 -3.7547  2.7199
    3MPD1    H114141   2.323   0.469  10.756  1.0710  0.0937  0.3724
    3MPD1    H214142   2.246   0.153  11.023  0.3431 -0.1571 -0.4250
    3MPD1    H314143   2.244   0.243  10.804 -1.1414  3.0664 -0.7183
    3MPD1     N14144   2.386   0.657  10.937  0.1885  0.4423  0.0800
    3MPD1    H514145   2.404   0.706  11.024  1.0519 -1.1347  0.8084
    3MPD1    N114146   2.317   0.276  11.239 -0.3930 -0.0276  0.4453
    3MPD1    H614147   2.246   0.203  11.243 -1.0368  0.4520 -2.5858
    3MPD1    H714148   2.290   0.340  11.314 -0.8292 -0.5318  0.7184
    4MPD2     C14149   2.707   1.351  12.045  0.1317 -0.2283  0.1557
    4MPD2    C114150   2.754   1.228  12.090  0.1036  0.0284 -0.5168
    4MPD2    C214151   2.873   1.183  12.036  0.2207 -0.0868 -0.1462
    4MPD2    C314152   2.939   1.258  11.942 -0.3845  0.1086  0.3744
    4MPD2    C414153   2.905   1.395  11.922  0.2941  0.4089 -0.0263
    4MPD2    C514154   2.780   1.434  11.964 -0.4110  0.5581 -0.0411
    4MPD2     H14155   2.911   1.084  12.059 -0.2004 -0.1707  0.1835
    4MPD2    H114156   2.956   1.456  11.848 -1.5569  1.1728 -0.6716
    4MPD2    H214157   2.613   1.393  12.079  0.0881  0.8750 -1.3554
    4MPD2    H314158   2.745   1.529  11.924  1.5000  0.4493 -1.9650
    4MPD2     N14159   3.044   1.191  11.872  0.1341  0.1413  0.0771
    4MPD2    H514160   3.066   1.094  11.889  1.1614  0.1883 -0.9594
    4MPD2    N114161   2.674   1.137  12.165  0.0294 -0.3013  0.1011
    4MPD2    H714162   2.721   1.048  12.177  0.3178 -0.1634  0.0001
    5TMC3    C114163   2.478   1.028  12.243 -0.0949  0.0618 -0.6491
    5TMC3    C214164   2.357   1.013  12.184 -0.1072  0.0385 -0.4937
    5TMC3    C314165   2.339   0.888  12.123  0.0181 -0.3799  0.1293
    5TMC3    C414166   2.581   0.934  12.245 -0.1021 -1.0490 -0.3103
    5TMC3    C514167   2.560   0.815  12.178 -0.2082 -0.2445 -0.4743
    5TMC3    C614168   2.441   0.801  12.112 -0.2037  0.4769  0.1571
    5TMC3     C14169   2.538   1.152  12.203 -0.3792 -0.0086 -0.0429
    5TMC3     O14170   2.448   1.231  12.175 -0.1239  0.1820  0.1832
    5TMC3     H14171   2.287   1.095  12.174  0.6415  1.0179  2.1977
    5TMC3    H114172   2.669   0.946  12.307 -0.8728  0.5894  0.4487
    5TMC3    H214173   2.428   0.701  12.072 -0.3059  1.0571 -1.2597
    5TMC3    C714174   2.672   0.778  12.103  0.6137 -0.9712  0.2297
    5TMC3    C814175   2.213   0.840  12.075  0.3455 -0.1568 -0.0314
    5TMC3    O114176   2.765   0.855  12.112  0.2864  0.5672 -0.3205
    5TMC3    O214177   2.217   0.737  12.012 -0.1310  0.9457  0.2845
    6TMC3    C114178   2.419   1.094  10.785 -0.4030  0.2105 -0.2502
    6TMC3    C214179   2.370   0.969  10.767 -0.4929  0.4919  0.4294
    6TMC3    C314180   2.417   0.874  10.847 -0.1809 -0.0372  0.5791
    6TMC3    C414181   2.524   1.125  10.865 -0.1111  0.9510 -0.3734
    6TMC3    C514182   2.578   1.018  10.936 -0.2423  0.2804 -0.0204
    6TMC3    C614183   2.521   0.894  10.933  0.0715 -1.0765  0.2006
    6TMC3     C14184   2.394   1.186  10.680 -0.5973 -0.5549  0.6712
    6TMC3     O14185   2.483   1.265  10.652 -1.5595  0.5967  0.1323
    6TMC3     H14186   2.287   0.940  10.704  0.0796 -0.6956  0.2046
    6TMC3    H114187   2.549   1.228  10.888  1.5769  0.4386  0.1034
    6TMC3    H214188   2.572   0.811  10.980 -2.8181 -1.6352  2.3439
    6TMC3    C714189   2.705   1.030  10.998 -0.4213 -0.0137 -0.0365
    6TMC3    C814190   2.366   0.733  10.826 -0.3796 -0.2322 -0.6086
    6TMC3    O114191   2.729   0.948  11.089  0.0014  0.0660  0.0231
    6TMC3    O214192   2.314   0.702  10.720 -0.2491  0.3488 -0.1901
    7MPD2     C14193   2.944   0.513  11.742  0.2658  0.4154 -0.7706
    7MPD2    C114194   2.951   0.638  11.801 -0.0262  0.0065  0.4494
    7MPD2    C214195   2.862   0.687  11.889 -0.1600 -0.4418  0.0676
    7MPD2    C314196   2.758   0.609  11.939 -0.4775  0.2408  0.1758
    7MPD2    C414197   2.752   0.481  11.896 -0.4282 -0.2294  0.1533
    7MPD2    C514198   2.847   0.432  11.804  0.5715 -0.4925  0.0463
    7MPD2     H14199   2.874   0.789  11.925  2.3328 -0.6777 -0.1279
    7MPD2    H114200   2.684   0.415  11.948  1.8638 -1.4493  1.5835
    7MPD2    H214201   2.999   0.486  11.653  1.1998 -0.2017 -0.0109
    7MPD2    H314202   2.838   0.327  11.779 -0.7775 -0.4590  0.3969
    7MPD2     N14203   2.668   0.655  12.036  0.0045  0.7036  0.0610
    7MPD2    H514204   2.607   0.580  12.066 -0.8702  1.6177  0.5437
    7MPD2    N114205   3.049   0.715  11.743  0.1776  0.1135 -0.2194
    7MPD2    H714206   3.101   0.679  11.663  0.1888 -1.2944  0.4276
    8TMC3    C114207   3.172   0.909  11.707 -0.0090 -0.6564  0.2230
    8TMC3    C214208   3.146   0.905  11.573  0.2233 -0.1160 -0.0462
    8TMC3    C314209   3.146   1.025  11.505 -0.3450 -0.2702 -0.2676
    8TMC3    C414210   3.201   1.028  11.773 -0.3333 -0.0506  0.0117
    8TMC3    C514211   3.188   1.144  11.699  0.7148  0.2628  0.5699
    8TMC3    C614212   3.169   1.145  11.567 -0.2864  0.5988 -0.0806
    8TMC3     C14213   3.080   0.844  11.784  0.0715 -1.2294  0.5994
    8TMC3     O14214   3.037   0.919  11.869  0.2979  0.3568  0.3210
    8TMC3     H14215   3.113   0.822  11.512 -0.1388  1.5762 -2.1463
    8TMC3    H114216   3.224   1.033  11.878  0.6717 -0.9908 -0.1601
    8TMC3    H214217   3.145   1.241  11.523 -0.6963  0.6756  0.3056
    8TMC3    C714218   3.114   1.245  11.773 -0.5763 -0.6979  0.0066
    8TMC3    C814219   3.088   1.032  11.372  0.3781 -0.2112  0.7272
    8TMC3    O114220   3.127   1.362  11.739 -0.2038  0.0736  0.2805
    8TMC3    O214221   3.027   0.935  11.338 -0.2035 -0.3082 -0.1866
    9MPD2     C14222   3.142   1.282  11.103  0.0807 -0.1450  0.1373
    9MPD2    C114223   3.082   1.184  11.177  0.2105 -0.0413 -0.3493
    9MPD2    C214224   2.960   1.135  11.123 -1.0951  0.1141 -0.3245
    9MPD2    C314225   2.905   1.179  11.004  0.4914 -0.0757  0.3117
    9MPD2    C414226   2.959   1.295  10.943 -0.1101  0.5175 -0.0588
    9MPD2    C514227   3.088   1.328  10.989  0.7546 -0.6180  0.2282
    9MPD2     H14228   2.910   1.053  11.171  3.5403 -0.9983  2.6353
    9MPD2    H114229   2.925   1.343  10.851 -0.1534 -0.1308 -0.3806
    9MPD2    H214230   3.235   1.334  11.124  1.4643 -2.1045 -1.1059
    9MPD2    H314231   3.147   1.411  10.953  0.1620 -0.3689 -0.1770
    9MPD2     N14232   2.782   1.132  10.946 -0.0811 -0.7295 -0.2739
    9MPD2    H514233   2.746   1.178  10.862  1.2836 -0.7651 -0.8865
    9MPD2    N114234   3.140   1.139  11.300 -0.1046  0.1843  0.5705
    9MPD2    H714235   3.214   1.198  11.336  1.4968 -0.7847 -1.1524
    1MPD1     C14236   3.599   3.565  17.372  0.4760  0.3816 -0.5423
    1MPD1    C114237   3.555   3.687  17.332  0.2635 -0.3128  0.2996
    1MPD1    C214238   3.517   3.781  17.433  0.3078  0.5160 -0.4691
    1MPD1    C314239   3.542   3.754  17.566 -0.1469  0.0332  0.3505
    1MPD1    C414240   3.596   3.632  17.601 -0.9045  0.2867  0.0510
    1MPD1    C514241   3.623   3.540  17.507  0.7540 -0.1828  0.1487
    1MPD1     H14242   3.484   3.881  17.406 -1.0139 -0.0780 -1.0871
    1MPD1    H114243   3.621   3.616   0.014  0.6164  0.8839 -0.2126
    1MPD1    H214244   3.608   3.495  17.291  0.9773  0.2916 -0.4055
    1MPD1    H314245   3.651   3.439  17.537  0.6048 -0.8891 -2.1336
    1MPD1     N14246   3.499   3.838  17.678  0.3607  0.3929 -0.0580
    1MPD1    H514247   3.518   3.806   0.082  1.2482  0.3815 -0.2429
    1MPD1    N114248   3.521   3.702  17.197 -0.1374  0.5027  0.4559
    1MPD1    H614249   3.585   3.644  17.143  0.3123  1.8501 -0.4719
    1MPD1    H714250   3.503   3.796  17.162 -0.4540  0.0795 -0.5300
    2MPD1     C14251   3.212   3.884   0.937  0.5152 -0.5237  1.2173
    2MPD1    C114252   3.152   3.994   0.882  0.1064  0.3463  0.3526
    2MPD1    C214253   3.195   4.041   0.760  0.2806  0.9460  0.0283
    2MPD1    C314254   3.265   3.954   0.678 -0.1821  0.3387 -0.4893
    2MPD1    C414255   3.313   3.831   0.726  0.2523  0.3131  0.3182
    2MPD1    C514256   3.285   3.800   0.858 -0.2116 -0.4602 -0.0059
    2MPD1     H14257   3.163   4.136   0.718  0.4538  0.2391 -1.6984
    2MPD1    H114258   3.368   3.759   0.666  1.3571 -0.1760  1.9084
    2MPD1    H214259   3.189   3.849   1.037  1.2030  1.0464  1.9289
    2MPD1    H314260   3.322   3.703   0.889 -0.0835 -0.6958 -0.9041
    2MPD1     N14261   3.272   3.993   0.546 -0.0264  0.2304  0.2965
    2MPD1    H514262   3.231   4.080   0.515  1.3078  0.7830  0.0684
    2MPD1    N114263   3.076   4.073   0.966  0.9273 -0.2502  0.3418
    2MPD1    H614264   3.035   4.011   1.035 -1.1403 -0.2191 -0.8686
    2MPD1    H714265   3.006   4.121   0.910  0.7387 -1.3688 -0.3912
    3TCq2    C114266   3.339   3.925   0.449 -0.3327  0.5249  0.0834
    3TCq2    O214267   3.367   3.803   0.444 -0.5426  0.8344 -0.1888
    3TCq2    C214268   3.365   4.007   0.328  0.5200  0.3616 -0.1689
    3TCq2    C314269   3.369   4.142   0.340  0.8742  0.1966 -0.7821
    3TCq2    C414270   3.393   4.219   0.234  0.3362  0.2529 -1.3693
    3TCq2    C514271   3.404   4.163   0.107 -0.2868  0.4837 -0.1175
    3TCq2    C614272   3.410   4.028   0.103  0.5418  0.1044 -0.0213
    3TCq2    C714273   3.398   3.940   0.212  0.0320  0.2057  0.1187
    3TCq2    C814274   3.448   3.963  17.667  0.1011  0.2907 -0.0641
    3TCq2    O414275   3.442   4.037  17.569  0.2761  0.7909 -0.2155
    3TCq2    C914276   3.424   4.348   0.271  0.3113  0.0004 -0.1746
    3TCq2    O514277   3.469   4.421   0.178 -0.1444  0.3491  0.4226
    3TCq2    O614278   3.404   4.384   0.387  0.0321  0.1958  0.5194
    3TCq2    H214279   3.353   4.191   0.435  2.0742 -1.6915  0.3709
    3TCq2    H314280   3.424   4.226   0.021 -1.8241 -1.9841 -2.3144
    3TCq2    H414281   3.380   3.833   0.203 -1.3939  0.4238  0.3189
    1TCq1    O114282   0.248   3.592  13.140  0.1763 -0.4573  0.0807
    1TCq1    C114283   0.330   3.490  13.096 -0.1519 -0.0261 -0.1516
    1TCq1    O214284   0.388   3.491  12.987 -0.3462 -0.6536  0.5967
    1TCq1    C214285   0.398   3.463  13.220 -0.3948  0.2126 -0.0713
    1TCq1    C314286   0.332   3.415  13.329 -0.1301 -0.0059  0.3225
    1TCq1    C414287   0.404   3.388  13.445 -0.7383 -0.1770 -0.2897
    1TCq1    C514288   0.535   3.391  13.457 -0.0316  0.4104  0.8620
    1TCq1    C614289   0.597   3.433  13.342 -0.4795  0.0785 -0.0252
    1TCq1    C714290   0.532   3.461  13.226 -0.2239 -0.0126 -0.2972
    1TCq1    C814291   0.744   3.432  13.334 -0.6326 -0.1494 -0.1109
    1TCq1    O414292   0.798   3.447  13.225  0.0415 -0.8994 -0.2467
    1TCq1    C914293   0.338   3.350  13.573 -0.0696  0.1822 -0.8211
    1TCq1    O514294   0.213   3.366  13.588  0.1112  0.4055 -0.5557
    1TCq1    O614295   0.417   3.319  13.669 -0.2689 -0.4056  0.5498
    1TCq1    H114296   0.179   3.564  13.203  0.8395  2.5502  2.1126
    1TCq1    H214297   0.227   3.389  13.337 -0.6818  1.8656 -0.9022
    1TCq1    H314298   0.582   3.373  13.553 -0.2653 -0.4564  0.8087
    1TCq1    H414299   0.593   3.492  13.143 -3.6752  0.8379 -2.5004
    2MPD2     C14300   1.037   3.390  13.396  0.0466  0.3661 -0.0808
    2MPD2    C114301   0.934   3.367  13.482 -0.6531  0.2789 -0.1747
    2MPD2    C214302   0.965   3.303  13.602 -0.7350  0.4501 -0.8021
    2MPD2    C314303   1.089   3.250  13.628  0.2436  0.7520 -0.0564
    2MPD2    C414304   1.187   3.282  13.544  0.1849  0.3454 -0.3939
    2MPD2    C514305   1.163   3.348  13.427  0.3739 -0.3287 -0.1379
    2MPD2     H14306   0.894   3.282  13.681 -1.6629  1.3800 -1.3862
    2MPD2    H114307   1.288   3.251  13.572  0.9069  1.9365 -1.2118
    2MPD2    H214308   1.021   3.438  13.300 -1.6800 -0.5365 -0.2460
    2MPD2    H314309   1.241   3.365  13.355 -1.1463 -0.9063 -1.9130
    2MPD2     N14310   1.106   3.179  13.749  0.1314 -0.0290 -0.3464
    2MPD2    H514311   1.024   3.160  13.806  1.3345 -1.3091  0.9707
    2MPD2    N114312   0.799   3.400  13.451 -0.3170  0.0024 -0.0466
    2MPD2    H714313   0.734   3.383  13.527  0.9626  1.0892  1.2984
    3TCq1    O114314   0.852   2.937  14.050 -0.2136  0.0948  0.4531
    3TCq1    C114315   0.945   2.936  14.143  0.2136 -0.1097 -0.1456
    3TCq1    O214316   0.932   2.891  14.253  0.0317  0.1755  0.3325
    3TCq1    C214317   1.048   3.025  14.100  0.4258 -0.1314 -0.8535
    3TCq1    C314318   1.110   3.102  14.200 -0.1248 -0.3729  0.1755
    3TCq1    C414319   1.208   3.181  14.168  0.3050 -0.0917 -0.2450
    3TCq1    C514320   1.257   3.173  14.042  0.1372 -0.3267  0.2896
    3TCq1    C614321   1.193   3.108  13.944 -0.0543  0.2192 -0.2428
    3TCq1    C714322   1.077   3.039  13.964 -0.6769 -0.9426  0.7695
    3TCq1    C814323   1.223   3.143  13.811  0.0069 -0.2436  0.3603
    3TCq1    O414324   1.341   3.153  13.778 -1.0102  0.4016 -0.2288
    3TCq1    C914325   1.281   3.259  14.265 -0.8872 -0.0717  0.2981
    3TCq1    O514326   1.221   3.281  14.378  0.0135 -0.3645  0.5282
    3TCq1    O614327   1.389   3.310  14.223 -0.1032  0.6981 -0.0541
    3TCq1    H114328   0.874   2.997  13.976 -0.5701  0.6239  0.7718
    3TCq1    H214329   1.082   3.095  14.305  2.0027  1.5518  0.8604
    3TCq1    H314330   1.351   3.221  14.018 -0.6277  1.5484  0.9735
    3TCq1    H414331   1.031   2.979  13.886 -1.1004  1.9112 -1.1859
    1MPD2     C14332   0.018   4.189  15.275  0.3142 -0.4623  0.0895
    1MPD2    C114333   4.658   4.084  15.242  0.3713 -0.1938 -0.6328
    1MPD2    C214334   4.709   3.972  15.185 -0.2991  0.1583  0.6067
    1MPD2    C314335   0.121   3.959  15.149  0.1536  0.6088 -0.4727
    1MPD2    C414336   0.203   4.057  15.184 -0.3111  0.5523 -0.1170
    1MPD2    C514337   0.147   4.172  15.240 -0.0372 -0.6736  0.5255
    1MPD2     H14338   4.646   3.894  15.145  0.1249  0.2721 -0.2877
    1MPD2    H114339   0.302   4.063  15.139  0.2790 -0.6511  1.0243
    1MPD2    H214340   4.721   4.283  15.326 -1.0635 -0.1161 -1.0636
    1MPD2    H314341   0.217   4.253  15.258  1.7444 -1.4819 -2.6976
    1MPD2     N14342   0.156   3.854  15.060 -0.2723 -0.1484  0.1450
    1MPD2    H514343   0.083   3.791  15.029 -0.0450 -0.4098  0.1389
    1MPD2    N114344   4.524   4.098  15.275  0.3555 -0.3257 -0.0903
    1MPD2    H714345   4.495   4.191  15.304  0.0236 -0.1587 -0.9782
    2TMC3    C114346   4.294   4.032  15.292  0.1320 -0.0227  0.2395
    2TMC3    C214347   4.221   3.936  15.237  0.3924 -0.8350 -0.2597
    2TMC3    C314348   4.120   3.961  15.144  0.1830  0.3605 -0.0757
    2TMC3    C414349   4.261   4.162  15.271 -0.3205 -0.5003  0.0883
    2TMC3    C514350   4.162   4.190  15.183 -0.3244 -0.4693  0.1914
    2TMC3    C614351   4.092   4.093  15.124  0.7255 -0.2733 -0.5505
    2TMC3     C14352   4.433   3.998  15.274  0.3454 -0.0840 -0.1083
    2TMC3     O14353   4.427   3.885  15.227  0.1359 -0.1922 -0.0327
    2TMC3     H14354   4.222   3.836  15.280 -0.8937  0.1770  2.1000
    2TMC3    H114355   4.313   4.236  15.331 -1.2886  0.6984 -0.5605
    2TMC3    H214356   4.012   4.117  15.054  0.2491  1.4659  0.6089
    2TMC3    C714357   4.129   4.326  15.149  0.1320 -0.1019  0.1150
    2TMC3    C814358   4.123   3.876  15.028 -0.2464  0.1292  0.1032
    2TMC3    O114359   4.024   4.339  15.089 -0.3571  0.4449 -0.2272
    2TMC3    O214360   4.055   3.892  14.928  0.2132  0.2484 -0.2991
    3TCq1    O114361   0.331   4.624  14.822 -0.1280 -0.2055 -0.1441
    3TCq1    C114362   0.233   4.655  14.737  0.1765  0.1355  0.2685
    3TCq1    O214363   0.164   4.568  14.688 -0.5280  0.6078 -0.0273
    3TCq1    C214364   0.178   0.051  14.806 -0.5961 -0.2614 -0.6251
    3TCq1    C314365   0.253   0.162  14.819 -0.3067  0.5844 -0.3357
    3TCq1    C414366   0.196   0.274  14.867  0.4627 -0.7110  0.1748
    3TCq1    C514367   0.063   0.271  14.909 -0.2183  0.3953 -0.0411
    3TCq1    C614368   4.716   0.150  14.894  0.2747  0.3520  0.2793
    3TCq1    C714369   0.050   0.039  14.837 -0.9146  0.9843  0.7845
    3TCq1    C814370   4.576   0.145  14.929 -0.8081 -0.7021  0.0413
    3TCq1    O414371   4.512   0.246  14.940  0.1195  0.2221 -0.0802
    3TCq1    C914372   0.266   0.401  14.858 -0.6043  0.1573 -0.3240
    3TCq1    O514373   0.372   0.400  14.798 -0.1388 -0.8330 -0.0310
    3TCq1    O614374   0.202   0.506  14.890 -0.0875 -0.2061  0.3391
    3TCq1    H114375   0.370   4.705  14.863 -0.3684  0.3495 -1.0049
    3TCq1    H214376   0.351   0.156  14.772  1.2557 -5.0454  3.5585
    3TCq1    H314377   0.010   0.363  14.932  0.4823  1.3620 -2.2930
    3TCq1    H414378   0.005   4.663  14.824 -1.4570  0.7948  4.0779
    4MPD2     C14379   4.295   0.065  14.982  0.4278  0.2136  0.0630
    4MPD2    C114380   4.406   4.707  15.025  0.1381  0.4977 -0.6160
    4MPD2    C214381   4.387   4.581  15.087  0.3304 -0.3218 -0.0295
    4MPD2    C314382   4.261   4.533  15.096 -0.0753  0.4127 -0.1074
    4MPD2    C414383   4.149   4.603  15.052 -0.5520  0.5781 -0.0979
    4MPD2    C514384   4.172   0.005  14.994 -0.3239 -0.0976  0.0487
    4MPD2     H14385   4.475   4.530  15.126 -0.2998  0.0288  1.8438
    4MPD2    H114386   4.047   4.565  15.049  0.0307 -1.0296  0.2529
    4MPD2    H214387   4.295   0.148  14.913 -0.8464  2.0011  2.2104
    4MPD2    H314388   4.085   0.053  14.951 -0.0858 -1.2192 -1.7198
    4MPD2     N14389   4.245   4.400  15.150  0.0645  0.3757  0.0915
    4MPD2    H514390   4.325   4.357  15.196 -0.1019 -0.2635 -0.2194
    4MPD2    N114391   4.539   0.028  14.989  0.5197 -0.2927 -1.0512
    4MPD2    H714392   4.615   4.685  15.006  0.7214 -0.3188 -2.0864
    5TMC2    C114393   0.087   3.590  14.837 -0.5724  0.5492 -0.4884
    5TMC2    C214394   0.150   3.475  14.873  0.1841 -0.0500 -0.3598
    5TMC2    C314395   0.271   3.484  14.934  0.4555  0.1910 -0.1482
    5TMC2    C414396   0.140   3.711  14.871  0.9998 -0.4431 -0.0053
    5TMC2    C514397   0.265   3.722  14.922 -0.8716  0.5838  0.7017
    5TMC2    C614398   0.337   3.606  14.949  0.7375 -0.0742  0.2356
    5TMC2     C14399   4.677   3.587  14.893 -0.1082  0.3111 -0.5741
    5TMC2     O14400   4.676   3.622  15.011 -0.0608  0.1500 -0.0907
    5TMC2     H14401   0.104   3.377  14.873 -3.3685  1.6417  0.4678
    5TMC2    H114402   0.075   3.795  14.850  0.4726 -0.9142 -0.2373
    5TMC2    H214403   0.437   3.606  14.991  1.7847 -0.2156 -2.2979
    5TMC2    C714404   0.280   3.827  15.010  0.0194  0.4318  0.6336
    5TMC2    C814405   0.342   3.363  14.978 -0.1987  0.1287  0.1975
    5TMC2    O114406   0.394   3.859  15.044 -0.0868 -0.0342 -0.1420
    5TMC2    O214407   0.426   3.362  15.065  0.1373 -0.2930  0.4148
    5TMC2    O514408   0.326   3.271  14.886  0.2135 -0.4470  0.2685
    5TMC2    H514409   0.285   3.299  14.802 -3.1220 -0.2011  1.9796
    6MPD2     C14410   4.182   3.657  14.861 -0.0904  0.1768  0.7997
    6MPD2    C114411   4.272   3.708  14.945  0.3426  0.0400  0.0492
    6MPD2    C214412   4.404   3.674  14.930  0.3338 -0.8330 -0.4534
    6MPD2    C314413   4.440   3.584  14.832  0.5082  0.6743 -0.1266
    6MPD2    C414414   4.350   3.538  14.740 -0.0864  0.6904 -0.0712
    6MPD2    C514415   4.222   3.574  14.758  0.0490  0.2896  0.5176
    6MPD2     H14416   4.473   3.716  15.002 -1.7310  0.3361  0.8429
    6MPD2    H114417   4.374   3.477  14.653 -1.8846 -1.6028  1.0233
    6MPD2    H214418   4.077   3.681  14.872 -0.2737  0.2301 -1.0731
    6MPD2    H314419   4.146   3.533  14.694  0.6905  0.4460 -0.3393
    6MPD2     N14420   4.575   3.543  14.816  0.2524 -0.1487  0.5885
    6MPD2    H514421   4.593   3.486  14.735  4.0524  0.7674  0.7776
    6MPD2    N114422   4.237   3.805  15.039 -0.0041 -0.0582  0.0781
    6MPD2    H714423   4.295   3.829  15.119  0.4663  0.9945 -0.5762
  945NH4     N114424   4.169   2.462  12.749  0.3697  0.1879 -0.7809
  945NH4     H214425   4.127   2.419  12.664  1.0248 -2.0666  0.0509
  945NH4     H314426   4.190   2.393  12.823 -0.0353  0.3952 -0.4703
  945NH4     H414427   4.104   2.536  12.784 -0.1184 -0.5608 -0.1317
  945NH4     H514428   4.252   2.520  12.726 -0.1770  0.4833 -2.0212
  946SOD     NA14429   0.245   4.516   9.981 -0.3928 -0.3184 -0.3967
  947SOD     NA14430   3.382   2.493  15.101 -0.2099 -0.1349  0.2269
  948SOD     NA14431   4.514   1.488   3.026 -0.2026  0.0625  0.0981
  949SOD     NA14432   0.471   0.245  11.731  0.1926 -0.0075  0.4270
  950SOD     NA14433   3.379   4.318  10.905  0.0698 -0.3077 -0.0336
  951SOD     NA14434   3.419   4.630   0.170  0.3385  0.2797 -0.2090
  952SOD     NA14435   4.006   1.700   1.752 -0.0352  0.1055  0.2268
  953SOD     NA14436   3.007   4.533  12.937  0.0900  0.1255 -0.6822
  954SOD     NA14437   3.029   4.563  14.571 -0.3673  0.0428  0.3126
  955SOD     NA14438   4.268   1.026   1.834 -0.1341 -0.5106  0.3205
  956SOD     NA14439   1.683   3.035  12.948 -0.2811  0.2522 -0.1792
  957SOD     NA14440   1.129   2.469  12.475 -0.0586 -0.0707 -0.3582
  958SOD     NA14441   1.367   4.548  12.437  0.3307  0.4078  0.2119
  959SOD     NA14442   3.080   3.722   8.675 -0.1050 -0.0997  0.1979
  960SOD     NA14443   0.679   3.574  11.419  0.2160  0.1935  0.1836
  961SOD     NA14444   1.753   3.004  14.433 -0.1591 -0.1669  0.1899
  962SOD     NA14445   3.129   2.267   4.127 -0.2071 -0.4326 -0.2151
  963SOD     NA14446   2.806   1.799   3.324 -0.6458 -0.5519 -0.2309
  964SOD     NA14447   0.163   4.353  14.733  0.1999  0.3581  0.3554
  965SOD     NA14448   3.191   3.946  16.242  0.1843 -0.0013  0.3462
  966SOD     NA14449   4.109   3.044  10.469  0.3695  0.6173  0.0072
  967SOD     NA14450   1.990   1.573   8.613  0.2834  0.0569  0.6261
  968SOD     NA14451   3.208   1.975  11.302 -0.3307  0.2103  0.6194
  969SOD     NA14452   1.633   3.265  14.632 -0.3895  0.3440 -0.7548
  970SOD     NA14453   0.138   1.141   1.488 -0.3104 -0.0052 -0.2207
  971SOD     NA14454   3.951   3.141  12.105  0.0774 -0.4311  0.0368
  972SOD     NA14455   0.518   3.740  15.481 -0.1344 -0.2945 -0.0124
  973SOD     NA14456   1.672   3.135  10.246  0.1067 -0.2656 -0.4522
  974SOD     NA14457   3.803   4.226   8.662  0.1277  0.6113  0.2130
  975SOD     NA14458   0.087   1.814  11.574 -0.0233  0.4424  0.3167
  976SOD     NA14459   0.672   3.179  12.040  0.2298 -0.0977 -0.1222
  977SOD     NA14460   1.001   0.319   0.157  0.5013  0.1883  0.1869
  978SOD     NA14461   4.365   2.439  11.055  0.0595  0.0979 -0.1080
  979SOD     NA14462   2.619   0.984   4.835 -0.2392 -0.5131 -0.4225
  980SOD     NA14463   0.302   1.024  13.420  0.5692 -0.0027 -0.1104
  981SOD     NA14464   4.607   4.612  15.483  0.5653 -0.4347 -0.1300
  982SOD     NA14465   3.534   1.876   7.603 -0.2885  0.4672  0.1902
  983SOD     NA14466   0.778   2.149   5.246  0.6545  0.3403 -0.3680
  984SOD     NA14467   3.792   1.755  10.392 -0.2742  0.1769  0.2823
  985SOD     NA14468   2.776   3.735   2.455  0.2783 -0.5731 -0.7007
  986SOD     NA14469   3.802   3.988  13.560  0.3185  0.0381 -0.0173
  987SOD     NA14470   1.313   3.349  14.579  0.0778  0.0457 -0.0532
  988SOD     NA14471   2.802   1.410   0.198 -0.3383 -0.0452  0.0254
  989SOD     NA14472   0.393   3.491  11.274  0.4383 -0.1383  0.3775
  990SOD     NA14473   0.949   3.471   2.960  0.0264  0.1194 -0.0278
  991SOD     NA14474   1.676   2.883   0.746  0.3453  0.0147  0.0007
  992SOD     NA14475   3.422   4.138  11.162 -0.3571  0.6394 -0.0728
  993SOD     NA14476   1.826   2.253  14.800 -0.2395  0.2304  0.2200
  994SOD     NA14477   2.031   0.237  13.350 -0.0904 -0.2224 -0.3072
  995SOD     NA14478   1.518   1.106  16.334 -0.0389 -0.2604  0.3321
  996SOD     NA14479   1.921   2.536  11.702 -0.2599  0.4409 -0.0058
  997SOD     NA14480   0.079   4.200   9.563  0.0826 -0.4472 -0.0609
  998SOD     NA14481   0.466   2.938  10.300 -0.5462  0.5005 -0.3818
  999SOD     NA14482   4.633   1.987   8.771 -0.2415 -0.2697  0.7170
 1000SOD     NA14483   4.696   3.051   8.846  0.2522 -0.3016  0.3706
 1001SOD     NA14484   1.587   3.205  14.257 -0.1894  0.4204 -0.4094
 1002SOD     NA14485   2.457   1.747   0.111  0.0428  0.0862  0.3706
 1003SOD     NA14486   0.779   2.763   1.524 -0.0231 -0.5023  0.5368
 1004SOD     NA14487   1.040   2.335   0.822 -0.8155  0.1747 -0.1601
 1005SOD     NA14488   4.561   0.294  15.350 -0.2998 -0.3802 -0.5414
 1006SOD     NA14489   0.787   0.850   1.639 -0.0074  0.0545  0.3859
 1007SOD     NA14490   4.297   1.117   8.375 -0.0149  0.0072 -0.3780
 1008SOD     NA14491   1.616   3.492   2.354  0.4739 -0.3494  0.4119
 1009SOD     NA14492   2.188   4.282  10.986 -0.0594  0.5009 -0.0393
 1010SOD     NA14493   2.549   3.868   5.407 -0.1589 -0.3174 -0.1732
 1011SOL     OW14494   2.721   0.592   9.226 -0.0031  0.5801  0.2504
 1011SOL    HW114495   2.679   0.630   9.149  3.1429  0.5927 -1.4674
 1011SOL    HW214496   2.811   0.620   9.211 -0.1460  1.1979  0.5673
 1012SOL     OW14497   1.692   4.617  15.745 -0.1303  0.3608 -0.6537
 1012SOL    HW114498   1.656   4.529  15.734  0.6289 -0.2760  1.8991
 1012SOL    HW214499   1.682   4.625  15.840  2.2413  0.6077 -0.4239
 1013SOL     OW14500   0.578   1.084   6.281  0.3704  0.6142  0.1692
 1013SOL    HW114501   0.591   1.002   6.234  0.2907 -0.4548  2.0359
 1013SOL    HW214502   0.604   1.055   6.368 -2.4025  0.4355  0.9512
 1014SOL     OW14503   0.641   1.455  13.444 -0.1616 -1.2041  0.5099
 1014SOL    HW114504   0.700   1.380  13.448  1.8993  0.3045 -1.3127
 1014SOL    HW214505   0.659   1.486  13.532  1.2661 -0.6956  0.0506
 1015SOL     OW14506   1.435   4.032   2.698  1.2873  0.4526 -0.2224
 1015SOL    HW114507   1.420   4.112   2.747  0.5332 -0.5464  1.1831
 1015SOL    HW214508   1.473   3.979   2.768 -1.3561 -1.6224 -0.3655
 1016SOL     OW14509   3.671   3.865   6.717  0.3471 -0.5964  0.0144
 1016SOL    HW114510   3.637   3.896   6.633 -0.7233  1.1245  1.0758
 1016SOL    HW214511   3.594   3.880   6.772  0.2542 -3.1492  0.5661
 1017SOL     OW14512   1.802   0.639   4.226 -0.2828 -0.3062 -0.9224
 1017SOL    HW114513   1.847   0.609   4.305  0.7241  0.5752 -1.1657
 1017SOL    HW214514   1.746   0.712   4.253  1.6172  0.5312  0.7587
 1018SOL     OW14515   1.260   1.041   2.355  0.4065 -0.3304 -0.6273
 1018SOL    HW114516   1.249   1.040   2.260  1.2722  0.9831 -0.7318
 1018SOL    HW214517   1.216   0.961   2.385  3.3793 -1.5997  0.3822
 1019SOL     OW14518   3.173   4.049  13.955  0.3122 -0.1019  0.1595
 1019SOL    HW114519   3.185   3.976  13.894 -0.8842  0.3927 -0.6537
 1019SOL    HW214520   3.164   3.986  14.027  0.6633  0.7291  0.9225
 1020SOL     OW14521   1.710   3.232  13.281 -0.1928  0.3973  0.2816
 1020SOL    HW114522   1.632   3.176  13.274 -0.9479  1.7610 -2.1089
 1020SOL    HW214523   1.764   3.181  13.342 -0.9363 -0.0705  0.5559
 1021SOL     OW14524   0.043   4.589   4.296  0.2447  0.3782  0.0424
 1021SOL    HW114525   0.066   4.610   4.205  1.3073 -1.4887 -0.1220
 1021SOL    HW214526   0.058   4.495   4.288 -3.1428 -0.3738  2.5560
 1022SOL     OW14527   2.048   0.006   6.362 -0.1729  0.1474  0.2308
 1022SOL    HW114528   2.005   4.673   6.428 -1.0373 -0.0106 -0.4700
 1022SOL    HW214529   1.998   0.087   6.371  0.2829  0.1277  2.9063
 1023SOL     OW14530   4.554   3.505   5.827  0.0281  0.1845 -0.2968
 1023SOL    HW114531   4.638   3.538   5.796  1.3463 -0.3704  2.6832
 1023SOL    HW214532   4.507   3.588   5.820  0.9328  0.7272  0.0416
 1024SOL     OW14533   2.395   1.552   5.770  0.9422  0.0291  0.1159
 1024SOL    HW114534   2.451   1.545   5.693  0.0311 -0.9994 -0.4558
 1024SOL    HW214535   2.325   1.493   5.742  0.2896  2.3312 -3.0431
 1025SOL     OW14536   3.090   2.929   2.994 -0.1387 -0.8275 -0.1831
 1025SOL    HW114537   3.036   2.898   3.067 -1.3311  3.3537  0.6857
 1025SOL    HW214538   3.143   3.002   3.027 -2.1251 -0.7664  2.8356
 1026SOL     OW14539   3.879   3.112   6.259  0.1788 -0.2952  0.5494
 1026SOL    HW114540   3.940   3.133   6.330  0.9478 -1.1760  0.1443
 1026SOL    HW214541   3.923   3.033   6.228  0.4744  0.4996 -1.0351
 1027SOL     OW14542   3.931   2.664   9.329 -0.9277 -0.1245  0.0634
 1027SOL    HW114543   3.911   2.633   9.240  2.5718  0.2359 -0.8547
 1027SOL    HW214544   3.902   2.755   9.330 -1.3798 -0.2695 -0.2033
 1028SOL     OW14545   2.645   1.265  17.503  0.1337 -0.1719  0.5532
 1028SOL    HW114546   2.647   1.357  17.476 -0.7024  0.3512  2.2465
 1028SOL    HW214547   2.550   1.250  17.513  0.4360 -1.3870  1.6141
 1029SOL     OW14548   3.913   0.402   1.584 -0.4203  0.3098 -0.1778
 1029SOL    HW114549   3.929   0.414   1.490  1.5852  0.3570  0.1737
 1029SOL    HW214550   3.922   0.495   1.607  0.3267  0.3129 -0.4809
 1030SOL     OW14551   2.289   2.044   4.698 -0.0941 -0.1407  0.3229
 1030SOL    HW114552   2.363   2.100   4.722 -0.4372  0.1565  0.6913
 1030SOL    HW214553   2.253   2.084   4.619 -0.9587 -1.8797 -0.1540
 1031SOL     OW14554   4.029   4.556   7.200  0.1913 -0.3368  0.0481
 1031SOL    HW114555   4.112   4.588   7.164 -0.8616 -0.9770 -2.9481
 1031SOL    HW214556   4.053   4.504   7.276 -1.1288 -0.7218  0.2062
 1032SOL     OW14557   2.190   4.463   8.670  0.1578 -0.2583 -0.5056
 1032SOL    HW114558   2.171   4.436   8.759 -0.4085 -0.9041 -0.8234
 1032SOL    HW214559   2.178   4.375   8.633 -1.3691  0.3343 -1.3967
 1033SOL     OW14560   4.362   1.106   6.380  0.3227 -0.2822 -0.2275
 1033SOL    HW114561   4.387   1.152   6.300 -2.3651  0.2234 -0.7799
 1033SOL    HW214562   4.305   1.168   6.426  0.9328  0.9817 -1.1618
 1034SOL     OW14563   3.330   1.866   7.023 -0.2183 -0.1936 -0.1150
 1034SOL    HW114564   3.332   1.918   7.104 -1.3293 -1.0964  0.4831
 1034SOL    HW214565   3.344   1.773   7.043 -2.7910 -0.0452  2.4152
 1035SOL     OW14566   1.693   2.047   7.835 -0.0882  0.2382  0.3381
 1035SOL    HW114567   1.700   2.027   7.929  2.1974 -1.9327 -0.3164
 1035SOL    HW214568   1.761   1.999   7.790  0.9222 -1.0210  3.2177
 1036SOL     OW14569   4.113   0.098   2.778 -0.0692  0.1913  0.6408
 1036SOL    HW114570   4.046   0.154   2.818 -0.2630 -0.3014  1.0103
 1036SOL    HW214571   4.186   0.157   2.798 -0.1110  0.1459  0.9310
 1037SOL     OW14572   3.049   1.969   3.629 -0.1013  0.5740  0.2362
 1037SOL    HW114573   2.997   1.979   3.549  0.9361 -1.9558 -0.7364
 1037SOL    HW214574   3.071   1.877   3.621 -0.1732  0.5100  0.7825
 1038SOL     OW14575   2.648   3.384  11.928 -0.3054 -0.1343  0.0084
 1038SOL    HW114576   2.579   3.387  11.862 -0.8570 -2.5094  0.4785
 1038SOL    HW214577   2.619   3.302  11.969 -0.2912  0.3078  0.9030
 1039SOL     OW14578   2.014   2.804  15.974 -0.5410  0.2639  0.1738
 1039SOL    HW114579   2.072   2.730  15.994 -0.4269  1.0592  2.7478
 1039SOL    HW214580   2.029   2.858  16.051  1.1748  1.6765 -1.1563
 1040SOL     OW14581   2.950   1.459   8.195  0.0426 -0.4712  0.6463
 1040SOL    HW114582   2.979   1.503   8.275 -1.4602  1.9615 -0.1632
 1040SOL    HW214583   3.027   1.464   8.138 -0.9993 -0.1235 -0.7454
 1041SOL     OW14584   0.961   0.536   7.346  0.0406 -0.3328 -0.5741
 1041SOL    HW114585   0.965   0.560   7.438 -0.2393  0.0728 -0.6684
 1041SOL    HW214586   1.008   0.453   7.343 -0.5863 -0.7331  1.0023
 1042SOL     OW14587   4.654   0.805   3.838  0.5942 -0.1992  0.1067
 1042SOL    HW114588   0.007   0.861   3.856  0.4676  0.1415 -0.4279
 1042SOL    HW214589   4.586   0.872   3.841  2.7188  1.8958  1.3370
 1043SOL     OW14590   2.719   2.996  16.699 -0.4131 -0.0206 -0.3406
 1043SOL    HW114591   2.787   2.982  16.764  1.4753  0.5089 -2.2150
 1043SOL    HW214592   2.769   3.013  16.619 -0.5293 -1.4361 -0.7114
 1044SOL     OW14593   1.373   4.423   6.429  1.1057  0.5520 -0.6191
 1044SOL    HW114594   1.312   4.481   6.384  1.8214  2.1429  0.4124
 1044SOL    HW214595   1.328   4.340   6.420  0.3968  0.9388 -0.6198
 1045SOL     OW14596   4.307   2.592  13.359 -0.5264 -0.0918 -0.1492
 1045SOL    HW114597   4.319   2.585  13.264 -0.6357 -2.1485 -0.0096
 1045SOL    HW214598   4.275   2.682  13.363 -0.2246 -0.0423  1.3131
 1046SOL     OW14599   3.921   3.643   4.482  0.6392  0.2789 -0.6726
 1046SOL    HW114600   3.923   3.707   4.411  2.6245 -0.1349 -1.0115
 1046SOL    HW214601   3.904   3.564   4.430  0.9193  0.5644 -1.2039
 1047SOL     OW14602   3.018   4.523   6.810 -0.3330  0.4396  0.2473
 1047SOL    HW114603   2.930   4.538   6.844 -1.1218 -1.0001 -1.1836
 1047SOL    HW214604   3.039   4.431   6.827 -2.7921 -0.1043  0.2705
 1048SOL     OW14605   4.038   1.693  14.801 -0.0910  0.7849 -0.3388
 1048SOL    HW114606   4.059   1.760  14.735  1.8483 -0.5996 -1.1258
 1048SOL    HW214607   4.060   1.740  14.881  1.3257  4.2989 -2.7673
 1049SOL     OW14608   1.244   3.826  11.624  0.3200 -0.2086  0.0828
 1049SOL    HW114609   1.296   3.776  11.561  0.6814 -2.2640  2.0153
 1049SOL    HW214610   1.316   3.881  11.654 -0.7051  0.6376  0.9829
 1050SOL     OW14611   0.504   3.288  11.170 -0.0677  0.7098  0.0217
 1050SOL    HW114612   0.577   3.267  11.111  0.8207  0.2495  1.2788
 1050SOL    HW214613   0.427   3.240  11.140  0.9081  0.4131 -2.0373
 1051SOL     OW14614   1.468   3.889  17.454 -0.0571  0.4481 -0.1082
 1051SOL    HW114615   1.526   3.850  17.520  1.7952  2.8823 -0.3367
 1051SOL    HW214616   1.516   3.958  17.409  0.6139  1.2230  1.7953
 1052SOL     OW14617   0.517   1.691   8.311  0.5426 -0.6138  0.3196
 1052SOL    HW114618   0.536   1.773   8.265 -0.2076  0.5802  2.1217
 1052SOL    HW214619   0.602   1.693   8.357  0.4108  1.9717  0.4488
 1053SOL     OW14620   2.712   1.055   2.109  0.3016  0.7475 -0.1266
 1053SOL    HW114621   2.747   0.979   2.156 -0.0648  2.4475  2.8834
 1053SOL    HW214622   2.685   1.011   2.028  1.9376  1.4440 -1.0614
 1054SOL     OW14623   3.986   0.462   1.330 -0.2388  0.3554  0.4332
 1054SOL    HW114624   4.077   0.472   1.303 -0.1023 -1.8344  0.0830
 1054SOL    HW214625   3.958   0.393   1.270 -0.3535  0.0457  0.8444
 1055SOL     OW14626   0.327   0.623   9.168  0.0357 -0.3146 -0.3130
 1055SOL    HW114627   0.292   0.602   9.254 -1.2732 -1.1392 -1.0352
 1055SOL    HW214628   0.418   0.593   9.171 -0.1030 -0.6576  0.3030
 1056SOL     OW14629   3.995   0.044  13.198 -0.0659  0.6371 -0.5199
 1056SOL    HW114630   4.035   0.129  13.180 -1.2558  1.0989 -0.9600
 1056SOL    HW214631   3.940   0.075  13.270  1.1745 -0.3054  0.8516
 1057SOL     OW14632   2.957   2.935   8.140  0.0562 -0.0049 -0.0993
 1057SOL    HW114633   2.975   2.844   8.163 -0.3283 -0.1134 -0.2140
 1057SOL    HW214634   3.048   2.963   8.142  0.7193 -1.9982 -2.1995
 1058SOL     OW14635   2.874   1.775   0.441 -0.4139  0.7011 -0.1978
 1058SOL    HW114636   2.853   1.684   0.418 -2.3785  1.0132  0.3851
 1058SOL    HW214637   2.947   1.794   0.382  0.8516 -2.5169  0.3269
 1059SOL     OW14638   1.674   1.749   3.288  0.0148 -0.2491 -0.1428
 1059SOL    HW114639   1.682   1.794   3.204 -1.3434  3.6995  1.8480
 1059SOL    HW214640   1.764   1.761   3.319  0.4082 -0.6311 -1.1436
 1060SOL     OW14641   3.154   0.131  14.177 -0.1247  0.0463 -0.1606
 1060SOL    HW114642   3.236   0.174  14.153 -0.3127 -0.9055 -2.5035
 1060SOL    HW214643   3.161   0.040  14.149 -0.5870  0.6262 -2.1363
 1061SOL     OW14644   0.860   0.775   6.357 -0.1175 -0.1458  0.3893
 1061SOL    HW114645   0.802   0.745   6.427  1.6498 -1.5452  1.2489
 1061SOL    HW214646   0.949   0.789   6.387  0.5050 -3.8099  0.2185
 1062SOL     OW14647   4.557   3.339   3.471 -0.0211 -0.3996  0.2127
 1062SOL    HW114648   4.584   3.264   3.418 -1.7214 -1.9409  1.5225
 1062SOL    HW214649   4.551   3.407   3.405  0.0883 -0.4582  0.1424
 1063SOL     OW14650   2.700   4.714   6.500 -0.4075  0.1384 -0.6179
 1063SOL    HW114651   2.775   4.694   6.444 -2.3602 -0.9150 -2.8335
 1063SOL    HW214652   2.746   0.013   6.581 -0.4573  0.5368 -0.6934
 1064SOL     OW14653   4.525   3.588   3.313  0.0479  0.1257  0.1934
 1064SOL    HW114654   4.602   3.635   3.282  0.5441 -0.9088 -0.1367
 1064SOL    HW214655   4.474   3.585   3.231  0.8277  0.8219 -0.3179
 1065SOL     OW14656   1.803   0.535  12.254 -0.2037 -0.0825 -0.4586
 1065SOL    HW114657   1.746   0.611  12.263 -2.3128 -1.5852 -1.3233
 1065SOL    HW214658   1.888   0.570  12.224  1.0487 -0.4866  2.6199
 1066SOL     OW14659   4.361   4.437   0.046  0.4551  0.1915  0.2767
 1066SOL    HW114660   4.439   4.384   0.027 -1.2302 -2.2719  0.2716
 1066SOL    HW214661   4.389   4.479   0.128 -0.0489 -1.1458  1.1177
 1067SOL     OW14662   3.466   0.698  12.850  0.3577  1.0372  0.8450
 1067SOL    HW114663   3.530   0.627  12.841  0.1111  1.1395 -1.8445
 1067SOL    HW214664   3.414   0.664  12.922 -0.2348 -1.0326 -0.5466
 1068SOL     OW14665   2.546   2.503   8.563 -0.4751 -0.2504 -0.3439
 1068SOL    HW114666   2.566   2.562   8.635 -0.5171 -0.2321 -0.3472
 1068SOL    HW214667   2.580   2.424   8.605  0.0751 -0.6208 -1.4802
 1069SOL     OW14668   4.509   2.756  15.449  0.3384 -0.6481  0.3747
 1069SOL    HW114669   4.495   2.817  15.522  1.3844 -0.0968  0.1048
 1069SOL    HW214670   4.470   2.677  15.487 -0.3361 -1.3495 -1.8020
 1070SOL     OW14671   4.591   3.113   1.278 -0.3907 -0.3721  0.4261
 1070SOL    HW114672   4.640   3.076   1.351  0.5744  2.0278  0.9854
 1070SOL    HW214673   4.633   3.198   1.266 -0.0926 -0.6473 -0.4465
 1071SOL     OW14674   3.229   0.131   4.198  1.0730 -0.1842 -0.1174
 1071SOL    HW114675   3.221   0.064   4.129 -0.0023 -1.5125  1.3201
 1071SOL    HW214676   3.293   0.090   4.257  1.8109  0.0522 -0.7500
 1072SOL     OW14677   0.198   1.894   6.554 -0.0429 -0.4787  0.0716
 1072SOL    HW114678   0.189   1.988   6.566 -2.8720 -0.8830  1.1157
 1072SOL    HW214679   0.187   1.890   6.459 -2.2765 -0.3618  0.3335
 1073SOL     OW14680   0.704   4.688   8.327  0.3609  0.0409 -0.4300
 1073SOL    HW114681   0.750   4.645   8.399 -1.9193  0.3593  1.2171
 1073SOL    HW214682   0.666   4.607   8.292  2.2433 -1.2090  0.4026
 1074SOL     OW14683   2.629   0.704  17.273  0.3096  0.4911  0.1618
 1074SOL    HW114684   2.669   0.617  17.269 -0.5162  0.1739 -1.3660
 1074SOL    HW214685   2.697   0.755  17.316 -0.6208  1.5910  0.3207
 1075SOL     OW14686   3.584   3.785   4.598 -0.3276 -0.2581  0.1086
 1075SOL    HW114687   3.587   3.734   4.517 -1.0327 -0.3551  0.1372
 1075SOL    HW214688   3.623   3.731   4.666  0.8382  1.2386  0.6379
 1076SOL     OW14689   0.518   3.324   4.110  0.4757  0.1416 -0.0470
 1076SOL    HW114690   0.435   3.277   4.105  1.2805 -1.2594 -0.5539
 1076SOL    HW214691   0.564   3.242   4.130  1.3697  0.4043 -0.9654
 1077SOL     OW14692   2.654   2.098  14.569  0.0850  0.6322  0.0524
 1077SOL    HW114693   2.721   2.030  14.574  0.3801  0.7989 -1.6191
 1077SOL    HW214694   2.688   2.164  14.509  0.5338 -1.9651 -2.5270
 1078SOL     OW14695   0.427   4.484   4.210  0.3663 -0.1308  0.3525
 1078SOL    HW114696   0.501   4.540   4.233  1.5910 -0.3077 -3.0934
 1078SOL    HW214697   0.446   4.401   4.254  0.2628  0.0106  0.6662
 1079SOL     OW14698   3.699   2.503   9.951  0.1552 -0.2367 -0.2564
 1079SOL    HW114699   3.781   2.553   9.951 -1.1502  1.8893 -1.2124
 1079SOL    HW214700   3.735   2.414   9.941  0.9554 -0.0448  0.8569
 1080SOL     OW14701   1.154   0.751  12.045 -0.5397  0.1975 -0.0986
 1080SOL    HW114702   1.196   0.712  11.968 -1.2914  0.1604 -0.4837
 1080SOL    HW214703   1.075   0.701  12.063 -0.6486  1.5823  3.2098
 1081SOL     OW14704   0.459   0.748   2.840 -0.6425  0.4107  0.6143
 1081SOL    HW114705   0.423   0.812   2.902 -0.3238 -0.6315  1.8687
 1081SOL    HW214706   0.412   0.770   2.760  2.8946 -3.1056 -2.4437
 1082SOL     OW14707   0.399   4.481   7.796 -0.5285  0.3008  0.5699
 1082SOL    HW114708   0.415   4.455   7.886 -1.6241 -0.3331  0.5828
 1082SOL    HW214709   0.483   4.525   7.781  0.2044 -2.3289 -3.0378
 1083SOL     OW14710   1.925   0.333  11.305  0.2180  0.1782 -0.3151
 1083SOL    HW114711   1.997   0.271  11.296 -0.1123 -0.0950 -1.1332
 1083SOL    HW214712   1.962   0.421  11.311  0.7630  0.2690 -4.8057
 1084SOL     OW14713   4.575   3.935   8.028  0.9040  0.1783 -0.7404
 1084SOL    HW114714   4.555   4.021   7.991  0.8390  0.2319 -0.5815
 1084SOL    HW214715   4.633   3.897   7.963  0.8450  0.8489 -1.1827
 1085SOL     OW14716   1.701   0.263  12.355 -0.6476  0.2269  0.6695
 1085SOL    HW114717   1.716   0.353  12.329  1.0705 -0.0231  0.7303
 1085SOL    HW214718   1.641   0.270  12.429 -2.9933 -1.8130 -1.0627
 1086SOL     OW14719   4.512   3.052   4.311 -0.0513 -0.0443 -0.5633
 1086SOL    HW114720   4.527   3.051   4.216  3.3905  0.7496 -0.0371
 1086SOL    HW214721   4.582   3.111   4.340 -1.0713  0.8038  0.1357
 1087SOL     OW14722   1.609   0.149   9.236  0.5769  0.1916 -0.3609
 1087SOL    HW114723   1.695   0.150   9.278  0.4565 -0.7682 -0.0875
 1087SOL    HW214724   1.576   0.235   9.262 -2.2771 -0.6298 -1.1956
 1088SOL     OW14725   0.930   0.842   3.187 -0.2255 -0.3747  0.0455
 1088SOL    HW114726   0.948   0.911   3.122  2.7754  1.6241  3.0038
 1088SOL    HW214727   0.910   0.767   3.132 -1.0081 -1.0155  1.2228
 1089SOL     OW14728   2.916   4.229   3.634  0.1061 -0.1739 -0.0425
 1089SOL    HW114729   2.855   4.195   3.700  0.7479 -0.8400  0.2105
 1089SOL    HW214730   2.883   4.317   3.619  0.4586  0.4703  2.9036
 1090SOL     OW14731   4.191   3.274  13.901 -0.2514  0.4670  0.0465
 1090SOL    HW114732   4.115   3.225  13.869  0.2552  1.0194 -2.0281
 1090SOL    HW214733   4.158   3.360  13.928  3.6045  2.6014 -1.9646
 1091SOL     OW14734   0.303   0.445   6.576 -0.0638  0.5776  0.2777
 1091SOL    HW114735   0.296   0.350   6.589 -1.4548  0.8361  1.4169
 1091SOL    HW214736   0.383   0.459   6.625  2.2915 -1.5572 -2.9417
 1092SOL     OW14737   2.038   2.556   5.338 -0.5239  0.1765 -0.0763
 1092SOL    HW114738   2.028   2.513   5.423 -2.2364 -0.9847 -0.8728
 1092SOL    HW214739   2.096   2.496   5.292  1.1804  1.6068  0.2025
 1093SOL     OW14740   1.832   1.243   3.949  0.2566  0.3779  0.1318
 1093SOL    HW114741   1.899   1.220   3.884 -2.0678 -0.0504 -2.0920
 1093SOL    HW214742   1.786   1.313   3.903 -1.1796  0.2114  1.3250
 1094SOL     OW14743   1.243   4.111  17.440 -0.0422 -0.2066  0.1532
 1094SOL    HW114744   1.171   4.145  17.494 -0.7054 -1.2618 -0.0623
 1094SOL    HW214745   1.235   4.017  17.452  1.4770 -0.3108  0.4209
 1095SOL     OW14746   4.713   0.970   8.586 -0.2134 -0.0111 -0.5831
 1095SOL    HW114747   0.048   0.896   8.566 -2.0824 -1.5344 -0.3168
 1095SOL    HW214748   0.041   1.023   8.648 -0.8783  0.4102 -0.4021
 1096SOL     OW14749   0.005   1.176   4.689  0.1611 -0.3034  0.4890
 1096SOL    HW114750   4.711   1.203   4.599  3.2817  1.1135  0.3642
 1096SOL    HW214751   0.083   1.227   4.711 -0.9830  0.9037  1.7136
 1097SOL     OW14752   0.815   1.552   7.685 -0.1764 -0.4348  0.1415
 1097SOL    HW114753   0.794   1.504   7.764 -1.5019  0.2272  0.1886
 1097SOL    HW214754   0.858   1.476   7.644 -1.3701 -2.6796  3.0697
 1098SOL     OW14755   4.216   4.055   3.971 -0.4488 -0.3216  0.7962
 1098SOL    HW114756   4.304   4.093   3.982  0.0192 -1.2494  0.2745
 1098SOL    HW214757   4.169   4.127   4.012 -0.4548 -1.7099  3.2317
 1099SOL     OW14758   1.023   3.375  11.006  0.1614  0.2625 -0.4705
 1099SOL    HW114759   1.091   3.422  10.958  0.4892  0.9621  0.6831
 1099SOL    HW214760   0.977   3.339  10.930 -0.8301  1.0691 -0.2625
 1100SOL     OW14761   3.741   1.513   5.442  0.4885 -0.4924 -0.0229
 1100SOL    HW114762   3.683   1.582   5.408 -2.0204 -1.8209  1.5510
 1100SOL    HW214763   3.764   1.544   5.530 -1.0845  0.2815  0.1310
 1101SOL     OW14764   3.046   4.710  17.606  0.7091  0.4109 -0.0999
 1101SOL    HW114765   3.088   4.661  17.678 -0.1829 -0.1954  0.0022
 1101SOL    HW214766   3.109   4.683  17.539 -0.1191  1.4679 -1.2898
 1102SOL     OW14767   2.968   3.325   6.737 -0.5181  0.0100  0.0957
 1102SOL    HW114768   2.891   3.382   6.742 -0.6011 -0.2628  1.8719
 1102SOL    HW214769   2.935   3.239   6.763 -0.7172 -0.3060 -1.2196
 1103SOL     OW14770   4.643   4.492   4.928 -0.0479 -0.7402  0.1706
 1103SOL    HW114771   4.642   4.497   5.024 -0.6153 -0.6395  0.1559
 1103SOL    HW214772   0.010   4.525   4.913 -0.3349  1.2364  2.7012
 1104SOL     OW14773   2.421   1.293   3.329  0.1517  0.0595 -0.3528
 1104SOL    HW114774   2.449   1.375   3.289  0.4182 -0.1238 -0.5406
 1104SOL    HW214775   2.484   1.285   3.400 -0.8817 -1.3309  0.4127
 1105SOL     OW14776   1.543   4.245  14.185  0.7412  0.2681  0.1375
 1105SOL    HW114777   1.558   4.259  14.091 -1.1364 -1.1415 -0.3662
 1105SOL    HW214778   1.498   4.327  14.199 -0.1118  0.1424 -1.8430
 1106SOL     OW14779   0.716   0.302  12.393  0.0899  0.2412  0.2995
 1106SOL    HW114780   0.695   0.394  12.408  1.6291  0.5432  0.6217
 1106SOL    HW214781   0.792   0.327  12.339 -0.3578  2.9366  0.9326
 1107SOL     OW14782   0.521   1.882  16.038 -0.0590 -0.3601 -0.2518
 1107SOL    HW114783   0.588   1.949  16.028 -1.9872  1.4373 -1.1844
 1107SOL    HW214784   0.569   1.821  16.094 -0.8897 -0.2861  0.5433
 1108SOL     OW14785   1.657   3.940  13.842  0.1810 -0.0313  0.1216
 1108SOL    HW114786   1.561   3.941  13.843  0.1834 -1.0317  1.2819
 1108SOL    HW214787   1.686   3.926  13.932  2.6888  0.1249 -0.6782
 1109SOL     OW14788   2.157   1.743   6.940  0.1461 -0.2680  0.5547
 1109SOL    HW114789   2.080   1.797   6.924 -0.6707 -2.2381 -2.0809
 1109SOL    HW214790   2.197   1.800   7.006  0.5682 -1.6234  1.4911
 1110SOL     OW14791   1.590   1.071   7.900  0.1826 -0.6529 -0.2460
 1110SOL    HW114792   1.574   0.994   7.954 -1.3915 -1.2667 -1.5741
 1110SOL    HW214793   1.512   1.124   7.916  0.3246 -0.1155 -1.3055
 1111SOL     OW14794   3.337   0.932   4.178 -0.2468  0.1617  0.0710
 1111SOL    HW114795   3.399   0.864   4.152 -0.2567  0.0513  0.3354
 1111SOL    HW214796   3.370   0.941   4.267 -2.0545  1.7418  0.5910
 1112SOL     OW14797   1.379   0.152   5.197 -0.0390 -0.1189  0.3631
 1112SOL    HW114798   1.360   0.236   5.238  0.6639 -0.1931  0.8581
 1112SOL    HW214799   1.474   0.138   5.191 -0.1979 -0.7964 -0.6073
 1113SOL     OW14800   2.305   0.887   5.372  0.0593 -0.2067  0.2037
 1113SOL    HW114801   2.292   0.963   5.427 -0.7426 -1.1663  1.3305
 1113SOL    HW214802   2.219   0.898   5.331 -0.3000  0.9340  1.2880
 1114SOL     OW14803   4.479   1.884   4.900 -0.3118 -0.1968  0.3202
 1114SOL    HW114804   4.549   1.890   4.964 -0.5385 -3.2401  0.8715
 1114SOL    HW214805   4.406   1.884   4.962 -0.2241  0.0194  0.4216
 1115SOL     OW14806   1.328   4.133  15.349  0.7840 -0.7396  0.4741
 1115SOL    HW114807   1.246   4.088  15.331 -0.1138  0.6723  1.0653
 1115SOL    HW214808   1.390   4.060  15.360  0.9823 -0.6579 -0.1224
 1116SOL     OW14809   2.982   3.542   3.448  0.2149 -0.1335  0.2903
 1116SOL    HW114810   3.018   3.590   3.522  0.7989  1.0267 -0.7598
 1116SOL    HW214811   2.938   3.467   3.488  3.3483 -1.8608  0.5196
 1117SOL     OW14812   0.904   3.676   5.304 -0.0919  0.1619  0.0497
 1117SOL    HW114813   0.844   3.737   5.347 -0.7525 -0.7316  0.3972
 1117SOL    HW214814   0.961   3.655   5.378  1.3151 -2.7025 -1.8261
 1118SOL     OW14815   1.410   2.154   8.233  0.3208 -0.5502  0.3862
 1118SOL    HW114816   1.398   2.232   8.289  0.0106 -0.9047  0.8173
 1118SOL    HW214817   1.505   2.152   8.231  0.2248 -1.7875 -2.0860
 1119SOL     OW14818   0.202   0.015   5.090  0.8693  0.0075 -0.3894
 1119SOL    HW114819   0.154   0.082   5.041 -1.4211 -1.7032 -0.4879
 1119SOL    HW214820   0.207   4.664   5.029 -0.0355 -1.4826  1.3291
 1120SOL     OW14821   3.732   2.232  13.165  0.6272  0.2339 -0.4160
 1120SOL    HW114822   3.758   2.140  13.164 -1.2798 -0.3240  3.3393
 1120SOL    HW214823   3.652   2.228  13.217  1.3794  3.3950  1.0305
 1121SOL     OW14824   2.360   2.328   5.749  0.2216  0.3632 -0.1352
 1121SOL    HW114825   2.407   2.330   5.665 -0.8640  1.0350 -0.7313
 1121SOL    HW214826   2.405   2.389   5.807  1.7000 -1.3348  0.4977
 1122SOL     OW14827   1.181   3.331   5.609  0.0733 -0.0172  0.2526
 1122SOL    HW114828   1.199   3.425   5.608 -0.1635  0.0305  0.7047
 1122SOL    HW214829   1.102   3.332   5.555  0.6349  1.3887 -0.5621
 1123SOL     OW14830   2.804   0.323   2.686  0.6068 -0.3446  0.2844
 1123SOL    HW114831   2.733   0.261   2.676 -0.9450  1.7171 -1.6340
 1123SOL    HW214832   2.886   0.273   2.679  1.8600  1.9212 -1.5050
 1124SOL     OW14833   2.394   1.847   8.169  0.1910  0.5643  0.0716
 1124SOL    HW114834   2.354   1.762   8.186  4.4766 -1.7416 -1.3111
 1124SOL    HW214835   2.455   1.840   8.243  1.1305  1.1398 -0.6502
 1125SOL     OW14836   3.388   1.900   4.376  0.0571 -0.9518 -0.1090
 1125SOL    HW114837   3.460   1.961   4.362 -1.6368  0.6030 -2.1010
 1125SOL    HW214838   3.388   1.847   4.296 -2.1457  0.4665 -1.0409
 1126SOL     OW14839   3.282   3.429   4.970 -0.2674  0.2381 -0.4981
 1126SOL    HW114840   3.376   3.443   4.985 -0.0745  0.8680 -2.2940
 1126SOL    HW214841   3.273   3.418   4.876  1.2915 -2.4204 -0.3515
 1127SOL     OW14842   3.479   2.185   2.651  0.3145 -0.0813 -0.1632
 1127SOL    HW114843   3.415   2.120   2.623 -0.6530  1.3407 -1.2397
 1127SOL    HW214844   3.557   2.169   2.598  0.1805  2.1427 -1.0224
 1128SOL     OW14845   0.006   3.188   4.355 -0.8378  0.1623 -0.3461
 1128SOL    HW114846   0.010   3.259   4.419 -2.8064 -0.9965  1.0561
 1128SOL    HW214847   0.073   3.221   4.295  0.2894  1.2582  1.5011
 1129SOL     OW14848   2.034   2.889   8.073  0.4292  0.2121 -0.2535
 1129SOL    HW114849   1.982   2.847   8.005  3.3204 -1.1313 -1.6322
 1129SOL    HW214850   2.118   2.902   8.030  1.0385 -2.1726  0.2046
 1130SOL     OW14851   1.028   2.249   1.038 -0.2202  0.3197  0.3083
 1130SOL    HW114852   0.970   2.180   1.004 -0.5988 -0.1936  2.0010
 1130SOL    HW214853   1.088   2.195   1.090 -0.4203  1.2890  1.5423
 1131SOL     OW14854   2.510   3.191  16.731  0.3085 -0.2061 -0.2707
 1131SOL    HW114855   2.569   3.118  16.715  2.0501  1.1403 -0.0066
 1131SOL    HW214856   2.464   3.158  16.808 -1.4093  0.1762 -1.1364
 1132SOL     OW14857   1.144   0.675   6.461  0.2045  0.3903  0.0803
 1132SOL    HW114858   1.192   0.621   6.523  1.5978  0.9964 -0.4788
 1132SOL    HW214859   1.109   0.620   6.392 -1.3990  0.9374  0.4399
 1133SOL     OW14860   2.488   0.478   6.103 -0.4195 -0.2823  0.3369
 1133SOL    HW114861   2.583   0.476   6.088 -0.2801 -1.2371  1.3479
 1133SOL    HW214862   2.486   0.409   6.169  0.7552  0.3620  1.0433
 1134SOL     OW14863   4.677   0.937   7.792  0.2389  0.0312 -0.2619
 1134SOL    HW114864   4.703   0.891   7.711  3.9097 -0.1793  1.0326
 1134SOL    HW214865   0.010   1.015   7.787  0.7684 -0.2313  1.5329
 1135SOL     OW14866   2.071   4.590   7.912  0.5369 -0.4654  0.0212
 1135SOL    HW114867   2.126   4.644   7.968  0.8018  2.9680 -3.5022
 1135SOL    HW214868   1.983   4.613   7.943  0.4863  1.5445 -1.6085
 1136SOL     OW14869   4.475   2.613   7.645 -0.2630  0.3475  0.5273
 1136SOL    HW114870   4.569   2.626   7.656 -0.4592  2.1058  0.1335
 1136SOL    HW214871   4.437   2.596   7.731  0.7367 -0.2760  0.8501
 1137SOL     OW14872   3.333   3.237  16.473  0.1722 -0.1055  0.6179
 1137SOL    HW114873   3.418   3.200  16.450 -0.5267 -1.2489 -0.1112
 1137SOL    HW214874   3.371   3.318  16.508 -0.6679 -0.2520  1.8686
 1138SOL     OW14875   4.570   3.020   9.048  0.3105 -0.0661 -0.1633
 1138SOL    HW114876   4.476   3.033   9.056  0.3784  1.1284 -1.4675
 1138SOL    HW214877   4.609   3.074   9.116  0.4856  1.6197 -1.6072
 1139SOL     OW14878   3.811   2.174   4.420 -0.3512  0.7886  0.0647
 1139SOL    HW114879   3.879   2.181   4.486  1.5139 -0.8223 -1.6679
 1139SOL    HW214880   3.740   2.224   4.460  0.0228  3.0755 -2.1616
 1140SOL     OW14881   3.396   1.572   5.329  0.4375  0.2609 -0.2758
 1140SOL    HW114882   3.478   1.614   5.354 -1.6955  3.7857  0.7311
 1140SOL    HW214883   3.359   1.553   5.415 -1.0458  1.1386 -0.7141
 1141SOL     OW14884   0.397   0.717   0.073  0.1728 -0.1194 -0.2147
 1141SOL    HW114885   0.346   0.641   0.101 -0.6924  0.9613  1.1348
 1141SOL    HW214886   0.405   0.767   0.154  3.6235  0.5518 -0.9768
 1142SOL     OW14887   4.700   4.366  16.960  1.1260  0.4183  0.3759
 1142SOL    HW114888   4.639   4.421  16.911  0.6224  0.1345  0.6864
 1142SOL    HW214889   0.006   4.305  16.892  1.3336  0.7893  0.1261
 1143SOL     OW14890   0.708   0.268   9.310  0.0383  1.0577  0.1705
 1143SOL    HW114891   0.756   0.205   9.364 -0.5696  1.9840  1.7784
 1143SOL    HW214892   0.622   0.233   9.334  0.9892 -3.2632 -2.7104
 1144SOL     OW14893   1.567   1.802   3.760 -0.2703  0.2307 -0.2428
 1144SOL    HW114894   1.528   1.880   3.798 -1.3664 -0.3186 -0.2176
 1144SOL    HW214895   1.502   1.742   3.796 -1.1811  1.0943 -0.4545
 1145SOL     OW14896   0.835   3.192  11.476  0.2040 -0.1521  0.1750
 1145SOL    HW114897   0.871   3.118  11.428 -0.0253 -0.3022  0.2364
 1145SOL    HW214898   0.874   3.267  11.431 -1.2241  0.1244 -0.5949
 1146SOL     OW14899   0.222   3.070   7.702 -0.0772 -0.2968  0.3595
 1146SOL    HW114900   0.131   3.039   7.708 -0.1834 -0.1588 -0.5480
 1146SOL    HW214901   0.236   3.088   7.610 -1.5797 -0.0545  0.1717
 1147SOL     OW14902   3.555   0.082   5.802 -0.5223 -0.1821 -0.9822
 1147SOL    HW114903   3.512   0.054   5.882  0.4490  2.7508  0.5827
 1147SOL    HW214904   3.475   0.123   5.768  0.0654  3.3406  1.9156
 1148SOL     OW14905   2.251   2.929   5.511  0.1179 -0.4519 -0.4623
 1148SOL    HW114906   2.338   2.924   5.550 -0.4717 -1.8514  0.6612
 1148SOL    HW214907   2.265   2.997   5.445 -3.1736 -0.8772 -1.6175
 1149SOL     OW14908   2.428   4.572   4.393 -0.4338  0.0566  0.3285
 1149SOL    HW114909   2.518   4.603   4.380  0.6700 -2.6264  1.4151
 1149SOL    HW214910   2.419   4.514   4.317 -0.4061  0.6879 -0.1487
 1150SOL     OW14911   2.739   0.505   5.361  0.3283 -0.5678  0.2405
 1150SOL    HW114912   2.758   0.520   5.453 -1.1966  0.7300  0.3520
 1150SOL    HW214913   2.701   0.593   5.350  0.5215 -0.2903  1.7772
 1151SOL     OW14914   1.186   2.942   6.483  0.1920  0.5749 -0.4049
 1151SOL    HW114915   1.137   2.965   6.404 -0.9199  0.1388  0.1436
 1151SOL    HW214916   1.130   2.972   6.555  1.5034  1.4553  0.2270
 1152SOL     OW14917   3.016   3.180  17.396  0.1956 -0.3543 -0.0850
 1152SOL    HW114918   2.977   3.258  17.357  2.1156 -0.3464 -1.9852
 1152SOL    HW214919   3.051   3.217  17.478 -2.2017  1.0079  0.3297
 1153SOL     OW14920   4.125   1.304  14.108  0.1703  0.2803 -0.2548
 1153SOL    HW114921   4.061   1.337  14.171  1.6021  1.6292  0.4830
 1153SOL    HW214922   4.068   1.246  14.058 -1.5635  0.2039  1.8183
 1154SOL     OW14923   1.687   1.078  10.754  0.5400 -0.2166 -0.1122
 1154SOL    HW114924   1.607   1.115  10.718 -2.2122 -2.7775  3.4128
 1154SOL    HW214925   1.709   1.002  10.701  1.4248  0.6760 -1.0270
 1155SOL     OW14926   0.079   2.667   9.767 -0.5752 -0.3093 -0.2345
 1155SOL    HW114927   0.047   2.758   9.767 -1.8356 -0.7590 -2.6608
 1155SOL    HW214928   4.719   2.621   9.781 -0.2689 -0.7945 -0.0461
 1156SOL     OW14929   1.041   4.254  11.390 -0.0233  0.1141 -0.2279
 1156SOL    HW114930   1.045   4.284  11.481  0.8655 -1.8906  0.3853
 1156SOL    HW214931   1.044   4.337  11.342  1.8407  0.3390  0.2684
 1157SOL     OW14932   1.645   2.678   8.438 -0.7466 -0.0422 -0.3091
 1157SOL    HW114933   1.616   2.623   8.511 -0.2176  1.8627  1.3610
 1157SOL    HW214934   1.741   2.671   8.433 -0.9392 -1.4357 -1.9325
 1158SOL     OW14935   3.475   3.312  13.096  0.2059  0.1023 -0.4875
 1158SOL    HW114936   3.512   3.262  13.023  1.3986 -0.0154  0.1973
 1158SOL    HW214937   3.428   3.378  13.046  0.6124  0.7710  0.0200
 1159SOL     OW14938   1.828   0.797   9.480  0.4685  0.3642  0.5957
 1159SOL    HW114939   1.743   0.756   9.466  0.2327  0.3856  2.0204
 1159SOL    HW214940   1.881   0.727   9.518 -1.8122 -1.0995  0.9975
 1160SOL     OW14941   3.641   2.624   1.308 -0.2632  0.1604 -0.0493
 1160SOL    HW114942   3.561   2.632   1.360  0.0766  0.9289  0.3534
 1160SOL    HW214943   3.634   2.692   1.242 -0.5997 -0.0442 -0.2260
 1161SOL     OW14944   0.856   2.066  13.735  0.1332  0.1057  0.0344
 1161SOL    HW114945   0.821   2.153  13.722  0.5830  0.2234 -0.4082
 1161SOL    HW214946   0.776   2.018  13.754  1.4812 -1.6612  1.3386
 1162SOL     OW14947   2.999   0.693  14.073  0.5615 -0.2152 -0.1097
 1162SOL    HW114948   2.968   0.771  14.028  2.3073  0.7274  0.3226
 1162SOL    HW214949   2.939   0.628  14.036  0.4759  1.4792 -2.9461
 1163SOL     OW14950   0.914   3.457   1.755 -0.1254  0.5928 -0.1921
 1163SOL    HW114951   0.831   3.439   1.711 -0.6609  1.4110  0.4790
 1163SOL    HW214952   0.885   3.536   1.801  0.9246 -0.7978  2.8555
 1164SOL     OW14953   2.944   3.326  12.848  0.7810  0.0767  0.3806
 1164SOL    HW114954   2.974   3.328  12.939 -1.5256 -1.6037  1.1768
 1164SOL    HW214955   2.946   3.232  12.829  2.2849  0.4053 -1.0688
 1165SOL     OW14956   2.229   1.493  16.815  1.2480  0.1551  0.4493
 1165SOL    HW114957   2.265   1.443  16.742 -0.0881  0.5839 -0.4904
 1165SOL    HW214958   2.297   1.560  16.822  0.6278  0.6622  1.6245
 1166SOL     OW14959   1.257   3.883  15.063  0.6796 -0.2390 -0.1590
 1166SOL    HW114960   1.166   3.909  15.044 -0.1951 -1.6751  2.0923
 1166SOL    HW214961   1.246   3.842  15.149  0.1667  0.0205 -0.0988
 1167SOL     OW14962   3.720   1.957   3.072 -0.1281 -0.7471  0.0522
 1167SOL    HW114963   3.703   1.988   3.161  2.1606  0.1617  0.1809
 1167SOL    HW214964   3.660   2.015   3.025  0.6638  0.1870  0.1837
 1168SOL     OW14965   1.389   4.588   2.167  0.3567 -0.1325 -0.0794
 1168SOL    HW114966   1.401   4.655   2.234 -2.3074  0.6722 -0.4072
 1168SOL    HW214967   1.308   4.627   2.132  0.6727  0.8723  0.2889
 1169SOL     OW14968   0.122   1.244   5.577  0.2726 -0.1081  0.3039
 1169SOL    HW114969   0.054   1.179   5.593 -0.2466  0.0530 -1.2430
 1169SOL    HW214970   0.067   1.322   5.577  0.8497  0.2980  0.6398
 1170SOL     OW14971   1.583   3.935   0.321  0.1654 -0.1658  0.5367
 1170SOL    HW114972   1.613   3.954   0.233  0.7323  2.8296  1.3721
 1170SOL    HW214973   1.491   3.948   0.302  0.7806  1.1081 -1.4894
 1171SOL     OW14974   1.164   3.196  17.399  0.7967  0.0155 -0.6940
 1171SOL    HW114975   1.135   3.147  17.321  1.0558 -0.2805 -0.6005
 1171SOL    HW214976   1.249   3.158  17.419  0.1602  0.0435  1.9835
 1172SOL     OW14977   2.004   3.605  15.523  0.3570  0.0665  0.2654
 1172SOL    HW114978   2.098   3.621  15.511  0.1318  1.2978  0.0799
 1172SOL    HW214979   1.972   3.690  15.553  0.1336  0.0049  0.2024
 1173SOL     OW14980   0.083   1.840   2.991 -0.1201 -0.5670  0.1206
 1173SOL    HW114981   0.069   1.930   3.020 -1.1601 -0.6805 -0.0253
 1173SOL    HW214982   0.169   1.824   3.028 -0.2576  0.7472  1.0085
 1174SOL     OW14983   4.562   1.804   5.889 -0.0481 -0.1595 -0.4314
 1174SOL    HW114984   4.494   1.853   5.843  1.6265  3.2306  0.6877
 1174SOL    HW214985   4.603   1.874   5.941  1.5718 -0.9997 -0.5837
 1175SOL     OW14986   2.109   3.582   5.711 -0.1921 -0.0251 -0.6946
 1175SOL    HW114987   2.177   3.578   5.778 -1.1305 -1.3021  0.1959
 1175SOL    HW214988   2.056   3.517   5.757 -2.1110  0.1452 -2.6458
 1176SOL     OW14989   0.445   4.465  13.577 -0.4345 -0.1068 -0.6149
 1176SOL    HW114990   0.496   4.422  13.509 -0.4700 -1.7374  0.3708
 1176SOL    HW214991   0.485   4.438  13.660  1.0859  0.1656 -1.2712
 1177SOL     OW14992   4.210   0.917   2.028 -0.2615  0.3289  0.1442
 1177SOL    HW114993   4.243   0.827   2.021  1.7945  0.9505  1.6119
 1177SOL    HW214994   4.115   0.909   2.029 -0.0586 -2.1078 -0.6040
 1178SOL     OW14995   4.469   2.836  13.094 -0.5628 -0.4934  0.5902
 1178SOL    HW114996   4.474   2.751  13.050 -2.9923  0.3229 -1.2486
 1178SOL    HW214997   4.545   2.822  13.151  0.2900 -2.0789 -0.9239
 1179SOL     OW14998   4.538   1.467   4.928 -0.5992 -0.4266 -0.5344
 1179SOL    HW114999   4.446   1.494   4.928 -0.3909  0.2835 -2.3273
 1179SOL    HW215000   4.528   1.373   4.944  0.4817 -0.5784 -0.7562
 1180SOL     OW15001   4.286   1.154   7.828  0.3957  0.6665  0.0511
 1180SOL    HW115002   4.340   1.200   7.763  1.4143 -0.6417 -0.0156
 1180SOL    HW215003   4.356   1.104   7.870 -1.8367 -1.3137  1.3563
 1181SOL     OW15004   3.711   2.229  15.277  0.3255  0.1964  0.1379
 1181SOL    HW115005   3.768   2.306  15.279 -0.8331  1.0831 -0.7512
 1181SOL    HW215006   3.751   2.166  15.217  0.8464  2.2411 -1.6590
 1182SOL     OW15007   2.825   3.536   0.057 -0.1551  0.0891  0.2114
 1182SOL    HW115008   2.808   3.496  17.663 -0.9336 -0.5291  0.6616
 1182SOL    HW215009   2.750   3.499   0.104 -1.3840  0.1376 -1.7274
 1183SOL     OW15010   4.073   0.681  12.390 -0.0534 -0.5937  0.1248
 1183SOL    HW115011   4.027   0.764  12.380  0.7888  0.1163  2.1862
 1183SOL    HW215012   4.162   0.696  12.359 -0.1276 -0.2385  0.0897
 1184SOL     OW15013   2.703   0.502   3.184  0.3431  0.1625 -0.2462
 1184SOL    HW115014   2.660   0.467   3.105  1.1022 -1.4394  0.0509
 1184SOL    HW215015   2.680   0.592   3.161  1.3036  0.8263  1.3787
 1185SOL     OW15016   1.011   3.075  12.223 -0.0035  0.4166  0.0958
 1185SOL    HW115017   0.929   3.044  12.184  0.6698 -0.1734 -0.8602
 1185SOL    HW215018   1.036   3.145  12.163 -1.2985  0.8274  0.0397
 1186SOL     OW15019   2.812   0.677   5.064  0.1425  0.1952 -0.0949
 1186SOL    HW115020   2.780   0.702   5.150 -0.5484  0.9716 -0.5766
 1186SOL    HW215021   2.796   0.583   5.054 -1.8130  0.2479  2.7704
 1187SOL     OW15022   2.281   2.620   3.734 -0.1121  0.3926  0.8387
 1187SOL    HW115023   2.190   2.593   3.743 -0.4764  0.3347 -3.0111
 1187SOL    HW215024   2.287   2.693   3.671  1.5418 -1.4903 -1.1846
 1188SOL     OW15025   3.362   4.588  13.208  0.4077  0.2286 -0.3262
 1188SOL    HW115026   3.328   4.617  13.293  0.1772 -1.6301  0.2290
 1188SOL    HW215027   3.456   4.574  13.221  0.8282  0.3258 -3.3742
 1189SOL     OW15028   2.344   3.509   1.378  0.1760  0.3373  0.2038
 1189SOL    HW115029   2.327   3.481   1.468  0.4362  1.2767  0.5519
 1189SOL    HW215030   2.423   3.462   1.352 -0.1920 -1.0651  1.6153
 1190SOL     OW15031   0.638   2.620   6.954 -0.3718  0.4254 -0.1956
 1190SOL    HW115032   0.660   2.529   6.971 -0.1003  0.4974 -0.1504
 1190SOL    HW215033   0.650   2.642   7.046 -2.1091 -1.4718  0.4729
 1191SOL     OW15034   4.418   0.879   2.829 -0.2805 -0.1140 -0.2513
 1191SOL    HW115035   4.437   0.948   2.893 -2.0240 -1.0240  1.2474
 1191SOL    HW215036   4.494   0.880   2.772  0.3978  0.3002  0.6677
 1192SOL     OW15037   0.467   4.571  11.355 -0.0774 -0.0958 -0.3430
 1192SOL    HW115038   0.451   4.512  11.281  0.5181 -2.5066  1.4562
 1192SOL    HW215039   0.377   4.575  11.387  0.7579  2.4536  1.6706
 1193SOL     OW15040   3.801   1.047   8.119 -0.0324  0.2605  0.3540
 1193SOL    HW115041   3.858   1.123   8.129 -0.2863  0.3698  0.9524
 1193SOL    HW215042   3.837   1.003   8.042 -1.9576 -1.4942  0.4580
 1194SOL     OW15043   2.170   3.011   4.642  0.1759 -0.2785  0.4657
 1194SOL    HW115044   2.142   3.097   4.613 -0.5775 -0.9253 -0.7167
 1194SOL    HW215045   2.095   2.972   4.688  1.2828 -3.4275 -0.3686
 1195SOL     OW15046   1.264   0.454   5.259  0.0158  0.7437 -0.8165
 1195SOL    HW115047   1.247   0.487   5.347 -0.0434 -0.5294 -0.3556
 1195SOL    HW215048   1.175   0.445   5.225 -1.2745  1.2346  2.4880
 1196SOL     OW15049   1.742   0.454   4.022 -0.6106  0.0997 -0.0021
 1196SOL    HW115050   1.835   0.436   4.011 -0.1698  2.1555  0.2966
 1196SOL    HW215051   1.751   0.528   4.083 -3.1148 -1.3920  2.1879
 1197SOL     OW15052   1.634   3.256   3.229 -0.1818  0.0478 -0.4287
 1197SOL    HW115053   1.659   3.335   3.277  0.4864  0.3892 -1.3644
 1197SOL    HW215054   1.691   3.192   3.271 -0.8989 -0.0832  0.3655
 1198SOL     OW15055   1.377   3.613   5.959 -0.4248 -0.5217 -0.3207
 1198SOL    HW115056   1.309   3.669   5.922 -0.0335 -0.4032 -0.8529
 1198SOL    HW215057   1.427   3.596   5.880  1.5408 -0.9916  1.0352
 1199SOL     OW15058   3.869   1.423   0.636  0.2005 -0.4141 -0.8845
 1199SOL    HW115059   3.964   1.434   0.637  0.0055  1.3038 -0.0905
 1199SOL    HW215060   3.867   1.343   0.689  3.4050  0.6995  0.9604
 1200SOL     OW15061   2.055   0.331   5.202 -0.0223 -0.8187 -0.5099
 1200SOL    HW115062   2.038   0.422   5.228 -0.7271 -1.0480 -0.1758
 1200SOL    HW215063   1.967   0.296   5.193  0.1062 -1.5398  1.1134
 1201SOL     OW15064   1.065   1.847   6.833 -1.0383  0.1736  0.8397
 1201SOL    HW115065   1.114   1.883   6.907  1.0953  0.8917 -0.8994
 1201SOL    HW215066   1.103   1.760   6.828  0.3111  0.8480 -0.8013
 1202SOL     OW15067   1.128   0.792   4.667 -0.6528  0.0808 -0.0521
 1202SOL    HW115068   1.145   0.875   4.623  1.2722  0.8612  2.1842
 1202SOL    HW215069   1.042   0.770   4.630 -0.1641  0.2046 -1.2413
 1203SOL     OW15070   3.277   3.822   2.426  0.1306  0.4068  0.3701
 1203SOL    HW115071   3.356   3.808   2.374  0.1280 -1.3389  0.8491
 1203SOL    HW215072   3.289   3.915   2.446  0.7520  0.2244  0.8402
 1204SOL     OW15073   1.867   2.376   3.926  0.0416  0.3681  0.2490
 1204SOL    HW115074   1.868   2.316   4.000 -2.0103 -0.5719 -0.4951
 1204SOL    HW215075   1.958   2.406   3.924  0.6047 -1.2873  0.6417
 1205SOL     OW15076   0.620   2.716  14.193 -0.2395 -0.7089 -0.7795
 1205SOL    HW115077   0.714   2.705  14.204 -0.6388  0.5181  3.8230
 1205SOL    HW215078   0.615   2.733  14.099 -0.3929  0.5944 -0.5355
 1206SOL     OW15079   2.968   3.253   3.226  0.7573 -0.1703  0.0735
 1206SOL    HW115080   2.975   3.218   3.315  1.0230 -0.8843 -0.2284
 1206SOL    HW215081   3.032   3.199   3.179 -0.1973 -1.7753  0.6382
 1207SOL     OW15082   0.116   3.696  11.188 -0.2649 -0.2468  0.9908
 1207SOL    HW115083   0.185   3.693  11.254  0.3648 -0.3924  0.3228
 1207SOL    HW215084   0.061   3.620  11.207  0.2920 -0.1692  2.9189
 1208SOL     OW15085   4.503   3.614  13.403 -0.3786 -0.2291  0.3829
 1208SOL    HW115086   4.557   3.690  13.426 -0.5472 -0.0706  0.2603
 1208SOL    HW215087   4.519   3.554  13.476 -1.5810  0.0078  0.8389
 1209SOL     OW15088   4.425   2.198   4.578  0.8067 -0.5277 -0.0365
 1209SOL    HW115089   4.369   2.121   4.581  1.6106 -1.1299 -0.2954
 1209SOL    HW215090   4.459   2.198   4.489 -1.0533  1.0499 -0.7448
 1210SOL     OW15091   2.660   0.782  16.590 -0.1927  0.5432 -0.6833
 1210SOL    HW115092   2.726   0.719  16.619 -0.4841  1.2278  1.4059
 1210SOL    HW215093   2.721   0.855  16.597  1.5578 -0.8907 -0.9189
 1211SOL     OW15094   3.368   3.021   5.048 -0.3351 -0.7565  0.5086
 1211SOL    HW115095   3.317   3.091   5.089 -0.0310  1.1665 -2.3982
 1211SOL    HW215096   3.450   3.068   5.033 -0.3680 -1.1826 -0.9609
 1212SOL     OW15097   0.556   2.313   3.562  0.1639 -0.1943  0.2096
 1212SOL    HW115098   0.462   2.317   3.573 -0.0299 -0.8610 -1.1701
 1212SOL    HW215099   0.579   2.363   3.640 -2.1645  1.7831 -0.3810
 1213SOL     OW15100   3.757   2.060   4.843 -0.4907  0.0464 -0.1665
 1213SOL    HW115101   3.739   2.074   4.936 -0.9565 -0.4128 -0.1890
 1213SOL    HW215102   3.853   2.060   4.852 -0.4974 -0.6236 -0.0961
 1214SOL     OW15103   4.672   1.068   8.223  0.1561  0.1808 -0.0268
 1214SOL    HW115104   4.712   1.154   8.214 -0.9252  0.5948 -0.9263
 1214SOL    HW215105   0.007   1.027   8.158 -0.0210 -0.8796  0.4768
 1215SOL     OW15106   1.803   3.426   6.049  0.0857 -0.4070 -0.0081
 1215SOL    HW115107   1.808   3.499   5.987 -2.2065 -1.3368 -1.3127
 1215SOL    HW215108   1.894   3.402   6.064  0.7188  1.8000 -0.3734
 1216SOL     OW15109   0.509   1.652   3.764  0.9931  0.1885 -0.1156
 1216SOL    HW115110   0.597   1.665   3.729  1.0261 -0.9105 -0.4498
 1216SOL    HW215111   0.451   1.700   3.704  2.0616  1.3135 -0.2486
 1217SOL     OW15112   3.006   4.154   3.025 -0.1302 -0.8543 -0.2317
 1217SOL    HW115113   2.985   4.248   3.022 -0.6614 -0.9813 -0.4622
 1217SOL    HW215114   2.924   4.121   2.988  0.3451  1.1351 -3.0639
 1218SOL     OW15115   4.084   3.238   5.728  0.6640  0.3293  0.2598
 1218SOL    HW115116   4.058   3.252   5.819  1.1706 -0.4903  0.5303
 1218SOL    HW215117   4.132   3.155   5.731  1.0957  0.6027  1.0557
 1219SOL     OW15118   2.488   1.951   6.217 -0.1260 -0.1786 -0.6036
 1219SOL    HW115119   2.418   1.958   6.153 -1.5426 -3.2790  0.5941
 1219SOL    HW215120   2.439   1.968   6.298  0.6450  1.6710 -0.5368
 1220SOL     OW15121   0.193   0.300   1.224 -0.2148  0.2964 -0.1243
 1220SOL    HW115122   0.197   0.395   1.240 -0.8583  0.0968  1.2635
 1220SOL    HW215123   0.102   0.288   1.251  0.0510 -0.2064  0.5473
 1221SOL     OW15124   1.612   2.289   6.148  0.0830 -0.4631  0.1988
 1221SOL    HW115125   1.534   2.342   6.162  0.7076 -0.0539  2.0475
 1221SOL    HW215126   1.668   2.363   6.168 -1.8006  1.2861 -1.0702
 1222SOL     OW15127   3.105   1.899   8.998  0.7879 -0.2131  0.6169
 1222SOL    HW115128   3.084   1.961   9.068  1.6077 -0.2779  0.9224
 1222SOL    HW215129   3.107   1.965   8.929  0.5807 -1.1903 -0.3139
 1223SOL     OW15130   1.351   4.719  14.360 -0.1267  0.4317 -0.0082
 1223SOL    HW115131   1.429   0.024  14.313  0.0572 -0.0950 -0.0120
 1223SOL    HW215132   1.291   0.061  14.322 -1.7467 -0.6808  0.6597
 1224SOL     OW15133   0.102   3.478  12.331 -0.0008  0.5194  0.0088
 1224SOL    HW115134   0.144   3.564  12.331  0.3802  0.3307  0.1343
 1224SOL    HW215135   0.043   3.491  12.406  1.3264  0.0920  1.1330
 1225SOL     OW15136   3.436   3.564   3.850  0.0626  0.4533  0.2411
 1225SOL    HW115137   3.428   3.522   3.765 -1.2297  1.3751 -0.0884
 1225SOL    HW215138   3.458   3.655   3.829 -0.1731  1.1372  2.9496
 1226SOL     OW15139   3.264   3.648   9.781  0.3528  0.0955  0.9400
 1226SOL    HW115140   3.186   3.600   9.806  0.2429 -1.4251 -2.4504
 1226SOL    HW215141   3.228   3.736   9.769  2.5912  1.0153  0.8346
 1227SOL     OW15142   1.077   3.072  17.151 -0.0515  0.2492 -0.0360
 1227SOL    HW115143   1.093   3.150  17.097 -0.4307  0.0444 -0.4444
 1227SOL    HW215144   1.005   3.027  17.106 -1.9047  2.0612  1.0756
 1228SOL     OW15145   0.829   2.301   8.625  0.2722  0.3165  0.5847
 1228SOL    HW115146   0.786   2.381   8.594 -0.7037 -0.3758  0.1489
 1228SOL    HW215147   0.801   2.235   8.562  0.8132 -1.0111  1.7371
 1229SOL     OW15148   0.316   2.095   2.931 -0.1386  0.0403 -0.4970
 1229SOL    HW115149   0.237   2.121   2.977 -0.4717  1.7012 -2.0543
 1229SOL    HW215150   0.332   2.007   2.967  0.0694  0.1813 -0.2444
 1230SOL     OW15151   4.112   2.168  13.221 -0.1627  0.0966 -0.6492
 1230SOL    HW115152   4.074   2.113  13.290  0.4130  1.2626  0.5955
 1230SOL    HW215153   4.097   2.258  13.251  3.1779  0.8944 -1.3931
 1231SOL     OW15154   0.357   4.165  14.202 -0.2156 -0.7405 -0.8918
 1231SOL    HW115155   0.290   4.104  14.174 -0.1454 -0.3674 -1.8581
 1231SOL    HW215156   0.438   4.114  14.197 -0.4094 -1.0968 -0.3457
 1232SOL     OW15157   4.399   3.803   2.498 -0.0854 -0.1412  0.6183
 1232SOL    HW115158   4.461   3.862   2.542  0.1352  0.5933 -0.6756
 1232SOL    HW215159   4.338   3.811   2.571  0.4840 -0.4466  1.1342
 1233SOL     OW15160   3.713   2.435  13.783 -0.1698 -0.4881 -0.4796
 1233SOL    HW115161   3.733   2.519  13.742 -0.3108 -0.8121 -1.2082
 1233SOL    HW215162   3.642   2.402  13.728 -1.1061 -1.8727  1.5406
 1234SOL     OW15163   4.424   0.487  16.286 -0.2256  0.1047 -0.2406
 1234SOL    HW115164   4.360   0.556  16.296  1.2057  1.2482  0.9511
 1234SOL    HW215165   4.488   0.522  16.224 -1.3200  0.2983 -1.2587
 1235SOL     OW15166   1.906   1.202  11.836 -0.4798  0.3006  0.6638
 1235SOL    HW115167   1.889   1.171  11.925 -3.1131 -3.3431 -1.0924
 1235SOL    HW215168   1.956   1.130  11.797 -0.2515  0.9370 -0.2228
 1236SOL     OW15169   0.461   2.143   8.592  0.0915 -0.1526 -0.0507
 1236SOL    HW115170   0.460   2.101   8.678 -0.1458  0.0858  0.0593
 1236SOL    HW215171   0.416   2.225   8.611 -3.9057 -2.1830 -0.7910
 1237SOL     OW15172   1.340   0.499  15.642  0.4853 -0.4581 -0.0385
 1237SOL    HW115173   1.370   0.588  15.662  0.1864  0.2502 -2.7642
 1237SOL    HW215174   1.367   0.449  15.718 -3.1221 -2.2739  0.0475
 1238SOL     OW15175   1.160   1.420   3.919  0.0372  0.3770 -0.6395
 1238SOL    HW115176   1.197   1.439   4.005 -0.4724 -0.7717 -0.1716
 1238SOL    HW215177   1.068   1.413   3.944 -0.1351  1.7621 -0.8647
 1239SOL     OW15178   2.741   0.870  17.468  0.0285 -0.0004 -0.5677
 1239SOL    HW115179   2.798   0.936  17.428 -0.0507 -0.1568 -0.9436
 1239SOL    HW215180   2.805   0.835  17.530 -1.9747 -0.9780  0.9382
 1240SOL     OW15181   4.136   2.944   7.294  0.1607 -0.0761 -0.2631
 1240SOL    HW115182   4.213   2.920   7.242  0.0599 -0.0694 -0.4138
 1240SOL    HW215183   4.180   3.008   7.350  0.5781 -0.3164 -0.3165
 1241SOL     OW15184   1.420   0.776  15.639  0.5736  0.7031  0.1811
 1241SOL    HW115185   1.498   0.768  15.585  0.0967 -2.7414 -0.0090
 1241SOL    HW215186   1.468   0.764  15.721 -1.4022 -1.6803  0.9924
 1242SOL     OW15187   3.556   2.159   2.924  0.2947  0.0163  0.2096
 1242SOL    HW115188   3.566   2.244   2.968 -0.5538  0.6281 -0.7601
 1242SOL    HW215189   3.515   2.183   2.841  1.7351  0.1704 -0.4534
 1243SOL     OW15190   1.093   2.360  13.808 -0.6727 -0.1428 -0.0434
 1243SOL    HW115191   1.062   2.406  13.886 -0.3882  1.1117 -0.6674
 1243SOL    HW215192   1.169   2.313  13.843  0.3656  1.2421 -0.4405
 1244SOL     OW15193   0.538   2.406   3.830  0.0866 -0.0078 -0.1869
 1244SOL    HW115194   0.597   2.344   3.873 -1.7339 -1.6708 -0.1066
 1244SOL    HW215195   0.467   2.403   3.894 -0.3356 -0.2380 -0.6712
 1245SOL     OW15196   3.561   2.740  15.708 -0.3871  0.4918 -0.0268
 1245SOL    HW115197   3.494   2.701  15.652  1.9870 -2.7271 -0.6447
 1245SOL    HW215198   3.640   2.719  15.658  1.2436 -0.3678  2.9108
 1246SOL     OW15199   1.654   4.060   1.704 -0.0280 -0.7034  0.4726
 1246SOL    HW115200   1.714   3.985   1.705 -0.1784 -0.8400 -1.1224
 1246SOL    HW215201   1.635   4.050   1.611  0.3709  1.5829  0.1673
 1247SOL     OW15202   2.263   2.970  15.828  0.0030 -0.2185  0.6947
 1247SOL    HW115203   2.204   3.037  15.795  1.1370 -0.1415 -1.1837
 1247SOL    HW215204   2.211   2.935  15.900 -0.4262 -0.3068  0.3404
 1248SOL     OW15205   3.646   3.610   3.258  0.1568 -0.0411  0.1048
 1248SOL    HW115206   3.592   3.561   3.320 -0.1539  1.3086  0.9153
 1248SOL    HW215207   3.727   3.564   3.280  0.7409  1.5497  1.2708
 1249SOL     OW15208   0.466   4.036   5.534  0.1690  0.3008 -0.1120
 1249SOL    HW115209   0.388   4.087   5.555  0.5027  0.3349  0.9985
 1249SOL    HW215210   0.516   4.025   5.614  0.5227 -0.8283 -0.4990
 1250SOL     OW15211   4.666   1.266  10.520  0.2456  0.4370 -0.1277
 1250SOL    HW115212   4.637   1.328  10.588 -0.6947  0.4171 -0.5224
 1250SOL    HW215213   0.037   1.261  10.540  0.0829  1.2007  0.8711
 1251SOL     OW15214   1.490   1.235   5.186 -0.0734 -0.2071  0.4456
 1251SOL    HW115215   1.502   1.312   5.130 -1.2265  0.4333  1.0741
 1251SOL    HW215216   1.462   1.173   5.120  0.0245  0.6359 -0.3912
 1252SOL     OW15217   4.656   2.400   1.833  0.0803  0.0657  0.4685
 1252SOL    HW115218   4.570   2.367   1.810 -1.4534  3.6380  1.1595
 1252SOL    HW215219   4.624   2.486   1.860 -0.2397 -0.0423  0.4328
 1253SOL     OW15220   3.804   3.844  12.340 -0.3054  0.1947  0.8448
 1253SOL    HW115221   3.720   3.879  12.368  0.1654  1.3698  0.7687
 1253SOL    HW215222   3.870   3.908  12.365 -1.1848  0.3615  2.7300
 1254SOL     OW15223   2.746   3.420  17.516 -1.0630  0.1144 -0.5452
 1254SOL    HW115224   2.658   3.452  17.497 -1.0044 -0.2204 -1.3886
 1254SOL    HW215225   2.761   3.376  17.432 -0.4178 -1.0779  0.1840
 1255SOL     OW15226   1.138   3.139   8.076  0.2496 -0.5343  0.0429
 1255SOL    HW115227   1.162   3.065   8.020  1.4758  0.6922 -1.0489
 1255SOL    HW215228   1.195   3.126   8.152  1.6883  0.9455 -0.7959
 1256SOL     OW15229   0.616   4.166  14.751 -0.0599  0.0289 -0.6628
 1256SOL    HW115230   0.592   4.205  14.667 -3.9503 -1.5959 -0.2725
 1256SOL    HW215231   0.679   4.235  14.769  1.0630 -0.9070 -0.9781
 1257SOL     OW15232   1.047   4.594  14.193 -0.2067 -0.2542 -0.1445
 1257SOL    HW115233   1.088   4.620  14.275 -0.9111  2.4165 -0.6488
 1257SOL    HW215234   1.087   4.508  14.178 -1.8377 -1.2785  1.3084
 1258SOL     OW15235   4.493   1.417   6.820  0.0548  0.3767 -0.0109
 1258SOL    HW115236   4.579   1.444   6.788 -0.6383  2.0903 -0.3832
 1258SOL    HW215237   4.520   1.356   6.889 -0.5269  1.0568  0.8153
 1259SOL     OW15238   2.239   3.166   5.305 -0.3614 -0.0739 -0.2393
 1259SOL    HW115239   2.227   3.204   5.218  1.4573  1.7356  0.3135
 1259SOL    HW215240   2.297   3.093   5.283 -4.0842 -3.3534  0.7979
 1260SOL     OW15241   3.333   3.399   3.321  0.7137  0.0695  0.3496
 1260SOL    HW115242   3.338   3.494   3.329  0.0256  0.0562  0.9642
 1260SOL    HW215243   3.328   3.399   3.226 -1.0209 -0.3478  0.4322
 1261SOL     OW15244   1.795   4.616  15.003 -0.2231 -1.2681  0.6018
 1261SOL    HW115245   1.769   4.605  14.912  3.0801  0.2627 -0.5034
 1261SOL    HW215246   1.833   4.704  15.005 -2.0234 -0.4997  0.4627
 1262SOL     OW15247   0.590   2.033   5.162  0.0123 -0.5489  0.1862
 1262SOL    HW115248   0.539   2.068   5.088 -1.0294 -2.3088  0.0863
 1262SOL    HW215249   0.625   1.954   5.123  0.3147 -0.6676  0.7031
 1263SOL     OW15250   4.550   1.237  16.894  0.2084  0.2388  0.0877
 1263SOL    HW115251   4.592   1.316  16.928 -0.9137  0.6676  0.4867
 1263SOL    HW215252   4.624   1.176  16.892  0.4286  0.6050 -3.0451
 1264SOL     OW15253   1.116   3.306   1.650 -0.0526  0.2508  0.1288
 1264SOL    HW115254   1.043   3.335   1.705  0.8119  1.9981  0.3473
 1264SOL    HW215255   1.069   3.303   1.567  0.7299 -0.7430 -0.2854
 1265SOL     OW15256   1.826   1.063   3.393 -0.5348  0.3292  0.0584
 1265SOL    HW115257   1.856   1.002   3.460 -2.4340  0.9591  1.4846
 1265SOL    HW215258   1.860   1.027   3.311  4.1540  0.7362  1.8215
 1266SOL     OW15259   3.793   0.271  11.626  0.1328  0.0144  0.2620
 1266SOL    HW115260   3.768   0.179  11.641 -0.7775  0.5045  1.7124
 1266SOL    HW215261   3.710   0.309  11.656  0.1939 -0.2808  0.7928
 1267SOL     OW15262   1.765   2.862  11.268 -0.7839  0.0404  0.7477
 1267SOL    HW115263   1.691   2.865  11.328 -2.0414 -0.6024 -0.7619
 1267SOL    HW215264   1.787   2.955  11.280 -0.7564  0.1863 -0.4439
 1268SOL     OW15265   4.135   2.756   0.083 -0.6114 -0.1244  0.1528
 1268SOL    HW115266   4.213   2.759   0.139 -0.2922 -1.0315 -0.2368
 1268SOL    HW215267   4.081   2.697   0.135 -0.4010  0.9741  1.5939
 1269SOL     OW15268   1.281   2.499   4.004 -0.5678  0.4153  0.2109
 1269SOL    HW115269   1.356   2.559   4.011  1.7887 -2.7794  2.4287
 1269SOL    HW215270   1.239   2.508   4.089  1.0383 -0.4140  1.0973
 1270SOL     OW15271   2.050   2.794   0.425  0.3706  0.5996  0.2949
 1270SOL    HW115272   2.032   2.705   0.395  0.9727  1.4840 -2.7813
 1270SOL    HW215273   2.016   2.855   0.358  1.8059 -1.4688 -2.3278
 1271SOL     OW15274   3.388   3.446   2.646 -0.3344 -0.5123 -0.3018
 1271SOL    HW115275   3.405   3.485   2.732  3.1044 -1.7338 -0.4155
 1271SOL    HW215276   3.297   3.470   2.627  0.0234 -0.5220 -1.9917
 1272SOL     OW15277   0.222   1.709   5.302 -0.4777  0.3404  0.3302
 1272SOL    HW115278   0.200   1.790   5.348  0.2939  1.1847 -0.7657
 1272SOL    HW215279   0.140   1.660   5.306 -0.8145  0.9931  1.3789
 1273SOL     OW15280   1.480   1.130   6.789  0.4878  0.6142 -0.2786
 1273SOL    HW115281   1.426   1.085   6.725 -0.1392  1.0088 -0.0199
 1273SOL    HW215282   1.566   1.111   6.751 -0.1310  1.9671 -2.3246
 1274SOL     OW15283   1.194   1.397  15.176 -0.1433 -0.0290 -0.0192
 1274SOL    HW115284   1.147   1.423  15.096  0.6025 -1.2608 -0.8715
 1274SOL    HW215285   1.125   1.351  15.223  0.3055  0.5742  1.2163
 1275SOL     OW15286   0.097   1.328  12.640  0.2437 -0.6565  0.0011
 1275SOL    HW115287   0.139   1.407  12.605  0.3587 -0.5868  0.2909
 1275SOL    HW215288   0.004   1.351  12.640  0.5213  0.4905  0.6550
 1276SOL     OW15289   2.957   2.389  14.236  0.1488 -0.2919 -0.0450
 1276SOL    HW115290   2.936   2.475  14.201 -0.8974 -1.6391 -2.6994
 1276SOL    HW215291   3.025   2.360  14.176 -1.3985 -2.2169 -0.8463
 1277SOL     OW15292   3.180   1.884  14.715 -0.5337  0.0215  0.0859
 1277SOL    HW115293   3.093   1.860  14.747 -0.8385  0.2466 -0.5743
 1277SOL    HW215294   3.182   1.849  14.626 -0.2823 -0.8070  0.4122
 1278SOL     OW15295   1.496   3.129  13.026 -0.0831 -0.4128  0.1341
 1278SOL    HW115296   1.492   3.104  13.118 -0.0972  2.2325  0.8520
 1278SOL    HW215297   1.404   3.154  13.017  0.9036  1.7631 -3.7623
 1279SOL     OW15298   4.521   3.893  10.117  0.3116  0.4378  0.7800
 1279SOL    HW115299   4.605   3.939  10.121  1.0823 -0.8536 -1.0236
 1279SOL    HW215300   4.489   3.933  10.036  1.0520 -0.2613  0.1462
 1280SOL     OW15301   1.256   3.053   9.678 -0.2711 -1.0466  0.4702
 1280SOL    HW115302   1.326   2.992   9.656 -0.5822 -1.6969  1.3018
 1280SOL    HW215303   1.175   3.002   9.684 -0.7068 -0.6310 -1.7288
 1281SOL     OW15304   1.312   2.028  17.013  0.1613 -0.1327  0.3143
 1281SOL    HW115305   1.294   1.966  16.942 -0.2278  0.4557 -0.1006
 1281SOL    HW215306   1.224   2.066  17.016 -0.3870 -1.2994 -0.8452
 1282SOL     OW15307   3.060   2.453   9.957 -0.1171  0.0559  0.1205
 1282SOL    HW115308   3.125   2.519   9.938  0.1013 -0.4207 -0.7794
 1282SOL    HW215309   3.022   2.461   9.870  1.2285  0.0937 -0.4582
 1283SOL     OW15310   2.508   3.847  14.609 -0.0612  0.0361  0.0897
 1283SOL    HW115311   2.545   3.896  14.682 -1.0927 -2.1250  2.0219
 1283SOL    HW215312   2.564   3.770  14.613 -0.7314 -0.4685 -0.0891
 1284SOL     OW15313   1.721   3.993  15.497  0.1415 -0.2524  0.2413
 1284SOL    HW115314   1.706   3.942  15.418 -0.3349  2.2951 -1.3094
 1284SOL    HW215315   1.682   4.078  15.478 -2.2057 -1.6418 -1.1027
 1285SOL     OW15316   1.724   3.617   1.456  0.2721  0.3757 -0.3467
 1285SOL    HW115317   1.803   3.565   1.439  0.8309  0.6157  1.4497
 1285SOL    HW215318   1.649   3.560   1.441  0.1050  0.8694 -1.3994
 1286SOL     OW15319   3.019   0.856   4.707 -0.3159  0.0053  0.0516
 1286SOL    HW115320   3.047   0.859   4.615 -0.4485 -1.6062 -0.0297
 1286SOL    HW215321   3.099   0.897   4.740 -0.8629 -0.4690  1.9683
 1287SOL     OW15322   3.022   3.216   4.310  0.6014 -0.0327 -0.4282
 1287SOL    HW115323   3.062   3.153   4.370 -1.7773  1.3326  2.5905
 1287SOL    HW215324   3.012   3.164   4.231 -0.8968 -1.1373  0.4969
 1288SOL     OW15325   4.335   4.520  12.823  0.0876  0.0300  0.7061
 1288SOL    HW115326   4.339   4.428  12.798 -0.9368  0.6323 -1.6131
 1288SOL    HW215327   4.418   4.525  12.872  0.2216 -2.2550  0.6899
 1289SOL     OW15328   1.280   1.902   9.391 -0.3557  0.2417  0.0017
 1289SOL    HW115329   1.212   1.870   9.451  0.5151  0.9922  1.3726
 1289SOL    HW215330   1.253   1.849   9.316  1.2818 -1.2976  0.5142
 1290SOL     OW15331   3.702   3.202   0.878 -0.1370 -0.0024 -0.1025
 1290SOL    HW115332   3.680   3.124   0.827  1.1061 -1.0363  0.9269
 1290SOL    HW215333   3.742   3.245   0.803 -1.9271 -1.1378 -1.7069
 1291SOL     OW15334   4.285   0.346   9.812 -0.8280 -0.5334 -0.0464
 1291SOL    HW115335   4.245   0.392   9.887 -0.6979  1.0049 -0.9137
 1291SOL    HW215336   4.367   0.321   9.855 -0.5778  0.4224  0.0284
 1292SOL     OW15337   0.361   3.297   5.836 -0.1463 -0.1478 -0.3108
 1292SOL    HW115338   0.441   3.249   5.816  1.5487  1.1080  3.2708
 1292SOL    HW215339   0.310   3.266   5.762 -0.4954 -0.1026 -0.0870
 1293SOL     OW15340   2.631   2.461  16.146  0.4077 -0.3526  0.0639
 1293SOL    HW115341   2.668   2.546  16.170  1.4979 -0.6359 -0.5776
 1293SOL    HW215342   2.626   2.415  16.230 -0.7489  0.5867  0.5015
 1294SOL     OW15343   1.099   4.396   3.827  0.4721 -0.1512 -0.1480
 1294SOL    HW115344   1.126   4.477   3.871  2.5604  0.1215 -1.9329
 1294SOL    HW215345   1.028   4.426   3.770  0.2181  1.6719  1.1343
 1295SOL     OW15346   4.449   1.807   6.341 -0.2137 -0.4043 -0.2061
 1295SOL    HW115347   4.361   1.830   6.371 -0.2770 -3.0852  1.6262
 1295SOL    HW215348   4.490   1.891   6.360  1.2598 -0.3402 -3.6596
 1296SOL     OW15349   2.617   0.700   3.869 -0.4250 -0.0811 -0.6156
 1296SOL    HW115350   2.662   0.769   3.917 -0.1794  0.6602 -1.9104
 1296SOL    HW215351   2.573   0.745   3.797 -0.1047  2.4181  0.7683
 1297SOL     OW15352   2.610   0.877   6.722  0.2230 -0.0123 -0.1937
 1297SOL    HW115353   2.594   0.792   6.764 -0.6468 -0.7840 -2.0551
 1297SOL    HW215354   2.679   0.906   6.781  0.4338 -1.6603  0.3706
 1298SOL     OW15355   1.923   3.186   2.528  0.1100  0.3281  0.2305
 1298SOL    HW115356   1.889   3.178   2.617 -0.8425  1.4385 -0.0158
 1298SOL    HW215357   2.007   3.233   2.532 -0.1995  0.7881  1.5728
 1299SOL     OW15358   0.417   0.559   5.853  0.2521  0.9109 -0.5004
 1299SOL    HW115359   0.402   0.653   5.860 -0.3013  0.8616 -1.0588
 1299SOL    HW215360   0.389   0.540   5.763  0.2460  1.6803 -0.6585
 1300SOL     OW15361   0.363   0.559   1.145  0.5146 -0.4273  0.6739
 1300SOL    HW115362   0.277   0.573   1.186  0.5721 -0.6897  0.8859
 1300SOL    HW215363   0.424   0.536   1.216  0.9977 -1.0636  0.0506
 1301SOL     OW15364   3.190   4.223   3.625  0.1889 -0.1609 -0.1520
 1301SOL    HW115365   3.098   4.215   3.603 -0.4454  0.5980  2.2501
 1301SOL    HW215366   3.217   4.133   3.607 -0.6533 -0.0714 -1.8435
 1302SOL     OW15367   2.823   4.058  16.918  0.3409  0.4223  0.7315
 1302SOL    HW115368   2.902   4.086  16.871 -0.0181 -3.6065 -2.2451
 1302SOL    HW215369   2.787   4.145  16.934  1.0596  0.8690 -0.1145
 1303SOL     OW15370   2.745   0.195   7.254  0.3405  0.1368  0.2597
 1303SOL    HW115371   2.672   0.152   7.210  0.8054 -2.0295  1.6054
 1303SOL    HW215372   2.816   0.135   7.230  0.4325 -1.0049  3.3175
 1304SOL     OW15373   3.960   2.504   5.431  0.3142  0.1366 -0.3610
 1304SOL    HW115374   3.880   2.518   5.381  1.7953  0.4345 -2.6416
 1304SOL    HW215375   4.024   2.521   5.362  0.9199 -3.0626 -0.5553
 1305SOL     OW15376   0.517   0.158  12.683 -0.0987  0.3195  0.1877
 1305SOL    HW115377   0.517   0.090  12.616  3.6983  0.8934 -0.3809
 1305SOL    HW215378   0.608   0.188  12.682  0.1810 -0.5743 -1.2200
 1306SOL     OW15379   4.017   3.634  15.398 -0.2958 -0.3388 -0.0456
 1306SOL    HW115380   4.070   3.605  15.324 -0.1138 -1.1974  0.4128
 1306SOL    HW215381   3.947   3.687  15.360 -0.4222 -2.4818 -2.8265
 1307SOL     OW15382   0.679   0.807  15.034 -0.0029  0.3706 -0.0816
 1307SOL    HW115383   0.760   0.755  15.032  0.8372  1.6775  0.3592
 1307SOL    HW215384   0.608   0.756  14.996  1.1375  0.2919 -2.0835
 1308SOL     OW15385   1.624   1.433   8.020  0.0613 -0.1485  0.3589
 1308SOL    HW115386   1.676   1.511   7.998  1.7851 -0.7606  2.2614
 1308SOL    HW215387   1.551   1.439   7.958  0.4790 -1.3181 -0.2359
 1309SOL     OW15388   3.852   3.680   7.512 -0.0923  0.2346 -0.4436
 1309SOL    HW115389   3.795   3.630   7.571  0.3957 -2.1420 -1.9581
 1309SOL    HW215390   3.788   3.739   7.473  0.5851  1.0180 -0.3751
 1310SOL     OW15391   4.084   2.577   4.942  0.0735 -0.5636  0.4022
 1310SOL    HW115392   4.095   2.651   4.882  0.8191 -0.8439  0.1906
 1310SOL    HW215393   4.135   2.507   4.900  2.4851 -0.7441  3.6331
 1311SOL     OW15394   3.614   0.122   6.932  0.2287  0.5230 -0.3812
 1311SOL    HW115395   3.665   0.195   6.895 -1.8777  2.0010 -0.4189
 1311SOL    HW215396   3.563   0.165   7.001 -0.7552 -0.3223 -0.5754
 1312SOL     OW15397   1.752   1.795  17.158 -0.1680 -0.1159  0.6640
 1312SOL    HW115398   1.808   1.812  17.082 -0.3817 -0.9521  0.3178
 1312SOL    HW215399   1.662   1.812  17.132  0.9756 -0.3292 -3.3651
 1313SOL     OW15400   0.327   1.442   4.357  0.1175 -0.3436 -0.2621
 1313SOL    HW115401   0.417   1.474   4.353  0.9856 -2.6432  1.4513
 1313SOL    HW215402   0.321   1.432   4.262 -4.8962 -0.5132  0.0635
 1314SOL     OW15403   0.913   0.483   0.891  0.0385 -0.0404  0.1190
 1314SOL    HW115404   0.946   0.480   0.802 -2.7725  1.2279 -0.9628
 1314SOL    HW215405   0.992   0.504   0.941  0.5737 -0.7097 -0.4393
 1315SOL     OW15406   3.780   1.370   8.350 -0.5565  0.0536 -0.4871
 1315SOL    HW115407   3.837   1.313   8.297 -1.7625  0.1682 -1.9206
 1315SOL    HW215408   3.815   1.356   8.438 -1.1755  0.3760 -0.1931
 1316SOL     OW15409   2.098   4.473   8.949 -0.5592 -0.3592 -0.1594
 1316SOL    HW115410   2.170   4.479   9.013  1.4700  0.9351 -2.5479
 1316SOL    HW215411   2.067   4.563   8.940 -0.2831 -0.4651 -2.0317
 1317SOL     OW15412   1.059   2.033   4.427 -0.4748 -0.1953  0.0490
 1317SOL    HW115413   0.970   2.063   4.408 -0.3614  0.5381  0.6813
 1317SOL    HW215414   1.065   2.051   4.521 -1.6843 -0.4334  0.1759
 1318SOL     OW15415   4.116   3.785  16.815  0.2918 -0.3887 -0.4578
 1318SOL    HW115416   4.051   3.855  16.824  1.4887  0.6131  0.3721
 1318SOL    HW215417   4.162   3.833  16.746  0.9703  2.1885  1.7990
 1319SOL     OW15418   0.339   1.848   7.618 -0.1421 -0.5531  0.1602
 1319SOL    HW115419   0.357   1.755   7.635 -0.0183  0.1650  3.9958
 1319SOL    HW215420   0.401   1.867   7.548 -1.2719  1.5807 -0.2696
 1320SOL     OW15421   2.052   3.902  15.142  0.2927  0.0677 -0.3806
 1320SOL    HW115422   2.032   3.825  15.089  0.0672 -1.2329  1.6124
 1320SOL    HW215423   2.017   3.880  15.228 -0.7210  0.1952 -0.7561
 1321SOL     OW15424   3.624   2.167   5.324 -0.0408  0.3501  0.6009
 1321SOL    HW115425   3.624   2.258   5.353  0.9147  0.4241  0.3708
 1321SOL    HW215426   3.533   2.144   5.304 -0.0165  2.3814 -1.7626
 1322SOL     OW15427   1.993   0.532   8.391 -0.0050  0.0011  0.2600
 1322SOL    HW115428   2.029   0.549   8.478  2.6062  0.5001 -0.9229
 1322SOL    HW215429   1.904   0.563   8.408  0.3003  1.7253 -1.3169
 1323SOL     OW15430   2.608   0.899   1.902 -0.3643 -0.2993 -0.4851
 1323SOL    HW115431   2.514   0.914   1.918 -0.2327 -1.1305  1.1288
 1323SOL    HW215432   2.620   0.807   1.925 -0.2644 -0.8247 -2.6847
 1324SOL     OW15433   0.125   2.394   6.026  0.4409 -0.0174 -0.2734
 1324SOL    HW115434   0.126   2.438   5.941 -0.5780  0.6105  0.0322
 1324SOL    HW215435   0.053   2.446   6.063  1.4849  0.9568  0.3914
 1325SOL     OW15436   3.806   0.840   4.399 -0.0200  0.4143  0.0072
 1325SOL    HW115437   3.746   0.766   4.407 -1.6903  1.7306 -0.2674
 1325SOL    HW215438   3.857   0.825   4.480  0.3473 -1.0691 -0.4970
 1326SOL     OW15439   1.266   1.930   7.012  0.4631 -0.3345 -0.0739
 1326SOL    HW115440   1.331   1.912   6.944 -0.6926 -2.8925 -0.5280
 1326SOL    HW215441   1.280   2.024   7.021 -1.5727  0.2114 -2.6160
 1327SOL     OW15442   2.041   3.676  17.161  0.2526  0.3199 -0.1877
 1327SOL    HW115443   2.032   3.674  17.256  0.7214  0.9549 -0.1383
 1327SOL    HW215444   1.956   3.651  17.123 -0.0043 -0.0356  0.6149
 1328SOL     OW15445   1.098   4.327  14.174 -0.3222  0.0796 -0.1103
 1328SOL    HW115446   1.119   4.307  14.266  3.4341  2.8309 -0.3669
 1328SOL    HW215447   1.128   4.245  14.135  0.8226  0.1213  0.6780
 1329SOL     OW15448   0.917   4.358   6.945  0.4573 -0.4582 -1.1406
 1329SOL    HW115449   0.893   4.298   7.016 -0.8838  0.6046 -0.7042
 1329SOL    HW215450   0.968   4.416   7.001  0.3775 -1.8693  0.4248
 1330SOL     OW15451   1.719   1.528  17.276  0.1111  0.3184  0.2300
 1330SOL    HW115452   1.744   1.620  17.272  1.8186 -0.1567 -0.5597
 1330SOL    HW215453   1.731   1.501  17.184  1.4750  2.3261 -0.1981
 1331SOL     OW15454   2.973   0.990   2.335  0.4872 -0.3047 -0.0127
 1331SOL    HW115455   2.919   0.923   2.377  0.3546 -0.9468 -1.1991
 1331SOL    HW215456   3.048   0.995   2.395 -0.5216 -0.2127  1.2370
 1332SOL     OW15457   3.640   0.087  13.690  0.2107 -0.0500  0.1313
 1332SOL    HW115458   3.645   0.119  13.780 -0.3928 -0.0649  0.1734
 1332SOL    HW215459   3.557   0.039  13.694 -0.7698  1.7976  1.6662
 1333SOL     OW15460   1.366   3.764  12.829 -0.4824 -0.4272 -0.1439
 1333SOL    HW115461   1.407   3.851  12.833  1.6536 -1.4113 -0.8266
 1333SOL    HW215462   1.304   3.773  12.901  0.4574  0.6360  0.5461
 1334SOL     OW15463   0.877   0.950   7.577 -0.5516 -0.0590  0.4749
 1334SOL    HW115464   0.822   1.026   7.596  0.9096  1.4743 -1.5077
 1334SOL    HW215465   0.935   0.990   7.512  0.6355 -0.9418  0.9858
 1335SOL     OW15466   2.732   0.246  10.008 -0.0364  1.0207 -0.1751
 1335SOL    HW115467   2.749   0.338  10.030 -1.7890  0.8079  2.0832
 1335SOL    HW215468   2.648   0.231  10.052 -0.5226 -0.3852 -1.5835
 1336SOL     OW15469   3.625   3.292   4.027  0.0548 -0.3254  0.0821
 1336SOL    HW115470   3.549   3.294   3.970 -0.1030 -3.6728  0.1600
 1336SOL    HW215471   3.614   3.370   4.080 -0.4369 -1.2517  1.3322
 1337SOL     OW15472   0.127   3.996   3.793  0.3618  0.6357  0.3448
 1337SOL    HW115473   0.168   3.965   3.873  0.5349 -2.0145 -0.7875
 1337SOL    HW215474   0.067   3.923   3.784  1.4320  0.2351 -3.9013
 1338SOL     OW15475   1.386   2.749   6.517  0.8500 -0.5102  0.0609
 1338SOL    HW115476   1.362   2.719   6.430 -1.2892  1.5422 -0.0565
 1338SOL    HW215477   1.317   2.814   6.530 -0.4139 -1.1930 -3.3070
 1339SOL     OW15478   1.483   2.045   9.350  0.2803 -0.3882 -0.1853
 1339SOL    HW115479   1.458   2.088   9.268 -1.6740 -0.7187  0.2372
 1339SOL    HW215480   1.404   1.998   9.377 -0.7300  0.1252 -2.2102
 1340SOL     OW15481   0.840   3.720  17.152  0.3912 -0.0857 -0.0702
 1340SOL    HW115482   0.892   3.769  17.216  0.2175  0.4111 -0.3122
 1340SOL    HW215483   0.758   3.716  17.200  0.0482  1.5978 -0.5173
 1341SOL     OW15484   1.342   2.997   8.249 -0.4196  0.0987  0.2039
 1341SOL    HW115485   1.345   3.000   8.345 -0.7817 -0.6906  0.2418
 1341SOL    HW215486   1.393   2.917   8.238 -0.0708  0.4066 -0.3856
 1342SOL     OW15487   0.778   4.043   4.366 -0.0481  0.4697  0.1839
 1342SOL    HW115488   0.727   4.039   4.285  0.7656 -0.0533 -0.2953
 1342SOL    HW215489   0.861   4.011   4.331 -0.4284  0.7377 -0.9542
 1343SOL     OW15490   4.125   3.079  14.650  0.2641 -0.0826 -0.2724
 1343SOL    HW115491   4.085   3.064  14.736 -0.5753  0.0371 -0.6478
 1343SOL    HW215492   4.129   2.991  14.613  1.7636 -0.0399 -0.2302
 1344SOL     OW15493   4.460   3.305  11.297  0.9183 -0.3321 -0.2805
 1344SOL    HW115494   4.447   3.246  11.371  3.1176  1.6747  1.7216
 1344SOL    HW215495   4.368   3.325  11.281  0.4264 -1.0643  1.6817
 1345SOL     OW15496   3.238   2.704   8.577  0.3862 -0.1907  0.6491
 1345SOL    HW115497   3.332   2.700   8.596  0.1858 -1.0389  1.4324
 1345SOL    HW215498   3.224   2.798   8.566  3.8319  0.1211 -1.2800
 1346SOL     OW15499   3.327   3.185   5.691  0.5455 -0.9604  0.3767
 1346SOL    HW115500   3.371   3.268   5.675 -0.6439 -0.5743 -0.9267
 1346SOL    HW215501   3.248   3.185   5.637 -0.8461 -1.0547  2.3968
 1347SOL     OW15502   3.420   3.249   3.828 -0.3494  0.4350 -0.0031
 1347SOL    HW115503   3.364   3.303   3.772 -3.2121 -1.0259  1.4454
 1347SOL    HW215504   3.451   3.176   3.773  0.5154 -0.7932  2.1145
 1348SOL     OW15505   1.643   0.131   6.900 -0.2226  0.1404  0.0078
 1348SOL    HW115506   1.674   0.218   6.925  0.1373 -0.5908  2.0609
 1348SOL    HW215507   1.548   0.134   6.915  0.0116 -0.7120  1.6001
 1349SOL     OW15508   1.245   3.896   9.005  0.0409  0.8186  0.1643
 1349SOL    HW115509   1.332   3.925   8.978  0.7150 -0.0612  1.3493
 1349SOL    HW215510   1.204   3.978   9.033 -0.4106  0.9020 -0.7710
 1350SOL     OW15511   4.254   3.218   0.877  0.0091  0.4469  0.0015
 1350SOL    HW115512   4.318   3.250   0.941 -0.3978  0.8441  0.2027
 1350SOL    HW215513   4.279   3.281   0.809 -0.7639 -0.6627 -1.3143
 1351SOL     OW15514   2.753   4.551   8.068  0.1964 -0.3774 -0.1261
 1351SOL    HW115515   2.760   4.604   8.148  1.4453  1.3733 -1.4041
 1351SOL    HW215516   2.814   4.604   8.017 -1.8107  1.1920 -0.9406
 1352SOL     OW15517   3.621   1.249   4.979 -0.1154  0.3048  0.0375
 1352SOL    HW115518   3.536   1.260   5.022  0.2261  0.1253  0.7599
 1352SOL    HW215519   3.631   1.154   4.971 -0.2946  0.3026 -0.1587
 1353SOL     OW15520   0.664   0.358   8.133 -0.1543  0.4477 -0.3255
 1353SOL    HW115521   0.690   0.448   8.152  0.0518  0.8489 -2.5455
 1353SOL    HW215522   0.572   0.374   8.110 -0.1498  0.8651 -0.0488
 1354SOL     OW15523   3.382   1.274   2.095 -0.8641 -0.1011  0.1750
 1354SOL    HW115524   3.446   1.334   2.057 -0.0385  2.6420  5.8328
 1354SOL    HW215525   3.313   1.265   2.030  0.8913 -0.1511 -1.6902
 1355SOL     OW15526   0.704   0.212   6.012 -0.2217  0.0692  0.0884
 1355SOL    HW115527   0.658   0.279   6.064 -0.7116 -0.8880  0.8972
 1355SOL    HW215528   0.710   0.134   6.068  2.2146 -0.0367 -0.3509
 1356SOL     OW15529   3.101   1.591   9.629  0.0408  0.4513 -0.1612
 1356SOL    HW115530   3.172   1.593   9.692 -0.1309 -1.6411  0.1148
 1356SOL    HW215531   3.039   1.639   9.684 -0.1428  2.4618 -2.1182
 1357SOL     OW15532   4.440   0.459   0.403  0.0062 -0.6885  0.4040
 1357SOL    HW115533   4.431   0.524   0.473  2.1164  0.3257 -0.2523
 1357SOL    HW215534   4.518   0.414   0.435  1.2621  3.2508  2.9754
 1358SOL     OW15535   4.040   0.238   2.087  0.4401 -0.1447  0.5991
 1358SOL    HW115536   4.017   0.263   1.997 -2.4798 -0.4346  1.2663
 1358SOL    HW215537   4.016   0.146   2.084  0.9832 -0.2855  0.6145
 1359SOL     OW15538   3.609   2.031   4.288 -0.6499 -0.4461 -0.2875
 1359SOL    HW115539   3.667   2.101   4.320  0.7528 -1.0905 -1.4267
 1359SOL    HW215540   3.643   1.951   4.328 -2.4490 -0.6885  0.7461
 1360SOL     OW15541   2.728   4.654  17.142  0.1931  0.1447  0.3972
 1360SOL    HW115542   2.636   4.679  17.130  0.3816  0.9498  0.5845
 1360SOL    HW215543   2.771   4.678  17.060 -0.0227 -2.6542 -0.5131
 1361SOL     OW15544   4.548   4.294   4.416 -0.7146  0.7829  0.6671
 1361SOL    HW115545   4.614   4.301   4.346  0.9149 -0.4248  2.0963
 1361SOL    HW215546   4.587   4.324   4.498 -2.8384 -1.6206  2.5362
 1362SOL     OW15547   2.549   4.223   7.246  0.4159 -0.3991 -0.1963
 1362SOL    HW115548   2.576   4.312   7.225 -2.4063  0.4505 -0.2436
 1362SOL    HW215549   2.529   4.225   7.340 -0.8051  4.0110 -0.5502
 1363SOL     OW15550   4.009   1.042  16.566  0.3832  0.7731  0.0445
 1363SOL    HW115551   4.099   1.073  16.574  0.5805  0.2608 -0.2042
 1363SOL    HW215552   3.956   1.121  16.573 -2.4687 -1.1260  0.4734
 1364SOL     OW15553   4.646   0.607  13.024  0.1645  0.2148  0.0679
 1364SOL    HW115554   4.685   0.691  13.048  2.1039  0.0733 -2.6827
 1364SOL    HW215555   4.581   0.643  12.964 -1.0008  0.0898  1.2444
 1365SOL     OW15556   1.848   0.965  15.902  0.1863 -0.1306  0.0118
 1365SOL    HW115557   1.869   0.994  15.813  1.1630 -0.0441  0.2737
 1365SOL    HW215558   1.825   1.051  15.939  1.0528  0.4962 -0.9130
 1366SOL     OW15559   0.370   4.037   3.656 -0.1110 -0.4894  0.1117
 1366SOL    HW115560   0.291   4.030   3.710 -0.0379 -1.9002  0.0173
 1366SOL    HW215561   0.362   4.112   3.597  2.8349  0.0044  0.3433
 1367SOL     OW15562   1.152   2.093   7.384  0.0430  0.6027 -0.0101
 1367SOL    HW115563   1.205   2.171   7.365 -0.4473  0.5503 -1.6301
 1367SOL    HW215564   1.137   2.107   7.477  0.1659 -0.3403  0.1543
 1368SOL     OW15565   2.240   0.687  11.728  0.1143  0.1314  0.3450
 1368SOL    HW115566   2.225   0.593  11.724  2.8514 -0.3684  1.4052
 1368SOL    HW215567   2.243   0.703  11.822  0.3378 -0.8104  0.4984
 1369SOL     OW15568   1.112   0.941   6.404  0.0500 -0.2920 -0.1865
 1369SOL    HW115569   1.166   0.948   6.325  0.6062  0.0025  0.2178
 1369SOL    HW215570   1.154   0.866   6.445 -0.7365 -0.5765  0.0885
 1370SOL     OW15571   3.212   4.446   7.395  0.1339  0.4308 -0.3843
 1370SOL    HW115572   3.132   4.421   7.349 -1.6105  0.9348  2.3286
 1370SOL    HW215573   3.278   4.426   7.329  2.2134 -0.1476  1.8702
 1371SOL     OW15574   0.332   1.937   7.126  0.1650  0.1845  0.1724
 1371SOL    HW115575   0.422   1.952   7.155  0.1279 -0.6618  0.7501
 1371SOL    HW215576   0.314   1.862   7.183 -1.6971  0.8117  0.3913
 1372SOL     OW15577   0.174   0.754   8.979 -0.2717 -0.0830 -0.3150
 1372SOL    HW115578   0.101   0.717   9.028 -0.1564  2.3991  1.7584
 1372SOL    HW215579   0.249   0.740   9.037 -0.7027 -0.6187  0.1128
 1373SOL     OW15580   3.674   2.390   8.451 -0.5470 -0.1014  0.7889
 1373SOL    HW115581   3.734   2.461   8.429 -0.7489 -0.0252  0.4866
 1373SOL    HW215582   3.730   2.343   8.513 -2.0328 -1.1352  1.3336
 1374SOL     OW15583   2.447   4.212   0.338  0.7421 -0.0427  1.3113
 1374SOL    HW115584   2.410   4.279   0.281  0.8995 -0.8997  0.2030
 1374SOL    HW215585   2.540   4.235   0.338  0.2482  1.9327 -0.3108
 1375SOL     OW15586   1.365   3.362   5.234 -0.2820 -0.2207  0.3429
 1375SOL    HW115587   1.411   3.349   5.151  0.3003 -0.4032  0.7013
 1375SOL    HW215588   1.359   3.271   5.262 -1.8311  0.1131  1.0989
 1376SOL     OW15589   0.749   2.640   7.186 -0.2281 -0.3469 -0.0778
 1376SOL    HW115590   0.825   2.698   7.192 -0.4926 -0.0446  0.4081
 1376SOL    HW215591   0.772   2.574   7.251 -0.5793 -0.2764  0.1184
 1377SOL     OW15592   2.506   2.264   8.144  0.1702  0.0181 -0.0150
 1377SOL    HW115593   2.457   2.254   8.225 -0.2545 -1.6733 -0.4751
 1377SOL    HW215594   2.577   2.325   8.164  1.5524 -0.9890 -1.8076
 1378SOL     OW15595   4.403   3.509   3.086  0.0699 -0.0395 -0.2332
 1378SOL    HW115596   4.323   3.524   3.036  0.0118 -1.1383 -0.4716
 1378SOL    HW215597   4.466   3.551   3.026 -0.1395  1.1587  0.3835
 1379SOL     OW15598   2.897   0.226  13.359  0.7444 -0.3100 -0.2967
 1379SOL    HW115599   2.801   0.230  13.360  0.7110 -0.8374 -0.9523
 1379SOL    HW215600   2.930   0.273  13.436 -0.2218  0.4617 -0.3478
 1380SOL     OW15601   0.612   1.741   2.907  0.3304  0.2808  0.0464
 1380SOL    HW115602   0.675   1.773   2.843  0.2576 -0.7059 -0.5283
 1380SOL    HW215603   0.646   1.655   2.932  1.2401  0.7014  0.2694
 1381SOL     OW15604   1.613   1.766   4.409  0.1076 -0.0098  0.2857
 1381SOL    HW115605   1.697   1.735   4.442 -0.4548 -0.5363  1.2362
 1381SOL    HW215606   1.626   1.742   4.317 -2.6653 -2.4725  0.5167
 1382SOL     OW15607   0.621   2.580   1.144  0.0010 -0.1527  0.1068
 1382SOL    HW115608   0.608   2.585   1.050  0.3018 -0.2050  0.0607
 1382SOL    HW215609   0.533   2.563   1.178 -0.5715  0.1321 -1.2648
 1383SOL     OW15610   1.990   0.554   8.034 -0.1059  0.0071  0.5079
 1383SOL    HW115611   2.027   0.539   7.947 -0.3451  1.0959  0.2090
 1383SOL    HW215612   2.049   0.623   8.066  1.4239 -1.3441  0.5575
 1384SOL     OW15613   2.497   4.619   8.768  0.3656 -0.0510  0.0334
 1384SOL    HW115614   2.458   4.631   8.681 -0.4150 -0.2835  0.3470
 1384SOL    HW215615   2.425   4.635   8.830  1.0570  0.6002  0.6712
 1385SOL     OW15616   0.321   3.605   0.432  0.3057  0.6338  0.1740
 1385SOL    HW115617   0.282   3.527   0.391  0.7374 -0.2324  1.4251
 1385SOL    HW215618   0.260   3.676   0.413 -0.0130 -0.2494 -2.0851
 1386SOL     OW15619   1.446   3.713  11.464  0.0999 -0.7695  0.2716
 1386SOL    HW115620   1.523   3.660  11.485 -0.4933 -1.2559  1.2078
 1386SOL    HW215621   1.416   3.676  11.381  1.1898  0.7839 -0.8274
 1387SOL     OW15622   2.412   2.154  15.153 -0.0061 -0.5186 -0.1306
 1387SOL    HW115623   2.358   2.179  15.227  1.9448  1.3868  0.6465
 1387SOL    HW215624   2.471   2.226  15.132 -0.2035 -0.6152 -1.0181
 1388SOL     OW15625   3.367   3.857   8.221  0.0328 -0.4576  0.0164
 1388SOL    HW115626   3.299   3.871   8.156  1.1306  1.2288 -0.7780
 1388SOL    HW215627   3.402   3.946   8.229 -0.0631 -0.3279 -1.0201
 1389SOL     OW15628   1.490   0.784   3.792  0.3715 -0.7799  0.2512
 1389SOL    HW115629   1.454   0.872   3.787 -0.5303 -0.9944  2.8184
 1389SOL    HW215630   1.460   0.752   3.877  1.0375 -0.6391  0.5379
 1390SOL     OW15631   1.236   0.004   1.858  0.1612  0.1185  0.2925
 1390SOL    HW115632   1.192   4.683   1.931  0.5985  1.5297  1.3973
 1390SOL    HW215633   1.297   4.656   1.836 -0.9457 -1.2357  1.5222
 1391SOL     OW15634   1.567   0.035   4.778 -0.6279  0.2783  0.2029
 1391SOL    HW115635   1.533   4.702   4.848  0.2850  0.7855  1.0521
 1391SOL    HW215636   1.526   4.714   4.703 -0.6465 -0.9052  0.8884
 1392SOL     OW15637   2.673   1.608   3.361 -0.0275 -0.0862  0.0460
 1392SOL    HW115638   2.585   1.582   3.333 -0.3588  1.3745 -0.2294
 1392SOL    HW215639   2.672   1.574   3.450 -0.3617 -1.6056 -0.5291
 1393SOL     OW15640   1.255   0.350   6.379 -0.1388 -0.6683 -0.2658
 1393SOL    HW115641   1.259   0.434   6.334 -1.2041 -0.6803 -0.3917
 1393SOL    HW215642   1.244   0.283   6.311 -0.7168 -1.8715  1.0074
 1394SOL     OW15643   1.944   1.610  10.506 -0.5537  0.3584 -0.0794
 1394SOL    HW115644   1.924   1.608  10.412  1.6058 -0.8398 -0.5228
 1394SOL    HW215645   2.034   1.576  10.503 -0.3515  0.9775 -1.2845
 1395SOL     OW15646   1.267   2.725   4.251 -0.2140  0.4258  0.1214
 1395SOL    HW115647   1.353   2.706   4.289 -0.2216 -0.0524 -0.1060
 1395SOL    HW215648   1.205   2.682   4.309 -2.0757  1.9865 -0.6943
 1396SOL     OW15649   1.118   4.049   7.590 -0.5666 -0.5838 -0.8955
 1396SOL    HW115650   1.126   3.954   7.599  0.9551 -0.3085  0.7777
 1396SOL    HW215651   1.121   4.067   7.684  2.2138  0.1385 -1.1347
 1397SOL     OW15652   1.779   2.615   3.784 -0.5424  0.0160 -0.2935
 1397SOL    HW115653   1.791   2.539   3.841 -1.5926  1.2406  1.5507
 1397SOL    HW215654   1.778   2.674   3.859  1.1812 -1.0813  0.5848
 1398SOL     OW15655   2.264   4.262   8.139 -0.2662  0.2939  0.3071
 1398SOL    HW115656   2.349   4.234   8.174 -1.2686 -0.7997  1.8668
 1398SOL    HW215657   2.232   4.301   8.221 -1.0575  1.6204 -0.6350
 1399SOL     OW15658   0.633   1.763  11.386 -0.5418 -0.2488  0.2818
 1399SOL    HW115659   0.546   1.755  11.348  0.1994  0.0036 -1.4857
 1399SOL    HW215660   0.622   1.800  11.474  0.5080 -0.2875  0.4373
 1400SOL     OW15661   4.159   0.530   4.868  0.3380  0.4875  0.1792
 1400SOL    HW115662   4.193   0.493   4.950 -0.3363  1.3696  0.8600
 1400SOL    HW215663   4.248   0.552   4.841  1.7428 -0.1791  4.2788
 1401SOL     OW15664   4.422   0.779   6.184  0.4684 -0.6823  0.2421
 1401SOL    HW115665   4.498   0.832   6.207  0.2254 -1.3251  2.4889
 1401SOL    HW215666   4.407   0.721   6.258 -2.6680  0.1530  0.2699
 1402SOL     OW15667   0.714   0.701   7.593  0.2338  0.1385  0.3596
 1402SOL    HW115668   0.795   0.664   7.629 -0.8679 -0.1836  2.4740
 1402SOL    HW215669   0.730   0.795   7.600 -0.4318  0.3616 -1.0656
 1403SOL     OW15670   1.542   0.933  10.945  0.1683  0.1969 -0.0275
 1403SOL    HW115671   1.506   0.873  10.880  1.7120  0.1888 -0.8758
 1403SOL    HW215672   1.594   0.982  10.882 -0.1031  0.0408 -0.3744
 1404SOL     OW15673   2.790   2.484  14.846  0.8797 -0.1085 -0.3199
 1404SOL    HW115674   2.874   2.446  14.818 -0.7816 -2.2247 -2.4460
 1404SOL    HW215675   2.813   2.573  14.871  3.5005 -1.2836  1.4832
 1405SOL     OW15676   4.507   4.533   5.466 -0.2517 -0.1215  0.3674
 1405SOL    HW115677   4.475   4.595   5.531  1.2690  0.8079  0.2350
 1405SOL    HW215678   4.454   4.458   5.491 -0.9731  0.0583 -0.6318
 1406SOL     OW15679   0.191   1.971   5.443 -0.7275 -0.4579 -0.3347
 1406SOL    HW115680   0.283   1.998   5.435 -0.1891 -0.8391  4.7626
 1406SOL    HW215681   0.168   1.979   5.536 -2.2648 -1.0667 -0.6600
 1407SOL     OW15682   0.843   1.032   2.507  0.7252 -0.0678  0.2115
 1407SOL    HW115683   0.760   1.016   2.552  0.7425 -1.0494 -0.1183
 1407SOL    HW215684   0.891   0.950   2.515  0.3167 -0.4312 -0.9454
 1408SOL     OW15685   3.039   4.547   4.260 -0.0216 -0.4562  0.0087
 1408SOL    HW115686   3.042   4.457   4.292 -0.3403  0.1415  1.7687
 1408SOL    HW215687   2.957   4.549   4.212  0.4237  1.6536 -0.6581
 1409SOL     OW15688   3.883   3.776   5.136 -0.1173 -0.2542  0.3494
 1409SOL    HW115689   3.861   3.684   5.146  1.6516 -0.8216 -0.9472
 1409SOL    HW215690   3.962   3.771   5.081 -1.4457 -4.3292 -1.1829
 1410SOL     OW15691   2.107   1.542  13.387 -0.7733  0.2692  0.4354
 1410SOL    HW115692   2.120   1.584  13.303 -0.1222 -1.8529 -0.5279
 1410SOL    HW215693   2.131   1.452  13.362 -0.6440 -0.4692  3.1811
 1411SOL     OW15694   4.371   0.208   5.116  0.0340 -0.2776 -0.4742
 1411SOL    HW115695   4.323   0.290   5.102 -0.1911 -0.0117  1.7696
 1411SOL    HW215696   4.336   0.152   5.047  1.1071 -0.2580 -1.0192
 1412SOL     OW15697   3.695   1.014   9.333 -0.4681 -0.4578 -0.1564
 1412SOL    HW115698   3.671   0.959   9.408  0.6487  3.5066  3.0937
 1412SOL    HW215699   3.791   1.016   9.335 -0.4571 -0.4995 -0.7845
 1413SOL     OW15700   2.729   4.321  17.013  0.0160  0.1898 -0.3397
 1413SOL    HW115701   2.711   4.315  17.107  0.5568  0.5898 -0.2064
 1413SOL    HW215702   2.645   4.295  16.975 -1.0889  1.6108  1.1012
 1414SOL     OW15703   1.441   3.718   6.607 -0.5049  0.1371 -0.5639
 1414SOL    HW115704   1.463   3.811   6.607 -0.6086  0.1584  0.7226
 1414SOL    HW215705   1.364   3.716   6.549  1.4386  1.6176 -3.1783
 1415SOL     OW15706   4.174   2.577   4.577  0.1274 -0.4940  0.0033
 1415SOL    HW115707   4.131   2.630   4.644  1.7675  0.9956 -0.1371
 1415SOL    HW215708   4.193   2.501   4.632  1.4427  0.3670  0.7413
 1416SOL     OW15709   0.401   1.840   3.048  0.3428 -0.3061  1.1536
 1416SOL    HW115710   0.426   1.763   3.100  1.8353 -1.1391 -0.8085
 1416SOL    HW215711   0.468   1.827   2.981 -0.1038  0.9837  0.4637
 1417SOL     OW15712   4.292   3.069  10.020 -0.1345  0.1194  0.3333
 1417SOL    HW115713   4.244   3.081   9.939  0.9824 -0.5485 -0.4304
 1417SOL    HW215714   4.381   3.091   9.993 -0.8867  2.2529 -0.3542
 1418SOL     OW15715   0.471   1.448   9.506 -0.2391 -0.5579 -0.2873
 1418SOL    HW115716   0.464   1.515   9.574 -3.6884  0.4879 -1.6547
 1418SOL    HW215717   0.518   1.373   9.540  1.4610  1.2984  1.4620
 1419SOL     OW15718   0.853   2.038   4.070  0.0838  0.1015  0.3094
 1419SOL    HW115719   0.782   2.035   4.135  1.1145  1.7623  1.4995
 1419SOL    HW215720   0.829   1.956   4.027 -1.2815  1.5412 -1.6798
 1420SOL     OW15721   1.427   3.363   8.517 -0.1254 -0.4052  0.4895
 1420SOL    HW115722   1.513   3.319   8.520  0.6734  1.1238  0.0564
 1420SOL    HW215723   1.370   3.289   8.495 -0.7229  0.2555 -0.1431
 1421SOL     OW15724   2.060   2.277   7.941  0.1292  0.2413 -0.2636
 1421SOL    HW115725   1.995   2.331   7.986  0.7025  1.7056 -1.1955
 1421SOL    HW215726   2.141   2.322   7.966  0.0735 -0.0875  0.5079
 1422SOL     OW15727   0.387   2.834  13.969  0.4245  0.4212 -0.0364
 1422SOL    HW115728   0.409   2.915  13.922 -0.7286 -0.2486 -1.7208
 1422SOL    HW215729   0.317   2.862  14.029  0.6659  1.5768 -0.2780
 1423SOL     OW15730   3.798   3.958   4.512  0.4698  0.6847  0.2162
 1423SOL    HW115731   3.889   3.947   4.542  1.5467  2.3548 -2.4301
 1423SOL    HW215732   3.757   3.900   4.576  0.6904 -1.1659 -1.3145
 1424SOL     OW15733   1.506   2.788   6.197  0.3270  0.3650  0.3297
 1424SOL    HW115734   1.573   2.753   6.139  0.0638  3.9186 -2.1247
 1424SOL    HW215735   1.525   2.882   6.201 -0.9610  0.6659 -0.6692
 1425SOL     OW15736   2.028   0.262   2.877  0.6801  0.3830 -0.4512
 1425SOL    HW115737   2.016   0.245   2.784  0.3855  1.4145 -0.6001
 1425SOL    HW215738   2.120   0.286   2.882  0.6236  0.3756  0.6885
 1426SOL     OW15739   3.263   2.841   6.387 -0.2356  0.3723 -0.4041
 1426SOL    HW115740   3.356   2.857   6.370 -0.4163  0.8032 -0.9727
 1426SOL    HW215741   3.230   2.925   6.418 -1.6318 -0.2283 -0.2789
 1427SOL     OW15742   2.338   0.865  14.767  0.0377 -0.0646 -0.5463
 1427SOL    HW115743   2.311   0.835  14.680  0.0468 -0.1351 -0.5247
 1427SOL    HW215744   2.428   0.895  14.755  0.9863 -2.2738  1.1069
 1428SOL     OW15745   1.025   4.074   6.666 -0.2166  0.2418 -0.3371
 1428SOL    HW115746   1.047   3.981   6.662 -1.2396 -0.0600  1.4297
 1428SOL    HW215747   1.107   4.111   6.699 -0.7440  0.9989  0.1353
 1429SOL     OW15748   2.082   4.147   4.464 -0.1523  0.1238 -0.3208
 1429SOL    HW115749   2.112   4.175   4.550  0.0721  0.7118 -0.5881
 1429SOL    HW215750   2.005   4.200   4.443  0.0265 -1.1752 -4.3410
 1430SOL     OW15751   1.588   2.029   6.816 -0.0541 -0.5162 -0.7222
 1430SOL    HW115752   1.558   1.952   6.863  1.8001 -1.3093 -0.8315
 1430SOL    HW215753   1.607   1.984   6.733  3.7405  1.7662 -1.1183
 1431SOL     OW15754   4.306   1.483   4.743  0.1625  0.0982 -0.2882
 1431SOL    HW115755   4.347   1.405   4.706  2.6792  2.0929 -1.6992
 1431SOL    HW215756   4.276   1.525   4.662 -1.0286 -2.7465 -1.3222
 1432SOL     OW15757   3.666   1.758  12.170  0.2692  0.0691 -0.1474
 1432SOL    HW115758   3.589   1.728  12.219  1.0568 -0.5205  0.7305
 1432SOL    HW215759   3.653   1.849  12.196  0.2075 -0.2738  1.0539
 1433SOL     OW15760   0.808   1.746   4.208 -0.3453  0.2991 -0.0329
 1433SOL    HW115761   0.753   1.817   4.242  0.4776  0.6277  0.6026
 1433SOL    HW215762   0.784   1.751   4.115  0.6413  2.6082 -0.1492
 1434SOL     OW15763   0.433   2.227   1.286 -0.0172  0.0561  0.1765
 1434SOL    HW115764   0.354   2.196   1.330  3.0664 -2.6820  3.7021
 1434SOL    HW215765   0.489   2.247   1.360  1.3059 -0.2824 -0.7331
 1435SOL     OW15766   0.110   0.773   4.122  0.7412 -0.1659 -0.3965
 1435SOL    HW115767   0.017   0.771   4.099  0.5877  1.5263  0.0433
 1435SOL    HW215768   0.101   0.778   4.217  0.2794  3.1415 -0.5959
 1436SOL     OW15769   1.931   3.473   4.667  0.1098  0.2547  0.2236
 1436SOL    HW115770   1.948   3.556   4.713  2.9569 -0.6053  0.7461
 1436SOL    HW215771   1.872   3.509   4.602  1.8435  1.7881 -0.5143
 1437SOL     OW15772   2.113   0.280   7.719 -0.5946 -0.2890 -0.0491
 1437SOL    HW115773   2.202   0.267   7.751 -1.0672 -2.9742  0.2374
 1437SOL    HW215774   2.059   0.252   7.794  0.0036  3.1003  1.6619
 1438SOL     OW15775   2.308   0.336   5.307 -0.3157  0.2803  0.4108
 1438SOL    HW115776   2.213   0.332   5.296 -0.1396 -0.0030 -1.1082
 1438SOL    HW215777   2.306   0.377   5.393  1.7567 -0.1065  0.6364
 1439SOL     OW15778   2.329   0.097   4.716 -0.0174  0.2351  0.5203
 1439SOL    HW115779   2.373   0.179   4.738 -1.8253  1.2058  0.5214
 1439SOL    HW215780   2.345   0.044   4.794 -2.4889  0.6544  1.3230
 1440SOL     OW15781   1.608   4.428   2.673  0.5111  0.1151 -0.2121
 1440SOL    HW115782   1.611   4.393   2.762 -2.7370 -0.2106 -0.2143
 1440SOL    HW215783   1.598   4.347   2.623  0.0622  0.4562 -0.6823
 1441SOL     OW15784   3.949   0.626   5.045  0.3045 -0.6557 -0.1504
 1441SOL    HW115785   3.860   0.607   5.016  0.2496  0.5971 -0.7798
 1441SOL    HW215786   3.992   0.610   4.961  1.1464  0.0446  0.1474
 1442SOL     OW15787   0.890   3.827  16.742 -0.5528  0.2340  0.8525
 1442SOL    HW115788   0.830   3.811  16.816  0.1427  0.0759  1.3807
 1442SOL    HW215789   0.865   3.917  16.719  1.8071  0.8456  0.6681
 1443SOL     OW15790   1.340   1.301  17.494  0.0691 -0.1657  0.5245
 1443SOL    HW115791   1.423   1.309  17.446  0.7093  2.2682  2.0465
 1443SOL    HW215792   1.276   1.338  17.432  1.1826  1.1172  0.1352
 1444SOL     OW15793   3.529   3.410   6.824  0.2079 -0.0010 -0.2302
 1444SOL    HW115794   3.454   3.432   6.769 -2.1723 -2.4622  2.0425
 1444SOL    HW215795   3.577   3.492   6.834 -1.8410  1.3300 -1.4335
 1445SOL     OW15796   4.691   4.405   5.625  0.3536 -0.5553 -0.2971
 1445SOL    HW115797   4.677   4.312   5.643 -2.1566 -0.1209  0.0583
 1445SOL    HW215798   4.627   4.428   5.557 -0.5573 -1.1642  0.3527
 1446SOL     OW15799   4.108   0.079   9.941  0.2690  0.4209 -0.1481
 1446SOL    HW115800   4.089   0.171   9.959  0.6329  0.0160  2.4136
 1446SOL    HW215801   4.034   0.030   9.975  0.3723  1.1123  1.0680
 1447SOL     OW15802   3.839   0.044   5.840 -0.0417  0.7801 -0.2130
 1447SOL    HW115803   3.851   4.673   5.860 -2.0577  0.2522 -1.3830
 1447SOL    HW215804   3.743   0.052   5.837  0.0957  2.1943 -0.8164
 1448SOL     OW15805   1.111   1.383   7.484  0.4008 -0.9731 -0.6656
 1448SOL    HW115806   1.126   1.399   7.578 -0.3267 -0.3100 -0.6599
 1448SOL    HW215807   1.093   1.470   7.450  2.6679 -0.1708  0.2124
 1449SOL     OW15808   0.755   0.104   5.120  0.5760  0.4316  0.0352
 1449SOL    HW115809   0.723   0.194   5.117  1.7482  0.8859  1.3018
 1449SOL    HW215810   0.747   0.096   5.215  1.9055 -0.3837  0.0828
 1450SOL     OW15811   0.936   3.518   3.196  0.2084 -0.4545  0.5955
 1450SOL    HW115812   0.902   3.508   3.285 -0.4918 -0.0949  0.3750
 1450SOL    HW215813   0.927   3.613   3.186  0.3410 -0.5568 -0.5536
 1451SOL     OW15814   3.919   1.614   5.667 -0.2473 -0.0595 -0.0118
 1451SOL    HW115815   3.997   1.658   5.633 -0.2248 -0.5878 -0.6264
 1451SOL    HW215816   3.949   1.580   5.751  2.5833  1.9915 -0.1739
 1452SOL     OW15817   1.575   3.593   8.955  0.5290 -0.2966  0.4244
 1452SOL    HW115818   1.558   3.628   8.867  0.5101  2.0054  1.3400
 1452SOL    HW215819   1.645   3.653   8.983  0.3562 -2.6038  5.7956
 1453SOL     OW15820   0.489   3.774   0.106  0.2540 -0.3435 -0.1932
 1453SOL    HW115821   0.481   3.833   0.031  0.1260  2.1369  1.7805
 1453SOL    HW215822   0.410   3.801   0.152 -0.7130 -2.2013 -0.7486
 1454SOL     OW15823   0.205   0.445   4.107 -0.0090 -0.2886 -0.1447
 1454SOL    HW115824   0.201   0.519   4.046  0.8193 -0.0364  0.1100
 1454SOL    HW215825   0.217   0.488   4.191 -1.6119  0.5438 -0.3347
 1455SOL     OW15826   0.047   0.736  10.313 -0.3664  0.5688 -0.6581
 1455SOL    HW115827   0.113   0.714  10.379  2.2879  1.8418 -2.8527
 1455SOL    HW215828   0.018   0.824  10.335  0.8308  0.9285 -0.5067
 1456SOL     OW15829   4.161   1.283   7.000  0.2331  0.0716 -0.5230
 1456SOL    HW115830   4.148   1.219   6.929 -0.1190 -1.9405  1.3544
 1456SOL    HW215831   4.097   1.258   7.067 -0.0414  2.1051 -0.0369
 1457SOL     OW15832   0.824   2.612   8.903 -0.1966  0.3485  0.3017
 1457SOL    HW115833   0.883   2.600   8.978  1.3853  0.4926 -0.9242
 1457SOL    HW215834   0.750   2.554   8.922  1.4885 -2.7209 -2.5485
 1458SOL     OW15835   1.495   4.691  17.170  0.3518  0.0009  0.0058
 1458SOL    HW115836   1.481   0.050  17.121 -1.5418  0.0224  0.5748
 1458SOL    HW215837   1.573   4.652  17.131 -0.2150 -0.4244 -0.6799
 1459SOL     OW15838   3.028   1.463   0.273  0.2306  0.3850 -0.2960
 1459SOL    HW115839   3.097   1.482   0.208  2.9976 -0.0774  2.5040
 1459SOL    HW215840   3.063   1.510   0.348 -0.6975  2.0652 -0.9160
 1460SOL     OW15841   0.877   2.037   7.685 -0.0082  0.1294 -0.0498
 1460SOL    HW115842   0.841   2.080   7.762 -0.7153 -0.3676 -0.1026
 1460SOL    HW215843   0.796   2.036   7.632 -0.6067  1.9584  0.8408
 1461SOL     OW15844   2.690   0.536   5.640  0.1795 -0.7029 -0.3704
 1461SOL    HW115845   2.704   0.618   5.689 -1.1704 -0.1596 -0.9060
 1461SOL    HW215846   2.603   0.519   5.676  0.7996  0.0725  1.5479
 1462SOL     OW15847   4.404   4.451   9.269 -0.4022 -0.5614 -0.0325
 1462SOL    HW115848   4.393   4.515   9.339 -0.7468  0.1093 -0.6969
 1462SOL    HW215849   4.472   4.499   9.222  0.6010 -2.1156 -0.2035
 1463SOL     OW15850   0.538   1.259  10.497 -0.3068  0.5772 -0.4187
 1463SOL    HW115851   0.604   1.237  10.432 -0.1804 -0.5471  0.0830
 1463SOL    HW215852   0.549   1.348  10.529  1.3283 -0.2575  1.3818
 1464SOL     OW15853   2.571   1.480   5.093 -0.4296 -0.9486  0.0747
 1464SOL    HW115854   2.491   1.472   5.042 -0.1567 -0.3685 -0.4460
 1464SOL    HW215855   2.622   1.551   5.054 -1.9427 -1.4077 -2.7406
 1465SOL     OW15856   1.773   3.068   2.098 -0.4138 -0.5241 -0.0606
 1465SOL    HW115857   1.844   3.042   2.156  1.1614  0.2548 -1.6264
 1465SOL    HW215858   1.818   3.115   2.028  1.7021 -0.5786  1.2676
 1466SOL     OW15859   4.325   0.974   3.733 -0.9639  0.1982  0.0045
 1466SOL    HW115860   4.410   1.009   3.757 -0.5377 -0.4008 -0.6439
 1466SOL    HW215861   4.280   0.960   3.816 -1.7638 -3.2919 -1.0075
 1467SOL     OW15862   2.865   1.147   9.350  0.1183 -0.4438 -0.3458
 1467SOL    HW115863   2.776   1.143   9.385 -0.0609 -0.5082 -0.8136
 1467SOL    HW215864   2.907   1.221   9.394 -0.9655  2.0334 -3.4866
 1468SOL     OW15865   2.368   1.707  16.177 -0.1428 -0.8439  0.2769
 1468SOL    HW115866   2.418   1.770  16.227 -1.4487 -1.2880  2.1429
 1468SOL    HW215867   2.280   1.743  16.190  0.8395  1.2246  1.0915
 1469SOL     OW15868   2.658   4.139   6.772 -0.0416 -0.2106  0.5421
 1469SOL    HW115869   2.690   4.186   6.694  0.0207 -0.9150  0.1428
 1469SOL    HW215870   2.573   4.116   6.736 -1.0472 -0.1277  2.8711
 1470SOL     OW15871   3.391   1.933  14.953 -0.5722 -0.2798 -0.3637
 1470SOL    HW115872   3.313   1.905  14.905 -0.3932 -0.0829 -0.7700
 1470SOL    HW215873   3.396   2.026  14.932  1.3624 -0.3279 -0.1572
 1471SOL     OW15874   1.240   0.209  17.503  0.2884 -0.0081  0.0801
 1471SOL    HW115875   1.204   0.133  17.458  2.2848 -1.4495  0.9306
 1471SOL    HW215876   1.334   0.197  17.512  0.2631 -0.2788 -0.0184
 1472SOL     OW15877   4.511   2.839   6.353  1.2194  0.2155  0.1185
 1472SOL    HW115878   4.456   2.814   6.427  0.5050 -0.7309 -0.7252
 1472SOL    HW215879   4.526   2.752   6.315 -0.6100 -0.6268  1.3181
 1473SOL     OW15880   2.809   3.643   0.369 -0.2356 -0.0955  0.4834
 1473SOL    HW115881   2.751   3.583   0.322 -1.7587  2.7379 -1.2641
 1473SOL    HW215882   2.804   3.619   0.462 -3.8061 -1.3881 -0.0663
 1474SOL     OW15883   1.071   1.672  16.699 -0.0315 -0.2576  0.2547
 1474SOL    HW115884   1.055   1.594  16.753  1.5749 -0.7752 -0.0279
 1474SOL    HW215885   1.087   1.642  16.610 -4.6123 -0.0767 -0.6546
 1475SOL     OW15886   4.067   2.999   3.094  0.0750  0.4516  0.4556
 1475SOL    HW115887   4.068   3.044   3.010  3.8258 -0.4981 -0.0285
 1475SOL    HW215888   4.152   2.955   3.096  0.3815  0.9368 -2.1461
 1476SOL     OW15889   4.003   1.427   2.590 -0.1552  0.1871 -0.1636
 1476SOL    HW115890   3.942   1.443   2.518  1.3510 -0.1944 -1.5181
 1476SOL    HW215891   4.075   1.390   2.540  0.3527  0.1262  0.6086
 1477SOL     OW15892   1.171   4.718   1.412  0.0161  0.2583  0.2275
 1477SOL    HW115893   1.155   0.088   1.390  1.0757  0.6675  1.1532
 1477SOL    HW215894   1.093   4.698   1.465  0.8032 -0.7984  0.9818
 1478SOL     OW15895   0.467   2.428   3.101 -0.4215  0.3603 -0.1899
 1478SOL    HW115896   0.531   2.374   3.055 -0.5668  0.1063 -0.0950
 1478SOL    HW215897   0.460   2.497   3.035 -3.2338  0.4630  0.2082
 1479SOL     OW15898   1.605   3.256   7.313  0.6481 -0.1394 -0.1027
 1479SOL    HW115899   1.596   3.165   7.284  2.0556 -0.6426  1.0504
 1479SOL    HW215900   1.566   3.234   7.397 -0.1405 -0.9679 -0.6754
 1480SOL     OW15901   4.527   0.994   5.503 -0.6349  0.1233 -0.4527
 1480SOL    HW115902   4.470   0.919   5.519 -0.6317 -0.0055 -1.0290
 1480SOL    HW215903   4.465   1.066   5.498 -0.7441  0.0299 -0.4537
 1481SOL     OW15904   3.562   1.096   1.753  0.0518 -0.4389  0.4853
 1481SOL    HW115905   3.486   1.038   1.754  0.4279 -0.9337  0.0645
 1481SOL    HW215906   3.522   1.183   1.755 -2.0421 -1.4326  1.0010
 1482SOL     OW15907   1.848   0.808   6.690  0.6839 -1.1283  0.0675
 1482SOL    HW115908   1.805   0.830   6.773  1.0759 -1.0036  0.2393
 1482SOL    HW215909   1.771   0.764   6.655 -0.6676 -0.2597  2.0139
 1483SOL     OW15910   4.098   0.934   9.174 -0.1073 -0.2620 -0.2461
 1483SOL    HW115911   4.185   0.894   9.171 -0.7526 -1.7491  1.0787
 1483SOL    HW215912   4.081   0.958   9.083  0.2496 -1.3615 -0.6003
 1484SOL     OW15913   4.696   1.514   4.062 -0.5584 -0.0269  0.5065
 1484SOL    HW115914   4.712   1.596   4.110 -0.7998  0.2578  0.0959
 1484SOL    HW215915   4.659   1.554   3.983  2.8544  0.7293 -0.6932
 1485SOL     OW15916   3.330   2.299   2.235  0.0864 -0.0472 -0.2087
 1485SOL    HW115917   3.237   2.302   2.260  0.6480 -0.4992  1.9625
 1485SOL    HW215918   3.332   2.383   2.189  1.9559  0.4032  0.7187
 1486SOL     OW15919   4.064   0.892   6.234 -0.1646  0.9784  0.0119
 1486SOL    HW115920   4.077   0.896   6.139  0.5172  2.6400  0.1679
 1486SOL    HW215921   4.106   0.806   6.242 -1.2417  0.3425 -1.2471
 1487SOL     OW15922   0.430   4.127  12.471 -0.2667  0.6010  0.3104
 1487SOL    HW115923   0.503   4.185  12.490 -1.1904  2.2301 -1.1683
 1487SOL    HW215924   0.449   4.049  12.524 -1.3020  0.0154 -0.1854
 1488SOL     OW15925   2.621   1.004  12.976  0.3602  0.0421 -0.1536
 1488SOL    HW115926   2.662   0.934  12.926 -0.7642  0.1004 -1.1384
 1488SOL    HW215927   2.681   1.010  13.051 -1.4648  0.4801  1.2786
 1489SOL     OW15928   3.704   3.712  14.156  0.9453 -0.3223 -0.0807
 1489SOL    HW115929   3.692   3.800  14.190  0.2517 -0.5079  0.1562
 1489SOL    HW215930   3.776   3.732  14.095  2.1936 -1.8843  0.8873
 1490SOL     OW15931   4.587   4.295   3.392  0.0434 -0.0733  0.2280
 1490SOL    HW115932   4.649   4.260   3.457  0.6566  0.4557 -0.0678
 1490SOL    HW215933   4.549   4.229   3.334  1.1625  1.7369 -2.6170
 1491SOL     OW15934   1.789   2.194   5.931  0.5547 -0.2067 -0.4805
 1491SOL    HW115935   1.790   2.099   5.921 -0.2355 -0.6088  3.1603
 1491SOL    HW215936   1.734   2.203   6.009  0.6112 -0.6869 -0.3871
 1492SOL     OW15937   0.014   3.959  11.940 -0.6019  0.0107 -0.2544
 1492SOL    HW115938   4.641   3.955  11.940 -0.6027  0.0330  0.6305
 1492SOL    HW215939   0.027   4.044  11.983  0.0265  0.2959 -1.0172
 1493SOL     OW15940   2.764   3.095   7.533  0.0893 -0.4994  0.5743
 1493SOL    HW115941   2.771   3.142   7.449  1.1821 -0.2404  0.8038
 1493SOL    HW215942   2.811   3.012   7.523  0.4722 -0.2901  0.6113
 1494SOL     OW15943   2.050   1.620   1.644  0.0458 -0.0793  0.1901
 1494SOL    HW115944   1.992   1.545   1.657 -1.2256  0.5376 -1.7840
 1494SOL    HW215945   2.052   1.665   1.729 -1.1981 -0.2774  0.3252
 1495SOL     OW15946   2.986   3.550   1.702  0.0055 -0.3525 -0.7868
 1495SOL    HW115947   2.987   3.645   1.696 -0.0758 -0.3543 -0.8346
 1495SOL    HW215948   2.954   3.531   1.613 -0.1937  0.8055 -0.9606
 1496SOL     OW15949   3.832   3.174  14.088 -0.7603  0.5660  0.1388
 1496SOL    HW115950   3.826   3.154  13.995 -0.6274  1.9716 -0.1858
 1496SOL    HW215951   3.774   3.106  14.121  1.2620 -1.3259 -0.2736
 1497SOL     OW15952   3.383   0.052  15.969 -0.0363  0.3003 -0.2695
 1497SOL    HW115953   3.435   0.062  16.049  1.0202 -1.2535 -0.7447
 1497SOL    HW215954   3.420   0.128  15.924  1.3125  1.4452  2.7781
 1498SOL     OW15955   0.840   4.491   8.538  0.2402  0.1761 -0.0349
 1498SOL    HW115956   0.852   4.449   8.453  1.9419  0.5822  0.0104
 1498SOL    HW215957   0.845   4.418   8.599  1.8056  0.6733  0.4358
 1499SOL     OW15958   3.906   1.937   9.056  0.1309  0.1758 -0.1839
 1499SOL    HW115959   3.839   1.895   9.110  1.8540 -0.2016  1.6935
 1499SOL    HW215960   3.956   1.983   9.124  0.4052  0.4009 -0.5384
 1500SOL     OW15961   4.124   2.433   3.091 -0.0143 -0.2937 -0.2873
 1500SOL    HW115962   4.131   2.450   2.997 -0.9116  1.2688 -0.0824
 1500SOL    HW215963   4.206   2.387   3.106  0.7704  0.4234 -2.4242
 1501SOL     OW15964   2.728   2.959  12.366  0.1917 -0.0973  0.7920
 1501SOL    HW115965   2.754   3.051  12.377 -0.9450 -0.0030  2.6822
 1501SOL    HW215966   2.707   2.954  12.273 -0.0113 -0.0556  0.8348
 1502SOL     OW15967   3.709   0.165  10.538 -0.0807  0.3088  0.1682
 1502SOL    HW115968   3.642   0.231  10.556  1.3149  2.1121 -1.2324
 1502SOL    HW215969   3.785   0.196  10.587  1.1741 -0.6720 -1.1548
 1503SOL     OW15970   4.475   2.350   5.932  0.1377  0.5255 -0.1943
 1503SOL    HW115971   4.486   2.443   5.914  1.5446  0.1866 -1.0358
 1503SOL    HW215972   4.399   2.370   5.987  0.8306 -2.1051  1.7643
 1504SOL     OW15973   0.055   2.055   4.528  0.4892  0.5200 -0.4982
 1504SOL    HW115974   0.113   2.091   4.461 -0.2320  2.1771 -0.2226
 1504SOL    HW215975   0.059   2.129   4.588 -1.2135  1.0688 -1.0718
 1505SOL     OW15976   3.856   3.301   6.800  0.5432 -0.2400  0.1193
 1505SOL    HW115977   3.865   3.213   6.837  2.2456  0.0654  0.4256
 1505SOL    HW215978   3.776   3.326   6.847  0.1362 -1.4013  0.0575
 1506SOL     OW15979   4.610   1.553   6.514  0.3222 -0.2787  0.8055
 1506SOL    HW115980   4.674   1.562   6.444 -0.1677 -1.0665  0.2478
 1506SOL    HW215981   4.621   1.634   6.564  4.3529  1.7928 -3.5071
 1507SOL     OW15982   0.184   4.480   2.523  0.1532 -0.0803  0.3066
 1507SOL    HW115983   0.269   4.459   2.562 -0.2132 -3.0847 -0.5069
 1507SOL    HW215984   0.208   4.466   2.431  1.3275 -1.5744  0.8450
 1508SOL     OW15985   4.309   3.134   7.363 -0.2681  0.0911  0.3390
 1508SOL    HW115986   4.356   3.101   7.440 -0.7829 -2.3022 -0.3650
 1508SOL    HW215987   4.288   3.223   7.392 -0.4383  0.8309 -2.0599
 1509SOL     OW15988   1.878   0.704   3.340  0.4107  0.5143  0.3208
 1509SOL    HW115989   1.820   0.661   3.278  0.8844 -1.1164  0.9819
 1509SOL    HW215990   1.919   0.772   3.287  0.6619  0.7468  0.8113
 1510SOL     OW15991   4.495   2.951   9.346 -0.1251 -0.5618  0.3479
 1510SOL    HW115992   4.563   2.909   9.294 -0.3806  1.6393 -1.7529
 1510SOL    HW215993   4.548   3.009   9.400 -1.5028 -0.0513  1.1661
 1511SOL     OW15994   3.353   1.061   7.499 -0.7648  0.1831 -0.3433
 1511SOL    HW115995   3.351   1.106   7.414  1.6445  0.1956 -0.3916
 1511SOL    HW215996   3.288   0.991   7.495 -1.5370  0.9027 -0.5069
 1512SOL     OW15997   2.865   0.814  15.373 -0.3634  0.1245 -0.4586
 1512SOL    HW115998   2.894   0.837  15.284  1.5615  0.3458  0.2268
 1512SOL    HW215999   2.885   0.721  15.369  1.9023  0.5253  1.2383
 1513SOL     OW16000   1.107   1.389   5.058  0.3947  0.1604 -0.0039
 1513SOL    HW116001   1.161   1.393   5.137  0.6073  1.2582 -0.2027
 1513SOL    HW216002   1.179   1.371   4.998  0.2956 -1.5828  0.3980
 1514SOL     OW16003   4.306   1.950   3.639 -0.0324  0.0852 -0.4145
 1514SOL    HW116004   4.396   1.970   3.665 -0.4688 -0.7924  1.8327
 1514SOL    HW216005   4.258   2.028   3.666 -1.0286 -0.6885  0.0703
 1515SOL     OW16006   2.375   0.515   7.260  0.3887 -0.4196 -0.1940
 1515SOL    HW116007   2.469   0.500   7.256  0.5554  0.6243 -0.2251
 1515SOL    HW216008   2.360   0.490   7.351  1.6700 -0.7686 -0.0817
 1516SOL     OW16009   2.408   0.392   2.618 -0.7157 -0.2662 -0.1263
 1516SOL    HW116010   2.356   0.416   2.541  1.2713  1.9403 -0.7870
 1516SOL    HW216011   2.495   0.392   2.580 -0.7296  1.0961 -0.1542
 1517SOL     OW16012   0.764   2.892   9.097  0.0761  0.3594  0.0436
 1517SOL    HW116013   0.850   2.934   9.109  0.2648 -0.2543  0.8141
 1517SOL    HW216014   0.799   2.807   9.123 -0.2520  0.9022  2.2365
 1518SOL     OW16015   0.425   3.071  12.693 -0.1192  0.3711  0.6081
 1518SOL    HW116016   0.430   3.066  12.597 -3.7566  0.7238  0.3941
 1518SOL    HW216017   0.367   3.147  12.702 -1.2558 -0.1221 -2.5324
 1519SOL     OW16018   1.802   0.102   8.300  0.7911 -0.1684 -1.0709
 1519SOL    HW116019   1.755   0.186   8.307 -1.2835 -1.6257  2.5089
 1519SOL    HW216020   1.884   0.128   8.342 -0.7077  1.3922  0.9455
 1520SOL     OW16021   1.619   2.687  15.335 -0.3531  0.4894  0.0353
 1520SOL    HW116022   1.645   2.779  15.341 -1.3354  0.9684 -2.7770
 1520SOL    HW216023   1.622   2.656  15.425 -1.5775 -0.8646 -0.3855
 1521SOL     OW16024   2.974   1.994   7.259 -0.2592 -0.0142  0.1627
 1521SOL    HW116025   3.052   1.941   7.275  1.1815  2.1786  0.3865
 1521SOL    HW216026   2.898   1.939   7.279  0.0354 -1.0416 -1.6068
 1522SOL     OW16027   0.107   1.620  16.022 -0.3729  0.4619  0.2262
 1522SOL    HW116028   0.181   1.606  16.081  0.6024 -0.1649 -1.1400
 1522SOL    HW216029   0.103   1.715  16.011 -2.9349  0.3945  0.5809
 1523SOL     OW16030   2.306   0.310   4.428  0.2313  0.3773 -0.1673
 1523SOL    HW116031   2.236   0.337   4.488 -2.4239 -1.5204 -2.4754
 1523SOL    HW216032   2.362   0.261   4.489  2.1734  2.0293 -0.6141
 1524SOL     OW16033   1.163   2.160   9.462  0.2416  0.2492 -0.3685
 1524SOL    HW116034   1.195   2.070   9.457  3.3883  1.3475  0.5860
 1524SOL    HW216035   1.070   2.151   9.441  0.1599  2.4331 -0.8654
 1525SOL     OW16036   4.296   3.441   4.900 -0.5463 -1.0371 -0.4008
 1525SOL    HW116037   4.370   3.388   4.872  0.1424 -1.3164  1.9527
 1525SOL    HW216038   4.247   3.454   4.819  1.2752 -0.2519 -1.3709
 1526SOL     OW16039   0.013   3.374   7.510 -0.0398 -0.5606 -0.6627
 1526SOL    HW116040   4.706   3.455   7.468 -0.5673 -0.6143 -0.3919
 1526SOL    HW216041   4.714   3.314   7.438 -1.8679 -1.4910  0.6727
 1527SOL     OW16042   1.217   0.148   0.475 -0.0218  1.1109 -0.0090
 1527SOL    HW116043   1.282   0.190   0.419  2.1654 -0.4928  1.3325
 1527SOL    HW216044   1.249   0.059   0.490 -1.1828  0.8733  1.0123
 1528SOL     OW16045   1.769   0.294   2.943  0.1713 -0.1910  0.3727
 1528SOL    HW116046   1.865   0.293   2.940  0.0718 -1.5069 -2.7380
 1528SOL    HW216047   1.751   0.352   3.017 -1.2778  0.2530 -0.3378
 1529SOL     OW16048   1.881   3.355   7.303  0.0893 -0.8111 -0.6350
 1529SOL    HW116049   1.793   3.318   7.311 -0.9680  2.0395  0.8133
 1529SOL    HW216050   1.868   3.448   7.284  0.9869 -0.1654  2.0217
 1530SOL     OW16051   1.864   4.392   8.596  0.4905  0.5226  0.3143
 1530SOL    HW116052   1.863   4.372   8.690  1.5261  2.1457  0.6615
 1530SOL    HW216053   1.912   4.474   8.604  2.3193 -0.3597 -1.5246
 1531SOL     OW16054   3.784   2.959   4.379  0.6922  0.0666 -0.0217
 1531SOL    HW116055   3.711   2.946   4.440 -0.5623 -0.5493 -1.6603
 1531SOL    HW216056   3.842   2.884   4.390  1.5994  1.0648  2.0525
 1532SOL     OW16057   4.182   2.578  10.033 -0.3276 -0.9204 -1.0610
 1532SOL    HW116058   4.232   2.496  10.034  0.6196 -0.3500 -2.0479
 1532SOL    HW216059   4.250   2.631  10.074 -1.7561  0.2789 -0.2401
 1533SOL     OW16060   1.012   2.166   8.861 -0.3459  0.3623  0.3896
 1533SOL    HW116061   0.977   2.228   8.797 -0.3829 -0.2089 -0.1392
 1533SOL    HW216062   0.930   2.151   8.907 -1.1368 -1.1331 -1.5147
 1534SOL     OW16063   0.015   3.522   1.017 -0.1607  0.7934 -0.0516
 1534SOL    HW116064   4.661   3.580   1.005 -1.6294 -0.7011  2.0665
 1534SOL    HW216065   0.016   3.538   1.111 -0.4082  3.2381 -0.4568
 1535SOL     OW16066   0.951   2.312   5.585 -0.5719  0.1655  0.4761
 1535SOL    HW116067   0.903   2.392   5.566 -2.0221 -1.1727 -1.4446
 1535SOL    HW216068   0.936   2.316   5.679 -0.8495 -0.1616  0.4470
 1536SOL     OW16069   0.516   1.148   5.852 -0.6945  0.2510  0.4272
 1536SOL    HW116070   0.449   1.187   5.909 -1.9647  1.9841 -2.2481
 1536SOL    HW216071   0.561   1.231   5.835 -0.4852  0.0229 -0.1357
 1537SOL     OW16072   3.266   0.376   5.966 -0.1791  0.5805  0.1687
 1537SOL    HW116073   3.338   0.340   6.018 -0.9816 -0.8395  0.2966
 1537SOL    HW216074   3.299   0.354   5.879 -1.8709 -0.9461 -0.0870
 1538SOL     OW16075   4.311   1.276   3.721  0.0918 -0.1278 -0.6105
 1538SOL    HW116076   4.284   1.197   3.768  2.2869 -0.0075  0.8597
 1538SOL    HW216077   4.403   1.288   3.746 -0.0746 -0.9088  0.3806
 1539SOL     OW16078   2.253   0.139  15.327 -0.5763 -0.6590  0.4641
 1539SOL    HW116079   2.260   0.047  15.301 -1.8305 -0.4929 -0.4797
 1539SOL    HW216080   2.258   0.124  15.422 -1.9006  0.7214  0.7503
 1540SOL     OW16081   0.790   0.027   4.685 -0.9388  0.0862 -1.2631
 1540SOL    HW116082   0.767   0.008   4.594  0.0370  0.3614 -1.5749
 1540SOL    HW216083   0.712   4.721   4.731 -0.1175 -1.3809 -0.7765
 1541SOL     OW16084   2.423   4.390   0.131  0.5074  0.0939  0.2425
 1541SOL    HW116085   2.390   4.474   0.101  1.0256  0.3463  0.3845
 1541SOL    HW216086   2.456   4.352   0.049  0.2850 -0.1356  0.2567
 1542SOL     OW16087   2.080   3.351   9.389  0.0202  0.4421 -0.0547
 1542SOL    HW116088   2.008   3.408   9.416 -1.4553 -1.1800 -0.5797
 1542SOL    HW216089   2.076   3.367   9.294 -0.3038  1.7701  0.1898
 1543SOL     OW16090   3.255   3.323  16.148 -0.7478  0.4811 -0.0934
 1543SOL    HW116091   3.297   3.393  16.098 -1.7613  1.4757  0.4328
 1543SOL    HW216092   3.333   3.284  16.188 -1.9708 -0.7466  1.0949
 1544SOL     OW16093   0.287   1.678   4.985 -0.1029  0.0545 -0.1476
 1544SOL    HW116094   0.197   1.702   4.967  0.7662  0.7428 -3.5520
 1544SOL    HW216095   0.314   1.747   5.045  3.1042  0.4656 -2.0741
 1545SOL     OW16096   3.525   0.134   1.171  0.0891 -0.2004  0.3300
 1545SOL    HW116097   3.590   0.064   1.162  1.8850  1.3222  1.5074
 1545SOL    HW216098   3.522   0.143   1.266 -2.5886  0.4019  0.1646
 1546SOL     OW16099   3.011   2.984   3.779  0.4516  0.1971  0.2644
 1546SOL    HW116100   3.068   3.052   3.743 -4.3096  2.9555 -2.0513
 1546SOL    HW216101   3.077   2.932   3.824  2.2058  1.6903 -0.6083
 1547SOL     OW16102   3.914   4.624  14.540  0.1673  0.4556  0.0883
 1547SOL    HW116103   3.975   4.601  14.470 -0.7990  2.8077 -1.5440
 1547SOL    HW216104   3.831   4.583  14.516  0.3635  0.3581 -0.4094
 1548SOL     OW16105   3.755   1.772   3.332  0.0396 -0.2356  0.1943
 1548SOL    HW116106   3.727   1.858   3.300  1.5761  0.7175  1.4484
 1548SOL    HW216107   3.733   1.784   3.424 -0.5816  1.6277 -0.1873
 1549SOL     OW16108   2.298   0.141   4.131  0.5793 -0.0622 -0.2084
 1549SOL    HW116109   2.288   0.193   4.211  0.1548 -1.4596  0.6442
 1549SOL    HW216110   2.217   0.158   4.084 -0.4377 -0.7260  1.3267
 1550SOL     OW16111   1.854   3.099  11.362  0.1334 -0.1948  0.0432
 1550SOL    HW116112   1.905   3.139  11.432  1.0167 -0.9051 -0.1955
 1550SOL    HW216113   1.804   3.173  11.327 -1.0540 -0.7119  0.6607
 1551SOL     OW16114   2.008   4.565  14.742 -0.7964 -0.3637  0.4904
 1551SOL    HW116115   2.059   4.636  14.780  1.7746 -1.3540 -1.1689
 1551SOL    HW216116   2.038   4.567  14.651  1.5666 -0.5330  1.2682
 1552SOL     OW16117   4.208   4.718   8.849 -0.1047 -0.3090  0.0383
 1552SOL    HW116118   4.196   4.704   8.943 -1.9512  1.6729  0.0986
 1552SOL    HW216119   4.162   0.079   8.838 -3.2353 -1.3650  5.2125
 1553SOL     OW16120   2.723   4.287   8.032 -0.0803 -0.1961  0.1939
 1553SOL    HW116121   2.749   4.378   8.020 -1.2388  0.3499  1.8057
 1553SOL    HW216122   2.762   4.242   7.958  0.1152  0.3483 -0.0308
 1554SOL     OW16123   0.969   3.738   9.536 -0.0660 -0.4398 -0.7330
 1554SOL    HW116124   1.009   3.800   9.475 -2.2194  1.9010  0.2470
 1554SOL    HW216125   0.944   3.660   9.485 -2.1514 -0.3234  0.1279
 1555SOL     OW16126   0.329   4.658   8.085  0.2121  0.5426  0.4106
 1555SOL    HW116127   0.283   0.002   8.136  1.5315  1.5276  0.3402
 1555SOL    HW216128   0.281   4.660   8.002 -1.6398  3.0974  1.5192
 1556SOL     OW16129   1.231   0.605  14.539  0.0194  0.1081 -0.4828
 1556SOL    HW116130   1.144   0.620  14.577  0.3266 -0.1226  0.3076
 1556SOL    HW216131   1.248   0.520  14.579 -3.9753 -0.0463  0.9203
 1557SOL     OW16132   1.087   1.663   6.052 -0.3147  0.3501  0.2812
 1557SOL    HW116133   1.012   1.627   6.100  0.2556  1.6404  2.1516
 1557SOL    HW216134   1.128   1.591   6.004 -0.2590  1.0937 -0.7750
 1558SOL     OW16135   0.771   4.075  16.664 -0.3263  0.5414 -0.4331
 1558SOL    HW116136   0.845   4.116  16.710 -0.2490  2.2835 -2.1069
 1558SOL    HW216137   0.701   4.089  16.728 -0.8140  1.1448 -1.0822
 1559SOL     OW16138   3.815   1.095   4.667  0.0351 -0.9385  0.4603
 1559SOL    HW116139   3.849   1.125   4.752  0.3266 -1.0906  0.3990
 1559SOL    HW216140   3.898   1.053   4.645 -0.2164 -0.3246 -1.6205
 1560SOL     OW16141   3.352   0.298   4.534  0.5655 -0.2387 -0.1836
 1560SOL    HW116142   3.335   0.205   4.548  1.0386 -0.1558  0.9385
 1560SOL    HW216143   3.436   0.303   4.578 -0.7019  1.3370  2.0827
 1561SOL     OW16144   2.330   1.911   9.452  0.6575  0.1863 -0.3929
 1561SOL    HW116145   2.350   1.827   9.411  3.9541  0.8670 -0.1341
 1561SOL    HW216146   2.419   1.940   9.472  0.4211  1.1926 -0.8134
 1562SOL     OW16147   3.697   2.437   2.524 -0.0158  0.3714 -0.2080
 1562SOL    HW116148   3.771   2.412   2.469 -2.0255  1.9514 -3.6043
 1562SOL    HW216149   3.722   2.523   2.558 -1.9332  0.7323  0.2652
 1563SOL     OW16150   3.164   1.314   7.785 -0.3489 -0.1965 -0.1167
 1563SOL    HW116151   3.251   1.344   7.758 -0.3938 -0.5106 -0.6185
 1563SOL    HW216152   3.177   1.345   7.874 -1.3831 -0.7317  0.2166
 1564SOL     OW16153   3.328   2.870   9.183 -0.2383  0.8139  0.0708
 1564SOL    HW116154   3.253   2.843   9.237  0.3036  0.7114  0.7832
 1564SOL    HW216155   3.290   2.878   9.096 -0.7078 -1.2376  0.0850
 1565SOL     OW16156   1.855   3.450  10.161 -0.0732  0.4507 -0.7361
 1565SOL    HW116157   1.906   3.487  10.233 -2.3879 -0.6729  1.4830
 1565SOL    HW216158   1.861   3.358  10.187 -0.4258  0.4069 -0.8172
 1566SOL     OW16159   2.036   1.600   4.099 -0.4007  0.3028  0.4540
 1566SOL    HW116160   2.037   1.691   4.068  1.2357  0.6223  1.4682
 1566SOL    HW216161   1.997   1.551   4.026 -0.3922 -1.2175  1.4798
 1567SOL     OW16162   3.961   0.819   2.102  0.3596  0.0463 -0.0339
 1567SOL    HW116163   3.987   0.834   2.193  0.2660  0.3041 -0.0504
 1567SOL    HW216164   3.941   0.726   2.106  0.4033  0.0075 -0.8179
 1568SOL     OW16165   2.387   0.020   2.538 -0.0443  0.4936  0.9894
 1568SOL    HW116166   2.360   0.003   2.447  0.9292  0.7561  0.6513
 1568SOL    HW216167   2.466   0.074   2.534 -0.1183  0.3445 -2.2516
 1569SOL     OW16168   3.503   0.243   2.888 -0.0748 -0.0712 -0.2631
 1569SOL    HW116169   3.580   0.264   2.940  1.1239 -1.6548 -1.4226
 1569SOL    HW216170   3.528   0.247   2.796  4.8957 -1.9316  1.0538
 1570SOL     OW16171   1.389   4.463   0.256  0.4250 -0.0766 -0.0313
 1570SOL    HW116172   1.306   4.501   0.227 -0.5871 -1.6248  0.8176
 1570SOL    HW216173   1.363   4.371   0.255 -0.8670  0.2811  1.1780
 1571SOL     OW16174   4.709   2.359   8.782  0.1451 -0.3188  0.0342
 1571SOL    HW116175   4.639   2.396   8.836  0.0117  0.6003 -0.7580
 1571SOL    HW216176   0.046   2.331   8.851 -2.1718 -1.2540  1.6179
 1572SOL     OW16177   2.669   0.508  10.071  0.1999  0.2898  0.2046
 1572SOL    HW116178   2.622   0.507   9.987 -2.5325  0.5314  1.7425
 1572SOL    HW216179   2.671   0.600  10.094 -0.5403  0.3208  0.1574
 1573SOL     OW16180   3.401   0.087   0.602  0.2183  0.0795  0.7524
 1573SOL    HW116181   3.419   4.722   0.567  1.2024 -0.1151  1.7401
 1573SOL    HW216182   3.335   0.128   0.546 -0.6863  1.7123  3.0195
 1574SOL     OW16183   2.611   0.550   2.914 -0.0453 -0.3275  0.5035
 1574SOL    HW116184   2.576   0.514   2.832  1.8859  0.2158 -0.5618
 1574SOL    HW216185   2.551   0.623   2.932  1.9646  0.7735  2.5983
 1575SOL     OW16186   4.108   0.589   3.168  0.3497 -0.8196 -0.3029
 1575SOL    HW116187   4.087   0.584   3.261 -0.5469  1.0576 -0.4155
 1575SOL    HW216188   4.130   0.679   3.146 -2.5086 -0.1040 -0.1684
 1576SOL     OW16189   2.012   2.722  12.804  0.3871 -0.0260  0.0573
 1576SOL    HW116190   2.093   2.772  12.807  1.0355 -1.1707  1.5705
 1576SOL    HW216191   2.034   2.638  12.764 -0.6821 -0.8408  1.1523
 1577SOL     OW16192   3.102   2.188   9.734  0.0074 -0.1339 -0.1731
 1577SOL    HW116193   3.032   2.253   9.731  0.8495  0.7762 -0.4026
 1577SOL    HW216194   3.170   2.220   9.674 -0.6162  1.4174 -0.0394
 1578SOL     OW16195   4.637   2.265   6.546  0.2620 -0.1119 -0.1647
 1578SOL    HW116196   4.660   2.356   6.530  0.3263 -0.1525 -0.3052
 1578SOL    HW216197   4.544   2.278   6.560  0.1814 -0.8397 -0.0226
 1579SOL     OW16198   1.553   3.510   6.185 -0.3316  0.4070  0.5512
 1579SOL    HW116199   1.639   3.486   6.152 -1.1471 -1.4308 -0.2339
 1579SOL    HW216200   1.517   3.568   6.119  0.1957 -0.4441 -0.4781
 1580SOL     OW16201   4.701   3.778   0.570 -0.0917 -0.2028 -0.0774
 1580SOL    HW116202   4.698   3.685   0.591  0.0000  0.2845  2.1952
 1580SOL    HW216203   0.017   3.770   0.483 -0.2133 -1.6935 -0.0014
 1581SOL     OW16204   0.810   4.552   3.476 -0.1152 -0.0458  0.8842
 1581SOL    HW116205   0.856   4.628   3.512  0.1958  0.3109 -0.2602
 1581SOL    HW216206   0.791   4.577   3.386  0.8137  0.2973  0.7766
 1582SOL     OW16207   4.468   4.108   4.076 -0.1158  0.2062  0.2358
 1582SOL    HW116208   4.538   4.049   4.106  0.8609  2.2742  2.0984
 1582SOL    HW216209   4.523   4.176   4.036 -2.1249  0.0471 -2.7549
 1583SOL     OW16210   2.314   1.927   4.125 -0.0411 -0.2095 -0.0921
 1583SOL    HW116211   2.331   1.856   4.063  2.9396  0.9856 -0.6451
 1583SOL    HW216212   2.397   1.924   4.173  0.5740 -0.1199 -1.1302
 1584SOL     OW16213   0.212   1.102   3.934  0.1451  0.4325  0.2106
 1584SOL    HW116214   0.193   1.108   3.840 -1.5392  1.0584  0.5900
 1584SOL    HW216215   0.306   1.118   3.928  0.5182 -0.5916  3.6459
 1585SOL     OW16216   4.696   0.072   4.523  0.0600 -0.3635  0.0343
 1585SOL    HW116217   4.668   0.097   4.435 -3.7858  0.7138  1.5331
 1585SOL    HW216218   0.032   4.721   4.505 -1.9109 -1.2959 -2.5326
 1586SOL     OW16219   1.900   1.076   0.162 -0.0206 -0.2148 -0.0126
 1586SOL    HW116220   1.857   1.161   0.161 -1.2938 -0.9286 -3.7968
 1586SOL    HW216221   1.946   1.095   0.244 -0.0076  0.4442 -0.1745
 1587SOL     OW16222   1.037   4.515   6.580  0.0774  0.4186 -0.1118
 1587SOL    HW116223   0.974   4.499   6.510 -1.7528  2.5834  1.0355
 1587SOL    HW216224   1.026   4.607   6.606  1.2306  0.1570  1.2969
 1588SOL     OW16225   2.465   4.050   1.081  0.5034  0.0417 -0.2474
 1588SOL    HW116226   2.508   4.040   1.166 -0.0117  2.2603  0.2600
 1588SOL    HW216227   2.421   3.965   1.074  2.5027 -1.0767  0.9445
 1589SOL     OW16228   2.259   3.153   1.544 -0.0375 -0.3332 -0.1334
 1589SOL    HW116229   2.175   3.196   1.533 -1.3008 -2.0462  2.8157
 1589SOL    HW216230   2.257   3.080   1.481  0.8336 -0.5568  0.0866
 1590SOL     OW16231   3.287   4.018  16.715 -0.1427  0.5564 -0.2041
 1590SOL    HW116232   3.277   3.980  16.627 -1.6493  2.0005 -0.6573
 1590SOL    HW216233   3.354   4.085  16.703 -1.5883  1.7616 -1.6027
 1591SOL     OW16234   3.874   1.720   7.220 -0.5635  0.0903 -0.1832
 1591SOL    HW116235   3.928   1.642   7.207  1.3198  1.0007  2.2203
 1591SOL    HW216236   3.935   1.789   7.192 -1.7691  0.7975 -1.1151
 1592SOL     OW16237   3.665   4.511   4.780  0.0547  0.2620  0.1765
 1592SOL    HW116238   3.683   4.502   4.874  1.6108  2.4402  0.0910
 1592SOL    HW216239   3.740   4.479   4.731 -0.7318 -1.4372  0.1108
 1593SOL     OW16240   0.613   0.739   9.004  0.4378  0.0150  0.0094
 1593SOL    HW116241   0.579   0.777   9.085  0.9375  1.7562 -0.6034
 1593SOL    HW216242   0.602   0.646   9.024 -0.5185 -0.1136 -1.1021
 1594SOL     OW16243   2.260   1.421   3.587  0.4151 -0.2584 -0.0651
 1594SOL    HW116244   2.352   1.434   3.563 -0.2516 -0.4260 -2.6904
 1594SOL    HW216245   2.207   1.478   3.531 -1.4940 -1.2103  0.7903
 1595SOL     OW16246   1.565   4.394   2.242 -0.1790  0.0443 -0.3745
 1595SOL    HW116247   1.522   4.313   2.211 -1.2572  0.5594 -0.2331
 1595SOL    HW216248   1.496   4.456   2.221 -1.1396 -0.4279  1.3341
 1596SOL     OW16249   0.334   0.098   5.945 -0.3885  0.1351 -0.0713
 1596SOL    HW116250   0.279   0.124   5.872 -0.0123  0.0602 -0.3817
 1596SOL    HW216251   0.414   0.068   5.900  1.7355  1.0927  3.0356
 1597SOL     OW16252   0.430   0.344   5.444 -0.1055  0.1351  0.1320
 1597SOL    HW116253   0.443   0.277   5.512 -0.3330 -3.1038 -3.0356
 1597SOL    HW216254   0.401   0.289   5.372  0.0155  1.4826 -0.9397
 1598SOL     OW16255   3.642   4.129  16.029 -0.2561 -0.0606 -0.4092
 1598SOL    HW116256   3.673   4.061  15.969 -0.2933 -0.1684 -0.3075
 1598SOL    HW216257   3.611   4.194  15.966 -0.4177 -0.3322 -0.6122
 1599SOL     OW16258   3.083   0.767  10.745  0.3271  0.0898 -0.2613
 1599SOL    HW116259   3.098   0.859  10.766 -2.0025  0.6087 -0.8978
 1599SOL    HW216260   3.037   0.745  10.826 -0.2280 -1.2314 -0.9396
 1600SOL     OW16261   2.920   4.719   6.348  0.2406 -0.0228  0.2402
 1600SOL    HW116262   3.010   0.026   6.358  0.8816 -1.6799 -0.6044
 1600SOL    HW216263   2.899   0.027   6.260  1.6387 -2.2140 -0.8428
 1601SOL     OW16264   0.547   3.393   6.934  0.5662 -0.6463  0.2491
 1601SOL    HW116265   0.625   3.347   6.903  1.3268  1.2090 -0.6125
 1601SOL    HW216266   0.590   3.464   6.982 -1.4572  0.9957 -0.3605
 1602SOL     OW16267   0.662   3.493   0.954 -0.1364 -0.0078 -0.1566
 1602SOL    HW116268   0.675   3.449   1.038  1.0732 -0.8981 -0.8109
 1602SOL    HW216269   0.570   3.519   0.959  0.4785  1.5641  3.2630
 1603SOL     OW16270   4.697   0.556   7.923  0.3524  0.0688 -0.0418
 1603SOL    HW116271   0.020   0.637   7.946  0.5161  0.1121 -0.5202
 1603SOL    HW216272   4.673   0.533   8.013 -2.2629  0.6749 -0.5731
 1604SOL     OW16273   1.824   3.782   8.087  0.4241  0.1029  0.1410
 1604SOL    HW116274   1.789   3.862   8.048  0.8253 -0.5705 -1.5889
 1604SOL    HW216275   1.816   3.711   8.024 -2.1866  0.8971 -0.4468
 1605SOL     OW16276   4.523   3.976   2.008  0.0489  0.3995 -0.0977
 1605SOL    HW116277   4.597   4.027   2.040 -0.4823 -0.1266  1.9554
 1605SOL    HW216278   4.502   3.928   2.088  1.1514 -0.4135 -0.2877
 1606SOL     OW16279   0.768   3.449   5.927  0.2242  0.1722 -0.2475
 1606SOL    HW116280   0.718   3.440   5.846  2.6995 -1.6460 -1.5920
 1606SOL    HW216281   0.858   3.446   5.894  0.3944  0.1785  0.2168
 1607SOL     OW16282   3.880   1.380   1.835  0.8194 -0.4459  0.3598
 1607SOL    HW116283   3.846   1.454   1.785  2.7679 -0.0550 -0.3495
 1607SOL    HW216284   3.869   1.417   1.922  2.0008 -2.3033  1.2987
 1608SOL     OW16285   1.971   1.388  10.975  0.0965  0.2966 -0.0289
 1608SOL    HW116286   1.915   1.362  10.902  0.2094 -1.9175  0.6823
 1608SOL    HW216287   1.922   1.454  11.024  1.4837  0.2326  1.4576
 1609SOL     OW16288   4.127   4.678   9.136 -0.4074  0.6772 -0.4062
 1609SOL    HW116289   4.185   4.692   9.210  0.1240  3.2601 -1.3194
 1609SOL    HW216290   4.074   0.035   9.139  0.6208  1.3453 -0.2385
 1610SOL     OW16291   2.876   4.150   2.236 -0.2406 -0.4027 -0.1406
 1610SOL    HW116292   2.969   4.157   2.214 -0.4511 -1.3347 -1.3462
 1610SOL    HW216293   2.831   4.221   2.190 -0.6216 -0.2936  0.4076
 1611SOL     OW16294   0.200   2.068   7.710  0.4438 -0.5563 -0.4884
 1611SOL    HW116295   0.263   2.015   7.660  0.8645 -0.1545 -0.3874
 1611SOL    HW216296   0.136   1.998   7.718  1.1160 -1.1197 -0.0030
 1612SOL     OW16297   0.393   3.862   3.431 -0.6036  0.7054  0.1586
 1612SOL    HW116298   0.358   3.797   3.491 -0.5049 -0.6372 -1.2182
 1612SOL    HW216299   0.432   3.910   3.503 -1.7619  1.6388  0.1518
 1613SOL     OW16300   1.821   2.569   7.636  0.6088  0.1903 -0.3421
 1613SOL    HW116301   1.882   2.525   7.577 -1.0690 -3.1684  0.4567
 1613SOL    HW216302   1.746   2.510   7.639  1.2859 -0.8216 -3.4710
 1614SOL     OW16303   4.560   0.147   8.797 -0.4295  0.0995 -0.0268
 1614SOL    HW116304   4.644   0.175   8.836 -1.4549  1.2277  1.3814
 1614SOL    HW216305   4.503   0.176   8.868 -0.5188  1.9883 -0.8649
 1615SOL     OW16306   1.825   0.685   7.398  0.2569 -0.0311 -0.2441
 1615SOL    HW116307   1.841   0.777   7.379 -1.1419  0.2616  0.0131
 1615SOL    HW216308   1.902   0.644   7.356  1.4523  0.8988  1.0501
 1616SOL     OW16309   0.965   2.258   5.309  0.0716  0.6641  0.0152
 1616SOL    HW116310   0.980   2.281   5.401 -0.7286  0.9100  0.0877
 1616SOL    HW216311   1.040   2.200   5.302 -0.5794 -0.0371 -1.1547
 1617SOL     OW16312   0.631   3.103   0.494 -0.5092  0.0451 -0.8239
 1617SOL    HW116313   0.699   3.158   0.454 -0.3410 -0.7571 -1.6396
 1617SOL    HW216314   0.560   3.128   0.433  0.2184  3.7938 -0.1190
 1618SOL     OW16315   4.006   1.415  10.265 -0.3457  0.0284  0.3013
 1618SOL    HW116316   3.967   1.385  10.347 -0.6447 -1.2966 -0.3331
 1618SOL    HW216317   4.087   1.457  10.293 -1.2291  2.5383 -0.9050
 1619SOL     OW16318   0.151   4.268   6.199 -0.1821 -0.3473  0.5847
 1619SOL    HW116319   0.103   4.324   6.137  2.2061 -0.4044 -1.3121
 1619SOL    HW216320   0.100   4.187   6.195 -0.0705 -0.3487 -0.8043
 1620SOL     OW16321   1.979   3.530   2.955 -0.0789  0.2225 -0.6723
 1620SOL    HW116322   2.050   3.478   2.917 -0.3888 -0.2284 -0.6312
 1620SOL    HW216323   1.926   3.459   2.992  0.1888  0.0406 -0.6406
 1621SOL     OW16324   4.415   1.816   0.601 -0.8484 -0.1289  0.4957
 1621SOL    HW116325   4.483   1.806   0.536 -0.9061 -1.8891  0.6923
 1621SOL    HW216326   4.388   1.907   0.588  2.0864  0.8785  1.5597
 1622SOL     OW16327   1.592   0.520  16.799 -0.0837  0.5794  0.5145
 1622SOL    HW116328   1.671   0.504  16.851 -0.9612  1.7364  2.2064
 1622SOL    HW216329   1.605   0.485  16.711 -0.5100 -1.5626  1.3046
 1623SOL     OW16330   4.232   2.938   9.448  0.6180 -0.6010 -0.4981
 1623SOL    HW116331   4.292   2.969   9.380  0.3428 -0.1941 -0.5504
 1623SOL    HW216332   4.299   2.939   9.517 -1.7738  1.6800  1.8155
 1624SOL     OW16333   0.207   0.221   3.709  0.5864  0.3759 -0.2369
 1624SOL    HW116334   0.141   0.151   3.705  0.7518  0.4054 -3.4337
 1624SOL    HW216335   0.264   0.190   3.639  0.8679 -1.2454  0.7132
 1625SOL     OW16336   3.193   1.250   3.896  0.1440 -0.3040 -0.3551
 1625SOL    HW116337   3.266   1.218   3.842 -0.0049 -0.2874 -0.5640
 1625SOL    HW216338   3.247   1.281   3.969  0.2556 -0.1360 -0.5081
 1626SOL     OW16339   1.928   3.113  14.747 -0.4714 -0.6572  0.3675
 1626SOL    HW116340   1.972   3.047  14.693 -1.7918  0.9456 -2.6613
 1626SOL    HW216341   1.892   3.157  14.670 -2.6720 -0.1123  1.6966
 1627SOL     OW16342   0.082   2.884   4.634 -0.4643  0.3484  0.7985
 1627SOL    HW116343   0.165   2.898   4.679  0.9138 -1.4610 -1.2180
 1627SOL    HW216344   0.041   2.968   4.656 -2.3525 -0.1140 -0.8592
 1628SOL     OW16345   3.469   1.231   7.727  0.0128 -0.2913  0.8271
 1628SOL    HW116346   3.434   1.216   7.815  3.1509 -0.6653  2.0090
 1628SOL    HW216347   3.463   1.152   7.674  2.3294  0.6880 -0.9106
 1629SOL     OW16348   3.133   3.357   9.793  0.3444 -0.4594  0.2346
 1629SOL    HW116349   3.151   3.368   9.886 -2.5118 -1.4724  0.9059
 1629SOL    HW216350   3.082   3.434   9.769 -0.3990 -0.0450  3.1111
 1630SOL     OW16351   0.365   3.852   1.477  1.1413 -0.2314 -0.0233
 1630SOL    HW116352   0.445   3.801   1.485  1.0299 -0.6544 -1.5382
 1630SOL    HW216353   0.372   3.905   1.556 -1.0142 -1.1695  0.7962
 1631SOL     OW16354   4.700   0.448   0.804 -0.2018 -0.2663  0.8471
 1631SOL    HW116355   4.669   0.411   0.721 -0.7126  1.5403  0.2390
 1631SOL    HW216356   0.043   0.512   0.773  0.7267 -0.6256  2.0470
 1632SOL     OW16357   4.469   2.956  15.673 -0.7005  0.1876  0.1799
 1632SOL    HW116358   4.472   3.028  15.610 -1.4422  0.6022  0.6278
 1632SOL    HW216359   4.508   2.994  15.752  1.3903 -1.9628  0.1803
 1633SOL     OW16360   2.545   2.749   5.055 -0.1999  0.0105 -0.0999
 1633SOL    HW116361   2.456   2.785   5.049  0.3664  1.5098  0.3221
 1633SOL    HW216362   2.531   2.662   5.093  0.5593 -0.4063 -0.7841
 1634SOL     OW16363   2.326   2.378  10.411  0.2808 -0.5349  0.0203
 1634SOL    HW116364   2.298   2.355  10.322 -1.8373  1.1918  0.2512
 1634SOL    HW216365   2.338   2.473  10.406  1.1830 -0.6955 -0.9910
 1635SOL     OW16366   4.567   0.425  14.216  0.2501 -0.0513  0.0588
 1635SOL    HW116367   4.570   0.510  14.172  1.5997 -0.0425  0.1445
 1635SOL    HW216368   4.532   0.451  14.301 -1.2103 -1.4121 -0.1260
 1636SOL     OW16369   4.219   3.356  14.496 -0.1291 -0.2450  0.4605
 1636SOL    HW116370   4.207   3.286  14.560 -0.5080 -0.1672  0.4732
 1636SOL    HW216371   4.136   3.351  14.449 -0.5927  3.6906  0.8189
 1637SOL     OW16372   0.644   1.262  11.404  0.2566 -0.4639 -0.3146
 1637SOL    HW116373   0.739   1.277  11.397 -0.0277  1.0497 -0.8569
 1637SOL    HW216374   0.629   1.170  11.381 -1.0869 -0.3668  0.1777
 1638SOL     OW16375   3.493   1.719   9.924  0.1668  0.2167  0.3885
 1638SOL    HW116376   3.442   1.674   9.857 -2.6023  1.3701  1.6879
 1638SOL    HW216377   3.466   1.666   9.998  2.3114 -2.2753 -0.6217
 1639SOL     OW16378   3.575   3.989   5.908 -0.1533  0.4262  0.9760
 1639SOL    HW116379   3.643   3.934   5.871  0.3271  0.9886  1.0259
 1639SOL    HW216380   3.541   4.040   5.835  0.6423 -1.7448 -0.9232
 1640SOL     OW16381   0.093   2.977   4.971  0.6053 -0.1114 -0.1516
 1640SOL    HW116382   0.178   3.011   5.000  0.5882  0.4915 -0.8139
 1640SOL    HW216383   0.039   3.049   5.000  0.5076 -1.5414  3.2897
 1641SOL     OW16384   2.188   2.378   5.199 -0.5474 -0.3662 -0.1144
 1641SOL    HW116385   2.215   2.334   5.118 -1.1072 -1.9120  0.5422
 1641SOL    HW216386   2.177   2.306   5.261  1.4209 -0.2738  0.3203
 1642SOL     OW16387   1.535   3.150   7.574 -0.1226  0.0764  0.1242
 1642SOL    HW116388   1.476   3.207   7.623 -0.5508  1.5883 -2.1650
 1642SOL    HW216389   1.499   3.062   7.586 -0.6105  0.3326  0.5344
 1643SOL     OW16390   3.647   3.821   2.528 -0.0166 -0.0743 -0.6829
 1643SOL    HW116391   3.649   3.916   2.536 -1.1007 -0.1147  0.0909
 1643SOL    HW216392   3.609   3.812   2.441  1.1486  1.0077 -1.2884
 1644SOL     OW16393   4.634   0.278  11.309  0.0170 -0.2868  0.6382
 1644SOL    HW116394   4.590   0.226  11.242  0.8855 -1.7693  1.2233
 1644SOL    HW216395   4.675   0.198  11.342  2.3048  1.8104  2.8962
 1645SOL     OW16396   4.492   2.288   2.537  0.1919 -0.0469  0.1914
 1645SOL    HW116397   4.472   2.197   2.519  3.0027 -1.0619  2.2500
 1645SOL    HW216398   4.586   2.287   2.520  0.0028  2.5714 -1.1225
 1646SOL     OW16399   3.632   2.451   5.795 -0.5073 -0.2066 -0.8256
 1646SOL    HW116400   3.684   2.385   5.841 -2.6071  0.0889  1.9926
 1646SOL    HW216401   3.548   2.405   5.790 -0.1599 -0.9668  0.2984
 1647SOL     OW16402   4.068   4.527   4.341  0.0304 -0.1569  0.5215
 1647SOL    HW116403   4.002   4.545   4.273 -1.4164 -0.7048  1.7794
 1647SOL    HW216404   4.136   4.503   4.279 -1.0020 -1.5331 -0.1005
 1648SOL     OW16405   3.235   4.151   4.584 -0.4817 -0.0637 -0.8264
 1648SOL    HW116406   3.286   4.231   4.595  0.8370 -0.9073 -0.7762
 1648SOL    HW216407   3.213   4.143   4.677  1.7005  1.3606 -0.1969
 1649SOL     OW16408   3.751   1.162   3.360  0.0947 -0.0657 -0.4756
 1649SOL    HW116409   3.660   1.131   3.355  0.6218 -1.5303 -0.9582
 1649SOL    HW216410   3.744   1.233   3.423  1.5631 -1.3003  1.1012
 1650SOL     OW16411   2.824   0.636   4.784 -0.0230  0.2152  0.0101
 1650SOL    HW116412   2.901   0.690   4.800  1.1149 -0.9003 -1.6877
 1650SOL    HW216413   2.775   0.653   4.865  0.2442  0.3704  0.1425
 1651SOL     OW16414   1.179   2.398  10.966 -0.3086 -0.2847 -0.7408
 1651SOL    HW116415   1.125   2.391  11.045 -2.0711  0.9393 -1.8356
 1651SOL    HW216416   1.187   2.492  10.948  0.1750 -0.1224  0.3075
 1652SOL     OW16417   1.494   4.388   1.634  0.6792  0.0884 -0.3057
 1652SOL    HW116418   1.504   4.454   1.565  1.1504  3.1102  2.6050
 1652SOL    HW216419   1.405   4.360   1.617 -0.1733  1.3843  2.0514
 1653SOL     OW16420   1.011   3.098   5.312 -0.3656 -0.1445  0.0996
 1653SOL    HW116421   1.106   3.087   5.304 -0.3217  1.1431 -1.0033
 1653SOL    HW216422   0.981   3.007   5.302  0.5692 -0.5425  0.7781
 1654SOL     OW16423   2.170   2.182   4.494  0.4420 -0.2188 -0.5859
 1654SOL    HW116424   2.113   2.259   4.487 -0.1443 -0.6674 -0.8051
 1654SOL    HW216425   2.186   2.186   4.400  0.1066  0.8288 -0.5956
 1655SOL     OW16426   0.012   0.596   0.177  0.2263 -0.5520  0.2064
 1655SOL    HW116427   0.104   0.571   0.167  0.1678 -0.7206  0.0983
 1655SOL    HW216428   0.015   0.667   0.241 -1.3929 -1.2550  1.0793
 1656SOL     OW16429   1.122   1.643  12.125 -0.1393 -0.1272 -0.5341
 1656SOL    HW116430   1.178   1.616  12.198  2.1677  0.9652 -1.9075
 1656SOL    HW216431   1.133   1.573  12.060 -0.8569 -2.2351  1.5910
 1657SOL     OW16432   2.477   4.126   5.849 -0.4233 -0.0308 -0.2355
 1657SOL    HW116433   2.511   4.146   5.936  0.7378  1.0754 -0.9424
 1657SOL    HW216434   2.549   4.159   5.795 -1.0022 -1.7297 -2.0454
 1658SOL     OW16435   2.452   2.640   6.196  0.0133  0.3231  0.3735
 1658SOL    HW116436   2.397   2.562   6.192  0.1453  0.2488  0.0066
 1658SOL    HW216437   2.415   2.687   6.270 -2.0924 -0.5367 -0.1466
 1659SOL     OW16438   1.785   0.205   2.248 -0.0493 -0.1589  0.5051
 1659SOL    HW116439   1.820   0.234   2.165  0.3266  1.3863  1.2041
 1659SOL    HW216440   1.835   0.257   2.312  0.3160 -1.0536  0.9515
 1660SOL     OW16441   2.528   0.291   0.506  0.3606 -0.3039  0.1721
 1660SOL    HW116442   2.468   0.297   0.580 -0.3221 -2.4660 -0.1996
 1660SOL    HW216443   2.611   0.262   0.546 -0.0605  1.5418  2.3813
 1661SOL     OW16444   3.240   0.357  11.734 -0.4373  0.1213 -0.1011
 1661SOL    HW116445   3.191   0.301  11.673  1.6092 -0.3625 -1.3274
 1661SOL    HW216446   3.284   0.407  11.664  0.3285  0.1264  0.3791
 1662SOL     OW16447   2.231   3.775   4.948  0.4438 -0.1798 -0.2800
 1662SOL    HW116448   2.224   3.705   5.014  1.4099 -1.1990 -1.2589
 1662SOL    HW216449   2.167   3.838   4.981  0.1234 -1.0777  0.8293
 1663SOL     OW16450   2.975   1.373   1.715  0.0853 -0.4550 -0.0435
 1663SOL    HW116451   2.896   1.321   1.696  0.1181  0.2147 -2.0856
 1663SOL    HW216452   2.941   1.463   1.715 -0.0580 -0.5287  2.1056
 1664SOL     OW16453   3.670   1.619   2.571  0.0510 -0.1450 -0.0950
 1664SOL    HW116454   3.701   1.550   2.630  1.7324  1.4229  0.8614
 1664SOL    HW216455   3.605   1.664   2.626 -0.6396  1.2348 -2.0239
 1665SOL     OW16456   2.660   1.023  10.073  0.3642 -0.1132 -0.0746
 1665SOL    HW116457   2.620   1.105  10.101  0.1521  0.1940 -1.2907
 1665SOL    HW216458   2.743   1.051  10.035 -1.3602  1.5128 -2.6287
 1666SOL     OW16459   3.090   2.817   6.665  0.3595 -0.2456  0.0227
 1666SOL    HW116460   3.183   2.833   6.678  0.3743 -0.0810 -0.2948
 1666SOL    HW216461   3.063   2.802   6.756  0.4208  0.8761  0.2269
 1667SOL     OW16462   1.109   1.356   3.279  0.5032 -0.0520  0.3258
 1667SOL    HW116463   1.196   1.394   3.289 -0.6222  2.0699  1.9260
 1667SOL    HW216464   1.108   1.322   3.189 -0.4408  0.4193  0.1626
 1668SOL     OW16465   2.653   4.310   3.832  0.4729 -0.6252 -0.4689
 1668SOL    HW116466   2.584   4.306   3.766  0.0216 -0.5335 -0.0003
 1668SOL    HW216467   2.611   4.360   3.901 -1.7144  0.6955 -2.7662
 1669SOL     OW16468   1.694   0.030   1.869  0.5972  0.2229 -0.4040
 1669SOL    HW116469   1.788   0.023   1.856  0.6637 -2.5565  1.6319
 1669SOL    HW216470   1.688   0.010   1.963 -0.1200  0.2333 -0.4467
 1670SOL     OW16471   1.091   2.186   9.721 -0.1307  0.5872 -0.4130
 1670SOL    HW116472   1.121   2.170   9.632 -0.9558  2.0231 -0.9446
 1670SOL    HW216473   1.009   2.232   9.700 -0.3578  0.1173 -0.5605
 1671SOL     OW16474   3.377   2.760   5.198  0.1583 -0.3650 -0.2612
 1671SOL    HW116475   3.412   2.823   5.261 -1.3834 -2.1043  2.3398
 1671SOL    HW216476   3.300   2.806   5.166 -2.2819 -2.7505  2.1116
 1672SOL     OW16477   2.623   1.163   8.523  0.1985 -0.1122 -0.0919
 1672SOL    HW116478   2.702   1.214   8.505  0.2702 -0.9264 -2.0606
 1672SOL    HW216479   2.637   1.130   8.612  1.5297  0.3986 -0.1160
 1673SOL     OW16480   3.125   0.135   8.424 -0.2042  0.6019 -0.2395
 1673SOL    HW116481   3.096   0.145   8.334  1.0084  1.9197 -0.4863
 1673SOL    HW216482   3.093   0.049   8.451 -0.0582  0.5475 -0.2382
 1674SOL     OW16483   3.602   4.343   1.500  0.4905  0.1656  0.3802
 1674SOL    HW116484   3.546   4.311   1.571 -2.0278 -0.0146 -1.6730
 1674SOL    HW216485   3.687   4.335   1.542  0.5059 -0.7695  0.1637
 1675SOL     OW16486   2.484   0.826   1.613 -0.4133 -0.2387 -0.4491
 1675SOL    HW116487   2.445   0.853   1.529 -0.6616 -1.1429 -0.6233
 1675SOL    HW216488   2.558   0.886   1.623  0.5838 -1.9130  2.0567
 1676SOL     OW16489   1.243   4.479   4.918 -0.6398  0.2632 -0.1236
 1676SOL    HW116490   1.222   4.411   4.854 -1.8844  2.1621 -1.7396
 1676SOL    HW216491   1.155   4.506   4.943 -0.6980  0.8066 -0.8936
 1677SOL     OW16492   1.542   1.389   9.337 -0.0063 -0.3918  0.1692
 1677SOL    HW116493   1.593   1.382   9.418  1.2052  0.6130 -0.5030
 1677SOL    HW216494   1.462   1.353   9.374  1.3202 -2.9953  0.5585
 1678SOL     OW16495   2.187   1.135   5.668  0.6261 -0.0337 -0.0788
 1678SOL    HW116496   2.146   1.221   5.680  0.8075 -0.0335  0.5801
 1678SOL    HW216497   2.281   1.151   5.666  0.7168 -0.3541  1.4808
 1679SOL     OW16498   2.170   3.644   5.182  0.2023  0.1223  0.3139
 1679SOL    HW116499   2.115   3.626   5.258 -1.0270 -0.3709 -0.6894
 1679SOL    HW216500   2.219   3.564   5.164  1.0982  0.1755  2.5184
 1680SOL     OW16501   1.910   1.738   6.498 -0.4211  0.5532 -0.0765
 1680SOL    HW116502   1.864   1.748   6.415  4.1711 -1.0609 -2.8082
 1680SOL    HW216503   1.980   1.674   6.481  1.0345  0.8756  4.6813
 1681SOL     OW16504   0.884   0.297   7.086  0.1151 -0.4005 -0.2932
 1681SOL    HW116505   0.801   0.287   7.132  0.4007 -0.5510  0.1846
 1681SOL    HW216506   0.949   0.303   7.156  1.4197 -0.4417 -1.4814
 1682SOL     OW16507   2.031   3.011   7.327  0.3408 -0.0278 -0.1616
 1682SOL    HW116508   2.079   2.929   7.339  1.1006  0.3006 -0.9203
 1682SOL    HW216509   1.957   2.976   7.278 -0.2152 -0.2607  0.8440
 1683SOL     OW16510   4.502   0.343  11.572  0.3133 -0.3947 -0.2961
 1683SOL    HW116511   4.479   0.252  11.556 -0.1077 -0.2151 -0.6953
 1683SOL    HW216512   4.460   0.351  11.658 -2.7070 -1.0618 -1.7324
 1684SOL     OW16513   0.421   1.759   3.385 -0.1227 -0.0792 -0.2462
 1684SOL    HW116514   0.477   1.759   3.308  0.0606  0.9509 -0.1137
 1684SOL    HW216515   0.431   1.666   3.407 -0.0317  0.1350  0.6588
 1685SOL     OW16516   0.725   3.801   7.992 -0.3253  0.6249 -0.5457
 1685SOL    HW116517   0.648   3.822   7.940 -0.6304  0.7272 -0.0474
 1685SOL    HW216518   0.695   3.724   8.039 -1.6491  0.4693 -1.6641
 1686SOL     OW16519   2.151   3.001   2.677 -0.1651  0.1032  0.2144
 1686SOL    HW116520   2.153   3.070   2.612 -1.8820 -1.0074 -0.9910
 1686SOL    HW216521   2.217   2.943   2.638  1.7213  1.3815  1.5148
 1687SOL     OW16522   2.029   4.531   4.656 -0.8532  0.4251 -0.7030
 1687SOL    HW116523   1.968   4.604   4.669  1.3096  2.0458  0.4289
 1687SOL    HW216524   2.100   4.569   4.604  0.8345 -0.4591  0.9581
 1688SOL     OW16525   3.871   4.208  13.437  0.7031  0.2678  0.1694
 1688SOL    HW116526   3.877   4.290  13.486 -1.4972 -1.0271  2.5487
 1688SOL    HW216527   3.858   4.241  13.348 -1.1459  0.1932  0.4117
 1689SOL     OW16528   2.951   4.431   2.981  0.0863 -0.2143  0.7631
 1689SOL    HW116529   2.918   4.520   2.968  2.0173  0.3989  0.0540
 1689SOL    HW216530   3.036   4.457   3.017  0.5570  0.7072 -0.9841
 1690SOL     OW16531   4.092   0.749   4.435  0.1401 -0.5084 -0.6727
 1690SOL    HW116532   4.055   0.709   4.356 -1.3433 -1.4895  0.5261
 1690SOL    HW216533   4.078   0.679   4.499 -0.0975  1.2788  1.2314
 1691SOL     OW16534   1.632   4.443   3.889 -0.6985  0.1902 -0.5431
 1691SOL    HW116535   1.681   4.479   3.815 -0.8774  0.2432 -0.6366
 1691SOL    HW216536   1.548   4.484   3.868 -0.6111  0.6118 -0.0864
 1692SOL     OW16537   1.840   0.045  16.769  0.8068  0.4840  0.0863
 1692SOL    HW116538   1.890   4.689  16.743  0.1199  0.7908 -2.1849
 1692SOL    HW216539   1.902   0.117  16.757  0.7493  0.3274 -1.2427
 1693SOL     OW16540   0.921   4.381   2.568 -0.4860  0.1699 -0.0355
 1693SOL    HW116541   0.973   4.318   2.618 -0.8084  0.2450  0.3995
 1693SOL    HW216542   0.938   4.351   2.479  1.7778 -0.0231  0.4453
 1694SOL     OW16543   0.018   1.837   7.986  0.3282 -0.0092  0.2038
 1694SOL    HW116544   4.715   1.929   7.986 -2.9845 -0.9264  2.6714
 1694SOL    HW216545   0.102   1.829   7.940  1.1699 -3.0110  2.3093
 1695SOL     OW16546   4.004   4.577   3.540  0.4777 -0.5793  0.9473
 1695SOL    HW116547   4.034   4.506   3.483  2.7116  0.4843  0.7780
 1695SOL    HW216548   3.911   4.563   3.526  0.3215  2.1560 -0.7347
 1696SOL     OW16549   4.415   3.695   0.511  1.2223 -0.4627  0.8858
 1696SOL    HW116550   4.472   3.763   0.546 -1.2404  1.4671  1.1849
 1696SOL    HW216551   4.479   3.626   0.493  0.4982 -0.9992  0.3929
 1697SOL     OW16552   3.110   0.921   2.114 -0.2189  0.1029 -0.1596
 1697SOL    HW116553   3.058   0.932   2.193 -0.5238  0.5916 -0.4267
 1697SOL    HW216554   3.194   0.963   2.134  0.9709 -1.7009 -1.3860
 1698SOL     OW16555   4.165   3.506   3.312  0.1384 -0.3598  0.5052
 1698SOL    HW116556   4.236   3.444   3.297 -1.6064 -2.9450  2.8874
 1698SOL    HW216557   4.143   3.524   3.220  2.2430 -1.0439 -0.1187
 1699SOL     OW16558   2.399   4.325  17.530  0.5042  0.2173  0.0840
 1699SOL    HW116559   2.458   4.398  17.512  0.5793  0.5135  1.5768
 1699SOL    HW216560   2.319   4.356  17.487 -0.4285  1.8142  2.9738
 1700SOL     OW16561   0.578   3.111  14.144 -0.0556 -0.7982  0.7660
 1700SOL    HW116562   0.634   3.071  14.077  0.5223 -0.7691  1.2263
 1700SOL    HW216563   0.634   3.122  14.221  3.5401 -3.3189 -1.4675
 1701SOL     OW16564   4.448   2.554   6.278 -0.7293 -0.4575 -0.1327
 1701SOL    HW116565   4.372   2.521   6.229  1.1286 -0.4394 -3.0680
 1701SOL    HW216566   4.434   2.492   6.349  0.1444 -2.4201 -1.6633
 1702SOL     OW16567   4.443   1.845   7.904  0.5783  0.1594  0.5418
 1702SOL    HW116568   4.507   1.906   7.941  0.9419  1.6250 -2.4916
 1702SOL    HW216569   4.409   1.801   7.981  1.0783 -0.5651  0.3485
 1703SOL     OW16570   3.199   3.901   8.010  0.2045  0.6681 -0.2827
 1703SOL    HW116571   3.259   3.865   7.945  1.2836 -0.0602  1.1098
 1703SOL    HW216572   3.123   3.848   7.987  1.0441 -1.0819  0.9961
 1704SOL     OW16573   3.441   3.230   7.199  0.5830  0.0101  0.9574
 1704SOL    HW116574   3.520   3.257   7.247  0.6441  0.2359  0.7288
 1704SOL    HW216575   3.420   3.314   7.158 -1.8715 -0.7681  0.6370
 1705SOL     OW16576   3.504   1.709   8.376 -0.9386  0.6093  0.3805
 1705SOL    HW116577   3.553   1.726   8.295  0.3815 -1.4225  0.7504
 1705SOL    HW216578   3.579   1.698   8.435 -1.2697 -0.5389  0.5812
 1706SOL     OW16579   1.341   4.232  17.145  0.2167 -0.0782 -0.3452
 1706SOL    HW116580   1.289   4.256  17.221  1.3887  3.0775 -0.5491
 1706SOL    HW216581   1.277   4.194  17.085 -1.7920  0.6549  1.3541
 1707SOL     OW16582   2.846   1.265  17.687  0.0157 -0.1419 -0.2227
 1707SOL    HW116583   2.847   1.177   0.034  0.4389  0.4245  1.0852
 1707SOL    HW216584   2.772   1.253  17.628 -1.5075  1.9009  1.2852
 1708SOL     OW16585   2.018   1.782  13.781 -0.3403 -0.0974 -0.1365
 1708SOL    HW116586   1.987   1.827  13.860 -0.0668  1.1383 -0.7343
 1708SOL    HW216587   2.014   1.848  13.713 -1.5352  2.2966  2.2333
 1709SOL     OW16588   3.837   1.375   4.166  0.0544 -0.4999  0.2339
 1709SOL    HW116589   3.767   1.310   4.175  0.8359 -1.2234  0.9744
 1709SOL    HW216590   3.880   1.371   4.251  1.9286  1.1263 -0.6572
 1710SOL     OW16591   2.678   0.965   0.258 -0.2846  0.7154 -0.1867
 1710SOL    HW116592   2.701   0.873   0.266 -1.0242  0.5206 -0.4076
 1710SOL    HW216593   2.583   0.964   0.249 -0.1299  1.9568 -1.9774
 1711SOL     OW16594   2.655   4.441   8.440 -0.5391 -0.4217 -0.3314
 1711SOL    HW116595   2.698   4.525   8.458 -0.8614 -0.3535  0.1039
 1711SOL    HW216596   2.729   4.390   8.408  1.4301  0.6178  2.5358
 1712SOL     OW16597   2.510   0.748  16.359  0.1961 -0.1134  0.6506
 1712SOL    HW116598   2.541   0.668  16.317  3.7663  2.2478 -1.1758
 1712SOL    HW216599   2.569   0.761  16.433  1.6151  0.2578 -0.5453
 1713SOL     OW16600   3.969   1.930   5.937 -0.2702 -0.2122 -0.7169
 1713SOL    HW116601   3.873   1.925   5.946 -0.1121 -2.6196 -0.3449
 1713SOL    HW216602   3.978   1.994   5.867 -0.7771  0.6926  0.0439
 1714SOL     OW16603   0.925   4.203   1.814  0.1697  0.7340 -0.0585
 1714SOL    HW116604   0.878   4.279   1.846  0.4772  0.5069  0.9408
 1714SOL    HW216605   0.859   4.135   1.799  0.1831  0.5989  0.5066
 1715SOL     OW16606   3.160   4.381   3.360 -0.4316  0.3976 -0.0690
 1715SOL    HW116607   3.176   4.361   3.452  1.6979 -2.2949 -1.0571
 1715SOL    HW216608   3.213   4.461   3.352  0.0642 -0.0536 -1.1637
 1716SOL     OW16609   4.079   1.925   1.260  0.5452 -0.1356 -0.1263
 1716SOL    HW116610   4.043   2.013   1.250  0.5801 -0.1137 -0.0548
 1716SOL    HW216611   4.000   1.873   1.278  1.0329 -0.5518  0.7885
 1717SOL     OW16612   3.314   4.657   3.636 -0.3517  0.3633  0.8469
 1717SOL    HW116613   3.333   0.009   3.694  0.5507  0.9622 -0.2096
 1717SOL    HW216614   3.348   4.585   3.688 -1.7238 -0.3524  0.7570
 1718SOL     OW16615   2.150   2.626  13.055  0.0963  0.1672 -0.2593
 1718SOL    HW116616   2.081   2.681  13.093 -1.1095 -1.8188  0.4499
 1718SOL    HW216617   2.192   2.688  12.996  2.5317 -1.0573  0.2088
 1719SOL     OW16618   3.029   4.228   7.182  0.8184 -0.2486  0.0233
 1719SOL    HW116619   3.013   4.171   7.257  1.0439 -2.4072 -1.5691
 1719SOL    HW216620   3.027   4.158   7.117  2.8542 -1.6406  1.4841
 1720SOL     OW16621   2.266   0.727   7.602 -0.0070  1.0596 -0.3822
 1720SOL    HW116622   2.283   0.813   7.563  0.2393  1.2622  0.1740
 1720SOL    HW216623   2.279   0.746   7.694 -0.7717 -0.2512 -0.0027
 1721SOL     OW16624   2.530   1.272   2.468 -0.0587  0.3218 -0.3031
 1721SOL    HW116625   2.493   1.224   2.541  0.6024 -0.4301 -0.4619
 1721SOL    HW216626   2.595   1.330   2.508  0.3062  1.0044 -1.8572
 1722SOL     OW16627   3.330   0.693   3.872  0.3674 -0.3729  0.0770
 1722SOL    HW116628   3.403   0.733   3.825 -1.9288  2.3405 -1.1596
 1722SOL    HW216629   3.366   0.604   3.880 -0.3050 -0.4088  2.6004
 1723SOL     OW16630   3.942   4.489   2.726  0.6203  0.2999 -0.2367
 1723SOL    HW116631   3.884   4.501   2.651  0.6790  1.7176 -0.0564
 1723SOL    HW216632   3.940   4.570   2.777  0.1352 -0.2622  0.6407
 1724SOL     OW16633   3.895   1.816   6.376  0.3411  0.5157  0.2644
 1724SOL    HW116634   3.813   1.858   6.351 -0.9475 -1.6026  0.9176
 1724SOL    HW216635   3.918   1.779   6.291 -0.6430 -0.9992  0.6489
 1725SOL     OW16636   2.424   1.806   4.731  0.2844 -0.4641  0.1601
 1725SOL    HW116637   2.355   1.750   4.694  0.7316 -0.5023 -0.6063
 1725SOL    HW216638   2.379   1.889   4.745  0.3216 -0.4762  0.3557
 1726SOL     OW16639   4.629   1.528   0.018 -0.0279 -0.2610  0.3496
 1726SOL    HW116640   4.667   1.583   0.086 -0.5674 -0.2242  0.6182
 1726SOL    HW216641   4.655   1.440   0.045  0.3338 -0.2035  0.1857
 1727SOL     OW16642   2.569   4.050  14.404  0.4724  0.0225 -0.6727
 1727SOL    HW116643   2.551   3.961  14.434  0.3730  0.1602 -0.3254
 1727SOL    HW216644   2.525   4.104  14.470 -0.3916  0.3178 -1.5008
 1728SOL     OW16645   0.167   3.011   3.642  0.3529  0.6622 -0.2355
 1728SOL    HW116646   0.124   3.049   3.718  0.6998 -1.3520  0.9383
 1728SOL    HW216647   0.239   3.075   3.639  0.6845  0.2461 -1.1801
 1729SOL     OW16648   2.624   1.829   0.235 -0.3235  0.1140 -0.2376
 1729SOL    HW116649   2.668   1.897   0.183 -1.3943  0.5374 -0.5881
 1729SOL    HW216650   2.672   1.830   0.318 -0.2438 -2.0958 -0.2571
 1730SOL     OW16651   1.837   0.620   3.022 -0.2443  0.5896 -0.1930
 1730SOL    HW116652   1.816   0.693   2.964  1.4667  1.9180  0.8450
 1730SOL    HW216653   1.916   0.574   2.992  0.1052  0.8878  0.2577
 1731SOL     OW16654   0.948   3.404  10.034  0.0723 -0.2721  0.0464
 1731SOL    HW116655   0.896   3.443   9.963 -0.8793  0.1770  0.9950
 1731SOL    HW216656   0.918   3.453  10.110  0.4187 -0.4533  0.2975
 1732SOL     OW16657   1.037   3.615   4.184  0.2556 -0.3895 -0.0375
 1732SOL    HW116658   0.960   3.574   4.144 -0.2771  0.1254  0.4693
 1732SOL    HW216659   1.086   3.619   4.101 -1.7346  0.0870 -1.1752
 1733SOL     OW16660   3.537   0.500  16.225  1.0829 -0.0660  0.7298
 1733SOL    HW116661   3.593   0.489  16.148  2.1701 -1.0146  1.6642
 1733SOL    HW216662   3.469   0.434  16.212  0.7953  0.7380 -1.9541
 1734SOL     OW16663   2.231   2.887  15.553 -0.1873  0.2394  0.4715
 1734SOL    HW116664   2.229   2.859  15.645 -1.5603  1.3567  0.7645
 1734SOL    HW216665   2.292   2.822  15.518 -2.5287 -0.7028 -1.8299
 1735SOL     OW16666   1.610   1.113   4.603  0.2655 -0.0989  0.3141
 1735SOL    HW116667   1.590   1.025   4.569  0.5722 -0.2123  0.4227
 1735SOL    HW216668   1.526   1.133   4.645  0.4357 -0.0397  0.6257
 1736SOL     OW16669   2.988   2.715   4.248 -0.3772  0.0907 -0.0632
 1736SOL    HW116670   2.947   2.721   4.162 -2.2709 -0.0812  0.8287
 1736SOL    HW216671   2.947   2.782   4.303 -0.3429 -0.3189  0.4684
 1737SOL     OW16672   0.650   3.358   4.584 -0.1785  0.5817 -0.4305
 1737SOL    HW116673   0.582   3.380   4.521  1.6292  1.5984 -2.0105
 1737SOL    HW216674   0.723   3.365   4.523  0.6844 -1.2075  0.3835
 1738SOL     OW16675   4.154   3.156  10.275  0.5215 -0.0598 -0.1809
 1738SOL    HW116676   4.188   3.123  10.192  0.9402  0.1846 -0.1078
 1738SOL    HW216677   4.151   3.251  10.259  1.3084 -0.0639 -0.3924
 1739SOL     OW16678   4.661   0.287   9.283  0.0348 -0.6880 -0.0366
 1739SOL    HW116679   4.707   0.204   9.289  1.1374 -0.1423 -0.7676
 1739SOL    HW216680   0.012   0.327   9.235 -0.5195  0.4953  0.0958
 1740SOL     OW16681   4.267   0.372   3.149  0.3961 -0.3520 -0.0101
 1740SOL    HW116682   4.216   0.453   3.162  0.8289 -0.2257  0.9347
 1740SOL    HW216683   4.345   0.396   3.200 -0.9230  2.7344  0.5841
 1741SOL     OW16684   2.050   4.616   6.115  0.2272  0.2659 -0.0690
 1741SOL    HW116685   2.066   4.701   6.075  0.0112  0.0947 -0.5233
 1741SOL    HW216686   2.058   4.643   6.206  0.7671 -0.2740  0.0502
 1742SOL     OW16687   0.978   0.546   4.116 -0.7359  0.6794 -0.0771
 1742SOL    HW116688   1.052   0.582   4.164  1.8920 -2.2564 -1.9565
 1742SOL    HW216689   1.006   0.563   4.026  1.0420  1.6234  0.6612
 1743SOL     OW16690   1.535   1.617  16.673  0.0375  0.3734  0.5820
 1743SOL    HW116691   1.593   1.552  16.715  0.7252  0.1108 -0.7756
 1743SOL    HW216692   1.479   1.568  16.613  2.5766  1.4022 -2.6530
 1744SOL     OW16693   4.469   4.477   8.513 -0.4728  0.0770  0.3079
 1744SOL    HW116694   4.461   4.570   8.530 -1.4016  0.3794 -1.8913
 1744SOL    HW216695   4.563   4.472   8.492 -0.8070 -3.4531 -0.3812
 1745SOL     OW16696   0.745   3.467   5.610 -0.2956 -0.1069  0.4456
 1745SOL    HW116697   0.819   3.421   5.570 -0.2529  0.3890 -0.0440
 1745SOL    HW216698   0.782   3.544   5.652 -0.9275  0.9360 -0.9299
 1746SOL     OW16699   1.621   1.978  13.263 -0.3386 -0.0398  0.2928
 1746SOL    HW116700   1.612   2.045  13.332 -2.4375  0.9172 -0.9126
 1746SOL    HW216701   1.613   2.032  13.185  1.1826 -1.3835 -0.7917
 1747SOL     OW16702   1.521   2.079   4.344 -0.0633  0.1500  0.1739
 1747SOL    HW116703   1.582   2.017   4.384 -1.1939 -0.7774  0.4796
 1747SOL    HW216704   1.528   2.032   4.261 -0.4653 -0.1157  0.2882
 1748SOL     OW16705   1.796   1.901   5.832 -0.6120 -0.3433  0.7579
 1748SOL    HW116706   1.800   1.814   5.793 -2.3452  0.4017 -1.1302
 1748SOL    HW216707   1.754   1.875   5.914  1.8601 -2.2028  1.4312
 1749SOL     OW16708   0.331   4.368   5.388  0.2308  0.4214  0.0237
 1749SOL    HW116709   0.269   4.342   5.320 -1.5544  2.3957  0.8919
 1749SOL    HW216710   0.417   4.353   5.349 -0.1497 -0.1940 -0.5790
 1750SOL     OW16711   1.929   4.668  11.538  0.0795  0.7345 -0.4058
 1750SOL    HW116712   1.837   4.644  11.545 -0.4235  1.2171 -5.5631
 1750SOL    HW216713   1.967   4.588  11.575  0.2909 -0.3656 -3.0014
 1751SOL     OW16714   0.161   3.472   9.970  0.8752  0.8303 -0.1796
 1751SOL    HW116715   0.244   3.440   9.935  1.2019  3.7914 -2.1624
 1751SOL    HW216716   0.170   3.440  10.060 -2.1442 -0.4442 -0.3423
 1752SOL     OW16717   2.779   2.106   4.278  0.9257  0.3998  0.4044
 1752SOL    HW116718   2.853   2.167   4.277  0.4811  0.9056 -1.8103
 1752SOL    HW216719   2.823   2.032   4.236 -0.3573 -0.2288  0.1679
 1753SOL     OW16720   1.083   4.052   4.223 -0.5344  0.4576  0.7388
 1753SOL    HW116721   1.137   3.987   4.178 -1.6168 -1.3715  2.0769
 1753SOL    HW216722   1.078   4.109   4.146 -0.2073 -0.3788  0.0881
 1754SOL     OW16723   2.078   3.559   2.425 -0.5989  0.1230 -0.2098
 1754SOL    HW116724   2.119   3.576   2.510 -2.5493  0.4128  0.6739
 1754SOL    HW216725   2.145   3.545   2.358 -0.6536 -1.3191  0.0322
 1755SOL     OW16726   3.018   4.290   0.359 -0.3798  0.3735 -0.9423
 1755SOL    HW116727   3.037   4.200   0.333 -0.1977 -0.3753  1.7754
 1755SOL    HW216728   2.991   4.327   0.275 -2.4139 -1.8265 -1.2529
 1756SOL     OW16729   2.761   0.806  12.882 -0.1613 -0.4004  0.3164
 1756SOL    HW116730   2.854   0.789  12.864 -0.3295 -0.0883 -0.8074
 1756SOL    HW216731   2.735   0.732  12.828  0.6502 -1.4392  1.3259
 1757SOL     OW16732   2.084   4.643   8.318 -0.3241  0.1203  0.7708
 1757SOL    HW116733   2.155   4.693   8.278 -1.3057 -0.4297 -1.6571
 1757SOL    HW216734   2.078   4.681   8.405 -0.8819  1.6506  0.0605
 1758SOL     OW16735   0.235   3.583   2.628 -0.8306  0.3103  0.0829
 1758SOL    HW116736   0.260   3.674   2.646 -1.1304  0.5570 -0.7403
 1758SOL    HW216737   0.206   3.593   2.537 -0.6152  0.7453  0.0613
 1759SOL     OW16738   0.081   3.069   5.336 -0.1843 -0.1985  0.3219
 1759SOL    HW116739   0.007   3.061   5.275  1.3813  0.0591 -1.6067
 1759SOL    HW216740   0.149   3.095   5.274  0.9640 -2.9030  0.4692
 1760SOL     OW16741   1.407   4.474  14.161 -0.7335 -0.4394  0.2018
 1760SOL    HW116742   1.395   4.495  14.068  0.9090 -0.8342 -0.1070
 1760SOL    HW216743   1.406   4.563  14.197  3.0389 -0.2827 -0.0320
 1761SOL     OW16744   4.576   3.831  11.201 -0.3446 -0.4467 -0.3980
 1761SOL    HW116745   4.664   3.815  11.169 -0.0097  0.7731 -0.0809
 1761SOL    HW216746   4.539   3.744  11.188  0.5435 -0.6202 -1.7537
 1762SOL     OW16747   4.445   4.186   3.667  0.1617 -0.5154  0.5154
 1762SOL    HW116748   4.536   4.175   3.640  0.3923  0.7739  0.7773
 1762SOL    HW216749   4.412   4.098   3.647  0.6085 -0.4628 -0.4670
 1763SOL     OW16750   4.189   2.862  16.130 -0.0508  0.1116  0.0030
 1763SOL    HW116751   4.168   2.918  16.205 -1.5266 -1.0706  0.4521
 1763SOL    HW216752   4.211   2.778  16.169  2.3999  0.5567 -0.4323
 1764SOL     OW16753   3.324   3.874  16.468 -0.2926 -0.2885  0.0479
 1764SOL    HW116754   3.404   3.851  16.516 -0.0945  2.7326  1.1674
 1764SOL    HW216755   3.331   3.806  16.401  2.6101 -0.4504  0.4938
 1765SOL     OW16756   1.278   3.271   4.269  0.1543 -0.1156 -0.1995
 1765SOL    HW116757   1.271   3.184   4.308 -1.7215  1.1054  2.2090
 1765SOL    HW216758   1.363   3.298   4.304 -0.0969 -0.6166  0.7997
 1766SOL     OW16759   1.435   1.948  16.042 -0.0056  0.1234  0.2583
 1766SOL    HW116760   1.381   2.026  16.057 -0.7130 -0.2595 -0.2514
 1766SOL    HW216761   1.374   1.898  15.988 -0.2854  1.2580 -0.4869
 1767SOL     OW16762   2.930   2.039  16.979  0.0087  0.1129 -0.4051
 1767SOL    HW116763   2.932   2.065  17.071 -1.2897  1.6811 -0.8311
 1767SOL    HW216764   2.967   2.118  16.940 -0.7541  0.3446 -0.6603
 1768SOL     OW16765   4.430   2.239  15.397  0.2678  0.4478 -0.4644
 1768SOL    HW116766   4.523   2.222  15.411 -0.3783 -2.0517  0.7206
 1768SOL    HW216767   4.422   2.209  15.306  0.0722  0.5148 -0.4694
 1769SOL     OW16768   3.805   3.874   3.502 -0.4333  0.7418 -0.5064
 1769SOL    HW116769   3.799   3.811   3.574  0.8496 -1.5691 -2.4023
 1769SOL    HW216770   3.745   3.847   3.432  0.9584 -1.6440 -0.7832
 1770SOL     OW16771   1.301   1.425   6.284 -0.8622 -0.5532  0.4334
 1770SOL    HW116772   1.232   1.358   6.283 -1.6396  0.2421  1.0990
 1770SOL    HW216773   1.372   1.374   6.246 -2.0797 -2.2957  0.4536
 1771SOL     OW16774   3.456   1.698  17.679 -0.9451  0.6849  0.0570
 1771SOL    HW116775   3.454   1.679  17.585  2.8056 -1.0963  0.3339
 1771SOL    HW216776   3.529   1.759  17.690 -0.7224  0.1853  1.2652
 1772SOL     OW16777   3.545   3.502   2.331 -0.1624 -0.1084  0.5050
 1772SOL    HW116778   3.451   3.517   2.325 -0.1162  0.5453  1.4340
 1772SOL    HW216779   3.553   3.424   2.275  0.1040 -0.1978  0.6634
 1773SOL     OW16780   0.865   2.675   1.909  0.1236 -0.1757  0.0862
 1773SOL    HW116781   0.820   2.759   1.918  0.4895 -0.0084  0.3498
 1773SOL    HW216782   0.952   2.704   1.883  0.3253 -2.5307 -1.8883
 1774SOL     OW16783   0.944   0.494   5.255  0.2807 -0.1490 -0.1482
 1774SOL    HW116784   0.895   0.423   5.213  0.3110 -0.9600  1.1973
 1774SOL    HW216785   0.935   0.549   5.177  2.2706 -0.5174 -0.6208
 1775SOL     OW16786   3.417   2.631   1.418  0.6035  0.5500  0.7941
 1775SOL    HW116787   3.359   2.555   1.413 -1.0735  2.0195 -2.7280
 1775SOL    HW216788   3.365   2.690   1.472  0.2145 -1.1924  2.2940
 1776SOL     OW16789   4.533   2.756   0.525  0.2758 -0.0759 -0.7215
 1776SOL    HW116790   4.477   2.832   0.536 -0.3092 -0.7129  0.7121
 1776SOL    HW216791   4.567   2.774   0.437 -0.5341  0.8814 -0.8282
 1777SOL     OW16792   4.087   1.744   3.865  0.7375  0.7072  0.0802
 1777SOL    HW116793   4.126   1.663   3.832  2.6316  1.0832  1.3408
 1777SOL    HW216794   4.109   1.742   3.958  1.0578  1.5348  0.0250
 1778SOL     OW16795   1.097   0.155  15.738 -0.3807  0.3903  0.4243
 1778SOL    HW116796   1.113   0.246  15.760  0.1459  0.5495 -0.6268
 1778SOL    HW216797   1.007   0.141  15.768 -0.2437 -0.5726  0.4102
 1779SOL     OW16798   3.111   4.500   7.112  0.1683  0.2391  0.4389
 1779SOL    HW116799   3.106   4.406   7.131 -0.9890  0.2133  0.0217
 1779SOL    HW216800   3.141   4.498   7.021 -0.3469 -1.8406  0.3053
 1780SOL     OW16801   4.317   1.420   7.987  0.2580  0.1586  0.3787
 1780SOL    HW116802   4.346   1.338   8.025 -2.2862  0.5823  3.2380
 1780SOL    HW216803   4.222   1.409   7.992  0.3045 -1.0429 -1.4790
 1781SOL     OW16804   0.301   3.217   8.394 -0.3049  0.0320 -0.2091
 1781SOL    HW116805   0.304   3.245   8.302 -0.9081  2.7589  0.6039
 1781SOL    HW216806   0.339   3.130   8.379 -0.4663  0.0878 -0.9500
 1782SOL     OW16807   2.924   2.225   5.621  0.0485  0.7067 -0.3273
 1782SOL    HW116808   2.907   2.223   5.715  1.1378 -0.1729 -0.1551
 1782SOL    HW216809   2.906   2.132   5.607  1.2061  0.4477 -0.1071
 1783SOL     OW16810   4.531   1.819   8.917 -0.0058  0.1129  0.2824
 1783SOL    HW116811   4.454   1.791   8.868 -0.3323 -0.2294  0.9932
 1783SOL    HW216812   4.568   1.734   8.941  0.1998 -0.1994 -1.1404
 1784SOL     OW16813   2.434   1.507   6.190 -0.1120  0.4269  0.3307
 1784SOL    HW116814   2.466   1.569   6.255  0.4756 -1.2172  1.5936
 1784SOL    HW216815   2.410   1.432   6.245  0.2641 -1.6582 -2.3284
 1785SOL     OW16816   0.162   0.791   7.065  0.2654 -0.2421 -0.6633
 1785SOL    HW116817   0.076   0.760   7.039 -0.3924  0.1505  1.0421
 1785SOL    HW216818   0.182   0.752   7.150 -0.0584  1.9170  0.4179
 1786SOL     OW16819   2.825   1.452   0.656  0.1094  0.0475  0.5992
 1786SOL    HW116820   2.833   1.537   0.699  0.5746  0.5549 -0.4892
 1786SOL    HW216821   2.873   1.397   0.719  0.5589  0.8910  0.9842
 1787SOL     OW16822   0.597   0.754   3.433  0.0312  0.7097  0.7003
 1787SOL    HW116823   0.534   0.697   3.389 -0.4582  0.4600  1.7452
 1787SOL    HW216824   0.669   0.693   3.412  0.9020  0.6458  3.8231
 1788SOL     OW16825   2.024   4.559   0.610  0.1692 -0.4110  0.2060
 1788SOL    HW116826   1.984   4.523   0.531  1.8795 -2.6576  0.3490
 1788SOL    HW216827   1.958   4.551   0.678 -1.0559  2.7888 -0.5958
 1789SOL     OW16828   0.406   3.824  17.542 -0.3350  0.4034 -0.3234
 1789SOL    HW116829   0.418   3.917  17.520  2.4555 -0.1215 -1.0216
 1789SOL    HW216830   0.311   3.817  17.545 -0.2479 -0.3197  1.0380
 1790SOL     OW16831   1.983   2.211   7.677 -0.2677  0.3633  0.1303
 1790SOL    HW116832   2.005   2.245   7.763 -0.3836 -1.0514  0.7293
 1790SOL    HW216833   2.033   2.267   7.619  1.6187 -2.5701 -1.0620
 1791SOL     OW16834   2.143   3.010   5.927  0.0023  0.0300  0.1091
 1791SOL    HW116835   2.185   2.928   5.902  0.3308  0.4959 -0.8745
 1791SOL    HW216836   2.052   2.983   5.940 -0.4657  1.2769 -0.5479
 1792SOL     OW16837   2.932   3.147   3.463  0.2726 -0.0030  0.3335
 1792SOL    HW116838   2.921   3.057   3.493 -0.6851  0.7786  2.3071
 1792SOL    HW216839   2.867   3.182   3.524 -0.0157  1.2163 -0.6791
 1793SOL     OW16840   3.620   4.697  15.151  0.5348 -0.2504 -0.1344
 1793SOL    HW116841   3.643   0.030  15.077  3.0611 -0.7731  0.2600
 1793SOL    HW216842   3.706   4.681  15.189  0.7651 -2.5216 -1.5733
 1794SOL     OW16843   1.886   4.013   0.922 -0.2534  0.7934  0.2616
 1794SOL    HW116844   1.938   3.937   0.948 -1.4527 -0.3184 -0.6048
 1794SOL    HW216845   1.794   3.992   0.933  0.4626 -0.8776  2.8953
 1795SOL     OW16846   4.119   3.160   5.029 -0.2170  0.1436 -0.9124
 1795SOL    HW116847   4.199   3.185   5.076 -0.6195 -0.4112  0.0640
 1795SOL    HW216848   4.067   3.122   5.099 -1.1127  1.6010 -0.8043
 1796SOL     OW16849   2.601   1.592   5.538  0.4401 -0.1711 -0.1083
 1796SOL    HW116850   2.687   1.551   5.539  0.0391 -1.0296 -0.4942
 1796SOL    HW216851   2.561   1.545   5.465 -1.6314 -0.0848  0.9560
 1797SOL     OW16852   4.390   1.136   3.269  0.6073 -0.2762  0.4526
 1797SOL    HW116853   4.315   1.168   3.319 -1.8028 -5.1857 -0.0538
 1797SOL    HW216854   4.416   1.052   3.307  0.0274  0.0693  1.6134
 1798SOL     OW16855   0.751   1.958  16.711  0.5136  0.5403  0.9922
 1798SOL    HW116856   0.825   2.007  16.675 -0.6356  1.3663 -0.2139
 1798SOL    HW216857   0.807   1.906  16.769 -1.8274  0.6062  3.3575
 1799SOL     OW16858   0.163   0.139  17.630  0.2245 -0.0655 -0.2994
 1799SOL    HW116859   0.242   0.152  17.579  0.9691 -0.1757  0.8227
 1799SOL    HW216860   0.110   0.218  17.615 -0.5071 -0.7056 -1.1161
 1800SOL     OW16861   4.311   1.147   1.643 -0.4344  0.2435 -0.7129
 1800SOL    HW116862   4.221   1.174   1.628 -0.9363 -0.6662  0.6796
 1800SOL    HW216863   4.345   1.184   1.561  1.3964 -1.9504 -0.9772
 1801SOL     OW16864   4.448   1.579   1.072  0.4295  0.0880  0.0210
 1801SOL    HW116865   4.416   1.632   0.999 -0.8710  1.1331  1.3524
 1801SOL    HW216866   4.537   1.578   1.038 -0.3296  0.0454 -1.9611
 1802SOL     OW16867   0.151   2.801   2.220  0.3292 -0.1852  0.3298
 1802SOL    HW116868   0.226   2.827   2.166 -0.6432  2.5938  0.3433
 1802SOL    HW216869   0.099   2.748   2.159  2.8806 -2.3551  0.0180
 1803SOL     OW16870   1.608   1.327  15.009  0.0798 -0.6434 -0.1606
 1803SOL    HW116871   1.539   1.281  14.959  0.0133 -2.3786  1.5076
 1803SOL    HW216872   1.560   1.406  15.031 -1.5388 -1.5005 -0.5760
 1804SOL     OW16873   4.080   2.968  16.372 -0.1280 -0.7718 -0.1252
 1804SOL    HW116874   4.061   3.061  16.380  0.4437 -0.6522 -0.1451
 1804SOL    HW216875   3.992   2.930  16.367  0.5781 -2.8830  3.0434
 1805SOL     OW16876   3.465   0.968  11.450  0.5129 -0.2620  0.6413
 1805SOL    HW116877   3.440   1.057  11.423  0.3117 -0.4085  0.3496
 1805SOL    HW216878   3.396   0.918  11.408 -1.3808  2.7349  0.1627
 1806SOL     OW16879   3.874   4.339  13.927  0.7341 -0.0600  0.3173
 1806SOL    HW116880   3.853   4.403  13.858  0.1074 -1.9236 -1.2230
 1806SOL    HW216881   3.964   4.326  13.897  0.7753  0.3300  0.2627
 1807SOL     OW16882   1.387   0.212   0.295 -0.0244 -0.4516  0.0217
 1807SOL    HW116883   1.468   0.245   0.335  1.1489 -2.1966 -0.8857
 1807SOL    HW216884   1.424   0.182   0.212  0.6936 -0.4745  0.3434
 1808SOL     OW16885   2.885   0.195   2.117  0.0904  0.0321 -0.1949
 1808SOL    HW116886   2.842   0.280   2.118  1.6884  0.8340  0.4014
 1808SOL    HW216887   2.871   0.162   2.028  2.2109  2.1952 -1.3019
 1809SOL     OW16888   4.568   1.161   6.951  0.2447  0.3643  0.0239
 1809SOL    HW116889   4.504   1.141   6.883  0.7663 -2.7526  0.4522
 1809SOL    HW216890   4.537   1.104   7.021  1.1864  1.7819  1.6103
 1810SOL     OW16891   0.209   1.473   7.301  0.9012  0.3843 -0.2584
 1810SOL    HW116892   0.272   1.545   7.296 -0.4234  1.5004 -0.8903
 1810SOL    HW216893   0.201   1.446   7.209  1.3390 -1.6116  0.2984
 1811SOL     OW16894   1.637   4.626   6.755  0.4055  0.3183 -0.6296
 1811SOL    HW116895   1.602   4.546   6.794 -0.7471  1.4358  0.6285
 1811SOL    HW216896   1.628   4.692   6.823  1.3456  1.0210 -1.1857
 1812SOL     OW16897   3.822   4.716   8.725  0.6763  0.0518 -0.0913
 1812SOL    HW116898   3.802   4.649   8.789  2.8470  0.2481  0.7955
 1812SOL    HW216899   3.845   0.065   8.785 -3.2679  1.7062 -0.5525
 1813SOL     OW16900   3.179   2.675  13.105  0.1816  0.2930  0.4412
 1813SOL    HW116901   3.217   2.671  13.018  0.5940  1.7278  0.5691
 1813SOL    HW216902   3.091   2.690  13.071 -0.1141  2.1511  2.0368
 1814SOL     OW16903   0.216   1.414  12.957  0.4396 -0.5921  0.5739
 1814SOL    HW116904   0.139   1.443  13.005  0.3352 -0.2117  0.1745
 1814SOL    HW216905   0.175   1.379  12.878  1.5261 -0.2914 -0.1243
 1815SOL     OW16906   0.317   0.472  13.767  0.5593 -0.1214  0.3182
 1815SOL    HW116907   0.358   0.508  13.688  1.4945 -0.3733  0.6899
 1815SOL    HW216908   0.394   0.456  13.821 -1.5862 -2.1548  2.8206
 1816SOL     OW16909   4.092   4.452   7.896 -0.3622  0.2287 -0.1830
 1816SOL    HW116910   4.108   4.384   7.830 -3.6902 -0.8860  0.1288
 1816SOL    HW216911   4.130   4.534   7.864  0.8443 -0.6514 -1.0025
 1817SOL     OW16912   1.062   0.681   3.882  0.2455 -0.2915  0.4247
 1817SOL    HW116913   1.116   0.760   3.888 -0.8254  0.4208  0.6231
 1817SOL    HW216914   1.029   0.703   3.794 -1.7950 -2.4689  0.6555
 1818SOL     OW16915   0.750   4.509   2.153  0.4622  0.1498 -0.3808
 1818SOL    HW116916   0.723   4.591   2.111 -4.8139 -1.8936 -0.9748
 1818SOL    HW216917   0.724   4.532   2.243  0.8404 -1.1508  0.0567
 1819SOL     OW16918   0.211   1.749   6.915  0.3373  0.1556  0.0674
 1819SOL    HW116919   0.256   1.798   6.984  0.3939  1.1073 -0.6506
 1819SOL    HW216920   0.284   1.707   6.869  0.3932  1.7806 -1.3338
 1820SOL     OW16921   3.640   1.585   5.724 -0.0419 -0.8697 -0.5391
 1820SOL    HW116922   3.655   1.491   5.732 -0.3222 -0.9512 -1.0056
 1820SOL    HW216923   3.723   1.617   5.688 -0.2299  0.4115  0.1539
 1821SOL     OW16924   0.291   4.310  14.555 -0.3705 -0.4063  0.0255
 1821SOL    HW116925   0.255   4.249  14.490  1.5987 -0.4433 -1.0375
 1821SOL    HW216926   0.387   4.302  14.554 -0.4161 -0.8739 -1.4407
 1822SOL     OW16927   1.885   0.025   7.080 -0.0571  0.5742  0.7624
 1822SOL    HW116928   1.803   0.047   7.036  1.6819  2.0060 -1.8558
 1822SOL    HW216929   1.862   4.670   7.131  1.0308 -0.2073  0.0727
 1823SOL     OW16930   4.020   1.170   5.463  0.8113  0.6591 -0.2648
 1823SOL    HW116931   4.046   1.081   5.442 -1.8921  0.1891 -1.6677
 1823SOL    HW216932   3.941   1.180   5.410 -0.1306 -2.1268  0.6504
 1824SOL     OW16933   1.304   0.172   7.175 -0.3881  0.2063 -0.5236
 1824SOL    HW116934   1.349   0.180   7.091 -0.4867 -2.6026 -0.8441
 1824SOL    HW216935   1.324   0.083   7.206 -0.9005  1.0493  2.2384
 1825SOL     OW16936   1.114   3.461   4.415 -0.0052 -0.1474 -0.2088
 1825SOL    HW116937   1.162   3.398   4.360  6.1109  1.6471  3.0884
 1825SOL    HW216938   1.096   3.535   4.357  0.6976 -1.0609 -1.6114
 1826SOL     OW16939   1.087   4.234   5.670  0.2118 -0.2362 -0.2947
 1826SOL    HW116940   1.180   4.221   5.650  0.0368 -3.6864  1.2138
 1826SOL    HW216941   1.084   4.321   5.710  2.2169  0.3099 -1.3367
 1827SOL     OW16942   4.713   3.973   5.791  0.0820  0.3584 -0.3425
 1827SOL    HW116943   4.697   4.025   5.712 -0.0364  1.0092  0.1151
 1827SOL    HW216944   0.084   3.954   5.780  0.1841  0.8986 -0.4097
 1828SOL     OW16945   4.522   4.640   2.467 -0.7731  0.1705  0.2382
 1828SOL    HW116946   4.537   4.693   2.388  0.3281 -0.1076  0.2603
 1828SOL    HW216947   4.603   4.652   2.516  0.1721 -2.7918 -0.6199
 1829SOL     OW16948   3.195   1.185   1.639  0.0197 -0.3366 -0.8792
 1829SOL    HW116949   3.110   1.218   1.667 -0.9749 -2.1232 -1.8102
 1829SOL    HW216950   3.256   1.251   1.672  0.4015 -1.2162  0.2116
 1830SOL     OW16951   3.517   2.095   0.537  0.1352  0.4450  0.2534
 1830SOL    HW116952   3.457   2.031   0.500  0.4229  1.8755 -2.6765
 1830SOL    HW216953   3.480   2.181   0.515  0.0568 -0.0292 -1.4318
 1831SOL     OW16954   0.767   0.631  17.468  0.1201 -0.1413  0.1345
 1831SOL    HW116955   0.758   0.537  17.483  0.4468 -0.0577  0.8616
 1831SOL    HW216956   0.823   0.633  17.391 -1.3963  1.6734 -0.9179
 1832SOL     OW16957   0.917   0.673   3.662 -0.0321  0.3446  0.1138
 1832SOL    HW116958   0.889   0.725   3.587 -0.1280 -0.4864 -0.4286
 1832SOL    HW216959   0.832   0.635   3.685  1.7139 -1.2953  3.8381
 1833SOL     OW16960   0.341   3.927   8.723 -0.2488 -0.7786  0.0423
 1833SOL    HW116961   0.360   4.020   8.731 -2.3816 -0.5434  2.4774
 1833SOL    HW216962   0.265   3.934   8.665  0.7841 -1.3132 -1.3519
 1834SOL     OW16963   1.234   0.692   5.885 -0.1162 -0.1638 -0.5655
 1834SOL    HW116964   1.309   0.682   5.944  2.6137  3.9569 -3.3115
 1834SOL    HW216965   1.166   0.690   5.953  2.3823  1.7219  1.9577
 1835SOL     OW16966   0.855   3.282   4.421 -0.1166 -0.1617 -0.0640
 1835SOL    HW116967   0.931   3.339   4.409 -0.4883  0.1764 -0.8140
 1835SOL    HW216968   0.889   3.197   4.394 -0.0766 -0.0542 -0.3607
 1836SOL     OW16969   2.723   2.573  14.304  0.1255 -0.3175 -0.4260
 1836SOL    HW116970   2.810   2.554  14.267  0.0342  0.4760 -1.0626
 1836SOL    HW216971   2.673   2.553  14.225 -0.5683  1.4332 -0.4264
 1837SOL     OW16972   0.437   1.180   2.463  0.6420 -0.2162  0.2870
 1837SOL    HW116973   0.459   1.121   2.391 -0.7928  1.0631 -1.2139
 1837SOL    HW216974   0.484   1.145   2.538 -2.6572 -1.6261  1.7101
 1838SOL     OW16975   3.017   1.601   5.985 -0.5091  0.2179 -0.0454
 1838SOL    HW116976   3.095   1.649   5.956 -0.4151 -0.1483 -0.3911
 1838SOL    HW216977   2.946   1.665   5.974  0.3878  1.6659  2.7221
 1839SOL     OW16978   2.266   4.701   8.049  0.4208  0.3390  0.3123
 1839SOL    HW116979   2.293   4.669   7.963  0.0556  3.1343 -0.8560
 1839SOL    HW216980   2.349   4.692   8.095  1.0568  0.3744 -0.8199
 1840SOL     OW16981   1.702   1.062   6.622 -0.3435  0.0562  0.0568
 1840SOL    HW116982   1.724   0.969   6.616  2.4102  0.8769 -2.4062
 1840SOL    HW216983   1.769   1.101   6.567  0.4505 -0.1213  0.9008
 1841SOL     OW16984   3.959   2.747   4.410 -0.2274 -0.8402  0.0724
 1841SOL    HW116985   3.918   2.679   4.356  1.3024 -1.0301 -0.8604
 1841SOL    HW216986   4.044   2.709   4.428  1.5879  2.9062 -0.5185
 1842SOL     OW16987   1.468   3.187   5.014 -0.1405 -0.5563  0.4868
 1842SOL    HW116988   1.416   3.112   4.984 -0.0319 -1.0832  1.5926
 1842SOL    HW216989   1.557   3.159   4.993 -0.1110  1.0042 -1.4581
 1843SOL     OW16990   0.705   3.049   2.467  0.1456  0.4168  0.2020
 1843SOL    HW116991   0.624   3.092   2.492  1.7092  2.8372  1.0684
 1843SOL    HW216992   0.715   2.990   2.542 -1.0100 -0.3596 -0.2512
 1844SOL     OW16993   1.728   3.912   1.485 -0.6794  0.0651 -0.2948
 1844SOL    HW116994   1.816   3.932   1.452  0.2858 -0.7532  1.7491
 1844SOL    HW216995   1.726   3.816   1.483  1.6968 -0.0410  1.5139
 1845SOL     OW16996   0.275   4.081   9.550  0.1121 -0.1102  0.5723
 1845SOL    HW116997   0.313   4.074   9.462 -1.8449  0.2066 -0.2855
 1845SOL    HW216998   0.330   4.013   9.591  0.3785  0.5108  1.2546
 1846SOL     OW16999   4.250   1.210   5.027  0.2199  0.3328 -0.1714
 1846SOL    HW117000   4.303   1.166   4.961  0.7714 -1.2734  1.3653
 1846SOL    HW217001   4.261   1.155   5.104 -1.5853 -0.2191 -0.2940
 1847SOL     OW17002   1.314   3.323   4.651  0.2939 -0.3020 -0.4807
 1847SOL    HW117003   1.302   3.414   4.679 -0.3108 -0.3407 -0.5992
 1847SOL    HW217004   1.376   3.341   4.581 -0.4815  1.1864 -0.7877
 1848SOL     OW17005   2.650   0.743   5.295 -0.5438  0.9521  0.0377
 1848SOL    HW117006   2.676   0.836   5.291  0.6512  0.6246  0.0563
 1848SOL    HW217007   2.558   0.750   5.270 -1.0659  0.3140  1.7369
 1849SOL     OW17008   1.836   4.081   2.084  0.2971  0.3923  0.7497
 1849SOL    HW117009   1.828   4.171   2.052  0.1051  0.3529  0.6858
 1849SOL    HW217010   1.759   4.080   2.141 -1.3907 -0.2322 -1.5643
 1850SOL     OW17011   0.050   1.982   9.148  0.1460  0.5002  0.0577
 1850SOL    HW117012   0.061   2.073   9.121 -0.6083  0.4113 -0.5304
 1850SOL    HW217013   4.680   1.982   9.174  0.1104 -2.2064  0.0064
 1851SOL     OW17014   4.291   0.938  17.657  0.4391  0.1348  0.5486
 1851SOL    HW117015   4.234   0.994  17.605 -0.2667  1.4643  2.7806
 1851SOL    HW217016   4.359   0.943  17.589  0.4722  1.2897  0.6806
 1852SOL     OW17017   3.683   0.900  17.022 -0.5742  0.6044  1.1750
 1852SOL    HW117018   3.770   0.900  17.063  0.3131  1.2826 -0.7089
 1852SOL    HW217019   3.709   0.920  16.932 -1.1471 -0.5383  0.7610
 1853SOL     OW17020   0.036   1.371   7.606 -0.3437  0.0355 -0.1547
 1853SOL    HW117021   0.054   1.405   7.694  0.4067  0.4421 -0.4592
 1853SOL    HW217022   0.006   1.284   7.631  1.6378 -0.1707  1.5512
 1854SOL     OW17023   4.250   3.477   4.400 -0.7748 -0.0679 -0.3794
 1854SOL    HW117024   4.264   3.392   4.359  0.0097  0.0929 -0.4410
 1854SOL    HW217025   4.212   3.533   4.332 -2.6426 -0.6959  0.1399
 1855SOL     OW17026   3.359   2.619   9.452  0.4633  0.1334  0.0799
 1855SOL    HW117027   3.349   2.626   9.357  1.7612 -0.2906 -0.0874
 1855SOL    HW217028   3.362   2.710   9.480  1.0022 -0.5292  2.1749
 1856SOL     OW17029   3.314   0.545   3.604  0.9097  0.1225  0.5878
 1856SOL    HW117030   3.262   0.551   3.524 -0.9338  0.7916  1.8420
 1856SOL    HW217031   3.270   0.602   3.667  0.1874  0.2482 -0.0318
 1857SOL     OW17032   1.504   4.721   9.029 -0.2560  0.2655  0.3666
 1857SOL    HW117033   1.479   4.653   9.092  1.2027 -0.4867  0.1328
 1857SOL    HW217034   1.533   0.067   9.090  0.5181  1.3160 -1.1848
 1858SOL     OW17035   2.502   2.496   7.889  0.0425 -0.0102 -0.0528
 1858SOL    HW117036   2.583   2.512   7.936 -1.0850 -0.6855  2.1546
 1858SOL    HW217037   2.512   2.536   7.803 -0.8913  3.0342  1.2458
 1859SOL     OW17038   2.380   1.430  17.480  0.0276 -0.3094 -0.0144
 1859SOL    HW117039   2.340   1.343  17.476 -0.4706 -0.1561  2.0169
 1859SOL    HW217040   2.354   1.453  17.390 -0.1161  1.5741  0.5125
 1860SOL     OW17041   2.598   4.621   4.800  0.6799  0.1482  0.4563
 1860SOL    HW117042   2.532   4.621   4.870 -0.5583  3.2850 -0.7330
 1860SOL    HW217043   2.680   4.626   4.848  0.8487 -0.3299  0.2270
 1861SOL     OW17044   2.429   4.414  14.358 -0.0626  0.1497 -0.6000
 1861SOL    HW117045   2.353   4.355  14.356  1.7322 -2.1222 -1.1199
 1861SOL    HW217046   2.436   4.433  14.264  0.2536  1.1112 -0.3857
 1862SOL     OW17047   2.517   2.985   7.148 -0.1371  0.1792  0.2587
 1862SOL    HW117048   2.430   3.020   7.128  1.0035  1.1974 -2.9975
 1862SOL    HW217049   2.507   2.930   7.225 -0.4941  0.4027  0.3724
 1863SOL     OW17050   2.391   4.531   0.444 -0.2866  0.0950 -0.7664
 1863SOL    HW117051   2.399   4.481   0.363  1.6282 -0.0730 -0.4850
 1863SOL    HW217052   2.430   4.467   0.505 -1.8005  0.3564  0.4629
 1864SOL     OW17053   0.606   3.249   3.640  0.4847 -0.1063 -0.1894
 1864SOL    HW117054   0.636   3.240   3.731 -0.0341 -0.4313 -0.0504
 1864SOL    HW217055   0.546   3.174   3.637 -0.3243  0.5494 -0.2797
 1865SOL     OW17056   0.182   1.888  16.419 -0.7543  0.3147  0.1667
 1865SOL    HW117057   0.273   1.872  16.447 -2.2365 -1.5216  4.1086
 1865SOL    HW217058   0.164   1.978  16.446 -0.2603  0.0881  1.2662
 1866SOL     OW17059   2.904   0.047   1.103  0.0385  0.0159 -0.5413
 1866SOL    HW117060   2.868   0.062   1.190 -1.6410  1.0330 -1.4260
 1866SOL    HW217061   2.957   4.690   1.117 -0.2403 -0.0525  0.1277
 1867SOL     OW17062   4.469   2.491   8.621  0.2627  0.3013 -0.0836
 1867SOL    HW117063   4.547   2.495   8.678  2.7709  1.0631 -3.5828
 1867SOL    HW217064   4.423   2.569   8.651  2.6220  2.0922 -1.1284
 1868SOL     OW17065   4.397   3.583   6.744 -0.1411 -1.2518 -0.5101
 1868SOL    HW117066   4.352   3.627   6.672  0.2875 -0.7995 -0.5016
 1868SOL    HW217067   4.450   3.520   6.695 -0.9233 -0.8611 -1.8479
 1869SOL     OW17068   1.019   3.094   7.040 -0.0870 -0.0930 -0.1928
 1869SOL    HW117069   0.943   3.083   6.983  0.5198 -0.3809 -0.9516
 1869SOL    HW217070   1.058   3.006   7.038  3.6355  1.5385 -0.1630
 1870SOL     OW17071   1.253   1.029   7.586 -0.3248 -0.3438 -0.2004
 1870SOL    HW117072   1.269   0.935   7.575  2.4725 -0.0334  1.3096
 1870SOL    HW217073   1.172   1.023   7.535  0.3234 -2.3388 -0.9785
 1871SOL     OW17074   4.110   3.547  15.651 -0.1910 -0.3459 -0.0549
 1871SOL    HW117075   4.093   3.612  15.584  1.6606 -0.5438 -0.7289
 1871SOL    HW217076   4.026   3.502  15.643  0.1932 -1.2495  0.8992
 1872SOL     OW17077   2.464   0.187   8.260 -0.0331  0.4178  0.8612
 1872SOL    HW117078   2.489   0.109   8.211 -0.4615  0.6233  0.3088
 1872SOL    HW217079   2.543   0.218   8.304 -1.5967  1.2889  3.0270
 1873SOL     OW17080   2.281   0.998   0.102 -0.1449  0.2825 -0.5597
 1873SOL    HW117081   2.362   0.978   0.055  0.5774  1.6191  0.0985
 1873SOL    HW217082   2.311   1.045   0.180 -1.6825  3.9998 -2.2159
 1874SOL     OW17083   3.717   3.806   5.760 -0.0679  0.2088  0.6626
 1874SOL    HW117084   3.681   3.832   5.675  1.0146 -0.2621  0.0600
 1874SOL    HW217085   3.801   3.850   5.751  1.2388 -2.1619  1.3378
 1875SOL     OW17086   2.025   3.090   4.981  0.4920  0.2096 -0.3100
 1875SOL    HW117087   1.972   3.153   4.930  1.5509  1.6473  0.3539
 1875SOL    HW217088   2.105   3.142   4.989 -0.0759  1.0112  0.2644
 1876SOL     OW17089   1.601   2.460   8.620 -0.5155 -0.2828  0.2404
 1876SOL    HW117090   1.507   2.443   8.625 -0.4207 -0.8722 -0.0099
 1876SOL    HW217091   1.623   2.494   8.707 -0.7840 -1.5789  0.8157
 1877SOL     OW17092   2.061   0.988   4.110  0.4180  0.0098  0.2275
 1877SOL    HW117093   2.000   1.042   4.159 -0.8723 -3.7811  2.8198
 1877SOL    HW217094   2.041   1.006   4.018  1.5850  2.7921  0.5282
 1878SOL     OW17095   2.920   4.497   6.100 -0.1543 -0.1088 -0.2423
 1878SOL    HW117096   2.926   4.517   6.193 -1.3522 -0.8080 -0.0054
 1878SOL    HW217097   2.853   4.429   6.091 -1.1645  1.2097 -2.6157
 1879SOL     OW17098   2.388   2.047   6.987  0.5878 -0.0603  0.1034
 1879SOL    HW117099   2.476   2.018   6.964  1.0265  1.5247 -0.2528
 1879SOL    HW217100   2.363   2.101   6.912 -1.0055 -0.3631  0.4101
 1880SOL     OW17101   1.895   1.074  17.036  0.0848 -0.3157 -0.6207
 1880SOL    HW117102   1.988   1.055  17.050  0.2778  0.9061 -0.2929
 1880SOL    HW217103   1.869   1.105  17.123  0.9459 -2.2668  0.3190
 1881SOL     OW17104   2.846   1.556  14.076 -0.1217 -0.3260  0.0983
 1881SOL    HW117105   2.842   1.545  13.981 -0.5877 -0.9126  0.1849
 1881SOL    HW217106   2.938   1.532  14.089  0.1529 -0.4798 -2.2482
 1882SOL     OW17107   0.576   1.505  10.579  0.1234  0.0474  0.1050
 1882SOL    HW117108   0.647   1.564  10.555  0.9407 -1.3666 -0.9235
 1882SOL    HW217109   0.605   1.459  10.658  0.9541 -0.7462 -0.6695
 1883SOL     OW17110   2.541   0.301  17.152 -0.5016 -0.0425 -0.2853
 1883SOL    HW117111   2.614   0.265  17.202 -0.5090 -1.6182 -1.4120
 1883SOL    HW217112   2.529   0.391  17.183 -2.0079 -0.2696 -0.1761
 1884SOL     OW17113   1.839   4.208   8.006  0.7405 -0.3141  0.6832
 1884SOL    HW117114   1.850   4.116   7.984 -0.9428 -1.0623  2.9939
 1884SOL    HW217115   1.930   4.232   8.026  0.4265  0.5136  1.1515
 1885SOL     OW17116   3.930   2.401   1.539 -0.2335  0.1647 -0.1629
 1885SOL    HW117117   3.904   2.441   1.622  1.8733 -0.8681  0.9858
 1885SOL    HW217118   3.879   2.448   1.473 -3.4847 -1.7275  0.9806
 1886SOL     OW17119   2.090   4.209  16.682 -0.1995 -0.0966  0.4399
 1886SOL    HW117120   2.033   4.201  16.758 -1.1530  4.8784  0.2755
 1886SOL    HW217121   2.039   4.169  16.612 -2.2871  2.2398  0.6077
 1887SOL     OW17122   1.357   1.248   7.690 -0.2387  0.1799 -0.1910
 1887SOL    HW117123   1.313   1.165   7.672  0.4155  0.3120 -2.3158
 1887SOL    HW217124   1.391   1.276   7.606 -1.0015  0.5391 -0.3850
 1888SOL     OW17125   3.545   2.653   1.690  0.1798  0.4554 -0.2435
 1888SOL    HW117126   3.500   2.574   1.661  1.5254 -0.4146  0.0394
 1888SOL    HW217127   3.624   2.649   1.636  1.2986 -0.4783  1.4583
 1889SOL     OW17128   3.603   3.509   7.918  0.5484 -0.2219  0.1438
 1889SOL    HW117129   3.522   3.525   7.966 -0.0207  0.3411 -1.0178
 1889SOL    HW217130   3.643   3.442   7.974  0.9946  2.2105  2.7189
 1890SOL     OW17131   0.580   2.872   4.127 -0.3674 -0.0743  0.0820
 1890SOL    HW117132   0.616   2.950   4.168  0.2511 -0.9911  1.2613
 1890SOL    HW217133   0.485   2.883   4.130 -0.2911  0.5025  0.2665
 1891SOL     OW17134   3.550   1.202  16.413 -0.4431 -0.2097  0.0822
 1891SOL    HW117135   3.545   1.169  16.502  0.0751  0.5579  0.3970
 1891SOL    HW217136   3.482   1.269  16.418 -0.4714 -0.4268  2.3303
 1892SOL     OW17137   1.285   1.923   8.261  0.6026 -0.3528  0.2336
 1892SOL    HW117138   1.313   2.015   8.264  1.1235 -0.4856 -0.5298
 1892SOL    HW217139   1.192   1.926   8.240  0.6583 -0.0013  0.0284
 1893SOL     OW17140   3.663   4.102   2.818 -0.3795 -0.0649  0.8804
 1893SOL    HW117141   3.719   4.098   2.894  1.4908 -1.0994 -0.5620
 1893SOL    HW217142   3.629   4.192   2.814  0.6906  0.2924 -0.3963
 1894SOL     OW17143   3.443   2.454   9.877 -0.3114  0.6208 -0.3289
 1894SOL    HW117144   3.466   2.370   9.839  0.5217  0.2774  0.9151
 1894SOL    HW217145   3.532   2.480   9.904 -0.1899 -0.3642  0.2223
 1895SOL     OW17146   1.336   2.987   6.952  0.1945 -0.0628  0.8605
 1895SOL    HW117147   1.321   3.073   6.911 -0.5029 -0.2767  0.6645
 1895SOL    HW217148   1.370   2.946   6.873 -1.7622 -1.0195  0.5105
 1896SOL     OW17149   0.051   3.005  10.540 -0.5871 -0.4418 -0.2047
 1896SOL    HW117150   0.087   2.983  10.626  4.4434  1.7739 -1.6969
 1896SOL    HW217151   4.695   3.052  10.566  0.2172 -0.2984  1.9001
 1897SOL     OW17152   0.372   4.427   5.952  0.2698 -0.2314  0.4792
 1897SOL    HW117153   0.453   4.402   5.994  1.0143 -1.9733 -2.0244
 1897SOL    HW217154   0.337   4.468   6.031 -0.4798 -2.0652  1.0981
 1898SOL     OW17155   1.323   0.890   1.367 -0.2697 -0.5470  0.0849
 1898SOL    HW117156   1.273   0.853   1.294  1.9453 -1.8962 -0.7444
 1898SOL    HW217157   1.354   0.808   1.405  2.8523  0.3397 -0.5320
 1899SOL     OW17158   3.199   4.395  15.701  0.0533  0.9943  0.8903
 1899SOL    HW117159   3.142   4.444  15.760 -1.6155  0.2693 -0.1263
 1899SOL    HW217160   3.254   4.462  15.661  1.0808 -1.1403 -1.2605
 1900SOL     OW17161   3.217   4.137   3.198  0.8024 -0.0341 -0.0877
 1900SOL    HW117162   3.145   4.141   3.135  0.1516 -0.2790  0.6299
 1900SOL    HW217163   3.201   4.217   3.250 -0.1603 -1.4303  1.7823
 1901SOL     OW17164   0.887   2.620  14.223  0.0814 -0.6347  0.4214
 1901SOL    HW117165   0.945   2.694  14.241 -1.1977  0.2553  0.8962
 1901SOL    HW217166   0.950   2.548  14.212  2.5469  1.7454 -1.1365
 1902SOL     OW17167   1.897   2.942   3.619  0.3417 -0.3003  0.3123
 1902SOL    HW117168   1.887   3.036   3.632 -1.5181 -0.1091 -2.4185
 1902SOL    HW217169   1.965   2.944   3.551  1.0855 -0.4094  1.0612
 1903SOL     OW17170   0.109   2.319   5.069 -0.5557  0.2188 -0.8489
 1903SOL    HW117171   0.142   2.375   4.999  1.6582 -2.4901 -1.9990
 1903SOL    HW217172   0.153   2.235   5.053 -2.3062 -1.1855  1.6745
 1904SOL     OW17173   1.654   3.204   6.999  0.0371  0.0428  0.0025
 1904SOL    HW117174   1.743   3.179   7.025 -0.0868 -0.1898  0.1893
 1904SOL    HW217175   1.611   3.223   7.082  2.6725 -1.7734  1.7688
 1905SOL     OW17176   2.942   0.836   1.681  0.2234  0.2651  0.1516
 1905SOL    HW117177   3.016   0.864   1.628 -0.2174  1.3553  0.1131
 1905SOL    HW217178   2.955   0.742   1.690  1.6055  0.6648  2.5231
 1906SOL     OW17179   2.785   2.933  13.760  0.2776  0.0320  0.2342
 1906SOL    HW117180   2.849   2.998  13.731 -1.1638  1.3903  0.0973
 1906SOL    HW217181   2.738   2.925  13.677 -1.2266 -1.1790  1.2054
 1907SOL     OW17182   3.216   2.312  13.732  0.1714  0.2008 -0.5523
 1907SOL    HW117183   3.239   2.390  13.781  0.8450  0.0491 -0.6254
 1907SOL    HW217184   3.136   2.336  13.685 -0.3050 -2.7432 -1.3130
 1908SOL     OW17185   1.807   4.260  14.295  0.0903 -0.2790 -0.2305
 1908SOL    HW117186   1.859   4.258  14.214 -2.9244  2.0920 -2.2475
 1908SOL    HW217187   1.718   4.261  14.259  0.1748  2.2564 -0.3745
 1909SOL     OW17188   0.508   1.982   4.044 -0.3059  0.9038 -0.5964
 1909SOL    HW117189   0.435   1.920   4.052  0.6918 -0.5295 -2.7413
 1909SOL    HW217190   0.517   1.984   3.949  1.2367  0.6783 -0.4638
 1910SOL     OW17191   0.529   2.758   8.810 -0.0040 -0.2401 -0.1737
 1910SOL    HW117192   0.479   2.722   8.883 -0.0235  0.3614  0.1128
 1910SOL    HW217193   0.586   2.683   8.795 -2.7349 -2.2577 -0.5277
 1911SOL     OW17194   0.864   3.843  17.616  0.2251 -0.1461  0.1844
 1911SOL    HW117195   0.943   3.815  17.661  0.5225 -1.3809 -1.1217
 1911SOL    HW217196   0.796   3.845  17.684 -1.5465 -0.1744 -1.5798
 1912SOL     OW17197   0.505   4.628   3.389  0.4488  0.1638  0.0666
 1912SOL    HW117198   0.462   4.562   3.335 -0.7666  0.3589  0.7919
 1912SOL    HW217199   0.568   4.664   3.326  0.4135 -1.5012 -0.9175
 1913SOL     OW17200   2.583   1.549   7.939 -0.2736 -0.6921  0.1131
 1913SOL    HW117201   2.575   1.629   7.991  1.0685  0.0382 -0.8022
 1913SOL    HW217202   2.496   1.513   7.953 -0.0806 -1.5172 -0.8480
 1914SOL     OW17203   4.390   2.706   6.569  0.2920  0.2099  0.2907
 1914SOL    HW117204   4.447   2.698   6.646  1.7612  0.1547 -0.7987
 1914SOL    HW217205   4.323   2.640   6.584  0.1180  0.3372  0.0612
 1915SOL     OW17206   3.055   2.061   7.526  0.0504  0.4191  0.2644
 1915SOL    HW117207   2.985   2.081   7.588 -1.2823  0.1825 -1.1645
 1915SOL    HW217208   2.999   2.024   7.457  3.6651 -0.3909 -2.2050
 1916SOL     OW17209   1.576   0.768   5.411  0.1354 -0.4139 -0.0576
 1916SOL    HW117210   1.554   0.824   5.485  0.3444 -2.5121  1.5929
 1916SOL    HW217211   1.630   0.699   5.449 -1.6372 -2.0388 -0.4223
 1917SOL     OW17212   3.917   0.795  11.801  0.2437 -0.5738 -0.0066
 1917SOL    HW117213   3.980   0.778  11.871  0.9810  2.1946  0.0301
 1917SOL    HW217214   3.840   0.747  11.831  0.3391 -2.2251 -2.4346
 1918SOL     OW17215   2.984   4.715   5.888  0.3399 -0.0284 -0.4345
 1918SOL    HW117216   2.947   4.645   5.942 -1.8244  0.6614 -1.0193
 1918SOL    HW217217   2.930   4.701   5.810 -0.1241 -0.4151 -0.0466
 1919SOL     OW17218   1.520   0.665  14.606 -0.1002  0.2596  0.0363
 1919SOL    HW117219   1.544   0.757  14.591  2.1056 -0.2416  0.5005
 1919SOL    HW217220   1.431   0.659  14.571  0.0825 -2.3073  0.0604
 1920SOL     OW17221   2.196   2.487   9.075 -0.8029 -0.3381 -0.0056
 1920SOL    HW117222   2.148   2.486   9.158 -2.5300 -2.6671 -1.0441
 1920SOL    HW217223   2.193   2.393   9.059  0.4083 -0.3698 -0.0235
 1921SOL     OW17224   0.747   3.028   6.957 -0.3556  0.4125  0.2442
 1921SOL    HW117225   0.774   2.937   6.943  0.7988  0.6965  0.6595
 1921SOL    HW217226   0.709   3.032   7.045 -1.8607  1.6492 -0.4614
 1922SOL     OW17227   4.308   2.908  10.352  0.5530  0.7292  0.1227
 1922SOL    HW117228   4.334   2.825  10.313  1.0580  1.5721 -1.3548
 1922SOL    HW217229   4.363   2.979  10.318  0.6415  1.2174  1.2960
 1923SOL     OW17230   2.252   4.679   3.615 -0.7737 -0.0817  0.2680
 1923SOL    HW117231   2.163   4.666   3.647 -1.0755  1.0429 -0.1092
 1923SOL    HW217232   2.286   0.007   3.689 -0.6679  0.3910 -0.0994
 1924SOL     OW17233   4.262   0.065   6.791  0.7243  0.3122 -0.7704
 1924SOL    HW117234   4.246   4.694   6.806 -0.5942  0.5911 -0.4573
 1924SOL    HW217235   4.174   0.095   6.768 -0.1847 -1.1598  0.7694
 1925SOL     OW17236   4.234   2.521   4.055 -0.9296  0.1836 -0.1280
 1925SOL    HW117237   4.191   2.607   4.048 -0.3805  0.3982 -0.9092
 1925SOL    HW217238   4.285   2.524   4.136  0.9131  1.4451 -1.3315
 1926SOL     OW17239   0.091   4.530   7.969  0.1351  0.3357 -0.2849
 1926SOL    HW117240   0.012   4.488   8.001  1.9621 -2.0051  1.1497
 1926SOL    HW217241   0.059   4.619   7.954  2.3389  1.0281 -0.9119
 1927SOL     OW17242   0.835   1.554  11.237 -0.3793 -0.2268 -0.2150
 1927SOL    HW117243   0.825   1.644  11.268 -0.2010  0.4382 -2.0836
 1927SOL    HW217244   0.744   1.526  11.233 -0.4353  0.1649 -1.4065
 1928SOL     OW17245   0.673   4.047  15.217 -0.5912 -0.8994 -0.0664
 1928SOL    HW117246   0.731   4.115  15.182 -2.0179  0.6246  0.5175
 1928SOL    HW217247   0.688   3.980  15.150  3.0756 -0.9263  0.7587
 1929SOL     OW17248   4.487   4.593   3.139 -0.4153 -0.1435  0.5887
 1929SOL    HW117249   4.418   4.537   3.102 -0.9704  0.1911  1.1191
 1929SOL    HW217250   4.473   4.672   3.088 -0.2870 -1.9870 -2.2960
 1930SOL     OW17251   1.927   3.493   7.565 -0.0215 -0.4272 -0.0374
 1930SOL    HW117252   2.020   3.470   7.568 -0.1602 -1.2121 -1.8767
 1930SOL    HW217253   1.889   3.409   7.590  0.3183 -1.0158 -1.4607
 1931SOL     OW17254   1.291   2.314  11.821 -0.5784 -0.0867 -0.0590
 1931SOL    HW117255   1.322   2.286  11.907  2.0152  0.0168 -0.9476
 1931SOL    HW217256   1.237   2.389  11.846 -0.0368  1.3027 -3.0918
 1932SOL     OW17257   2.966   3.052   5.139 -0.1896  0.0757 -0.1546
 1932SOL    HW117258   3.041   3.058   5.080  0.4294 -0.6777  0.5515
 1932SOL    HW217259   2.919   2.973   5.114 -0.5288 -0.2994  1.6504
 1933SOL     OW17260   2.026   4.382   5.282 -0.3424  0.1339 -0.0026
 1933SOL    HW117261   1.945   4.332   5.267 -0.6539 -0.0442  2.2220
 1933SOL    HW217262   2.056   4.329   5.356 -1.2839 -0.5056 -0.0715
 1934SOL     OW17263   3.653   2.452   9.275 -0.2945 -0.3345 -0.4143
 1934SOL    HW117264   3.601   2.532   9.271 -0.3067 -0.1924  2.6123
 1934SOL    HW217265   3.646   2.419   9.365 -2.4927  0.1393 -0.4228
 1935SOL     OW17266   4.635   3.122   5.088 -0.1250  0.3003 -0.1445
 1935SOL    HW117267   4.540   3.134   5.091 -0.0027  1.0277  1.0327
 1935SOL    HW217268   4.669   3.212   5.091 -1.7459  0.9555 -2.0473
 1936SOL     OW17269   1.261   0.872   9.466  0.2307 -0.6042  0.0982
 1936SOL    HW117270   1.337   0.814   9.467 -0.0144 -0.8990  1.2491
 1936SOL    HW217271   1.230   0.862   9.375  1.5714  2.2153 -0.6731
 1937SOL     OW17272   2.080   0.856   4.730  0.1431 -0.4483 -0.0832
 1937SOL    HW117273   2.136   0.826   4.659 -1.4017  1.4268 -2.0686
 1937SOL    HW217274   2.117   0.944   4.734 -1.0822  0.1640 -2.4234
 1938SOL     OW17275   0.764   0.791   2.948 -0.5799 -0.1215 -0.2834
 1938SOL    HW117276   0.709   0.832   3.015  0.0697  1.4482 -0.7016
 1938SOL    HW217277   0.749   0.697   2.957 -2.7152  0.3552  1.2513
 1939SOL     OW17278   4.161   4.503  11.529 -0.2709  0.0038  0.8882
 1939SOL    HW117279   4.203   4.475  11.610  1.0970 -1.0236 -0.1648
 1939SOL    HW217280   4.235   4.516  11.469 -1.0410  0.3494  0.0027
 1940SOL     OW17281   3.505   0.610  13.348 -0.3395 -0.1746  0.1836
 1940SOL    HW117282   3.468   0.571  13.427 -0.7569 -1.0280 -0.4278
 1940SOL    HW217283   3.464   0.696  13.347 -1.7830 -0.8202  2.8923
 1941SOL     OW17284   0.975   0.389   4.649  0.2557 -0.4830 -0.1571
 1941SOL    HW117285   0.954   0.447   4.576  0.1758  1.8436  1.7064
 1941SOL    HW217286   1.002   0.310   4.603 -1.6844  0.3193 -2.6473
 1942SOL     OW17287   0.005   1.242   5.884  0.4979 -0.3760  0.0205
 1942SOL    HW117288   4.659   1.296   5.843 -0.3391 -0.9337  0.6801
 1942SOL    HW217289   0.002   1.167   5.825  0.8449  0.0660 -0.5486
 1943SOL     OW17290   2.754   1.317   6.672  0.3499 -0.7704  0.1726
 1943SOL    HW117291   2.697   1.346   6.743 -2.1454 -3.4775 -0.7036
 1943SOL    HW217292   2.836   1.327   6.720 -0.3747  0.4636  1.1271
 1944SOL     OW17293   2.954   3.440  17.221 -0.4870 -0.4303  0.4532
 1944SOL    HW117294   2.881   3.378  17.228  0.2163 -1.0030  2.4019
 1944SOL    HW217295   2.898   3.512  17.189 -0.8689 -0.5610  0.8405
 1945SOL     OW17296   3.857   1.374   6.061 -0.8845  0.2999  0.5480
 1945SOL    HW117297   3.771   1.333   6.071  0.5335 -3.1657 -1.1359
 1945SOL    HW217298   3.878   1.382   6.154 -0.6108  0.8112  0.4382
 1946SOL     OW17299   4.521   4.108   5.333 -0.4789  0.4535 -0.3661
 1946SOL    HW117300   4.440   4.133   5.288  0.2127 -0.0505 -1.8775
 1946SOL    HW217301   4.529   4.016   5.307  0.8717 -0.0101  1.7600
 1947SOL     OW17302   0.596   2.175  15.920 -0.1726  0.6994  0.5949
 1947SOL    HW117303   0.648   2.256  15.919  0.3131  0.4154  2.3135
 1947SOL    HW217304   0.514   2.224  15.933 -0.5628  1.1116 -3.5514
 1948SOL     OW17305   4.699   2.901  17.679 -0.6784 -0.1138  0.3819
 1948SOL    HW117306   0.056   2.925  17.630 -0.9003  0.9755  0.5690
 1948SOL    HW217307   4.633   2.953  17.634 -0.1950  0.6035  0.5056
 1949SOL     OW17308   1.719   1.866   8.442  0.0196  0.3345 -0.4750
 1949SOL    HW117309   1.667   1.935   8.482  0.4588 -0.4899  1.4824
 1949SOL    HW217310   1.700   1.886   8.350  1.0301  0.8540 -0.5685
 1950SOL     OW17311   3.922   3.563   6.262  0.1734  0.5832 -0.1146
 1950SOL    HW117312   3.880   3.476   6.263  3.1144 -0.8007  2.6132
 1950SOL    HW217313   4.009   3.546   6.299  0.6362  1.6959 -0.7107
 1951SOL     OW17314   0.247   0.759   5.308 -0.0192  0.3206  0.7108
 1951SOL    HW117315   0.296   0.781   5.387 -0.5747  1.2442  0.8001
 1951SOL    HW217316   0.317   0.724   5.253 -0.8696  0.4921 -0.4929
 1952SOL     OW17317   3.803   3.212   2.553 -0.0901 -0.2632 -0.3587
 1952SOL    HW117318   3.890   3.181   2.575 -0.1007  0.8351  1.1793
 1952SOL    HW217319   3.829   3.286   2.498 -0.2459  1.4977  1.9615
 1953SOL     OW17320   2.092   2.045   0.961  0.1716 -0.7211  0.3833
 1953SOL    HW117321   2.096   1.958   1.001  0.5366 -1.4510 -1.2365
 1953SOL    HW217322   2.030   2.037   0.888  0.5599 -1.9811  0.1917
 1954SOL     OW17323   0.370   1.097  16.643  0.2014  0.2812  0.1973
 1954SOL    HW117324   0.401   1.127  16.728 -2.8322  0.2205  1.3053
 1954SOL    HW217325   0.281   1.076  16.671  0.4602 -1.9381 -0.6293
 1955SOL     OW17326   1.560   2.746  13.476 -0.3129 -0.1286 -0.4473
 1955SOL    HW117327   1.627   2.788  13.529  0.0289  0.5874 -1.4424
 1955SOL    HW217328   1.610   2.729  13.397 -0.3270  3.1140 -1.1751
 1956SOL     OW17329   0.660   3.178   7.520 -0.1946 -0.3031 -0.1774
 1956SOL    HW117330   0.742   3.220   7.494 -0.2208  0.8867  1.7249
 1956SOL    HW217331   0.678   3.084   7.507 -0.5307 -0.3695 -0.1476
 1957SOL     OW17332   2.747   3.121   0.032 -0.2488  0.3431  0.0688
 1957SOL    HW117333   2.785   3.196  17.677  0.5917  1.1205  2.0416
 1957SOL    HW217334   2.754   3.150   0.123 -2.3530  0.9916  0.0082
 1958SOL     OW17335   0.195   2.621   2.440  0.5176  0.1150 -0.0490
 1958SOL    HW117336   0.275   2.595   2.393  0.2410  0.6810 -0.8417
 1958SOL    HW217337   0.163   2.677   2.370  0.4483 -1.7362 -1.5180
 1959SOL     OW17338   4.474   2.141   9.366  0.2350 -0.1036  0.1340
 1959SOL    HW117339   4.541   2.151   9.434 -2.4317  0.8115  2.6379
 1959SOL    HW217340   4.413   2.085   9.415 -0.7097  1.5355  0.8453
 1960SOL     OW17341   3.058   4.542   1.073  0.5026 -0.0930 -0.1780
 1960SOL    HW117342   3.030   4.452   1.088  1.5483 -0.2516  0.8135
 1960SOL    HW217343   3.102   4.539   0.988  1.6707  0.0393  0.4160
 1961SOL     OW17344   3.454   3.652   5.753 -0.1077  0.1585  0.2820
 1961SOL    HW117345   3.497   3.726   5.709 -1.9074  0.6786 -0.5843
 1961SOL    HW217346   3.468   3.675   5.845 -1.1358 -1.5597  0.8648
 1962SOL     OW17347   1.671   0.993   7.155  0.0490 -0.4730  0.5473
 1962SOL    HW117348   1.717   1.075   7.142 -0.5235 -0.1128  0.7967
 1962SOL    HW217349   1.589   1.021   7.195 -0.2334  0.1851 -0.5104
 1963SOL     OW17350   0.599   2.581   5.220 -0.0469 -0.3486  0.7444
 1963SOL    HW117351   0.517   2.609   5.180  0.0235 -0.6469  0.3877
 1963SOL    HW217352   0.657   2.656   5.225 -0.1568 -0.3636  2.2737
 1964SOL     OW17353   2.581   3.946  14.846  0.0953  0.3392  0.8667
 1964SOL    HW117354   2.500   3.934  14.896  0.5138 -0.8727  1.2564
 1964SOL    HW217355   2.644   3.951  14.918 -0.0986  3.4209  0.8059
 1965SOL     OW17356   1.271   0.104   5.902  0.0376  0.1644 -0.2903
 1965SOL    HW117357   1.254   0.103   5.996 -0.4743 -0.4098 -0.3877
 1965SOL    HW217358   1.366   0.118   5.905 -0.0040 -0.0084  1.5475
 1966SOL     OW17359   0.321   4.603   8.402  0.3096 -0.3082 -0.0127
 1966SOL    HW117360   0.260   4.562   8.341 -1.4526  3.3572 -0.6929
 1966SOL    HW217361   0.406   4.561   8.386  1.1965  1.6803 -0.6138
 1967SOL     OW17362   1.048   2.556  13.987 -0.3862  0.2398  0.8166
 1967SOL    HW117363   1.035   2.620  13.917  0.3430  0.6985  1.1090
 1967SOL    HW217364   1.091   2.606  14.056  1.4759  0.9493 -0.8540
 1968SOL     OW17365   2.621   2.027   8.799 -0.0767 -0.4667 -0.3298
 1968SOL    HW117366   2.559   2.059   8.864  2.2297  0.5638  1.3537
 1968SOL    HW217367   2.680   1.973   8.852  0.6648  0.2566 -0.4269
 1969SOL     OW17368   3.273   0.482   9.050 -0.1176  0.3734  0.0278
 1969SOL    HW117369   3.231   0.556   9.006 -1.6835 -1.5413 -1.6951
 1969SOL    HW217370   3.365   0.503   9.036 -0.1070  0.2694 -0.0649
 1970SOL     OW17371   0.699   3.020   7.213  0.3775 -0.6895 -0.0694
 1970SOL    HW117372   0.736   3.025   7.300 -0.8376  0.2833  0.4021
 1970SOL    HW217373   0.608   3.033   7.241  0.5809  1.0106 -0.1685
 1971SOL     OW17374   3.118   2.614   6.460  0.0125  0.3193  0.1797
 1971SOL    HW117375   3.112   2.592   6.553 -1.0141 -0.0155  0.0348
 1971SOL    HW217376   3.141   2.707   6.461 -0.3168  0.3835  1.8989
 1972SOL     OW17377   1.032   2.909   9.589 -0.2535  0.1869  0.3390
 1972SOL    HW117378   0.959   2.969   9.578 -2.2551 -1.9734  1.8764
 1972SOL    HW217379   0.999   2.841   9.530 -0.0448  1.2673 -1.0258
 1973SOL     OW17380   4.473   0.974   7.980  0.0265  0.0963  0.6361
 1973SOL    HW117381   4.464   0.886   8.017  1.6307  0.1494  1.1504
 1973SOL    HW217382   4.552   0.952   7.930  0.0242 -0.6741  0.9699
 1974SOL     OW17383   2.819   4.073  13.590  0.7698  0.1556  0.2040
 1974SOL    HW117384   2.857   4.157  13.616  0.3662 -0.1994  1.9672
 1974SOL    HW217385   2.793   4.047  13.679 -2.0450  0.5287 -0.5166
 1975SOL     OW17386   3.648   0.279  13.908 -0.5329  0.0643  0.7861
 1975SOL    HW117387   3.734   0.290  13.868 -0.5576  2.4429  1.4075
 1975SOL    HW217388   3.652   0.328  13.990 -0.3964 -0.0256  0.8332
 1976SOL     OW17389   2.925   1.693  15.195  0.1230 -0.1116  0.3468
 1976SOL    HW117390   2.936   1.730  15.282 -0.3925  1.7608 -0.3847
 1976SOL    HW217391   3.014   1.705  15.160  0.1849 -0.6457  0.3139
 1977SOL     OW17392   3.739   3.024   2.899 -0.1107  0.6028 -0.0420
 1977SOL    HW117393   3.709   3.055   2.814 -2.1098  0.6073  0.6550
 1977SOL    HW217394   3.744   3.102   2.955 -1.3204 -0.2104  1.2084
 1978SOL     OW17395   0.932   3.160  16.045 -0.0885 -0.4496 -0.2570
 1978SOL    HW117396   0.959   3.079  16.087 -1.4844 -0.0856  1.3482
 1978SOL    HW217397   0.901   3.214  16.119  0.2148  0.2051 -0.6101
 1979SOL     OW17398   0.762   0.045   5.380  0.4112  0.6387  0.3535
 1979SOL    HW117399   0.729   0.098   5.452  2.1686 -2.0612  3.1428
 1979SOL    HW217400   0.851   0.035   5.414  0.9108 -1.2370 -1.5082
 1980SOL     OW17401   4.398   0.040  12.386 -0.1530 -0.0670 -0.2305
 1980SOL    HW117402   4.447   4.712  12.451  1.5069 -0.4307 -1.7450
 1980SOL    HW217403   4.454   0.114  12.362 -1.9720  0.9762 -1.2655
 1981SOL     OW17404   0.795   1.088   4.090 -0.1217 -0.1698 -0.1834
 1981SOL    HW117405   0.884   1.056   4.106 -0.3867  0.5821  2.6725
 1981SOL    HW217406   0.744   1.007   4.092  1.0168 -0.8602  0.7676
 1982SOL     OW17407   2.861   2.487   7.802  0.2073  0.0598 -0.2861
 1982SOL    HW117408   2.912   2.406   7.802 -2.5123 -1.6513 -0.2395
 1982SOL    HW217409   2.880   2.523   7.888 -1.1805  3.5470 -1.4362
 1983SOL     OW17410   0.545   0.393   2.744 -0.5833  0.1538 -0.2503
 1983SOL    HW117411   0.497   0.461   2.696  0.2706  0.1932 -1.0301
 1983SOL    HW217412   0.551   0.434   2.831  0.2549 -0.8206  0.1487
 1984SOL     OW17413   3.147   0.833   7.544 -0.2712 -0.1426  0.3992
 1984SOL    HW117414   3.146   0.785   7.627 -2.0924  2.2910  1.7861
 1984SOL    HW217415   3.067   0.886   7.544 -1.5012 -2.0227  0.4367
 1985SOL     OW17416   0.628   0.134   0.339 -0.0285 -0.6239  0.7421
 1985SOL    HW117417   0.693   0.118   0.408  1.1287 -0.9191 -0.4208
 1985SOL    HW217418   0.606   0.043   0.319  0.6852 -0.1790 -1.9317
 1986SOL     OW17419   2.708   4.231   2.563  0.3066 -0.3969  0.3483
 1986SOL    HW117420   2.653   4.302   2.530 -0.6142 -1.9754 -1.5246
 1986SOL    HW217421   2.787   4.280   2.584 -0.3991  0.3169  1.3232
 1987SOL     OW17422   2.267   3.764  15.747 -0.5953 -0.0427  0.8381
 1987SOL    HW117423   2.266   3.730  15.657  1.8673 -1.4663  1.3515
 1987SOL    HW217424   2.283   3.858  15.739  0.6001 -0.2999  0.1111
 1988SOL     OW17425   4.035   3.361   7.558  0.3940 -0.2796  0.0469
 1988SOL    HW117426   4.025   3.402   7.472 -1.2883  0.4754  0.5906
 1988SOL    HW217427   3.957   3.391   7.605  0.5828  0.0035  0.1803
 1989SOL     OW17428   0.254   1.568   3.866  0.2383 -0.0171 -0.1797
 1989SOL    HW117429   0.315   1.633   3.830 -0.9454  0.8795 -0.5758
 1989SOL    HW217430   0.197   1.554   3.790  1.1925  0.0500 -0.9066
 1990SOL     OW17431   3.241   0.971   0.933  0.1298  0.4850  0.1565
 1990SOL    HW117432   3.334   0.989   0.946 -0.0764  0.5496  1.6126
 1990SOL    HW217433   3.231   0.891   0.984  2.0220  1.3613  1.9411
 1991SOL     OW17434   0.788   2.951  12.126 -0.0245 -0.2305  0.0540
 1991SOL    HW117435   0.809   2.859  12.145  0.8662  0.0452  0.3905
 1991SOL    HW217436   0.776   2.938  12.032 -1.5179 -2.0805  0.5057
 1992SOL     OW17437   0.945   3.026   4.362 -0.0910 -0.3410 -0.6680
 1992SOL    HW117438   0.994   3.038   4.281  1.1868 -0.6025  0.0774
 1992SOL    HW217439   0.914   2.935   4.357  1.7299 -1.0751  1.3369
 1993SOL     OW17440   1.361   0.327  10.754 -0.7506  0.0911 -0.3257
 1993SOL    HW117441   1.302   0.400  10.772 -0.1858  0.9216 -1.8430
 1993SOL    HW217442   1.443   0.355  10.794 -0.6550  0.1451 -0.5607
 1994SOL     OW17443   4.254   1.203   0.362 -0.2971  0.4520 -0.2723
 1994SOL    HW117444   4.302   1.272   0.316  0.5267 -0.3739 -0.6444
 1994SOL    HW217445   4.200   1.168   0.292 -1.2707  0.4259  0.4834
 1995SOL     OW17446   2.038   3.552   6.898  0.1569 -0.0417 -0.0560
 1995SOL    HW117447   1.977   3.590   6.962 -0.7774  0.3358 -1.1788
 1995SOL    HW217448   1.995   3.570   6.814 -0.6611  2.0581  0.8153
 1996SOL     OW17449   4.394   2.632  10.439  0.1217 -0.4326  0.1191
 1996SOL    HW117450   4.424   2.579  10.513  0.7318  0.9827  0.8918
 1996SOL    HW217451   4.351   2.703  10.485  0.0402 -0.0208 -0.5923
 1997SOL     OW17452   1.353   4.487   2.857 -0.0656  1.1226  0.0162
 1997SOL    HW117453   1.436   4.443   2.871 -1.1016 -1.3076 -1.4829
 1997SOL    HW217454   1.392   4.570   2.828  4.7077 -1.3500 -0.6016
 1998SOL     OW17455   4.714   1.379   8.562  0.8437 -1.2640  0.0298
 1998SOL    HW117456   0.051   1.452   8.579  2.0140 -1.5681 -2.7497
 1998SOL    HW217457   0.003   1.325   8.641  2.1637  0.4000  0.9945
 1999SOL     OW17458   2.082   1.764  17.050 -0.6821  0.1206 -0.1391
 1999SOL    HW117459   2.009   1.735  16.996 -1.9225  0.2718  1.4640
 1999SOL    HW217460   2.101   1.848  17.010 -2.0029  1.4485  2.0448
 2000SOL     OW17461   1.970   3.887  15.524 -0.5302  0.3048  0.1915
 2000SOL    HW117462   1.992   3.962  15.469  0.5498 -0.1368  0.0262
 2000SOL    HW217463   1.889   3.918  15.564 -1.2208 -1.4045  0.1320
 2001SOL     OW17464   1.478   4.615  12.120  0.1018  0.6419 -0.0456
 2001SOL    HW117465   1.501   4.554  12.050  1.7329  0.6048  0.5209
 2001SOL    HW217466   1.557   4.641  12.167 -1.7762 -0.0514  3.4924
 2002SOL     OW17467   0.698   0.582   7.318 -0.3014  0.2653  0.4463
 2002SOL    HW117468   0.699   0.633   7.399 -2.1081 -0.7198  1.0799
 2002SOL    HW217469   0.791   0.565   7.304 -0.7433 -0.9986 -0.9125
 2003SOL     OW17470   0.270   3.349   6.549  0.4633  0.6016 -0.3170
 2003SOL    HW117471   0.290   3.304   6.631  0.7391 -0.1043 -0.7691
 2003SOL    HW217472   0.238   3.432   6.586  1.0015 -0.0474  1.6027
 2004SOL     OW17473   3.338   3.236   6.195 -0.1143  0.0937 -0.4560
 2004SOL    HW117474   3.397   3.252   6.269 -0.7946 -0.8636  0.2923
 2004SOL    HW217475   3.396   3.224   6.120 -0.2252  0.9076 -0.6628
 2005SOL     OW17476   2.312   0.700   6.192 -0.0382 -0.1620 -0.0655
 2005SOL    HW117477   2.225   0.671   6.165 -0.0500  0.7810 -1.0427
 2005SOL    HW217478   2.369   0.628   6.167 -1.6071 -1.7309  0.8885
 2006SOL     OW17479   1.816   1.487   6.326  0.0317  0.3464 -0.7132
 2006SOL    HW117480   1.899   1.480   6.375 -0.9729 -0.5638  0.8525
 2006SOL    HW217481   1.778   1.407   6.362  3.4891 -0.6258  0.8319
 2007SOL     OW17482   1.047   4.205  13.277 -0.1652 -0.7053 -0.3596
 2007SOL    HW117483   0.991   4.245  13.344  0.3596 -0.8304  0.1546
 2007SOL    HW217484   0.986   4.218  13.205 -0.2324  0.0584 -0.1644
 2008SOL     OW17485   1.304   2.173   7.962  0.0118  0.1618 -0.0030
 2008SOL    HW117486   1.332   2.160   8.053 -0.4563  1.8060  0.3812
 2008SOL    HW217487   1.283   2.265   7.980 -2.5198 -0.8764  2.2850
 2009SOL     OW17488   0.496   3.358   2.042  0.4350 -0.5850 -0.5583
 2009SOL    HW117489   0.548   3.370   2.121 -0.2121 -0.7132 -0.1090
 2009SOL    HW217490   0.563   3.377   1.976  0.9713  3.9342  1.2760
 2010SOL     OW17491   1.074   4.171   1.346 -0.0753 -0.4112  0.5018
 2010SOL    HW117492   1.041   4.258   1.323 -2.2310 -1.2903  0.1863
 2010SOL    HW217493   1.027   4.117   1.282  0.3789 -0.3155  0.0875
 2011SOL     OW17494   1.766   3.848   2.645 -0.0478 -0.1837 -0.1152
 2011SOL    HW117495   1.695   3.906   2.672 -0.0628  0.5113 -1.6652
 2011SOL    HW217496   1.815   3.905   2.585 -1.6143  1.0009 -0.2792
 2012SOL     OW17497   2.626   0.450  15.487 -0.4348 -0.4052  0.0968
 2012SOL    HW117498   2.549   0.419  15.535 -0.8522  1.8933  0.8601
 2012SOL    HW217499   2.688   0.466  15.557  0.5643  1.3142 -1.1869
 2013SOL     OW17500   1.151   2.305  14.161 -0.1537  0.2461 -0.1984
 2013SOL    HW117501   1.157   2.369  14.090 -1.1831  1.6109  0.9683
 2013SOL    HW217502   1.206   2.238  14.119  0.7771 -0.4281  2.1085
 2014SOL     OW17503   2.203   0.041   5.418  0.3285  0.2244  0.3806
 2014SOL    HW117504   2.148   4.706   5.472 -0.2839  0.3612 -0.0993
 2014SOL    HW217505   2.154   0.123   5.428 -1.7024 -0.9275 -0.1185
 2015SOL     OW17506   1.143   3.587   5.022  0.0370  0.5620  0.3729
 2015SOL    HW117507   1.079   3.659   5.020 -1.6912 -1.0116 -0.4909
 2015SOL    HW217508   1.191   3.594   4.939  0.0138 -2.5413  0.1196
 2016SOL     OW17509   3.451   3.735   5.022 -0.0314  0.5453  0.5719
 2016SOL    HW117510   3.491   3.659   4.980  2.0038  1.8428  0.1622
 2016SOL    HW217511   3.506   3.804   4.984  0.8190 -0.2754  0.3260
 2017SOL     OW17512   2.882   0.494   8.262  0.3394  0.0297  0.3312
 2017SOL    HW117513   2.964   0.490   8.311  0.6596 -1.5796 -0.3441
 2017SOL    HW217514   2.868   0.589   8.259 -1.4184 -0.2717 -0.5669
 2018SOL     OW17515   0.003   0.753   8.257  0.8789 -0.0720  0.3730
 2018SOL    HW117516   0.026   0.816   8.326  0.1360  1.7478 -1.0480
 2018SOL    HW217517   0.043   0.776   8.173  0.3750 -2.4988 -0.5162
 2019SOL     OW17518   4.278   1.207   2.057  0.0238 -0.4215  0.3105
 2019SOL    HW117519   4.193   1.224   2.098 -0.1590 -0.0669 -0.2089
 2019SOL    HW217520   4.350   1.250   2.103  0.0558 -1.9241  1.6456
 2020SOL     OW17521   0.937   1.590   6.499 -0.3151 -0.1944 -0.1765
 2020SOL    HW117522   1.011   1.651   6.491 -0.9667  0.1488 -3.7040
 2020SOL    HW217523   0.941   1.541   6.417 -0.5046 -2.0549  0.9223
 2021SOL     OW17524   0.162   2.317   7.849  0.2509  0.0711  0.0150
 2021SOL    HW117525   0.167   2.228   7.813  1.8335  0.5692 -1.0005
 2021SOL    HW217526   0.252   2.329   7.879  0.2646  1.2888 -0.5391
 2022SOL     OW17527   3.502   3.452   0.293  0.0792 -0.1527 -0.1991
 2022SOL    HW117528   3.579   3.406   0.259  0.7184 -0.8071  2.1922
 2022SOL    HW217529   3.456   3.472   0.211 -1.3471 -1.0030  0.3881
 2023SOL     OW17530   1.520   0.729  15.882 -0.3286  0.1269  0.0595
 2023SOL    HW117531   1.599   0.721  15.935 -0.1213 -1.1728 -0.4452
 2023SOL    HW217532   1.448   0.694  15.933 -0.4163  1.4625  0.8385
 2024SOL     OW17533   0.397   3.253   8.647  0.5450 -0.2350 -0.0976
 2024SOL    HW117534   0.436   3.166   8.639  1.0325 -0.0249  0.0115
 2024SOL    HW217535   0.359   3.266   8.560 -1.3175 -0.7968  0.6098
 2025SOL     OW17536   4.184   2.873   3.364 -0.0079  0.1758  0.2796
 2025SOL    HW117537   4.114   2.809   3.375 -0.5478  0.7596  0.2375
 2025SOL    HW217538   4.247   2.832   3.423 -0.4622 -0.1046  0.5734
 2026SOL     OW17539   2.050   0.744   7.046  0.0403  0.3589  0.1740
 2026SOL    HW117540   2.108   0.816   7.068  0.2448  0.4649 -0.7055
 2026SOL    HW217541   2.046   0.695   7.128  1.4400  0.7307  0.4629
 2027SOL     OW17542   2.472   2.394   4.258 -0.0705 -0.0493  0.9398
 2027SOL    HW117543   2.522   2.341   4.320 -0.4321 -0.7714  0.6159
 2027SOL    HW217544   2.394   2.414   4.310 -1.2143 -1.0894 -0.3887
 2028SOL     OW17545   1.679   4.697   9.565 -0.1352 -0.2228 -0.3984
 2028SOL    HW117546   1.752   4.689   9.504  1.2829  0.5648  1.1847
 2028SOL    HW217547   1.634   4.613   9.566 -0.6088  0.0171 -2.1900
 2029SOL     OW17548   2.509   0.905   7.989  0.0175  0.0358  0.0084
 2029SOL    HW117549   2.570   0.841   7.952  1.8239  0.9005  1.4978
 2029SOL    HW217550   2.546   0.985   7.953  0.8227 -0.3332  0.0107
 2030SOL     OW17551   4.405   2.007   1.964  0.3690  0.3788  0.4376
 2030SOL    HW117552   4.407   1.947   1.889  1.6351 -0.3637  1.0719
 2030SOL    HW217553   4.347   2.076   1.932  1.7905  1.0548 -0.7002
 2031SOL     OW17554   3.102   2.349   6.812 -0.2427 -0.0410  0.0634
 2031SOL    HW117555   3.148   2.432   6.796  0.3998 -0.1266  1.5111
 2031SOL    HW217556   3.102   2.347   6.908 -2.2351  0.9701  0.0944
 2032SOL     OW17557   4.439   4.697   3.403 -0.2359  0.1581  0.6645
 2032SOL    HW117558   4.475   4.651   3.327  0.7604  1.9337  0.0613
 2032SOL    HW217559   4.350   4.668   3.386 -0.3625  1.1254 -0.3707
 2033SOL     OW17560   0.132   0.436   2.592  0.0279 -0.1888  0.1484
 2033SOL    HW117561   0.218   0.405   2.620  1.2979  1.9078 -1.4156
 2033SOL    HW217562   0.150   0.530   2.586  1.5235 -0.5343 -1.0424
 2034SOL     OW17563   4.051   4.229   5.077 -0.0062 -0.4664  0.3418
 2034SOL    HW117564   4.043   4.184   4.993 -1.3213 -0.2775  0.3522
 2034SOL    HW217565   4.034   4.319   5.046 -1.7155 -0.0546  2.4533
 2035SOL     OW17566   0.331   0.193   0.761 -0.0127 -0.5086  0.4104
 2035SOL    HW117567   0.398   0.221   0.823 -0.0382 -1.4852  0.8762
 2035SOL    HW217568   0.354   0.103   0.737 -0.1209 -0.2087 -0.8543
 2036SOL     OW17569   4.710   1.850   8.382 -0.7851 -0.0368 -0.2043
 2036SOL    HW117570   0.082   1.831   8.376 -1.0229 -1.1191 -0.4869
 2036SOL    HW217571   4.678   1.784   8.321 -2.1845  0.6837 -0.2373
 2037SOL     OW17572   4.015   3.483   7.302  0.2676  0.8065  0.6225
 2037SOL    HW117573   3.954   3.556   7.313 -1.3126 -0.1533 -1.6396
 2037SOL    HW217574   3.967   3.438   7.232 -1.4972  0.8927  1.7703
 2038SOL     OW17575   3.009   3.321   2.373  0.1981 -0.0888 -0.2170
 2038SOL    HW117576   3.016   3.226   2.377  0.2050  0.0303  2.4366
 2038SOL    HW217577   2.957   3.329   2.292  0.3323 -1.4731 -0.4414
 2039SOL     OW17578   3.694   0.878   5.659  0.0312  0.0701  0.2247
 2039SOL    HW117579   3.705   0.866   5.753  0.1366  2.0541  0.4543
 2039SOL    HW217580   3.606   0.914   5.666  0.2174  1.1115 -2.6967
 2040SOL     OW17581   4.344   2.397   3.581 -0.1427  0.4325 -0.4617
 2040SOL    HW117582   4.325   2.344   3.503 -0.8877 -1.7014  1.1981
 2040SOL    HW217583   4.259   2.416   3.620 -0.2811 -2.0964  0.4398
 2041SOL     OW17584   1.532   4.113   8.000  0.3321  0.5073 -0.0921
 2041SOL    HW117585   1.619   4.080   7.978  0.3775  0.7611 -0.2958
 2041SOL    HW217586   1.543   4.159   8.082  2.4253 -1.5122  0.7491
 2042SOL     OW17587   4.481   0.459   3.315  0.0665  0.2746 -0.1443
 2042SOL    HW117588   4.495   0.554   3.309  0.2057  0.3093  0.7781
 2042SOL    HW217589   4.498   0.458   3.409  0.7951  0.1796 -0.2788
 2043SOL     OW17590   4.510   1.876  15.271  0.4345  0.1254  0.5062
 2043SOL    HW117591   4.522   1.964  15.237 -0.0551 -0.4964 -1.2399
 2043SOL    HW217592   4.542   1.890  15.361  2.2250  1.3503 -0.3209
 2044SOL     OW17593   1.671   4.238  16.134  0.9918 -0.1627  0.2279
 2044SOL    HW117594   1.760   4.203  16.126  0.6812 -0.1974 -3.0692
 2044SOL    HW217595   1.685   4.332  16.140 -2.5358  0.3629 -0.0684
 2045SOL     OW17596   4.515   2.143   7.271  0.6950  0.2504 -0.0161
 2045SOL    HW117597   4.537   2.051   7.287 -2.1923 -0.0181  2.3137
 2045SOL    HW217598   4.592   2.161   7.216 -1.5550  1.5838 -2.7068
 2046SOL     OW17599   0.043   4.549   0.242  0.1054 -0.5062 -0.5833
 2046SOL    HW117600   0.018   4.641   0.240 -0.1424 -0.5401  0.7623
 2046SOL    HW217601   4.714   4.517   0.168  0.5708 -0.7559 -0.7975
 2047SOL     OW17602   4.685   1.720   5.087  0.5211 -0.2072  0.5415
 2047SOL    HW117603   4.639   1.657   5.032  1.2713 -0.8217  0.6211
 2047SOL    HW217604   4.684   1.679   5.174  1.8345  0.1568  0.7249
 2048SOL     OW17605   3.304   0.051   8.168  0.0912 -0.0671 -0.6151
 2048SOL    HW117606   3.282   4.697   8.222  0.4694 -0.1293 -0.5483
 2048SOL    HW217607   3.218   0.064   8.128 -1.0687 -1.5732  1.3512
 2049SOL     OW17608   3.574   2.188   9.849  0.0596 -0.8110  0.3362
 2049SOL    HW117609   3.561   2.152   9.937 -1.8583 -0.2855  0.2689
 2049SOL    HW217610   3.665   2.161   9.836 -0.3759 -3.6090  2.9321
 2050SOL     OW17611   0.633   1.602   5.665  0.0030  0.1236 -0.0673
 2050SOL    HW117612   0.698   1.637   5.725 -0.9277 -0.3880  1.2381
 2050SOL    HW217613   0.557   1.592   5.722 -1.3561  0.1474 -1.8700
 2051SOL     OW17614   1.906   2.024  10.865  0.2087  0.1698  0.2534
 2051SOL    HW117615   1.926   2.000  10.775  2.1795  2.1232  0.1789
 2051SOL    HW217616   1.835   1.963  10.883 -0.3910 -0.0873 -3.0536
 2052SOL     OW17617   2.639   2.359  10.383  0.8747 -0.1876  0.1784
 2052SOL    HW117618   2.545   2.361  10.402  0.7787 -3.6029  0.0387
 2052SOL    HW217619   2.656   2.273  10.345 -0.1632  0.5809 -2.0431
 2053SOL     OW17620   1.619   2.608   0.203  0.7735  0.2549 -0.2841
 2053SOL    HW117621   1.651   2.678   0.260  2.4754  0.7686 -1.8866
 2053SOL    HW217622   1.664   2.527   0.226  1.7063  0.4364 -1.4684
 2054SOL     OW17623   3.597   2.228  16.361 -0.2940 -0.0089  0.0593
 2054SOL    HW117624   3.579   2.142  16.401  2.9931  0.1288  1.8021
 2054SOL    HW217625   3.530   2.286  16.396  2.1333  2.9238 -0.2257
 2055SOL     OW17626   2.696   3.069   9.369 -0.1239 -0.1612 -0.5171
 2055SOL    HW117627   2.742   3.096   9.449  0.2214  0.8723 -1.0654
 2055SOL    HW217628   2.733   2.983   9.348  1.2310  0.3213 -0.1160
 2056SOL     OW17629   1.863   2.538  11.473 -0.3407  0.0521  0.3790
 2056SOL    HW117630   1.776   2.501  11.488  0.6417 -1.9119  1.2314
 2056SOL    HW217631   1.900   2.481  11.406  1.9858  2.8001 -0.6964
 2057SOL     OW17632   3.781   1.025   7.610 -0.2932 -0.7436 -0.1899
 2057SOL    HW117633   3.876   1.017   7.601  0.0235  1.8651  0.6800
 2057SOL    HW217634   3.759   1.035   7.517 -1.9080  1.9785  0.4644
 2058SOL     OW17635   1.647   3.311  10.406 -0.4180  0.5592 -0.4008
 2058SOL    HW117636   1.650   3.321  10.501  1.8086 -2.5598 -0.1731
 2058SOL    HW217637   1.637   3.404  10.385  0.9997  0.6233 -0.7692
 2059SOL     OW17638   3.627   1.388   0.856  0.0891 -0.1294 -0.6482
 2059SOL    HW117639   3.585   1.329   0.918  1.5984 -0.1671  0.3141
 2059SOL    HW217640   3.710   1.342   0.855  0.5455  0.6672  1.3247
 2060SOL     OW17641   0.865   2.207   5.033 -0.1806  0.7417 -0.0467
 2060SOL    HW117642   0.904   2.224   4.947  1.6013 -0.1778  0.5719
 2060SOL    HW217643   0.848   2.300   5.048 -0.0003  0.6870  0.4897
 2061SOL     OW17644   0.590   2.495   9.122 -0.4931 -0.1445 -0.2977
 2061SOL    HW117645   0.570   2.458   9.207  1.2855 -2.4380 -0.8672
 2061SOL    HW217646   0.574   2.588   9.141  0.8918  0.6124 -2.8205
 2062SOL     OW17647   2.463   3.986   0.497  0.3152  0.3944 -0.7113
 2062SOL    HW117648   2.446   4.072   0.458 -0.9478  1.0271  1.2592
 2062SOL    HW217649   2.497   3.940   0.420 -0.3323 -2.5430  0.7719
 2063SOL     OW17650   0.842   4.452  14.517 -0.0736 -0.3856  0.5536
 2063SOL    HW117651   0.813   4.468  14.427  0.3069 -1.4499  0.2521
 2063SOL    HW217652   0.905   4.524  14.521 -0.9466  0.2506  2.8612
 2064SOL     OW17653   1.425   4.649   7.247  0.2391  0.0172 -0.2701
 2064SOL    HW117654   1.488   4.705   7.293 -0.2924  0.9482 -0.6788
 2064SOL    HW217655   1.445   4.561   7.280  0.9014  0.6132  0.9101
 2065SOL     OW17656   3.797   2.014   2.788  0.4985 -0.7253  0.4790
 2065SOL    HW117657   3.773   1.930   2.828 -0.3692 -0.8140 -0.2302
 2065SOL    HW217658   3.747   2.076   2.842  0.2249 -0.6596  0.1534
 2066SOL     OW17659   4.536   4.396   8.968 -0.8407 -0.6005  0.2281
 2066SOL    HW117660   4.626   4.386   8.999 -1.3861 -1.7428  1.4212
 2066SOL    HW217661   4.523   4.490   8.954 -0.3851 -0.2609  2.1300
 2067SOL     OW17662   2.851   3.192   9.550  0.1080 -0.0057 -0.3203
 2067SOL    HW117663   2.910   3.186   9.626  0.8855  0.0428 -0.9143
 2067SOL    HW217664   2.911   3.222   9.482 -0.1990 -2.1701 -1.5452
 2068SOL     OW17665   2.767   2.107   6.280 -0.1203 -0.0285  0.6380
 2068SOL    HW117666   2.729   2.082   6.196  1.8130 -0.0852 -0.2340
 2068SOL    HW217667   2.690   2.122   6.333 -1.5610  0.7449 -1.6864
 2069SOL     OW17668   3.377   0.614  14.884  0.0315  0.0338  0.4119
 2069SOL    HW117669   3.405   0.536  14.932 -1.8388 -0.6631  0.3717
 2069SOL    HW217670   3.298   0.583  14.841  0.2219  0.3159 -0.1412
 2070SOL     OW17671   3.790   1.036   9.913 -0.1930 -0.0539 -0.1577
 2070SOL    HW117672   3.750   1.016   9.998 -0.3111  1.3152  0.1158
 2070SOL    HW217673   3.820   1.125   9.930 -0.0890  0.5761 -3.7722
 2071SOL     OW17674   3.587   3.023  13.204  0.1685  0.0091 -0.5537
 2071SOL    HW117675   3.549   3.103  13.239 -2.3964 -2.0926  1.4863
 2071SOL    HW217676   3.534   3.029  13.124 -0.2935  2.6851 -0.0435
 2072SOL     OW17677   1.845   1.669   5.713  0.0160 -0.4676  0.2662
 2072SOL    HW117678   1.847   1.586   5.761  1.0234  0.8280  2.4780
 2072SOL    HW217679   1.837   1.646   5.621 -0.2187  0.8590 -0.0496
 2073SOL     OW17680   4.137   1.325   0.669 -0.0424  0.3151 -0.4111
 2073SOL    HW117681   4.103   1.258   0.727 -0.4656  0.9427  0.0672
 2073SOL    HW217682   4.145   1.275   0.587 -0.0482  0.1740 -0.3251
 2074SOL     OW17683   4.060   1.203  16.943  0.8148  0.1399  0.0784
 2074SOL    HW117684   4.089   1.117  16.913  0.1356 -0.1922  0.3842
 2074SOL    HW217685   4.142   1.252  16.940  0.6039  0.4942  0.1526
 2075SOL     OW17686   4.145   1.509   4.490  0.4657  0.2199 -0.4281
 2075SOL    HW117687   4.088   1.432   4.482 -0.3312  0.5204  2.1756
 2075SOL    HW217688   4.081   1.577   4.473  0.2479  0.5725  1.7532
 2076SOL     OW17689   1.511   0.072  16.651 -0.5836 -0.1084 -0.1114
 2076SOL    HW117690   1.582   0.068  16.586  0.7858 -1.9631  1.5186
 2076SOL    HW217691   1.470   0.157  16.635 -0.4043 -0.1828 -0.9620
 2077SOL     OW17692   4.180   4.659   8.574 -0.2155  0.6666 -0.1701
 2077SOL    HW117693   4.262   4.704   8.552  0.9489 -0.9599  0.7733
 2077SOL    HW217694   4.191   4.644   8.668 -1.6961 -3.5111 -0.6460
 2078SOL     OW17695   0.971   4.673   1.760 -0.0279 -0.2708 -0.1573
 2078SOL    HW117696   0.935   4.635   1.840 -0.5008  0.0794 -0.2029
 2078SOL    HW217697   1.054   4.704   1.797 -0.7721 -1.2226  2.2950
 2079SOL     OW17698   3.081   4.574   1.598 -0.0974 -0.2590  0.2489
 2079SOL    HW117699   3.090   4.618   1.514  0.6925  1.8707  1.4628
 2079SOL    HW217700   2.990   4.544   1.601 -0.7723  1.8264  0.8150
 2080SOL     OW17701   4.291   1.728   8.814  0.0500  0.2693 -0.1651
 2080SOL    HW117702   4.206   1.761   8.844 -1.1784 -0.9099 -2.3850
 2080SOL    HW217703   4.288   1.762   8.725  0.8677 -1.5823 -0.8886
 2081SOL     OW17704   3.447   0.867   7.043 -0.0302 -0.2036 -0.4484
 2081SOL    HW117705   3.409   0.836   6.961 -0.5142  0.8644 -0.6297
 2081SOL    HW217706   3.370   0.903   7.087  0.0639  0.2659 -0.6587
 2082SOL     OW17707   1.373   2.106   2.465  0.1439  0.3162  0.2435
 2082SOL    HW117708   1.337   2.141   2.546  0.5293 -0.1158  0.5996
 2082SOL    HW217709   1.429   2.035   2.495  1.0242  1.0277  0.2799
 2083SOL     OW17710   2.069   0.555  12.164  0.3042  0.3675 -0.3866
 2083SOL    HW117711   2.065   0.459  12.167  0.3844  0.3678 -0.2881
 2083SOL    HW217712   2.104   0.582  12.079 -0.6829 -2.3990 -1.6704
 2084SOL     OW17713   0.679   0.052  12.269 -0.1235  0.0279 -0.0970
 2084SOL    HW117714   0.681   0.146  12.288  1.7186  0.2188 -1.2764
 2084SOL    HW217715   0.623   0.022  12.341  0.2234  0.3351  0.2953
 2085SOL     OW17716   4.015   1.817   8.843  0.3116  0.8108  0.1020
 2085SOL    HW117717   3.976   1.863   8.917 -2.9796 -2.2534  0.2932
 2085SOL    HW217718   3.967   1.858   8.771 -0.5762 -0.8196 -0.2394
 2086SOL     OW17719   4.219   2.612  16.237 -0.8534 -0.0947 -0.2427
 2086SOL    HW117720   4.178   2.547  16.294  2.4397 -2.5456 -0.6950
 2086SOL    HW217721   4.216   2.558  16.159 -1.1988  0.9225 -0.9368
 2087SOL     OW17722   2.314   3.724  14.454  0.3737  0.0861  0.1164
 2087SOL    HW117723   2.383   3.659  14.449  1.3028  0.9816  1.1766
 2087SOL    HW217724   2.377   3.796  14.458 -0.9449  1.1864  1.2417
 2088SOL     OW17725   0.119   4.214   9.803 -0.1477  0.6005  0.0822
 2088SOL    HW117726   0.195   4.176   9.847 -2.4004 -2.1802  1.5901
 2088SOL    HW217727   0.058   4.221   9.876  1.2472 -0.2623  1.3157
 2089SOL     OW17728   0.144   3.820   7.064 -0.8051 -0.5998  0.6701
 2089SOL    HW117729   0.070   3.759   7.070  0.9281 -2.4598  2.7182
 2089SOL    HW217730   0.108   3.901   7.102  0.6661  1.3617 -2.1223
 2090SOL     OW17731   2.679   4.297   6.510  0.6226  0.0645  0.0201
 2090SOL    HW117732   2.641   4.370   6.462 -0.4406 -0.1837  0.4753
 2090SOL    HW217733   2.674   4.214   6.462  0.0698  1.0647 -1.6258
 2091SOL     OW17734   3.580   3.300  16.072  0.2641  0.2712 -0.0355
 2091SOL    HW117735   3.575   3.234  16.002 -1.6456 -1.7684  2.0063
 2091SOL    HW217736   3.529   3.376  16.044  1.0831  0.7263 -0.2832
 2092SOL     OW17737   2.005   1.931   6.676  0.3893  0.4168  0.2806
 2092SOL    HW117738   2.098   1.921   6.656  0.3229 -1.0814  0.7158
 2092SOL    HW217739   1.964   1.857   6.632  1.9213  0.2769 -0.9380
 2093SOL     OW17740   3.028   0.170  13.095 -0.4308  0.2809  0.8455
 2093SOL    HW117741   3.003   0.173  13.187 -2.2444 -0.7971  0.3909
 2093SOL    HW217742   2.941   0.149  13.062  0.0283 -2.7603  1.5139
 2094SOL     OW17743   0.132   3.566   3.809  0.1699  0.2316 -0.1175
 2094SOL    HW117744   0.048   3.609   3.827  0.5270  0.3721  1.2277
 2094SOL    HW217745   0.113   3.488   3.756  1.0612  1.1736 -1.8368
 2095SOL     OW17746   2.369   4.295   4.397 -0.0849 -0.2015  0.8726
 2095SOL    HW117747   2.330   4.362   4.453  1.1232 -0.0455  1.5100
 2095SOL    HW217748   2.429   4.248   4.454  1.1006  1.6411  1.1258
 2096SOL     OW17749   2.300   3.662   9.038 -0.0623  0.1955 -0.4233
 2096SOL    HW117750   2.321   3.708   9.120  2.5474 -3.2477  0.8518
 2096SOL    HW217751   2.361   3.589   9.049 -1.1998 -0.7105 -0.1813
 2097SOL     OW17752   0.448   4.159   0.659  0.1968 -0.9283 -0.0483
 2097SOL    HW117753   0.515   4.152   0.727 -0.4919 -1.5701  0.5714
 2097SOL    HW217754   0.371   4.196   0.703  1.4813  0.7717  0.7769
 2098SOL     OW17755   0.632   1.730   5.417 -0.1628 -0.2326  0.6678
 2098SOL    HW117756   0.643   1.693   5.505  1.7948 -0.0852  0.4895
 2098SOL    HW217757   0.723   1.734   5.386 -1.3391  1.8288 -2.4983
 2099SOL     OW17758   0.474   1.786   4.785  0.0998  0.3563  0.3600
 2099SOL    HW117759   0.490   1.728   4.710  0.2572 -1.4954  1.8118
 2099SOL    HW217760   0.431   1.730   4.850 -0.3815 -0.6486 -0.8229
 2100SOL     OW17761   1.117   4.562  13.431 -0.3068  0.0611 -0.4066
 2100SOL    HW117762   1.181   4.537  13.364  1.0838 -1.6540  1.5749
 2100SOL    HW217763   1.074   4.478  13.450 -1.7582  1.5112  2.6861
 2101SOL     OW17764   3.691   0.109  11.904 -0.5359  0.3002  0.0004
 2101SOL    HW117765   3.617   0.169  11.910 -0.8385  0.0115 -0.8347
 2101SOL    HW217766   3.738   0.151  11.977 -1.5052  1.5049 -0.0592
 2102SOL     OW17767   1.631   1.102  15.632  0.6632  0.3732 -0.0065
 2102SOL    HW117768   1.572   1.109  15.708  1.3193 -0.5173  0.5772
 2102SOL    HW217769   1.624   1.194  15.605  0.1417 -0.6443 -3.2651
 2103SOL     OW17770   4.533   3.629   4.186 -0.3269  0.0529  1.0061
 2103SOL    HW117771   4.467   3.697   4.173  0.2818  0.0435 -2.1630
 2103SOL    HW217772   4.480   3.549   4.180 -0.7683  0.4799 -0.8559
 2104SOL     OW17773   1.129   0.521   1.355 -0.4179 -0.0583 -0.0723
 2104SOL    HW117774   1.211   0.548   1.315  0.5892  0.6389  2.4795
 2104SOL    HW217775   1.152   0.524   1.448  0.7135  1.9731 -0.4256
 2105SOL     OW17776   3.958   0.250  15.066 -0.2738 -0.0139 -0.4805
 2105SOL    HW117777   3.968   0.220  14.976 -0.8945  1.0143 -0.8965
 2105SOL    HW217778   3.882   0.307  15.052 -0.3455  0.1222  0.4440
 2106SOL     OW17779   3.424   4.243  11.577  0.0546  0.0566  0.3623
 2106SOL    HW117780   3.460   4.193  11.503 -1.5367 -1.8168  0.8467
 2106SOL    HW217781   3.370   4.185  11.631 -1.5828  3.0886  1.9934
 2107SOL     OW17782   3.256   1.198   4.684  0.0844 -0.0351 -0.1181
 2107SOL    HW117783   3.178   1.223   4.634 -0.1062  0.1932  0.2999
 2107SOL    HW217784   3.235   1.240   4.767  1.1834 -1.5065  0.8997
 2108SOL     OW17785   0.736   1.422  15.480 -0.4784 -0.5798 -0.0006
 2108SOL    HW117786   0.699   1.501  15.442  0.6556  0.0368  0.1647
 2108SOL    HW217787   0.678   1.352  15.450 -1.6087 -0.0745  1.0048
 2109SOL     OW17788   2.564   3.497   6.041 -0.5282 -0.0459  1.0302
 2109SOL    HW117789   2.617   3.534   5.970 -0.5413 -2.1442 -0.0565
 2109SOL    HW217790   2.494   3.560   6.058 -2.2401 -2.0445  1.4732
 2110SOL     OW17791   3.962   0.360  15.960 -0.3433  0.1394  0.3010
 2110SOL    HW117792   3.912   0.283  15.934 -0.1798  0.0296  0.3095
 2110SOL    HW217793   4.045   0.320  15.987  1.1387  3.2222  0.3251
 2111SOL     OW17794   3.705   0.069   5.535  0.3026 -0.7783 -0.2433
 2111SOL    HW117795   3.646   0.098   5.465  1.9852 -0.1884 -1.4102
 2111SOL    HW217796   3.651   0.091   5.611 -1.4765 -1.7357 -1.1970
 2112SOL     OW17797   3.039   3.743   6.392 -0.2490  0.4465  0.1869
 2112SOL    HW117798   2.954   3.730   6.351 -0.1746  1.0704 -0.1555
 2112SOL    HW217799   3.054   3.655   6.426  0.3118  1.0165  1.4494
 2113SOL     OW17800   4.497   0.445   6.681  0.4279  0.6734  0.2656
 2113SOL    HW117801   4.573   0.502   6.691  0.6475  0.2674  0.8764
 2113SOL    HW217802   4.502   0.381   6.752  1.3721 -1.1622 -1.4473
 2114SOL     OW17803   2.460   3.756   6.375  0.3823 -0.5897  0.0618
 2114SOL    HW117804   2.398   3.816   6.416 -1.6999 -2.0373 -0.9500
 2114SOL    HW217805   2.497   3.716   6.454  1.9064 -1.1451 -0.9235
 2115SOL     OW17806   1.708   4.169  15.083  0.2895 -0.1144  0.0767
 2115SOL    HW117807   1.736   4.224  15.011  1.0653  1.6771  1.7560
 2115SOL    HW217808   1.614   4.191  15.083  0.7617  1.9307  2.2837
 2116SOL     OW17809   3.409   2.198   7.352  0.1821  0.4160  0.3274
 2116SOL    HW117810   3.438   2.285   7.378 -1.2773  0.2994  2.3563
 2116SOL    HW217811   3.484   2.164   7.303 -0.3273 -0.8381  0.4102
 2117SOL     OW17812   3.049   3.337   0.830 -0.5153  0.1668 -0.1802
 2117SOL    HW117813   3.084   3.257   0.869 -2.7116 -0.7001  0.0024
 2117SOL    HW217814   3.124   3.390   0.804 -1.1066  1.3641  0.5453
 2118SOL     OW17815   1.278   3.905  15.660 -0.2365  0.6388 -0.0749
 2118SOL    HW117816   1.270   3.866  15.748  1.8844 -0.2325 -0.2491
 2118SOL    HW217817   1.372   3.922  15.652 -0.4871  1.1478 -1.9206
 2119SOL     OW17818   2.928   0.177   3.926 -0.5566 -0.0769  0.1814
 2119SOL    HW117819   2.943   0.136   4.011 -0.4256  0.2310  0.3060
 2119SOL    HW217820   2.957   0.107   3.868 -1.6699 -1.1852  0.9556
 2120SOL     OW17821   0.181   0.352   9.097 -0.1991 -0.0287 -0.3205
 2120SOL    HW117822   0.236   0.300   9.156  1.0851 -0.3791 -1.8187
 2120SOL    HW217823   0.231   0.433   9.095 -0.1130 -0.1051 -1.1833
 2121SOL     OW17824   2.384   0.725   5.177  0.8250  0.0757  0.4801
 2121SOL    HW117825   2.303   0.684   5.149  0.7143 -0.2129  1.2275
 2121SOL    HW217826   2.353   0.782   5.248  1.5700 -0.4766  1.2615
 2122SOL     OW17827   1.150   0.151   0.102 -0.0655 -0.0151  0.2165
 2122SOL    HW117828   1.175   0.166   0.010  0.4883 -0.1469  0.3476
 2122SOL    HW217829   1.166   0.059   0.120 -1.6521 -0.4633 -0.6148
 2123SOL     OW17830   0.214   4.124  10.419 -0.4722  0.0500  0.1884
 2123SOL    HW117831   0.290   4.178  10.439  0.2158 -0.5219 -0.8810
 2123SOL    HW217832   0.142   4.185  10.410 -0.3072  0.5391  2.0071
 2124SOL     OW17833   0.077   4.052   1.467 -0.1597 -0.2927  0.4045
 2124SOL    HW117834   0.133   4.105   1.411 -0.9029  0.2256  0.1386
 2124SOL    HW217835   0.082   3.977   1.408 -3.0480 -0.4134  0.2871
 2125SOL     OW17836   4.183   0.428   9.574  0.3733 -0.1628 -0.1080
 2125SOL    HW117837   4.206   0.409   9.665 -2.4287 -0.3916  0.5341
 2125SOL    HW217838   4.260   0.395   9.527  0.5635 -1.8025  1.3591
 2126SOL     OW17839   0.469   0.134   7.786 -0.4942 -0.8096  0.5822
 2126SOL    HW117840   0.483   0.133   7.881 -1.2354  2.6813  0.7319
 2126SOL    HW217841   0.546   0.086   7.755 -0.8025 -0.4320 -0.7383
 2127SOL     OW17842   3.171   3.803   4.736  0.1325 -0.1459 -0.7428
 2127SOL    HW117843   3.242   3.753   4.696 -0.4170 -0.4946 -1.2931
 2127SOL    HW217844   3.197   3.828   4.824 -0.8554  1.4249 -0.8943
 2128SOL     OW17845   2.520   3.490   3.304  0.8208  0.1140  0.2910
 2128SOL    HW117846   2.575   3.436   3.247 -0.8403  0.2954 -1.4818
 2128SOL    HW217847   2.492   3.552   3.236 -0.9455 -0.6420  0.3329
 2129SOL     OW17848   1.975   2.980  16.830  0.1945  0.4574 -0.0900
 2129SOL    HW117849   1.916   3.022  16.768 -2.5140 -1.5772  1.1031
 2129SOL    HW217850   1.930   2.958  16.912  1.4688  1.4975  0.8938
 2130SOL     OW17851   0.031   1.924   9.501 -0.1654  0.1986 -0.1413
 2130SOL    HW117852   0.032   2.018   9.518  0.5679  0.4675 -1.6527
 2130SOL    HW217853   0.084   1.892   9.574 -0.8416 -0.4928  0.0498
 2131SOL     OW17854   2.625   4.489   7.301  0.0637 -0.4567 -0.2683
 2131SOL    HW117855   2.594   4.575   7.272 -0.4571 -0.3695  0.5455
 2131SOL    HW217856   2.699   4.472   7.243  1.3701 -1.7551  1.8074
 2132SOL     OW17857   2.723   1.563   9.245 -0.1758  0.3753  0.0680
 2132SOL    HW117858   2.795   1.542   9.185 -0.3426  0.2970 -0.1074
 2132SOL    HW217859   2.647   1.551   9.188 -0.5406  1.5775  0.3102
 2133SOL     OW17860   3.435   1.874   4.895  0.1755  0.2088  0.0665
 2133SOL    HW117861   3.390   1.789   4.898  0.1205  0.2689  0.8197
 2133SOL    HW217862   3.373   1.929   4.846  1.4222  1.5412 -0.0322
 2134SOL     OW17863   2.813   4.645   3.684 -0.1520 -0.0298 -0.6861
 2134SOL    HW117864   2.844   4.705   3.616  0.2219 -1.4639 -1.7572
 2134SOL    HW217865   2.857   4.678   3.763  0.9621  0.7685 -1.6327
 2135SOL     OW17866   0.729   3.130  14.387 -0.7827 -0.2340  0.0692
 2135SOL    HW117867   0.783   3.072  14.440 -0.8837 -0.0729  0.3502
 2135SOL    HW217868   0.786   3.207  14.388 -1.2412  0.0934  0.7231
 2136SOL     OW17869   4.106   3.759   4.957 -0.3433  0.2119 -0.4335
 2136SOL    HW117870   4.198   3.747   4.981 -0.6356  0.0895  0.5881
 2136SOL    HW217871   4.110   3.732   4.865  1.7208 -2.6517  0.5091
 2137SOL     OW17872   2.550   1.186   9.728 -0.1458  0.1019 -0.7261
 2137SOL    HW117873   2.576   1.094   9.740  1.1685  0.5624 -0.0575
 2137SOL    HW217874   2.484   1.190   9.659  0.2348 -1.2059 -1.1736
 2138SOL     OW17875   2.972   0.384   7.784 -0.4698 -0.1320 -0.3871
 2138SOL    HW117876   3.020   0.301   7.788 -2.0794 -0.9557  1.8469
 2138SOL    HW217877   2.968   0.407   7.877  1.4267  0.2166 -0.3808
 2139SOL     OW17878   3.901   2.840   7.414  0.5892 -0.3898  0.2021
 2139SOL    HW117879   3.910   2.770   7.350 -2.2391 -0.4066 -0.1591
 2139SOL    HW217880   3.972   2.895   7.378 -0.8783  2.1152  1.1052
 2140SOL     OW17881   3.237   1.849   7.311 -0.2715 -0.0671 -0.0727
 2140SOL    HW117882   3.302   1.827   7.377 -1.9448 -0.4237  1.4721
 2140SOL    HW217883   3.255   1.773   7.255 -0.6225 -0.7323  0.7276
 2141SOL     OW17884   2.412   4.005  11.411  0.2008 -0.2297  0.5027
 2141SOL    HW117885   2.496   3.985  11.454  0.7194  0.3776 -0.2331
 2141SOL    HW217886   2.389   3.919  11.375  1.2957 -0.9512  1.4953
 2142SOL     OW17887   3.650   1.731   5.975 -0.0880  0.2427  0.0519
 2142SOL    HW117888   3.638   1.665   5.907  1.2690  0.8290 -0.7516
 2142SOL    HW217889   3.589   1.698   6.041 -2.3877  2.5403 -0.9108
 2143SOL     OW17890   4.074   2.259   8.058 -0.1081 -0.4639 -0.4907
 2143SOL    HW117891   4.098   2.168   8.040 -0.0431 -0.5835  0.1973
 2143SOL    HW217892   4.121   2.278   8.139 -1.1774 -2.0900  0.5077
 2144SOL     OW17893   0.172   4.385  14.193 -0.1571  0.2417  0.3121
 2144SOL    HW117894   0.192   4.414  14.282  0.6410 -1.7576  0.7706
 2144SOL    HW217895   0.242   4.321  14.181 -0.5193 -0.1105  0.0907
 2145SOL     OW17896   0.618   0.386   1.760 -0.5947 -0.1352  0.3470
 2145SOL    HW117897   0.693   0.357   1.813  0.7789  3.3446  0.3508
 2145SOL    HW217898   0.564   0.422   1.831 -0.2374 -1.1923  1.1530
 2146SOL     OW17899   2.655   3.237   6.003 -0.2674  0.1314 -0.2999
 2146SOL    HW117900   2.737   3.228   6.052 -0.1620  1.4630 -0.2324
 2146SOL    HW217901   2.626   3.323   6.031 -1.1824  0.0327 -0.9483
 2147SOL     OW17902   0.114   3.092   0.407  0.5015 -0.2361  0.2121
 2147SOL    HW117903   0.136   3.034   0.334  1.3967 -1.2507  1.2782
 2147SOL    HW217904   0.130   3.040   0.487  0.6074  0.4883  0.6591
 2148SOL     OW17905   4.110   0.995   6.770 -0.2470  0.7137  0.3449
 2148SOL    HW117906   4.078   1.018   6.683 -0.2713 -1.4583 -0.2056
 2148SOL    HW217907   4.061   0.922   6.808 -1.1039  2.5372  2.7210
 2149SOL     OW17908   2.944   0.748   3.200  0.4383  0.5002 -0.2087
 2149SOL    HW117909   2.849   0.754   3.195  0.4145 -0.1299 -0.5236
 2149SOL    HW217910   2.970   0.840   3.195 -0.1806  0.5771 -2.3576
 2150SOL     OW17911   2.241   2.696   1.908 -0.4403  0.2767  0.4206
 2150SOL    HW117912   2.170   2.726   1.851  0.4557 -0.1536 -0.8951
 2150SOL    HW217913   2.306   2.668   1.845 -1.6100  0.5175 -0.8883
 2151SOL     OW17914   3.393   3.006  12.995 -0.5874  0.0267  0.2136
 2151SOL    HW117915   3.363   2.918  12.972  1.0458 -0.5217  0.1765
 2151SOL    HW217916   3.318   3.063  12.975 -1.3269 -0.8273  0.5290
 2152SOL     OW17917   2.293   0.836   9.070 -0.9069  0.0006 -0.4706
 2152SOL    HW117918   2.234   0.764   9.092  1.4285 -2.0041 -0.7352
 2152SOL    HW217919   2.275   0.901   9.138  4.0043  0.1698  0.6816
 2153SOL     OW17920   0.690   1.126  15.241  0.6355 -0.3287  0.0717
 2153SOL    HW117921   0.701   1.216  15.210  0.4911 -0.3603 -0.0737
 2153SOL    HW217922   0.612   1.140  15.294  1.3250  0.9207  0.7325
 2154SOL     OW17923   2.502   1.840   5.496  0.5622  0.5498  0.0632
 2154SOL    HW117924   2.566   1.909   5.482  0.8897  0.0030 -1.1514
 2154SOL    HW217925   2.562   1.768   5.515  0.1475  0.4980  1.2236
 2155SOL     OW17926   2.640   3.449   0.242  0.2528  0.4313  0.0821
 2155SOL    HW117927   2.553   3.446   0.281 -0.0003 -0.3625 -0.5298
 2155SOL    HW217928   2.668   3.359   0.256  0.1946  0.4894  0.5651
 2156SOL     OW17929   0.560   2.360   2.642 -0.3015 -0.7158  0.5065
 2156SOL    HW117930   0.620   2.328   2.709  0.8042 -0.1910 -0.2354
 2156SOL    HW217931   0.580   2.453   2.641  1.1257 -1.0050  2.4524
 2157SOL     OW17932   4.024   0.296   4.821  0.3623 -0.2344  0.1761
 2157SOL    HW117933   4.083   0.275   4.749  0.7770 -0.1810  0.5033
 2157SOL    HW217934   4.053   0.388   4.821  1.5074 -0.6051 -0.1442
 2158SOL     OW17935   3.057   4.676  11.559 -0.2663  0.3304  0.3910
 2158SOL    HW117936   3.137   4.648  11.603 -0.0852 -0.0633 -0.1911
 2158SOL    HW217937   3.078   0.045  11.536  0.1215  0.1640  0.0894
 2159SOL     OW17938   4.667   4.645   5.866 -0.0107  0.1496  0.1988
 2159SOL    HW117939   4.602   4.645   5.796 -0.0878  1.7072  0.2746
 2159SOL    HW217940   4.643   0.008   5.903  0.5448 -0.8073  2.7593
 2160SOL     OW17941   4.209   2.321  10.395 -0.2547 -0.3893 -0.6343
 2160SOL    HW117942   4.125   2.367  10.388  0.9046  1.8092  0.1184
 2160SOL    HW217943   4.274   2.363  10.339 -1.0046  1.5375 -0.0523
 2161SOL     OW17944   2.578   2.209   3.226  0.2765  0.3999 -0.1149
 2161SOL    HW117945   2.518   2.282   3.211 -0.7463 -0.6609 -1.2083
 2161SOL    HW217946   2.657   2.226   3.175 -0.8372  1.0811 -1.6034
 2162SOL     OW17947   4.084   3.260   9.546 -0.1319 -0.6935 -0.0560
 2162SOL    HW117948   4.032   3.239   9.469 -1.5536  0.4783  0.5843
 2162SOL    HW217949   4.036   3.336   9.579  0.3691 -1.0946  1.6224
 2163SOL     OW17950   1.039   4.195  16.685  0.3312  0.4386  0.3449
 2163SOL    HW117951   1.081   4.200  16.599 -2.0788 -0.3360 -0.8714
 2163SOL    HW217952   1.002   4.282  16.695  0.7873  0.6207  0.4525
 2164SOL     OW17953   4.204   3.710  12.183  0.1475  0.4779 -0.0711
 2164SOL    HW117954   4.110   3.704  12.201  0.1150  0.4985 -0.2313
 2164SOL    HW217955   4.200   3.747  12.095  1.0043  2.4296  0.7111
 2165SOL     OW17956   3.187   2.362   6.039 -0.5366 -0.3953  0.0338
 2165SOL    HW117957   3.189   2.455   6.016 -0.8703 -0.2657  0.5409
 2165SOL    HW217958   3.172   2.365   6.134 -0.0276 -0.2635  0.1118
 2166SOL     OW17959   3.755   2.104  14.850  0.0318  0.2901 -0.2392
 2166SOL    HW117960   3.737   2.070  14.762 -2.4144  1.8071 -0.3015
 2166SOL    HW217961   3.712   2.038  14.904  0.1024 -0.8475 -1.5592
 2167SOL     OW17962   2.754   1.907   9.027  0.1740 -0.3938 -0.1675
 2167SOL    HW117963   2.788   1.984   9.072  0.5190  0.1056 -1.2976
 2167SOL    HW217964   2.694   1.870   9.092  0.5018 -0.9422 -0.1800
 2168SOL     OW17965   0.826   4.190  14.565 -0.5303  0.1241 -0.5277
 2168SOL    HW117966   0.833   4.280  14.535  0.2932  0.2171 -0.0603
 2168SOL    HW217967   0.790   4.144  14.489  0.0406 -1.4242  0.1330
 2169SOL     OW17968   1.884   1.300   5.472  0.0043 -0.0938  0.0765
 2169SOL    HW117969   1.915   1.237   5.407  0.4707 -0.1207  0.3246
 2169SOL    HW217970   1.820   1.360   5.433  0.2309  0.2485  0.2325
 2170SOL     OW17971   0.385   4.650   7.372 -0.4734 -0.6444  0.4474
 2170SOL    HW117972   0.432   0.006   7.402 -0.4348 -0.8886  1.0270
 2170SOL    HW217973   0.297   4.686   7.379 -0.6316 -0.7483 -0.9458
 2171SOL     OW17974   1.714   3.501   4.990  0.2292 -0.0081 -0.0551
 2171SOL    HW117975   1.714   3.582   4.939  0.1508  0.0468  0.0304
 2171SOL    HW217976   1.737   3.428   4.933 -1.4211  0.5146 -1.3891
 2172SOL     OW17977   3.873   3.463   3.261  0.1907  0.4411 -0.3060
 2172SOL    HW117978   3.943   3.425   3.313 -1.6868  2.6050  3.8167
 2172SOL    HW217979   3.925   3.504   3.192  1.3679  2.1052  1.5491
 2173SOL     OW17980   4.375   1.717   9.287  0.6667  0.7539 -0.0772
 2173SOL    HW117981   4.391   1.660   9.363 -1.2068 -0.1085 -0.3441
 2173SOL    HW217982   4.290   1.758   9.304  1.2226  0.7933  2.6262
 2174SOL     OW17983   0.079   2.329   4.439  0.1151  0.4174 -0.1267
 2174SOL    HW117984   4.712   2.345   4.410  0.7432 -0.2303 -2.3993
 2174SOL    HW217985   0.062   2.330   4.533 -0.5721  2.7959 -0.2910
 2175SOL     OW17986   3.241   1.865  16.092  0.2613 -1.0010 -0.4763
 2175SOL    HW117987   3.323   1.912  16.109 -0.5491  0.6367 -1.1391
 2175SOL    HW217988   3.202   1.924  16.028  0.3750 -0.7384 -0.3046
 2176SOL     OW17989   1.957   3.139   1.642 -0.1921 -0.3325  0.6780
 2176SOL    HW117990   1.893   3.094   1.586  0.0996 -0.0216  0.0905
 2176SOL    HW217991   1.987   3.205   1.578  0.1933 -3.4667 -2.3514
 2177SOL     OW17992   4.161   3.649   0.527  0.0691 -0.1776 -0.2597
 2177SOL    HW117993   4.255   3.659   0.515 -0.2104  3.0108  0.2617
 2177SOL    HW217994   4.136   3.634   0.436 -1.5076 -0.1591  0.1676
 2178SOL     OW17995   3.632   3.706   2.810 -0.8098 -0.3241  0.4139
 2178SOL    HW117996   3.583   3.779   2.847  2.3976  2.0467 -0.0219
 2178SOL    HW217997   3.627   3.729   2.717 -1.6544 -0.9178  0.3118
 2179SOL     OW17998   4.599   3.167   2.952  0.0010 -0.1319  0.1512
 2179SOL    HW117999   4.504   3.168   2.969  0.1542 -0.4338  1.0211
 2179SOL    HW218000   4.610   3.099   2.886  4.1536  1.7812 -1.0892
 2180SOL     OW18001   0.731   2.505   5.680 -0.1951 -0.1401 -0.5114
 2180SOL    HW118002   0.755   2.594   5.705  0.9463 -0.1323 -1.6330
 2180SOL    HW218003   0.669   2.485   5.749 -0.1226 -0.8273 -0.6442
 2181SOL     OW18004   0.829   2.797  11.062  0.0971 -0.1072  0.0645
 2181SOL    HW118005   0.750   2.837  11.100  0.8336  1.4263 -0.0036
 2181SOL    HW218006   0.843   2.849  10.983  0.3356 -1.1459 -0.5769
 2182SOL     OW18007   2.541   1.397   7.662  0.0490  0.4785 -0.1696
 2182SOL    HW118008   2.449   1.371   7.672  0.6784 -1.9002 -0.5601
 2182SOL    HW218009   2.548   1.447   7.742  0.6534 -0.2558  0.2391
 2183SOL     OW18010   2.513   2.436   2.679  0.7296  0.3638 -0.4098
 2183SOL    HW118011   2.522   2.529   2.698  2.4333  0.7404 -2.9935
 2183SOL    HW218012   2.603   2.409   2.697  1.2208  2.0398 -0.3745
 2184SOL     OW18013   3.701   1.502   7.921 -0.4173  0.3564  0.2444
 2184SOL    HW118014   3.739   1.504   8.009  1.2322  0.1940 -0.4509
 2184SOL    HW218015   3.660   1.416   7.925  1.3289 -0.6712 -3.7459
 2185SOL     OW18016   2.534   0.169   3.499  0.3492  0.3564  0.0371
 2185SOL    HW118017   2.508   0.106   3.566 -1.0164  1.0042  0.1170
 2185SOL    HW218018   2.588   0.115   3.441 -1.2165 -1.4437  0.2615
 2186SOL     OW18019   3.465   3.791  13.838 -0.6461 -0.0114  0.8225
 2186SOL    HW118020   3.445   3.704  13.874 -1.3317  0.4989  1.6659
 2186SOL    HW218021   3.381   3.828  13.811 -0.0023 -0.1466 -1.3672
 2187SOL     OW18022   2.917   2.735   5.414  0.0522  0.0876  0.2561
 2187SOL    HW118023   2.976   2.809   5.400 -1.9491  0.8551 -4.1893
 2187SOL    HW218024   2.947   2.684   5.489  0.7225  0.6585  0.3762
 2188SOL     OW18025   0.619   1.071  11.090 -0.0895 -0.3433 -0.3950
 2188SOL    HW118026   0.691   1.068  11.152 -0.6789  0.6415  0.3357
 2188SOL    HW218027   0.556   1.013  11.132  1.6917  0.0449  2.7876
 2189SOL     OW18028   3.882   0.407   7.853  0.0871  0.0673 -0.2742
 2189SOL    HW118029   3.925   0.489   7.829 -0.6920  0.9513  1.3588
 2189SOL    HW218030   3.932   0.341   7.806  0.0898  0.1928 -0.4472
 2190SOL     OW18031   0.312   0.889   6.228  0.5337  0.2437  0.6827
 2190SOL    HW118032   0.377   0.852   6.169 -0.2514 -0.7425  0.4385
 2190SOL    HW218033   0.335   0.834   6.303  2.2534  2.9334  2.1237
 2191SOL     OW18034   3.371   1.183   7.246 -0.3221 -0.5335  0.1077
 2191SOL    HW118035   3.325   1.267   7.243 -0.7473 -0.6906  1.7513
 2191SOL    HW218036   3.354   1.142   7.161  0.1489 -1.1206  0.3014
 2192SOL     OW18037   4.536   3.425  15.930  0.1949 -0.0949 -0.2874
 2192SOL    HW118038   4.454   3.406  15.884  1.5778 -0.8829 -2.4427
 2192SOL    HW218039   4.536   3.520  15.942 -1.0308 -0.0622 -0.5768
 2193SOL     OW18040   1.591   1.212   8.949  0.0475  0.3501  0.6262
 2193SOL    HW118041   1.543   1.209   8.866  1.6211 -2.8333 -0.1974
 2193SOL    HW218042   1.525   1.161   8.996  0.3539 -0.9094 -0.2932
 2194SOL     OW18043   3.110   3.392   6.201 -0.4157 -0.0872 -0.0677
 2194SOL    HW118044   3.168   3.326   6.163 -1.1424 -0.5848 -0.3118
 2194SOL    HW218045   3.173   3.463   6.186  0.9005 -1.1957  0.1829
 2195SOL     OW18046   2.333   0.464  15.529  0.2346 -0.4145 -0.3601
 2195SOL    HW118047   2.307   0.556  15.530  0.4452 -0.3666  0.4170
 2195SOL    HW218048   2.258   0.420  15.488  1.2183 -0.5489 -2.0172
 2196SOL     OW18049   0.428   3.281   7.252  0.1145 -0.2126  0.2954
 2196SOL    HW118050   0.504   3.328   7.283  0.7017 -2.3671  2.1501
 2196SOL    HW218051   0.419   3.328   7.169 -0.8020  2.4595  1.9040
 2197SOL     OW18052   1.527   3.791   5.760 -0.4632  0.6817  0.2630
 2197SOL    HW118053   1.522   3.787   5.664 -1.7944 -1.0969  0.4110
 2197SOL    HW218054   1.599   3.735   5.788 -1.0397 -0.1820  0.0205
 2198SOL     OW18055   0.956   0.340   5.818 -0.4655  0.0374 -0.4484
 2198SOL    HW118056   1.009   0.417   5.840 -0.1210 -1.0044  2.3444
 2198SOL    HW218057   0.983   0.336   5.726  1.9860  0.7210  0.2224
 2199SOL     OW18058   4.261   3.661   2.908  0.5820 -0.4429  0.5781
 2199SOL    HW118059   4.263   3.693   2.818  2.3670  0.2699  0.8740
 2199SOL    HW218060   4.263   3.742   2.960 -1.7697 -0.5364  0.8216
 2200SOL     OW18061   3.980   3.325   2.854 -0.3807 -0.0046  0.5984
 2200SOL    HW118062   4.001   3.233   2.838 -1.1196  0.0839 -0.9417
 2200SOL    HW218063   4.022   3.359   2.775  0.6778 -2.0461  0.2927
 2201SOL     OW18064   3.990   1.872   5.077  0.4625  0.3346 -0.0171
 2201SOL    HW118065   4.003   1.843   5.168  1.5838  0.9059  0.0066
 2201SOL    HW218066   3.900   1.843   5.063  0.2593  0.8659  0.1882
 2202SOL     OW18067   3.532   3.708   7.127 -0.5441  0.1492  0.1735
 2202SOL    HW118068   3.555   3.776   7.063  2.6123 -2.1830 -1.1606
 2202SOL    HW218069   3.465   3.758   7.174  0.4849  0.8971  0.8594
 2203SOL     OW18070   3.430   3.037   5.364  0.4652  0.5905  0.0735
 2203SOL    HW118071   3.443   3.128   5.338  1.5279 -0.7710 -4.0324
 2203SOL    HW218072   3.512   3.013   5.407  0.4168 -0.3085 -0.3402
 2204SOL     OW18073   2.538   3.180   8.682 -0.6733 -0.0468  0.0007
 2204SOL    HW118074   2.616   3.233   8.663 -1.0873 -0.0443 -1.6688
 2204SOL    HW218075   2.569   3.089   8.685  1.2756  0.6413  0.7289
 2205SOL     OW18076   4.391   1.580  15.036  0.6745 -0.1010  0.1125
 2205SOL    HW118077   4.390   1.675  15.024 -1.3109 -0.2207 -0.7538
 2205SOL    HW218078   4.379   1.553  14.944 -0.0235  1.0015 -0.1148
 2206SOL     OW18079   2.688   4.630   0.580  0.2980  0.2900  0.0177
 2206SOL    HW118080   2.637   4.550   0.591 -2.7270  2.2741  0.4059
 2206SOL    HW218081   2.707   4.639   0.673  1.0886  2.4979 -0.3666
 2207SOL     OW18082   2.306   2.245   2.637 -0.4264 -0.0528 -0.7154
 2207SOL    HW118083   2.365   2.174   2.609  1.1529  2.0323 -2.7713
 2207SOL    HW218084   2.369   2.316   2.647 -2.6474  1.4331  2.3359
 2208SOL     OW18085   1.711   1.995   5.279 -0.2109  0.1941 -0.0130
 2208SOL    HW118086   1.796   2.038   5.294  0.2942  0.1859 -2.8140
 2208SOL    HW218087   1.688   1.955   5.363  1.8490  0.1808  0.5422
 2209SOL     OW18088   3.056   0.059   2.776  0.3170  0.6969 -0.3128
 2209SOL    HW118089   3.067   0.103   2.692 -0.1475  1.0147 -0.2084
 2209SOL    HW218090   3.082   0.124   2.841  0.4468  0.5173 -0.1855
 2210SOL     OW18091   2.301   4.348  16.619 -0.2871  0.0289 -0.0028
 2210SOL    HW118092   2.221   4.338  16.670  0.0481 -0.3911  0.4377
 2210SOL    HW218093   2.265   4.357  16.531  0.0892  0.8672 -0.0690
 2211SOL     OW18094   1.635   0.808   8.361 -0.4387 -0.0778  0.4018
 2211SOL    HW118095   1.601   0.811   8.271  0.5208 -0.3949  0.0276
 2211SOL    HW218096   1.572   0.864   8.407  1.3454  1.0193  1.5225
 2212SOL     OW18097   3.291   2.890  16.523 -0.0657 -0.1066 -0.2767
 2212SOL    HW118098   3.312   2.934  16.606 -0.9981 -0.7110  0.2832
 2212SOL    HW218099   3.229   2.825  16.556 -0.2338  0.5517  0.7084
 2213SOL     OW18100   1.806   1.275  16.636  0.2571 -0.0071 -0.1176
 2213SOL    HW118101   1.739   1.279  16.567  1.1235  3.2788 -0.7732
 2213SOL    HW218102   1.797   1.181  16.652  1.9781 -0.1173  0.1971
 2214SOL     OW18103   4.477   4.586   7.967  0.4612 -0.3511 -0.5226
 2214SOL    HW118104   4.529   4.571   8.046 -0.3889 -0.0242  0.0957
 2214SOL    HW218105   4.390   4.582   8.006  0.2847 -1.0584 -0.9929
 2215SOL     OW18106   3.621   4.676  12.304  0.6181 -0.3694  0.1936
 2215SOL    HW118107   3.618   4.655  12.210  1.1967 -0.9483  0.3120
 2215SOL    HW218108   3.713   4.664  12.325  0.6711  2.9668  1.8624
 2216SOL     OW18109   3.192   3.718  15.896  0.1746 -0.2461  0.1785
 2216SOL    HW118110   3.126   3.650  15.879  0.8097 -1.3461  2.0494
 2216SOL    HW218111   3.202   3.751  15.807 -0.9867  1.5556  0.7224
 2217SOL     OW18112   3.237   0.818   7.263  0.7173 -0.6451  0.0406
 2217SOL    HW118113   3.198   0.811   7.350  0.5139 -1.3265 -0.1010
 2217SOL    HW218114   3.201   0.888   7.210 -2.5067 -2.3332  0.0112
 2218SOL     OW18115   1.202   4.095   7.883  0.7411  0.1292  0.2551
 2218SOL    HW118116   1.202   4.190   7.888 -0.6402  0.1485 -0.1239
 2218SOL    HW218117   1.154   4.069   7.962  2.5650 -1.7295  0.7512
 2219SOL     OW18118   4.046   1.216  11.228 -0.0729  1.2420  0.2150
 2219SOL    HW118119   4.081   1.165  11.301 -0.3209 -1.4468 -1.5458
 2219SOL    HW218120   3.989   1.151  11.187  3.0217 -0.9313 -0.6764
 2220SOL     OW18121   4.416   1.237   5.781 -0.3043  0.3655  0.1235
 2220SOL    HW118122   4.435   1.146   5.803  1.8537  0.7072 -0.3403
 2220SOL    HW218123   4.429   1.229   5.687  2.1620 -0.2782  0.5196
 2221SOL     OW18124   3.034   4.639   0.416  0.2806  0.1511 -0.2732
 2221SOL    HW118125   2.941   4.639   0.395  0.0702  1.9590  0.7003
 2221SOL    HW218126   3.034   4.590   0.499  1.3190 -1.7574 -1.3763
 2222SOL     OW18127   2.532   2.467   0.080  0.1516  0.2124  0.1436
 2222SOL    HW118128   2.568   2.522   0.011  1.1696 -0.5202  0.0780
 2222SOL    HW218129   2.503   2.538   0.138  0.6391  0.6809 -0.1876
 2223SOL     OW18130   1.267   1.361   5.260 -0.7489 -0.7229  1.0375
 2223SOL    HW118131   1.331   1.293   5.246  0.0809  0.0387  1.1303
 2223SOL    HW218132   1.240   1.344   5.351 -2.1269 -1.5141  0.4809
 2224SOL     OW18133   2.882   0.910  13.952  0.1873 -0.2042 -0.3194
 2224SOL    HW118134   2.889   0.999  13.987 -0.7209 -0.7773  1.2751
 2224SOL    HW218135   2.835   0.928  13.870 -0.4269  2.4218  0.6078
 2225SOL     OW18136   0.574   3.743   2.582  0.0366  0.2976  0.4312
 2225SOL    HW118137   0.625   3.824   2.588 -1.3323  1.2893 -1.3995
 2225SOL    HW218138   0.538   3.738   2.671  0.0373  2.3140  0.5518
 2226SOL     OW18139   1.800   4.215  10.923 -0.1914 -0.3838  0.4881
 2226SOL    HW118140   1.884   4.197  10.964 -0.2587  0.3790  0.9731
 2226SOL    HW218141   1.741   4.174  10.987  0.8172 -1.3130  0.8169
 2227SOL     OW18142   4.034   0.165  10.950 -0.2848 -0.3088 -0.1002
 2227SOL    HW118143   3.962   0.182  11.012  1.2125 -0.7131  1.7530
 2227SOL    HW218144   4.094   0.237  10.969  1.9628 -1.5288 -2.6716
 2228SOL     OW18145   1.803   2.495   7.285  0.4475  0.5210  0.0087
 2228SOL    HW118146   1.875   2.470   7.343 -0.3869  0.3460  0.9654
 2228SOL    HW218147   1.830   2.584   7.264  0.6759  0.7654  1.3600
 2229SOL     OW18148   0.862   2.637  15.825 -0.5107 -0.8621  0.2797
 2229SOL    HW118149   0.892   2.691  15.898 -3.0732 -0.3436  0.9594
 2229SOL    HW218150   0.789   2.693  15.798  0.7642 -0.6724 -2.8709
 2230SOL     OW18151   3.665   0.551   3.115 -0.3321  0.5526 -0.0919
 2230SOL    HW118152   3.739   0.591   3.162  0.1957  0.7268 -1.0802
 2230SOL    HW218153   3.711   0.485   3.063  2.3563  1.9440  0.5081
 2231SOL     OW18154   3.836   0.233   7.441 -0.3299  0.1490 -0.2919
 2231SOL    HW118155   3.832   0.157   7.383  3.2352 -0.5073  0.3637
 2231SOL    HW218156   3.780   0.203   7.512  0.5701 -0.5716  0.1139
 2232SOL     OW18157   2.390   1.371   4.694 -0.5198 -0.8144 -0.1387
 2232SOL    HW118158   2.431   1.453   4.669  0.7653 -1.4004  0.0366
 2232SOL    HW218159   2.343   1.354   4.613 -1.1279 -0.3713  0.1213
 2233SOL     OW18160   3.642   0.969  12.231  0.2054 -0.1144  0.0218
 2233SOL    HW118161   3.557   0.986  12.271  0.0648 -1.2888  0.2062
 2233SOL    HW218162   3.612   0.900  12.172 -0.3342  1.0720 -1.1040
 2234SOL     OW18163   3.174   3.689   3.621 -0.2152  0.0317 -0.3841
 2234SOL    HW118164   3.110   3.752   3.587 -0.6657 -1.5965 -2.5464
 2234SOL    HW218165   3.142   3.686   3.711  0.4469  1.8595 -0.0856
 2235SOL     OW18166   4.591   2.496  10.074  0.2039  0.3199  0.1961
 2235SOL    HW118167   4.649   2.571  10.085  0.2439  0.3985 -0.6033
 2235SOL    HW218168   4.606   2.451   9.992  3.2106  0.6402  0.5803
 2236SOL     OW18169   3.357   0.700   9.508  0.1120  0.7292  0.1584
 2236SOL    HW118170   3.301   0.762   9.460 -0.6535  0.8023  1.1563
 2236SOL    HW218171   3.304   0.668   9.580  0.3895  1.6615  0.7849
 2237SOL     OW18172   3.331   4.185   5.184  0.4481  0.3179 -0.3341
 2237SOL    HW118173   3.357   4.277   5.183  0.8542  0.2286  1.6056
 2237SOL    HW218174   3.398   4.157   5.121  0.9907  2.8506 -0.8978
 2238SOL     OW18175   2.153   0.374   8.769  0.0584 -0.1903  0.4990
 2238SOL    HW118176   2.072   0.322   8.767 -0.9298  1.3464  0.8256
 2238SOL    HW218177   2.217   0.321   8.722 -0.3602  0.0799 -0.3951
 2239SOL     OW18178   1.039   3.381   5.183  0.1478 -0.7917 -0.3397
 2239SOL    HW118179   1.094   3.310   5.150  0.3578 -1.6674  1.8900
 2239SOL    HW218180   1.091   3.455   5.152 -0.9227  1.1487  2.4560
 2240SOL     OW18181   3.697   1.547  10.408 -0.1268 -0.3439 -0.8019
 2240SOL    HW118182   3.676   1.519  10.320 -1.7831 -1.2860 -0.1102
 2240SOL    HW218183   3.745   1.472  10.443  0.3461  0.6773  0.7655
 2241SOL     OW18184   1.887   4.484   6.369 -0.3313  0.6381 -0.0559
 2241SOL    HW118185   1.968   4.433   6.367  0.5876  2.1437 -0.8949
 2241SOL    HW218186   1.867   4.480   6.275  0.1495 -1.3822 -0.0822
 2242SOL     OW18187   2.826   2.560   8.412 -0.1266  0.2040 -0.3714
 2242SOL    HW118188   2.738   2.569   8.449  0.6322 -1.1305  1.7385
 2242SOL    HW218189   2.810   2.511   8.331  1.2365  2.0349 -1.7514
 2243SOL     OW18190   3.929   2.313   0.065 -0.0131 -0.0612 -0.4852
 2243SOL    HW118191   4.023   2.320   0.049 -0.0963  2.0794  0.0663
 2243SOL    HW218192   3.932   2.331   0.159  3.7900  0.7098 -0.7579
 2244SOL     OW18193   2.394   1.545   9.652  0.2962  0.0807 -0.2102
 2244SOL    HW118194   2.333   1.578   9.586 -0.3718 -0.4355  0.1467
 2244SOL    HW218195   2.479   1.539   9.609  0.3217 -0.4340 -0.0914
 2245SOL     OW18196   2.782   2.976   7.090  0.3196  1.2322  0.0844
 2245SOL    HW118197   2.819   2.995   7.176  1.4164  0.0838 -0.1185
 2245SOL    HW218198   2.691   2.961   7.114  0.2037  3.0638  0.7689
 2246SOL     OW18199   2.503   1.901  17.659  0.1835 -0.2453  0.2470
 2246SOL    HW118200   2.441   1.886  17.587 -0.2351  2.0873  0.1351
 2246SOL    HW218201   2.561   1.960  17.612  1.8392 -2.8421 -0.9157
 2247SOL     OW18202   3.131   2.158   5.010  0.6224 -0.2406 -0.3253
 2247SOL    HW118203   3.169   2.241   5.040  0.0894 -0.2957  0.4995
 2247SOL    HW218204   3.148   2.151   4.916  0.8287  1.0717 -0.3844
 2248SOL     OW18205   3.708   1.950  11.943 -0.7621 -0.0580 -0.1141
 2248SOL    HW118206   3.705   1.854  11.947 -0.0940 -0.0728  0.1770
 2248SOL    HW218207   3.783   1.976  11.997 -2.4563  1.8577  1.3455
 2249SOL     OW18208   2.952   1.906   4.198 -0.2603  0.1107  0.1884
 2249SOL    HW118209   3.037   1.949   4.208  0.1327 -0.6362  0.0442
 2249SOL    HW218210   2.981   1.820   4.167  1.4576  0.9516 -0.5416
 2250SOL     OW18211   2.563   2.827   7.361 -0.2229 -0.3741 -0.2552
 2250SOL    HW118212   2.592   2.738   7.341 -1.1980 -1.0849  1.4435
 2250SOL    HW218213   2.644   2.861   7.398 -0.4212  0.0279 -0.1953
 2251SOL     OW18214   0.334   3.273   6.802  0.5082 -0.1269 -0.4515
 2251SOL    HW118215   0.384   3.191   6.798 -0.6684 -0.8606 -0.0451
 2251SOL    HW218216   0.393   3.332   6.848  0.1878  0.1287 -0.3716
 2252SOL     OW18217   0.361   0.484   6.284 -0.5751 -0.7518  0.2798
 2252SOL    HW118218   0.343   0.443   6.369 -2.1965  1.8175  1.1713
 2252SOL    HW218219   0.338   0.406   6.232 -1.3229  0.2053 -0.8100
 2253SOL     OW18220   2.289   3.128   6.115  0.4431  0.3008  0.1624
 2253SOL    HW118221   2.231   3.089   6.050 -0.1921  1.7027 -0.1266
 2253SOL    HW218222   2.323   3.204   6.067  1.7090 -0.8062 -0.6758
 2254SOL     OW18223   1.615   4.178  12.280 -0.2443 -0.3566  0.0424
 2254SOL    HW118224   1.602   4.086  12.302 -0.6819 -0.8188 -2.0807
 2254SOL    HW218225   1.541   4.198  12.222 -0.9340  0.0354  1.0540
 2255SOL     OW18226   4.282   1.217   7.484  0.2125  0.1946  0.1411
 2255SOL    HW118227   4.376   1.226   7.496 -0.2345  0.8372  3.1740
 2255SOL    HW218228   4.293   1.149   7.418  0.9380  0.0825  0.3833
 2256SOL     OW18229   1.319   0.232  15.429 -0.4260 -0.1700  0.1477
 2256SOL    HW118230   1.370   0.173  15.373  2.1188  3.8109 -1.7312
 2256SOL    HW218231   1.336   0.196  15.516  0.2613  1.4425  0.6684
 2257SOL     OW18232   3.636   4.348   8.820  0.0085 -0.2535 -0.1766
 2257SOL    HW118233   3.596   4.272   8.863  0.3439 -1.7884 -2.5488
 2257SOL    HW218234   3.572   4.359   8.749 -1.6140 -2.5171  0.9103
 2258SOL     OW18235   2.265   3.613   7.649 -0.1686  0.1593 -0.0775
 2258SOL    HW118236   2.314   3.607   7.567  0.8140 -2.0831  0.6872
 2258SOL    HW218237   2.227   3.526   7.656 -0.0510  0.1487  0.4344
 2259SOL     OW18238   3.900   2.661  10.009 -0.5574  0.4787  0.1926
 2259SOL    HW118239   3.918   2.726  10.077  2.9280  0.1746 -0.4226
 2259SOL    HW218240   3.986   2.620  10.007 -0.1707  1.3587 -0.9485
 2260SOL     OW18241   3.064   2.143  16.754  0.7410 -0.5224 -0.4757
 2260SOL    HW118242   3.134   2.080  16.772  1.6570  0.1447 -1.6740
 2260SOL    HW218243   3.112   2.225  16.743 -0.0733 -0.1368 -1.1286
 2261SOL     OW18244   3.499   2.881   9.528 -0.2922 -0.5872 -0.3757
 2261SOL    HW118245   3.488   2.840   9.614 -1.9669  1.3927  0.3733
 2261SOL    HW218246   3.582   2.928   9.537 -0.6601  0.2281 -1.2080
 2262SOL     OW18247   2.829   0.242   0.306  0.1643  0.0383 -0.0185
 2262SOL    HW118248   2.910   0.250   0.255  0.3565  1.4819  0.5348
 2262SOL    HW218249   2.815   0.147   0.306  1.0572 -0.0950  0.4431
 2263SOL     OW18250   0.642   0.708   6.904  0.4975  0.1870 -0.1350
 2263SOL    HW118251   0.636   0.744   6.993  0.0671  0.8154 -0.4245
 2263SOL    HW218252   0.734   0.683   6.913  0.4312  0.4687  1.4911
 2264SOL     OW18253   0.887   3.946   2.009  0.3442 -0.0790 -0.0730
 2264SOL    HW118254   0.791   3.953   2.015  0.3141 -0.5802  0.0240
 2264SOL    HW218255   0.912   4.035   2.033 -3.9655  1.6962 -2.0765
 2265SOL     OW18256   0.244   3.884  11.044 -0.2533 -0.2631 -0.1624
 2265SOL    HW118257   0.166   3.935  11.022 -0.7547 -0.5659  0.9265
 2265SOL    HW218258   0.215   3.803  11.086 -1.1618 -1.3203 -2.8705
 2266SOL     OW18259   1.383   1.808   4.551  0.0587  0.3662 -0.8684
 2266SOL    HW118260   1.462   1.773   4.510  0.6981 -1.0396  1.5253
 2266SOL    HW218261   1.321   1.815   4.478 -3.2571 -2.2090  1.7044
 2267SOL     OW18262   1.555   3.190   5.823 -0.6850 -0.1190  0.3443
 2267SOL    HW118263   1.647   3.206   5.803 -0.8512 -0.9368 -1.0650
 2267SOL    HW218264   1.563   3.158   5.913  0.1447 -1.7160 -0.2978
 2268SOL     OW18265   2.338   0.406  11.798 -0.4988 -0.0652 -0.2725
 2268SOL    HW118266   2.342   0.352  11.878 -0.4618  0.8327  0.3316
 2268SOL    HW218267   2.245   0.426  11.801 -0.3361  0.7752 -0.8120
 2269SOL     OW18268   3.968   4.068   6.384  0.0313  0.0528 -0.6800
 2269SOL    HW118269   3.999   4.140   6.439  0.0900 -0.9806  0.6349
 2269SOL    HW218270   3.889   4.105   6.346 -0.5512  0.8923  1.3475
 2270SOL     OW18271   2.474   3.562   8.393 -0.3473 -0.2906  0.2759
 2270SOL    HW118272   2.388   3.591   8.361  1.2874  0.9499 -2.9830
 2270SOL    HW218273   2.519   3.644   8.415  0.8739 -0.3788 -1.9582
 2271SOL     OW18274   3.636   3.516   1.040  0.0129  0.3292  0.1598
 2271SOL    HW118275   3.661   3.586   0.980 -0.6697  1.2302  0.9185
 2271SOL    HW218276   3.576   3.472   0.980  0.6658 -0.5799  0.1801
 2272SOL     OW18277   1.210   3.540  14.491  0.1116  0.4249 -0.5296
 2272SOL    HW118278   1.198   3.629  14.459  2.6529  0.2978 -1.7847
 2272SOL    HW218279   1.151   3.486  14.439  0.3052  0.3461 -0.6663
 2273SOL     OW18280   0.014   4.571   0.672  0.3841  0.4498  0.0639
 2273SOL    HW118281   4.700   4.502   0.616  0.2132 -0.1624  0.9298
 2273SOL    HW218282   0.106   4.546   0.665  0.3375  0.7100 -1.3930
 2274SOL     OW18283   3.172   4.331   4.015 -0.8478 -0.7007 -0.2458
 2274SOL    HW118284   3.208   4.243   4.004 -0.8271 -0.6494 -0.5878
 2274SOL    HW218285   3.077   4.317   4.016 -0.8658 -0.5959 -0.5919
 2275SOL     OW18286   1.724   0.620   4.800 -0.0650  0.4241 -0.1201
 2275SOL    HW118287   1.730   0.525   4.793 -1.0237  0.2849  0.8824
 2275SOL    HW218288   1.768   0.651   4.720  0.8190 -1.6174 -0.4137
 2276SOL     OW18289   2.302   3.575  10.055 -0.3424 -0.4084  0.0610
 2276SOL    HW118290   2.268   3.511   9.992  1.0112 -1.6053  0.5262
 2276SOL    HW218291   2.396   3.565  10.040 -0.3153 -0.1079  0.0319
 2277SOL     OW18292   4.475   3.044   5.894  0.3074 -0.5469  0.0642
 2277SOL    HW118293   4.410   2.995   5.945 -2.3171  3.1054  0.2335
 2277SOL    HW218294   4.412   3.098   5.845  1.1231  0.4533  0.1293
 2278SOL     OW18295   2.272   2.301  15.369 -0.2361 -1.1758 -0.3888
 2278SOL    HW118296   2.201   2.309  15.433 -1.9161 -0.4786 -2.3246
 2278SOL    HW218297   2.221   2.322  15.290 -0.1625 -1.4479 -0.5104
 2279SOL     OW18298   3.775   4.159  13.719 -0.2856  0.4299  0.0833
 2279SOL    HW118299   3.844   4.212  13.758  0.1035  0.3366 -0.4716
 2279SOL    HW218300   3.706   4.220  13.693 -1.5438 -0.2249  1.8426
 2280SOL     OW18301   1.078   4.280  17.592 -0.5832  0.4950  0.1683
 2280SOL    HW118302   1.100   4.285  17.685 -1.4976 -0.6552  0.4449
 2280SOL    HW218303   0.984   4.295  17.595 -0.2911  2.4261 -0.4456
 2281SOL     OW18304   1.437   3.150   3.051 -0.1564  0.0632  0.0260
 2281SOL    HW118305   1.399   3.227   3.093  1.2372 -0.4837  2.2386
 2281SOL    HW218306   1.521   3.153   3.095 -0.2069 -1.6589  0.2196
 2282SOL     OW18307   0.276   3.953   4.516  0.4779  0.0164 -0.5156
 2282SOL    HW118308   0.365   3.942   4.549  0.7882  0.1756 -1.2846
 2282SOL    HW218309   0.228   3.965   4.598  1.1752 -1.1810  0.0652
 2283SOL     OW18310   4.303   0.071   8.288  0.1854  0.0610  0.4889
 2283SOL    HW118311   4.297   0.151   8.341  0.4959 -0.0092  0.6299
 2283SOL    HW218312   4.397   0.067   8.271  0.0039 -4.8560  0.6129
 2284SOL     OW18313   1.369   1.449   3.095 -0.2564  0.2948 -0.8822
 2284SOL    HW118314   1.402   1.370   3.138 -1.4939  0.1184 -0.2472
 2284SOL    HW218315   1.439   1.470   3.034 -1.8102  3.1553 -1.6318
 2285SOL     OW18316   1.482   0.649   6.975 -0.2271 -0.5750 -0.0086
 2285SOL    HW118317   1.516   0.679   7.059  0.2039 -0.1079 -0.3495
 2285SOL    HW218318   1.416   0.588   7.009 -0.0200 -0.5802  0.3738
 2286SOL     OW18319   1.808   3.635   8.304 -0.0149  1.0846 -0.4970
 2286SOL    HW118320   1.822   3.702   8.237 -1.3583  0.9971 -0.8777
 2286SOL    HW218321   1.714   3.642   8.317 -0.2426 -1.1670 -0.8317
 2287SOL     OW18322   4.501   1.833   4.636 -0.0684  0.2027  0.2670
 2287SOL    HW118323   4.482   1.862   4.725  0.0484  3.3907 -0.7659
 2287SOL    HW218324   4.541   1.748   4.654  2.2448  1.1190 -0.4747
 2288SOL     OW18325   4.681   4.714   9.614  0.5335 -0.5905  0.2847
 2288SOL    HW118326   0.003   4.648   9.559 -0.2324 -1.6807  0.9792
 2288SOL    HW218327   4.678   4.658   9.691 -1.0414  0.5776  1.0688
 2289SOL     OW18328   3.477   3.930   2.920  0.1013 -0.2844 -0.2085
 2289SOL    HW118329   3.415   3.904   2.852  0.0564 -0.8031  0.0275
 2289SOL    HW218330   3.537   3.990   2.875 -0.3034 -0.1883 -0.6227
 2290SOL     OW18331   0.470   3.297   2.836 -0.2021 -0.4759  0.0078
 2290SOL    HW118332   0.508   3.353   2.769 -0.3244  0.4206  0.6880
 2290SOL    HW218333   0.502   3.215   2.798  0.5668  0.2978 -1.0089
 2291SOL     OW18334   4.187   1.891   3.229  0.2782  0.0031 -0.2257
 2291SOL    HW118335   4.131   1.849   3.163 -0.4252  0.5830  0.0045
 2291SOL    HW218336   4.268   1.877   3.179  0.3095 -1.3154  0.1894
 2292SOL     OW18337   4.376   2.535   1.980  0.6593 -0.2349 -0.0741
 2292SOL    HW118338   4.396   2.450   1.940  0.3164 -1.2416  1.8556
 2292SOL    HW218339   4.323   2.566   1.906  2.6620  0.7066 -1.1023
 2293SOL     OW18340   1.480   0.722   6.025  0.1876  0.1482  0.0200
 2293SOL    HW118341   1.486   0.815   6.003 -0.7530  0.3535  0.6626
 2293SOL    HW218342   1.564   0.687   5.993 -0.0624 -0.9158  0.5263
 2294SOL     OW18343   0.944   3.335   5.444 -0.8945 -0.3369 -0.0867
 2294SOL    HW118344   0.962   3.378   5.359  1.8219 -0.7209  0.2943
 2294SOL    HW218345   0.942   3.249   5.403 -0.9813 -1.0782  1.4787
 2295SOL     OW18346   1.135   0.552   1.031 -0.2207 -0.1280  0.2710
 2295SOL    HW118347   1.116   0.639   1.064 -0.7458  0.3036 -1.2008
 2295SOL    HW218348   1.228   0.555   1.009  0.3933  0.2605  2.9877
 2296SOL     OW18349   4.537   4.320   3.885 -0.2571  0.0479 -1.0434
 2296SOL    HW118350   4.480   4.395   3.901  0.2366 -0.2600  2.1425
 2296SOL    HW218351   4.488   4.270   3.819 -3.0203  4.2315 -2.1232
 2297SOL     OW18352   0.844   2.210   4.427 -0.2286 -0.0645  0.2499
 2297SOL    HW118353   0.802   2.271   4.366 -2.1052  0.2822  1.8970
 2297SOL    HW218354   0.765   2.168   4.461 -0.4797  0.2265  0.0285
 2298SOL     OW18355   4.300   2.537   4.340  0.0173 -0.4437  0.0675
 2298SOL    HW118356   4.299   2.630   4.320 -0.5831 -0.9402 -2.2156
 2298SOL    HW218357   4.257   2.532   4.425 -2.8535 -1.1007 -1.4546
 2299SOL     OW18358   0.573   3.669   5.915 -0.0787  0.0311 -0.7262
 2299SOL    HW118359   0.636   3.718   5.967  0.1791 -1.1523  0.0789
 2299SOL    HW218360   0.533   3.614   5.982 -1.5666 -0.5978 -2.1093
 2300SOL     OW18361   1.498   1.498   5.932  0.8792  0.3098 -0.6044
 2300SOL    HW118362   1.505   1.558   6.006 -0.2389 -0.3954  0.0782
 2300SOL    HW218363   1.487   1.417   5.982  0.0057  0.2072 -0.9606
 2301SOL     OW18364   3.092   1.658  15.930  0.9028  0.4017 -0.1966
 2301SOL    HW118365   3.094   1.730  15.994 -0.5114  0.4592 -0.2169
 2301SOL    HW218366   3.180   1.662  15.892  0.5784 -0.3782 -1.0215
 2302SOL     OW18367   0.653   0.328   8.459 -0.0665 -0.2968 -0.4603
 2302SOL    HW118368   0.733   0.380   8.453  0.6232 -1.4817 -1.6811
 2302SOL    HW218369   0.650   0.335   8.554 -1.6156 -1.2922 -0.4492
 2303SOL     OW18370   2.772   1.670  14.299  0.2015 -0.3942 -0.1624
 2303SOL    HW118371   2.791   1.618  14.221  0.6156 -0.2290 -0.1696
 2303SOL    HW218372   2.856   1.662  14.344 -0.5667 -2.2980  0.9695
 2304SOL     OW18373   0.458   4.689   0.927  0.4966  0.1787  0.3259
 2304SOL    HW118374   0.438   4.607   0.972  0.6336 -1.0475 -1.8891
 2304SOL    HW218375   0.455   0.033   0.997 -0.6042  0.1855  0.2725
 2305SOL     OW18376   3.863   0.461  11.950  0.3029 -0.1953  0.3349
 2305SOL    HW118377   3.937   0.449  11.890 -0.3686  0.6439 -0.6549
 2305SOL    HW218378   3.844   0.375  11.988 -1.9160 -1.6110 -3.9809
 2306SOL     OW18379   0.240   1.309   1.663 -0.0685 -0.2896  0.0510
 2306SOL    HW118380   0.205   1.364   1.732 -0.3157  0.4642 -0.6760
 2306SOL    HW218381   0.318   1.266   1.697  1.7696  2.5614 -0.5771
 2307SOL     OW18382   4.650   2.136   3.470 -0.5769 -0.0168 -0.0710
 2307SOL    HW118383   4.607   2.089   3.541  0.4798 -2.0173 -0.7569
 2307SOL    HW218384   4.620   2.227   3.475  0.5621  0.3252  0.6492
 2308SOL     OW18385   0.507   0.054  11.625  0.4809 -0.2213  0.1811
 2308SOL    HW118386   0.600   0.033  11.632  0.4985 -0.3015 -0.2699
 2308SOL    HW218387   0.472   4.692  11.597 -0.1411 -0.8103  2.7586
 2309SOL     OW18388   4.719   2.540   2.194 -0.4115 -0.2551 -0.0627
 2309SOL    HW118389   0.027   2.518   2.106  0.6261 -1.5069  0.6013
 2309SOL    HW218390   0.021   2.467   2.251 -0.5656  1.7824  2.6160
 2310SOL     OW18391   0.208   1.045  10.577  0.2669 -0.5106 -0.1622
 2310SOL    HW118392   0.167   0.961  10.596  1.0028 -0.9831 -0.6591
 2310SOL    HW218393   0.150   1.101  10.629  1.5548 -0.5446  1.3177
 2311SOL     OW18394   2.163   2.515  14.800  0.4413 -0.4892  0.3363
 2311SOL    HW118395   2.205   2.429  14.802  0.5931 -0.3758  1.7399
 2311SOL    HW218396   2.084   2.489  14.753 -0.5413 -0.9850  2.2813
 2312SOL     OW18397   3.176   4.407   0.560  0.5894 -0.3261  0.6241
 2312SOL    HW118398   3.264   4.416   0.523  0.1493 -0.2775 -0.3958
 2312SOL    HW218399   3.123   4.367   0.492  0.5144 -0.2856  0.6584
 2313SOL     OW18400   3.437   3.113   2.929  0.1945  0.0943  0.0432
 2313SOL    HW118401   3.481   3.112   2.844  0.2679 -1.5046  0.0898
 2313SOL    HW218402   3.459   3.194   2.975 -0.1720  0.1174  0.1776
 2314SOL     OW18403   4.689   0.421   2.935 -0.0573 -0.0961 -0.5155
 2314SOL    HW118404   0.002   0.510   2.935 -0.4241  0.0596  3.0855
 2314SOL    HW218405   4.604   0.440   2.895  0.8063  2.2614 -1.2416
 2315SOL     OW18406   3.716   4.524   5.062  0.2804 -0.1404  0.3807
 2315SOL    HW118407   3.706   4.618   5.074  2.1465  0.2829 -1.3687
 2315SOL    HW218408   3.735   4.502   5.153 -1.7954 -0.9071  0.6271
 2316SOL     OW18409   4.420   4.070   3.253  0.3519 -0.0188 -0.0025
 2316SOL    HW118410   4.334   4.111   3.241  0.9749  0.9587 -1.0852
 2316SOL    HW218411   4.410   4.012   3.328  0.6291  0.5638  0.4795
 2317SOL     OW18412   0.539   0.734  15.953 -0.3489 -0.6171 -0.2123
 2317SOL    HW118413   0.494   0.780  15.882  0.3709 -2.4100 -1.8318
 2317SOL    HW218414   0.529   0.641  15.934  2.7853 -1.0568  0.3231
 2318SOL     OW18415   2.156   2.230   5.603  0.8941 -0.1474 -0.1757
 2318SOL    HW118416   2.199   2.144   5.604  2.4000  0.6091  0.6591
 2318SOL    HW218417   2.221   2.286   5.646  0.8521 -0.0239 -0.2729
 2319SOL     OW18418   1.483   3.419   6.459  0.1618 -0.2399  0.0054
 2319SOL    HW118419   1.541   3.478   6.506  0.0375  0.0045 -0.1431
 2319SOL    HW218420   1.515   3.329   6.460 -1.3268 -0.7100  4.9881
 2320SOL     OW18421   3.648   0.221   7.865 -0.4258  0.2591 -0.4097
 2320SOL    HW118422   3.701   0.152   7.904 -0.7553  1.7080  2.6392
 2320SOL    HW218423   3.706   0.278   7.815  0.7564 -0.8308 -0.2905
 2321SOL     OW18424   4.342   0.954   0.499 -0.3865  0.2115  0.4813
 2321SOL    HW118425   4.349   0.928   0.408  0.2810  0.1620  0.5496
 2321SOL    HW218426   4.290   1.034   0.486 -1.0821 -0.2276  0.5581
 2322SOL     OW18427   0.306   0.690   3.918 -0.6709 -0.0144  0.3722
 2322SOL    HW118428   0.246   0.728   3.983 -0.2090 -0.3626  1.0025
 2322SOL    HW218429   0.310   0.763   3.857 -2.2674  0.5768  0.9683
 2323SOL     OW18430   2.074   2.757   8.834  0.4254  0.5152 -0.2439
 2323SOL    HW118431   2.056   2.749   8.928  2.6062 -2.2335 -0.0546
 2323SOL    HW218432   1.990   2.784   8.798 -0.7614  0.0467  2.1922
 2324SOL     OW18433   3.012   1.146   7.218 -0.6802  0.3495 -0.4853
 2324SOL    HW118434   2.923   1.174   7.196 -0.5295 -0.9679 -2.8748
 2324SOL    HW218435   2.998   1.096   7.298 -0.9535  1.4089  0.1297
 2325SOL     OW18436   1.617   3.967   1.085  0.1091  0.3365  0.4691
 2325SOL    HW118437   1.651   3.878   1.075  2.1665  1.0896  0.8144
 2325SOL    HW218438   1.525   3.943   1.091  0.3959 -0.2278  2.6713
 2326SOL     OW18439   3.705   1.956   5.843 -0.3976 -0.2547  0.3538
 2326SOL    HW118440   3.720   1.869   5.879 -0.9478 -0.2090  0.6992
 2326SOL    HW218441   3.640   1.986   5.907 -1.3999 -0.3403 -0.6374
 2327SOL     OW18442   1.623   3.399  11.519 -0.1120 -0.2285  0.4069
 2327SOL    HW118443   1.554   3.423  11.581 -0.5468 -2.6675  0.8946
 2327SOL    HW218444   1.586   3.399  11.431  2.9339 -1.9748 -0.8295
 2328SOL     OW18445   0.248   3.477   4.866 -0.3920  0.0938 -0.0697
 2328SOL    HW118446   0.262   3.537   4.793 -0.0022  1.6133  1.2431
 2328SOL    HW218447   0.337   3.469   4.899 -0.3054 -1.3303 -0.6521
 2329SOL     OW18448   3.879   1.811   2.532  0.6194  0.2518  0.5116
 2329SOL    HW118449   3.786   1.790   2.546  0.4766  0.6194  0.1163
 2329SOL    HW218450   3.869   1.906   2.525  0.6543  0.2261  0.1156
 2330SOL     OW18451   3.606   3.873   7.883 -0.2826 -0.2121 -0.1801
 2330SOL    HW118452   3.677   3.815   7.856  0.5448  0.5803  0.3133
 2330SOL    HW218453   3.525   3.823   7.870 -0.5806 -0.1247  1.3161
 2331SOL     OW18454   0.832   4.437  15.523 -0.1476  0.5824 -0.3820
 2331SOL    HW118455   0.799   4.491  15.595 -1.2368 -0.1361 -0.3431
 2331SOL    HW218456   0.924   4.463  15.532  0.0756 -0.6458  0.9227
 2332SOL     OW18457   3.054   2.878   7.264  0.0947  0.3031  0.9186
 2332SOL    HW118458   3.079   2.800   7.215  1.5520 -0.6703  3.2338
 2332SOL    HW218459   3.101   2.947   7.217 -1.8451 -0.3992 -2.0453
 2333SOL     OW18460   3.905   0.280   2.860 -0.3627 -0.3277  0.0573
 2333SOL    HW118461   3.958   0.359   2.870 -1.8760  0.5715  1.1799
 2333SOL    HW218462   3.870   0.275   2.949 -2.5238  0.7928 -0.7221
 2334SOL     OW18463   0.373   1.435   1.468 -0.2636  0.3501  0.2706
 2334SOL    HW118464   0.308   1.391   1.523 -0.6528 -0.7364 -1.0579
 2334SOL    HW218465   0.349   1.527   1.478 -0.2799  0.6244 -2.1782
 2335SOL     OW18466   1.069   3.726   6.128  0.1682  0.1731 -0.2861
 2335SOL    HW118467   1.102   3.638   6.147 -1.8068 -0.3876  0.5401
 2335SOL    HW218468   0.986   3.714   6.173 -0.4635  2.5951 -0.8162
 2336SOL     OW18469   2.571   3.386   1.235 -0.1384  0.2364 -0.1890
 2336SOL    HW118470   2.579   3.314   1.297 -1.3836  0.5613  0.3487
 2336SOL    HW218471   2.662   3.417   1.227  0.1364  0.0447  2.1422
 2337SOL     OW18472   0.734   1.617   2.183  0.1007  0.0968  0.1911
 2337SOL    HW118473   0.714   1.542   2.127 -0.1170  0.9509 -0.8763
 2337SOL    HW218474   0.768   1.558   2.250 -0.6887 -0.6848 -0.0912
 2338SOL     OW18475   1.479   0.472   7.408  0.0322 -0.6502 -0.7227
 2338SOL    HW118476   1.402   0.524   7.384  0.1157 -0.7640 -1.2498
 2338SOL    HW218477   1.487   0.504   7.497  0.5359  1.6864 -1.6055
 2339SOL     OW18478   0.785   2.901   2.249 -0.4999 -0.5832 -0.0620
 2339SOL    HW118479   0.878   2.905   2.273 -0.7715 -1.7131  1.1986
 2339SOL    HW218480   0.766   2.964   2.318 -0.6298 -0.0264 -0.6055
 2340SOL     OW18481   3.381   1.963   2.968  0.5131 -0.3684  0.1003
 2340SOL    HW118482   3.328   1.965   2.888 -1.6347  2.0150  1.5799
 2340SOL    HW218483   3.439   2.038   2.953  1.5601 -1.2164 -0.1009
 2341SOL     OW18484   2.245   0.723   3.871 -0.0290  1.0847  0.2391
 2341SOL    HW118485   2.212   0.802   3.915 -1.0139 -0.7371  2.7663
 2341SOL    HW218486   2.183   0.658   3.904  2.9172 -1.6161  0.4648
 2342SOL     OW18487   2.256   0.504   9.425 -0.3321 -0.3787  0.1705
 2342SOL    HW118488   2.333   0.468   9.381  0.3960  0.4473  0.7738
 2342SOL    HW218489   2.244   0.429   9.484 -1.6165 -0.4491 -0.1841
 2343SOL     OW18490   0.849   0.575  10.981 -0.6157  0.6061  0.5968
 2343SOL    HW118491   0.805   0.506  10.932  0.7269 -1.2046  1.9092
 2343SOL    HW218492   0.834   0.652  10.927 -2.2664  1.6122  2.5312
 2344SOL     OW18493   1.198   2.679   8.965  0.2788 -0.1416  0.1924
 2344SOL    HW118494   1.249   2.735   9.024  0.1202  1.5631 -1.3139
 2344SOL    HW218495   1.199   2.598   9.016 -1.7445  0.9462  1.9421
 2345SOL     OW18496   3.107   4.031  16.042 -0.3263  0.3520  0.5765
 2345SOL    HW118497   3.021   4.059  16.012  0.3043  0.6316 -0.9719
 2345SOL    HW218498   3.161   4.071  15.974 -2.5540 -0.6932 -1.7623
 2346SOL     OW18499   1.025   2.704   7.881 -0.1210 -0.1759  0.6057
 2346SOL    HW118500   1.041   2.722   7.788 -0.4518  0.9870  0.7667
 2346SOL    HW218501   1.041   2.610   7.883 -1.8228 -0.4481  0.8794
 2347SOL     OW18502   1.246   2.413   0.872  0.6784  0.5186 -0.0674
 2347SOL    HW118503   1.308   2.365   0.925  0.4384  1.8354  1.4001
 2347SOL    HW218504   1.314   2.460   0.822  2.4409  0.5879  2.4205
 2348SOL     OW18505   0.034   0.008   3.702  0.1543 -0.1690 -0.5148
 2348SOL    HW118506   4.661   0.004   3.693  0.1163  2.1294 -1.1079
 2348SOL    HW218507   0.060   4.688   3.620  0.5204 -1.2776  0.1715
 2349SOL     OW18508   1.319   1.276   9.421 -0.3334 -0.1952  0.1441
 2349SOL    HW118509   1.272   1.350   9.459  1.1918  1.3719 -0.9874
 2349SOL    HW218510   1.249   1.221   9.387 -1.0851 -1.3107  3.5558
 2350SOL     OW18511   0.858   4.652   4.037  0.3455 -0.2238  0.0669
 2350SOL    HW118512   0.875   0.024   4.049  1.7879 -0.5923  0.9415
 2350SOL    HW218513   0.930   4.627   3.978  1.6167  0.6415  1.2426
 2351SOL     OW18514   1.634   0.821   9.072  0.1283 -0.8874  0.7973
 2351SOL    HW118515   1.708   0.878   9.089  1.6685 -2.8237  0.6370
 2351SOL    HW218516   1.676   0.753   9.019 -0.6209 -1.7678  1.3329
 2352SOL     OW18517   1.762   3.640   2.444 -0.6045  0.1197 -0.0928
 2352SOL    HW118518   1.752   3.699   2.519 -1.5450 -0.7705  0.4859
 2352SOL    HW218519   1.857   3.629   2.448 -0.7178 -0.8629 -0.1806
 2353SOL     OW18520   0.658   4.236   2.654 -0.6295 -0.4343  0.4602
 2353SOL    HW118521   0.709   4.184   2.716  2.0370  0.2675 -1.1556
 2353SOL    HW218522   0.721   4.306   2.639  0.5294 -1.5428  0.0836
 2354SOL     OW18523   3.383   3.286   8.393 -0.0461  0.1167 -0.0309
 2354SOL    HW118524   3.441   3.226   8.438  0.7678 -0.3210 -1.6620
 2354SOL    HW218525   3.361   3.234   8.316 -2.6916  0.7278  0.2971
 2355SOL     OW18526   2.164   1.774   0.964 -0.2205  0.8940 -0.1121
 2355SOL    HW118527   2.086   1.732   0.928 -1.2223  1.2364  1.6614
 2355SOL    HW218528   2.171   1.734   1.050  0.4083  1.5337  0.1300
 2356SOL     OW18529   0.712   4.048  12.928  0.3726  0.7268 -0.3885
 2356SOL    HW118530   0.761   3.990  12.986 -0.6572  0.2820  0.0268
 2356SOL    HW218531   0.631   3.998  12.919  1.0494 -0.6797  1.4410
 2357SOL     OW18532   3.032   3.104   9.750  0.5786  0.6930 -0.3410
 2357SOL    HW118533   3.105   3.059   9.792  0.0337 -0.7184 -0.9253
 2357SOL    HW218534   3.082   3.186   9.751  0.1999  0.9040  2.5917
 2358SOL     OW18535   3.452   2.192   9.598 -0.0115 -0.5023 -0.0183
 2358SOL    HW118536   3.480   2.173   9.687  0.7735 -1.5525 -0.4891
 2358SOL    HW218537   3.489   2.279   9.589 -0.6929 -0.1757  0.3512
 2359SOL     OW18538   1.357   3.534  10.399  0.6137 -0.2967  0.6035
 2359SOL    HW118539   1.289   3.582  10.351  0.3675 -0.3076  0.9389
 2359SOL    HW218540   1.422   3.513  10.333  0.6572  1.9699 -0.0479
 2360SOL     OW18541   4.630   0.030   4.031  0.5156 -0.0489 -0.3568
 2360SOL    HW118542   4.682   4.693   3.976 -0.0989 -0.7550 -0.1811
 2360SOL    HW218543   4.683   0.110   4.025  1.1178 -0.5857 -2.3876
 2361SOL     OW18544   3.484   3.638   6.135 -0.1221  0.2694  0.3175
 2361SOL    HW118545   3.530   3.721   6.122  0.4626 -0.3960 -1.7939
 2361SOL    HW218546   3.468   3.645   6.229  0.0260 -1.5372  0.4648
 2362SOL     OW18547   1.004   4.047  14.705 -0.1210 -0.3812 -0.0640
 2362SOL    HW118548   0.960   4.119  14.660 -1.6604 -0.3309  1.5584
 2362SOL    HW218549   1.095   4.069  14.684  0.1974 -0.7364  0.9343
 2363SOL     OW18550   3.972   2.662   2.456 -0.0536 -0.5143 -0.4566
 2363SOL    HW118551   4.026   2.586   2.430 -1.0563 -0.9167 -1.3592
 2363SOL    HW218552   4.029   2.739   2.451 -0.8579  0.1308  0.2340
 2364SOL     OW18553   2.493   3.640   2.101 -0.2389 -0.1001  0.1066
 2364SOL    HW118554   2.418   3.668   2.154  1.1116  0.7096  1.5976
 2364SOL    HW218555   2.478   3.697   2.026 -0.5673  0.6417  0.7368
 2365SOL     OW18556   1.709   2.768   9.953  0.6984  0.0687  0.7230
 2365SOL    HW118557   1.615   2.765   9.935 -0.0781  1.6175  4.3897
 2365SOL    HW218558   1.725   2.850  10.001  1.5840  1.6622 -2.2948
 2366SOL     OW18559   2.901   0.875   6.701 -0.7099  0.4914  0.7753
 2366SOL    HW118560   2.813   0.893   6.669  0.1107  2.8466 -0.1258
 2366SOL    HW218561   2.887   0.790   6.744 -1.6996  0.2498 -0.0294
 2367SOL     OW18562   2.328   3.739   0.335 -0.1694  0.8569  0.7681
 2367SOL    HW118563   2.286   3.801   0.395  1.2105  2.5175  0.0377
 2367SOL    HW218564   2.337   3.662   0.391  0.4243  1.3474  1.3635
 2368SOL     OW18565   3.292   0.926   4.717  0.7400 -0.0185  0.2159
 2368SOL    HW118566   3.387   0.926   4.727  0.7099 -1.8961  0.3818
 2368SOL    HW218567   3.284   1.020   4.736 -1.6140 -0.7596  2.7974
 2369SOL     OW18568   0.223   1.123   8.083  0.5020 -0.1051 -0.0688
 2369SOL    HW118569   0.310   1.085   8.099 -0.3865 -1.3945  1.6285
 2369SOL    HW218570   0.217   1.188   8.153  2.4153  0.5933 -0.5406
 2370SOL     OW18571   4.000   0.849   2.373 -0.4539  0.1302 -0.2641
 2370SOL    HW118572   4.033   0.901   2.447 -2.8433  0.5132  0.5672
 2370SOL    HW218573   3.964   0.771   2.415  2.6530  0.7944  3.6196
 2371SOL     OW18574   1.137   3.561  13.646  0.2288 -0.0300 -0.5756
 2371SOL    HW118575   1.122   3.485  13.590 -0.2310 -0.6271  0.3602
 2371SOL    HW218576   1.232   3.565  13.637  0.2360 -0.6765 -0.7427
 2372SOL     OW18577   2.565   0.391   9.357 -0.1096  0.1198  0.3790
 2372SOL    HW118578   2.598   0.461   9.301 -0.3068  1.7650  2.3604
 2372SOL    HW218579   2.530   0.332   9.289 -1.7472  0.6971  0.7356
 2373SOL     OW18580   1.650   1.539   1.691 -0.7652 -0.8115 -0.2202
 2373SOL    HW118581   1.714   1.508   1.756  0.8780 -0.7570 -1.8197
 2373SOL    HW218582   1.638   1.626   1.730 -0.5859 -0.5047 -0.8442
 2374SOL     OW18583   3.822   0.987   3.847  0.0525 -0.6056  0.2204
 2374SOL    HW118584   3.778   0.963   3.928 -1.5162  1.8253  0.0986
 2374SOL    HW218585   3.758   1.052   3.815 -2.2728 -0.7255  4.6718
 2375SOL     OW18586   1.635   1.722  12.549 -0.4716  0.3163 -0.0113
 2375SOL    HW118587   1.620   1.794  12.489  3.8320  1.3402  0.1146
 2375SOL    HW218588   1.730   1.710  12.556 -0.6989  0.2779  3.3536
 2376SOL     OW18589   3.278   0.486  12.686  0.2870 -0.1019 -0.3234
 2376SOL    HW118590   3.275   0.546  12.761 -0.0690 -0.2408 -0.2279
 2376SOL    HW218591   3.251   0.410  12.738  0.0169  1.0484  1.2343
 2377SOL     OW18592   2.852   1.286  15.478  0.2847  0.3778  0.3696
 2377SOL    HW118593   2.902   1.335  15.544 -1.7486  1.8777  0.7756
 2377SOL    HW218594   2.809   1.358  15.433 -0.4169 -0.4245 -0.2267
 2378SOL     OW18595   0.685   3.076   0.767 -0.1041  0.4462 -0.2286
 2378SOL    HW118596   0.780   3.088   0.767 -0.0289 -0.1082  0.3137
 2378SOL    HW218597   0.672   3.073   0.673 -3.5761  2.9031  0.1816
 2379SOL     OW18598   2.865   0.643   2.844  0.3661 -0.1248  0.0583
 2379SOL    HW118599   2.807   0.698   2.791  0.7739  2.6663  2.4949
 2379SOL    HW218600   2.790   0.596   2.881 -0.1365 -0.6292 -1.5990
 2380SOL     OW18601   1.250   4.437   1.073  0.0620  0.0503  0.5325
 2380SOL    HW118602   1.328   4.441   1.128  2.4555  0.8036 -2.9471
 2380SOL    HW218603   1.204   4.518   1.095 -0.6093 -0.7700  2.2014
 2381SOL     OW18604   3.980   4.109   3.579  0.2435  0.4252 -0.0369
 2381SOL    HW118605   3.942   4.056   3.509  0.1034 -0.5900  0.8070
 2381SOL    HW218606   3.908   4.100   3.641 -0.3230 -1.1358 -0.9033
 2382SOL     OW18607   0.720   3.866   7.183  0.3016  0.7057  0.8312
 2382SOL    HW118608   0.768   3.837   7.260  0.0980 -0.3798  0.5403
 2382SOL    HW218609   0.747   3.957   7.166  0.3996  0.4579 -0.3409
 2383SOL     OW18610   2.711   4.276   6.114 -0.2988  0.2015  0.3542
 2383SOL    HW118611   2.664   4.193   6.103 -0.2779  0.6258 -2.7650
 2383SOL    HW218612   2.638   4.338   6.107  0.1141  0.6325 -0.1232
 2384SOL     OW18613   3.922   1.612   6.560  0.2366  0.1525  0.1345
 2384SOL    HW118614   3.891   1.684   6.504  1.7506  0.3973 -0.3718
 2384SOL    HW218615   3.839   1.585   6.601  1.2611 -0.7884  1.5885
 2385SOL     OW18616   2.456   1.437  15.470 -0.2095  0.1452  0.0101
 2385SOL    HW118617   2.458   1.393  15.385 -1.2949  1.4320 -0.6675
 2385SOL    HW218618   2.427   1.523  15.437 -0.3226 -0.6277 -1.9102
 2386SOL     OW18619   2.867   3.525   0.662  0.4423  0.0666 -0.2072
 2386SOL    HW118620   2.877   3.453   0.724  1.6392 -0.8380 -1.4738
 2386SOL    HW218621   2.863   3.600   0.722 -1.6673  0.1577 -0.4715
 2387SOL     OW18622   4.455   2.030  10.618 -0.0163 -0.1725  0.3465
 2387SOL    HW118623   4.394   1.971  10.660 -1.0973  0.9610  0.3788
 2387SOL    HW218624   4.518   2.033  10.690  0.8451 -1.8678 -0.3458
 2388SOL     OW18625   1.001   2.743  11.302 -0.1328 -0.1310 -0.4533
 2388SOL    HW118626   0.932   2.746  11.235 -0.4875  0.5923 -0.0513
 2388SOL    HW218627   1.013   2.838  11.311  2.6420 -0.5613  0.5604
 2389SOL     OW18628   3.782   0.400   7.223 -0.1894 -0.0649  0.7197
 2389SOL    HW118629   3.778   0.367   7.312 -0.3710  0.9656  1.0852
 2389SOL    HW218630   3.827   0.331   7.174  1.0160  0.4741  1.0667
 2390SOL     OW18631   3.609   2.651   4.377 -0.2501 -0.3896 -0.0247
 2390SOL    HW118632   3.697   2.630   4.345 -0.4668 -0.2128 -0.7288
 2390SOL    HW218633   3.605   2.617   4.466  1.5633  0.4720  0.3919
 2391SOL     OW18634   0.400   4.398   1.434 -0.2879  0.3818  0.3096
 2391SOL    HW118635   0.473   4.429   1.381  0.3473 -1.0701  0.3179
 2391SOL    HW218636   0.445   4.379   1.516 -2.6471 -1.7581  1.1293
 2392SOL     OW18637   1.959   0.962   5.009  0.3831  0.0491 -0.3579
 2392SOL    HW118638   1.985   0.908   4.935  2.8977 -0.8152  1.1297
 2392SOL    HW218639   1.879   0.999   4.972  0.6374  2.4130  1.4015
 2393SOL     OW18640   3.296   1.360   9.948 -0.2819 -0.5717 -0.2845
 2393SOL    HW118641   3.356   1.340  10.021 -0.1194  0.3701 -0.1600
 2393SOL    HW218642   3.221   1.399   9.992 -1.6099 -1.9596 -1.3009
 2394SOL     OW18643   0.180   3.309   1.026  0.1536  0.2964 -0.2571
 2394SOL    HW118644   0.239   3.347   0.961 -1.6555 -0.2409 -2.2208
 2394SOL    HW218645   0.106   3.363   0.999  1.0589  1.2357 -0.8973
 2395SOL     OW18646   3.183   1.484   2.882 -0.2108 -0.3350 -0.0209
 2395SOL    HW118647   3.262   1.530   2.856 -0.6990  0.3861 -0.2421
 2395SOL    HW218648   3.187   1.493   2.977  1.2778 -3.6460  0.2137
 2396SOL     OW18649   0.420   2.509   2.343 -0.3247  0.4054  0.0690
 2396SOL    HW118650   0.431   2.414   2.334  1.2298  0.7151 -1.3964
 2396SOL    HW218651   0.502   2.546   2.312  1.2640 -2.4157  0.9184
 2397SOL     OW18652   2.727   4.717   0.340  0.3711  0.2486 -0.5391
 2397SOL    HW118653   2.632   4.716   0.332  0.5450 -0.1394 -2.5202
 2397SOL    HW218654   2.727   4.697   0.433  0.3371  0.1368 -0.5634
 2398SOL     OW18655   4.219   3.034   7.903 -0.3088  0.1130 -0.2476
 2398SOL    HW118656   4.184   2.945   7.902 -1.6730  0.6724 -4.2143
 2398SOL    HW218657   4.181   3.068   7.822  0.1667 -2.8824 -1.7437
 2399SOL     OW18658   1.750   1.317   7.749  0.8860  0.5230  0.2938
 2399SOL    HW118659   1.659   1.293   7.763  0.7133 -1.1306 -3.6009
 2399SOL    HW218660   1.776   1.282   7.663  0.8804  2.5622 -0.5369
 2400SOL     OW18661   1.391   1.498  16.460 -0.9097  0.4682  0.3529
 2400SOL    HW118662   1.415   1.545  16.380 -0.6542  2.2395  1.4578
 2400SOL    HW218663   1.296   1.502  16.459 -0.9283 -1.1078 -2.5358
 2401SOL     OW18664   1.475   4.070   7.501  0.1691  0.1890 -0.0322
 2401SOL    HW118665   1.531   4.113   7.566  0.5681 -2.4371  1.3500
 2401SOL    HW218666   1.393   4.064   7.550 -0.5203 -0.5217 -1.2862
 2402SOL     OW18667   0.722   3.708  12.449 -0.3316 -0.1080 -0.5577
 2402SOL    HW118668   0.754   3.622  12.421 -1.1183 -0.4316 -0.4688
 2402SOL    HW218669   0.716   3.753  12.365  0.2253  0.1901 -0.4427
 2403SOL     OW18670   1.733   0.320   3.278 -0.6939  0.1463 -0.2955
 2403SOL    HW118671   1.649   0.275   3.275 -0.6066 -0.0878  0.8223
 2403SOL    HW218672   1.708   0.409   3.253  0.4047  0.1226 -1.5215
 2404SOL     OW18673   3.587   3.378   4.682 -0.0395  1.0067 -0.0000
 2404SOL    HW118674   3.650   3.450   4.677  0.0897  0.8839 -0.1541
 2404SOL    HW218675   3.634   3.301   4.649 -1.6672 -0.2022  0.4535
 2405SOL     OW18676   1.125   1.300  12.352  0.7599 -0.4239  0.2163
 2405SOL    HW118677   1.164   1.384  12.328 -0.9233 -0.3593 -2.2033
 2405SOL    HW218678   1.200   1.241  12.351 -0.0582 -1.4507 -0.2387
 2406SOL     OW18679   4.387   3.678  11.466  0.2455  0.3213 -0.1496
 2406SOL    HW118680   4.388   3.713  11.555  2.6571  0.9846 -0.4133
 2406SOL    HW218681   4.462   3.619  11.472  0.7046  0.8236 -0.8970
 2407SOL     OW18682   4.122   2.689   0.932 -0.2372  0.2078 -0.2138
 2407SOL    HW118683   4.140   2.773   0.975 -2.1577  1.0502 -1.0547
 2407SOL    HW218684   4.203   2.673   0.884  1.2024  0.1238  2.2391
 2408SOL     OW18685   1.379   3.434   8.200 -0.1131 -0.2347 -0.0460
 2408SOL    HW118686   1.400   3.373   8.129  0.4748 -0.1962  0.0905
 2408SOL    HW218687   1.289   3.456   8.177 -0.1072 -1.0727 -0.8690
 2409SOL     OW18688   1.912   3.011   7.693  1.2978  0.1093  0.4794
 2409SOL    HW118689   1.840   3.049   7.744  1.6234 -0.0673  1.0644
 2409SOL    HW218690   1.863   2.964   7.625 -0.8235  1.0789  1.3153
 2410SOL     OW18691   0.953   0.460   2.844 -0.0103 -0.6933 -0.2755
 2410SOL    HW118692   0.985   0.528   2.785 -2.2659  1.2492  0.7568
 2410SOL    HW218693   1.034   0.409   2.850  0.2851 -0.3007 -0.8995
 2411SOL     OW18694   4.047   0.971   7.620  0.3407  0.0240 -0.1464
 2411SOL    HW118695   4.083   1.052   7.584 -0.1364  0.4717  0.3845
 2411SOL    HW218696   4.117   0.907   7.613  0.2860  0.2416 -2.5336
 2412SOL     OW18697   1.722   2.390  10.655  0.0360 -0.0298 -0.3150
 2412SOL    HW118698   1.750   2.399  10.746 -0.2297  0.9910 -0.3422
 2412SOL    HW218699   1.755   2.301  10.639  0.1994 -0.6006  3.0258
 2413SOL     OW18700   1.075   1.489  11.137 -0.6326  0.1823  0.0316
 2413SOL    HW118701   1.138   1.495  11.208 -0.8659  1.2188  0.1431
 2413SOL    HW218702   0.989   1.498  11.179  0.9273  1.5628  2.8579
 2414SOL     OW18703   0.476   0.078   3.149 -0.3659  0.2635 -0.2215
 2414SOL    HW118704   0.564   0.044   3.135 -0.5085  0.7311 -2.2580
 2414SOL    HW218705   0.411   0.025   3.103 -0.9314  0.9316 -0.2087
 2415SOL     OW18706   2.039   0.181   6.674 -0.2475 -0.1140  0.2261
 2415SOL    HW118707   1.962   0.130   6.646 -0.5775  0.4735  0.0649
 2415SOL    HW218708   2.008   0.226   6.752  3.1992  0.8985  1.0005
 2416SOL     OW18709   2.998   1.131   4.405 -0.4033  0.4786 -0.1962
 2416SOL    HW118710   2.904   1.110   4.401 -0.6693  1.4432  0.8514
 2416SOL    HW218711   3.046   1.050   4.420 -1.3318 -0.1090 -0.3656
 2417SOL     OW18712   0.133   2.603  13.572 -0.2940  0.0453 -0.4397
 2417SOL    HW118713   0.108   2.626  13.661  0.1068  0.4121 -0.4218
 2417SOL    HW218714   0.194   2.535  13.602 -0.9779 -0.8343 -1.0513
 2418SOL     OW18715   0.804   2.164   0.563 -0.2138  0.1206  0.1185
 2418SOL    HW118716   0.754   2.241   0.535 -1.4304 -0.1172  1.6102
 2418SOL    HW218717   0.816   2.189   0.655  1.4074  0.7442 -0.2642
 2419SOL     OW18718   3.492   2.495   7.358  0.0333  0.0056 -0.1287
 2419SOL    HW118719   3.531   2.497   7.271 -1.2157  1.4935 -0.6521
 2419SOL    HW218720   3.570   2.509   7.412  0.9962 -2.5088 -0.8889
 2420SOL     OW18721   4.138   1.705   4.122 -0.5721  0.1216  0.5992
 2420SOL    HW118722   4.084   1.745   4.190 -0.7890 -0.7411  0.9375
 2420SOL    HW218723   4.203   1.670   4.182 -1.5551  2.0952  2.8326
 2421SOL     OW18724   4.121   2.201   5.349 -0.2756 -0.3018  0.2032
 2421SOL    HW118725   4.149   2.260   5.419 -0.7801  2.0126 -1.5533
 2421SOL    HW218726   4.046   2.154   5.387 -0.2130 -2.2474 -2.0699
 2422SOL     OW18727   1.258   1.854   5.922 -0.6340 -0.3196 -0.3764
 2422SOL    HW118728   1.209   1.774   5.939  0.3214 -0.6888  0.6425
 2422SOL    HW218729   1.336   1.840   5.976  0.6972  3.4697 -1.3534
 2423SOL     OW18730   1.191   0.205  12.426 -0.2578  0.1648 -0.4390
 2423SOL    HW118731   1.205   0.113  12.446  0.4293 -0.1955 -2.5738
 2423SOL    HW218732   1.235   0.210  12.341 -1.0668 -0.3381 -0.8931
 2424SOL     OW18733   2.566   4.155   4.837 -0.4331  0.0025  0.2565
 2424SOL    HW118734   2.508   4.148   4.761  0.6148  2.9472 -0.8266
 2424SOL    HW218735   2.546   4.077   4.888 -1.5847  1.5203  2.1273
 2425SOL     OW18736   3.133   0.329   9.573 -0.5373 -0.4665 -0.3590
 2425SOL    HW118737   3.101   0.316   9.662  1.1866 -0.3099  0.2807
 2425SOL    HW218738   3.105   0.417   9.548 -0.2490 -0.7663 -1.7219
 2426SOL     OW18739   1.362   0.575   2.746  0.8388  0.7130 -0.5003
 2426SOL    HW118740   1.272   0.578   2.713 -0.2400 -1.9944  2.2167
 2426SOL    HW218741   1.414   0.636   2.693 -1.1547  1.3179 -1.7675
 2427SOL     OW18742   1.261   2.940   5.370  0.4690  0.1637 -0.3173
 2427SOL    HW118743   1.297   3.001   5.435 -1.0042  1.7874 -1.0475
 2427SOL    HW218744   1.280   2.851   5.399  1.5758  1.0710  1.7501
 2428SOL     OW18745   3.064   0.997   9.169  0.1163  0.1137  0.3039
 2428SOL    HW118746   2.979   1.036   9.185  1.3436  1.8894  2.4714
 2428SOL    HW218747   3.077   1.035   9.082  1.3390 -1.0794 -0.0426
 2429SOL     OW18748   2.225   1.262   7.444  0.3401 -0.3394 -0.1152
 2429SOL    HW118749   2.299   1.240   7.388 -0.9210  0.9468 -2.2964
 2429SOL    HW218750   2.167   1.309   7.384 -0.4153 -0.0745  0.8235
 2430SOL     OW18751   3.139   4.407   2.413  0.2589 -1.1503  0.2204
 2430SOL    HW118752   3.105   4.421   2.325 -0.6197 -2.6127  0.3188
 2430SOL    HW218753   3.138   4.496   2.448  2.0637 -0.2321 -2.0876
 2431SOL     OW18754   0.307   1.135  10.337 -0.1223  0.1068 -0.0403
 2431SOL    HW118755   0.382   1.179  10.376 -0.8258 -0.2585  1.7091
 2431SOL    HW218756   0.274   1.085  10.411 -0.5474  2.0685  1.0922
 2432SOL     OW18757   0.614   0.332   0.585  0.3946  0.4293 -0.1926
 2432SOL    HW118758   0.655   0.274   0.649  0.3067 -0.0083 -0.5312
 2432SOL    HW218759   0.643   0.280   0.509 -0.0176 -2.4198  1.6246
 2433SOL     OW18760   3.710   0.616   4.908  0.1506 -0.2600 -0.2339
 2433SOL    HW118761   3.720   0.627   4.814 -0.8225 -0.1880 -0.3330
 2433SOL    HW218762   3.623   0.652   4.928 -0.0586 -0.0399 -1.5552
 2434SOL     OW18763   3.879   3.298  16.187  0.7809 -0.2296 -0.8173
 2434SOL    HW118764   3.798   3.270  16.146  0.4821 -0.4483 -0.0734
 2434SOL    HW218765   3.877   3.389  16.158 -0.8226 -0.3503 -1.0560
 2435SOL     OW18766   3.488   0.711   7.258  0.1130  0.6491 -0.2429
 2435SOL    HW118767   3.399   0.740   7.278 -0.7955 -1.5460 -1.0357
 2435SOL    HW218768   3.491   0.761   7.177 -0.9487 -0.6917 -1.1029
 2436SOL     OW18769   2.446   3.337   7.241  0.1654  0.5907  0.3304
 2436SOL    HW118770   2.423   3.268   7.304  0.2356  1.5519  1.3979
 2436SOL    HW218771   2.377   3.397   7.269  0.3664  0.1312  1.8437
 2437SOL     OW18772   3.931   1.277   5.704 -0.7868 -0.0057 -0.0986
 2437SOL    HW118773   3.954   1.263   5.612  1.7472 -1.1160  0.7114
 2437SOL    HW218774   4.006   1.308   5.755 -1.2921  1.5437 -0.2884
 2438SOL     OW18775   4.288   4.630   5.793 -0.1733 -0.1890  0.2701
 2438SOL    HW118776   4.363   4.652   5.737 -0.5268 -0.3802 -0.2818
 2438SOL    HW218777   4.219   4.601   5.733 -1.9258  0.9797  1.7216
 2439SOL     OW18778   2.552   3.657   3.918  0.2795  0.0411  0.0204
 2439SOL    HW118779   2.603   3.738   3.920  0.0706  0.1472  0.7117
 2439SOL    HW218780   2.464   3.688   3.937 -0.1695 -0.9764 -0.4102
 2440SOL     OW18781   1.261   4.466   5.997 -0.6341 -0.8275 -0.0091
 2440SOL    HW118782   1.340   4.430   6.038 -2.4333 -4.2031  0.4362
 2440SOL    HW218783   1.202   4.405   6.040  1.0434 -0.9450  2.1169
 2441SOL     OW18784   3.229   4.284   1.045 -0.5636 -0.7682 -0.0878
 2441SOL    HW118785   3.200   4.197   1.018  0.1046 -0.7879 -0.7397
 2441SOL    HW218786   3.216   4.335   0.966  3.0198 -0.8859 -0.7575
 2442SOL     OW18787   1.369   3.167   5.504 -0.2978  0.6690  0.6142
 2442SOL    HW118788   1.448   3.219   5.520 -0.7565  1.2248  1.0443
 2442SOL    HW218789   1.293   3.223   5.517  0.2470  1.6914 -0.5419
 2443SOL     OW18790   0.053   0.220   4.996  0.1582  0.7426 -0.2587
 2443SOL    HW118791   0.075   0.237   4.905  1.0032 -0.4730 -0.2964
 2443SOL    HW218792   0.060   0.306   5.036 -0.7417  0.5416  0.3301
 2444SOL     OW18793   0.763   1.753   8.411  0.0493  0.1131  0.3214
 2444SOL    HW118794   0.718   1.834   8.434  0.0545 -0.2790  1.6853
 2444SOL    HW218795   0.837   1.744   8.470 -0.9285 -0.7958  1.3912
 2445SOL     OW18796   0.238   1.430   3.570  0.0494  0.6027  0.1533
 2445SOL    HW118797   0.317   1.421   3.623 -0.2023 -0.1638  0.3967
 2445SOL    HW218798   0.286   1.425   3.488 -1.7069  0.8333 -0.8977
 2446SOL     OW18799   3.045   4.186  11.958 -0.1731  0.1758 -0.1028
 2446SOL    HW118800   3.023   4.173  12.050 -0.8796  1.9100 -0.0169
 2446SOL    HW218801   3.045   4.282  11.968  1.5076  0.2344 -0.7293
 2447SOL     OW18802   1.744   1.685  16.498  0.5027  0.2546  0.1203
 2447SOL    HW118803   1.714   1.653  16.413 -3.2770 -1.0684  1.9483
 2447SOL    HW218804   1.686   1.632  16.553 -0.0046  1.0456  0.3475
 2448SOL     OW18805   1.047   1.522  15.856 -0.0337  0.9439 -0.1558
 2448SOL    HW118806   1.063   1.521  15.762  1.8185  0.7741  0.1676
 2448SOL    HW218807   0.987   1.447  15.860  2.6290 -1.2336 -1.0422
 2449SOL     OW18808   2.835   1.849   8.499  0.4424 -0.3892  0.5886
 2449SOL    HW118809   2.859   1.941   8.486 -0.3719 -0.3979 -1.0686
 2449SOL    HW218810   2.921   1.813   8.520  2.1504  3.2197 -0.2134
 2450SOL     OW18811   1.395   2.267   4.487 -0.1468 -0.8454  0.6510
 2450SOL    HW118812   1.456   2.225   4.548 -1.0796 -1.2304  1.3157
 2450SOL    HW218813   1.409   2.209   4.413  1.7059 -0.8885  1.0289
 2451SOL     OW18814   4.673   1.633   9.649  0.2685 -0.1939  0.1445
 2451SOL    HW118815   0.018   1.586   9.601  2.0701  0.3832  2.0790
 2451SOL    HW218816   0.010   1.703   9.675  0.4293 -0.7318  1.2442
 2452SOL     OW18817   3.678   4.022  11.545  0.3586  0.4911 -0.3041
 2452SOL    HW118818   3.666   3.982  11.631 -2.6336  0.6385 -0.6591
 2452SOL    HW218819   3.763   4.058  11.567 -1.3344  2.6973  2.5462
 2453SOL     OW18820   3.793   4.354  16.119  0.3540  0.2620  0.0683
 2453SOL    HW118821   3.809   4.417  16.189  2.1649  1.5325 -1.4983
 2453SOL    HW218822   3.700   4.337  16.134 -0.1423  2.1494 -0.9077
 2454SOL     OW18823   2.920   3.411   8.812 -0.3823 -0.2481  0.2585
 2454SOL    HW118824   2.873   3.328   8.818 -1.0379  0.2193  1.5351
 2454SOL    HW218825   3.011   3.392   8.835 -0.5226  2.7980  3.3559
 2455SOL     OW18826   2.509   0.166  11.616 -0.1767  0.2571 -0.2935
 2455SOL    HW118827   2.482   0.161  11.708  2.4920  0.9672  0.5195
 2455SOL    HW218828   2.508   0.077  11.580 -1.1958  0.2826 -0.3257
 2456SOL     OW18829   0.325   2.791   8.266  0.3103  0.1368 -0.0894
 2456SOL    HW118830   0.234   2.819   8.258  0.9776  3.1127  2.5948
 2456SOL    HW218831   0.370   2.864   8.223  1.8334  0.1249  1.4892
 2457SOL     OW18832   1.205   1.624   7.030  0.2858  0.1413  0.0072
 2457SOL    HW118833   1.270   1.573   6.981  0.2036 -0.7053  0.7773
 2457SOL    HW218834   1.267   1.676   7.080  0.1905  1.2283 -1.0036
 2458SOL     OW18835   3.368   0.392   3.089 -0.0429  0.4572 -0.5727
 2458SOL    HW118836   3.311   0.465   3.067  3.0209  2.3481 -2.1791
 2458SOL    HW218837   3.378   0.350   3.003 -0.9522  0.4380 -0.6705
 2459SOL     OW18838   3.283   1.570   7.662  0.8534  0.0875 -0.4778
 2459SOL    HW118839   3.209   1.582   7.602 -0.7593 -3.2468  0.8654
 2459SOL    HW218840   3.358   1.569   7.603  2.4918 -1.5350  1.6254
 2460SOL     OW18841   0.700   4.704   9.659 -0.6208  0.1740 -0.3192
 2460SOL    HW118842   0.687   0.057   9.717 -1.2135 -1.0187  1.0857
 2460SOL    HW218843   0.767   0.012   9.598  1.3968 -0.8136  1.4078
 2461SOL     OW18844   0.896   4.475   0.192  0.3215 -0.0861  0.0154
 2461SOL    HW118845   0.896   4.549   0.252 -0.2118 -1.1795  1.3399
 2461SOL    HW218846   0.820   4.427   0.223  0.6672 -0.9365 -0.4613
 2462SOL     OW18847   2.909   1.334   0.891 -0.2406  0.4544  0.0909
 2462SOL    HW118848   2.828   1.283   0.894  1.3505 -2.1292 -1.1477
 2462SOL    HW218849   2.977   1.273   0.863  0.3799  1.7328 -1.1979
 2463SOL     OW18850   0.711   1.037   6.536  0.0547 -0.7284 -0.0452
 2463SOL    HW118851   0.682   1.049   6.627  1.3953 -0.6776  0.3734
 2463SOL    HW218852   0.799   1.006   6.554 -0.1646 -0.3019  1.8256
 2464SOL     OW18853   3.397   0.122   7.736  0.0581  0.1997 -0.3539
 2464SOL    HW118854   3.487   0.096   7.756  0.0028  0.7404  0.6211
 2464SOL    HW218855   3.407   0.147   7.644 -0.2398 -0.5564 -0.5906
 2465SOL     OW18856   4.451   2.902   7.209  0.1157 -0.1344  0.3717
 2465SOL    HW118857   4.437   2.824   7.262 -1.3962 -1.4240 -1.9366
 2465SOL    HW218858   4.543   2.907   7.183  0.4575 -1.2089  1.3907
 2466SOL     OW18859   0.293   2.894   1.265  0.1527 -0.3599  0.2269
 2466SOL    HW118860   0.240   2.959   1.219 -0.0841 -2.3441 -2.3092
 2466SOL    HW218861   0.374   2.895   1.215 -0.2994  2.4658 -0.4249
 2467SOL     OW18862   4.203   4.528   5.284  0.0237 -0.4178  0.2445
 2467SOL    HW118863   4.149   4.508   5.208  0.5058  0.9916 -0.4753
 2467SOL    HW218864   4.292   4.511   5.250  0.9180  1.0066  1.9105
 2468SOL     OW18865   3.398   2.286   5.845  0.0938 -0.0799 -0.6594
 2468SOL    HW118866   3.326   2.310   5.902 -0.9992  4.0345 -3.8481
 2468SOL    HW218867   3.343   2.263   5.770 -0.3660  0.0415 -0.3547
 2469SOL     OW18868   3.760   0.815   5.937  0.0514  0.3080 -0.4046
 2469SOL    HW118869   3.801   0.894   5.974  1.4316 -0.6206  0.0456
 2469SOL    HW218870   3.696   0.799   6.007  0.0769 -0.5610 -0.5840
 2470SOL     OW18871   0.434   1.512   8.783 -0.1703 -0.0078  0.2507
 2470SOL    HW118872   0.458   1.604   8.778 -1.7459  0.3451 -0.8168
 2470SOL    HW218873   0.525   1.482   8.783 -0.0222  0.4264 -0.4492
 2471SOL     OW18874   3.063   3.343  17.618 -0.4756  0.1181  0.1281
 2471SOL    HW118875   3.055   3.436  17.598 -0.2682  0.4518  1.6162
 2471SOL    HW218876   3.031   3.338   0.017  1.1813  2.2823  0.8577
 2472SOL     OW18877   1.029   3.772   7.142  0.2732  0.6052  0.0763
 2472SOL    HW118878   1.104   3.717   7.119 -0.1573 -0.2565  0.7135
 2472SOL    HW218879   1.021   3.814   7.057  0.0575 -0.8701 -0.6345
 2473SOL     OW18880   3.011   2.694   7.965  0.1361 -0.0626 -0.7189
 2473SOL    HW118881   3.002   2.712   8.059 -0.9300  1.4756 -1.1164
 2473SOL    HW218882   3.102   2.664   7.968  0.0493 -0.1793  0.7406
 2474SOL     OW18883   2.804   3.544   7.871 -0.3916  0.3299 -0.2291
 2474SOL    HW118884   2.834   3.504   7.789  0.5429  0.8126 -0.1199
 2474SOL    HW218885   2.729   3.598   7.848  0.4964  3.0760  3.3457
 2475SOL     OW18886   2.161   4.543  14.219 -0.0836  0.0230 -0.4391
 2475SOL    HW118887   2.187   4.460  14.177 -0.4270 -0.1677 -0.2731
 2475SOL    HW218888   2.102   4.586  14.158  0.5125  0.6075 -0.6005
 2476SOL     OW18889   0.732   1.702   9.923  0.2715 -0.1316  0.2329
 2476SOL    HW118890   0.688   1.785   9.907 -0.6907 -0.2643  2.1736
 2476SOL    HW218891   0.825   1.719   9.938  0.4223 -0.8475  0.1529
 2477SOL     OW18892   0.091   0.810   7.589  0.7551  0.2404  0.6497
 2477SOL    HW118893   0.122   0.721   7.570  0.6226  0.7487 -1.9448
 2477SOL    HW218894   0.180   0.836   7.567  0.4770  0.0577 -0.7291
 2478SOL     OW18895   3.835   4.717  16.213 -0.3724  0.0484 -0.3259
 2478SOL    HW118896   3.830   4.627  16.246  1.5278 -1.2988 -3.7734
 2478SOL    HW218897   3.906   0.044  16.255 -0.4734  1.1996 -1.5120
 2479SOL     OW18898   0.335   0.956   6.665 -0.2945  1.0519 -0.1493
 2479SOL    HW118899   0.254   0.951   6.716  0.8570  2.7670  1.8252
 2479SOL    HW218900   0.315   0.904   6.587 -1.5811  0.3996  0.6253
 2480SOL     OW18901   2.064   2.068   8.634  0.0772 -0.1418 -0.1335
 2480SOL    HW118902   2.009   2.140   8.602 -1.4124 -1.1438  0.1565
 2480SOL    HW218903   2.128   2.053   8.564  0.9405 -1.1921  0.8922
 2481SOL     OW18904   3.330   0.822  12.215 -0.3219 -1.1199  0.0003
 2481SOL    HW118905   3.326   0.917  12.210 -2.9632 -1.3523 -1.8963
 2481SOL    HW218906   3.246   0.790  12.185 -1.7325  0.8876  1.8237
 2482SOL     OW18907   1.606   0.857   4.523  0.3605  0.0208  0.6466
 2482SOL    HW118908   1.684   0.812   4.559  0.5946 -0.1030 -0.0124
 2482SOL    HW218909   1.544   0.784   4.530 -1.2269  1.1841 -1.8016
 2483SOL     OW18910   4.586   2.399   3.485 -0.0675  0.4687 -0.2442
 2483SOL    HW118911   4.509   2.399   3.541 -1.0664 -1.0891 -1.6147
 2483SOL    HW218912   4.653   2.421   3.550  0.2770 -3.4218  0.7498
 2484SOL     OW18913   2.355   0.341  15.780 -0.2553  0.1086 -0.2822
 2484SOL    HW118914   2.322   0.388  15.703 -3.6664  0.0181  1.1005
 2484SOL    HW218915   2.444   0.375  15.780  0.1967 -1.1566  2.1830
 2485SOL     OW18916   2.892   0.596   6.174 -0.4383 -0.0920 -0.7686
 2485SOL    HW118917   2.832   0.547   6.118 -1.1262 -1.3324  1.0957
 2485SOL    HW218918   2.948   0.534   6.220 -0.0402  0.6796 -0.2053
 2486SOL     OW18919   3.436   4.309  14.096 -0.6938  0.3928 -0.3227
 2486SOL    HW118920   3.445   4.286  14.188  0.8649  0.4524 -0.4583
 2486SOL    HW218921   3.513   4.264  14.061 -0.0457  0.8670  0.5172
 2487SOL     OW18922   3.158   0.481   3.350  0.2815 -0.4244 -0.3717
 2487SOL    HW118923   3.066   0.462   3.367  0.1762  2.2272  1.9171
 2487SOL    HW218924   3.167   0.502   3.257 -2.1374  0.6199 -0.3479
 2488SOL     OW18925   0.749   4.247   4.920  0.0607  0.2079  0.1571
 2488SOL    HW118926   0.744   4.266   4.826  1.1149 -2.2598 -0.3986
 2488SOL    HW218927   0.820   4.307   4.942  0.5087  0.1149 -1.0120
 2489SOL     OW18928   2.741   1.613   2.935 -0.6373 -0.1659  0.1905
 2489SOL    HW118929   2.749   1.553   2.860  1.3645  0.6878 -0.2548
 2489SOL    HW218930   2.798   1.682   2.902  0.3990 -0.7451  0.7720
 2490SOL     OW18931   3.327   1.571   9.770 -0.0759  0.1863  0.2562
 2490SOL    HW118932   3.298   1.499   9.826 -2.1007 -0.5106 -1.6886
 2490SOL    HW218933   3.373   1.516   9.707  0.0133 -1.3489  1.6502
 2491SOL     OW18934   2.432   1.543   3.219 -0.0761  0.5727 -0.2241
 2491SOL    HW118935   2.461   1.605   3.152  1.7010 -1.8263 -1.6844
 2491SOL    HW218936   2.336   1.549   3.212 -0.1253 -0.5343 -0.4872
 2492SOL     OW18937   2.031   3.830   9.011  0.0742 -0.6205  0.2509
 2492SOL    HW118938   2.051   3.790   9.095  0.6774  1.9992  1.3403
 2492SOL    HW218939   2.102   3.797   8.955  0.5720  1.1905 -0.1964
 2493SOL     OW18940   3.524   0.985   0.876 -0.6542  0.2807  0.1355
 2493SOL    HW118941   3.558   0.896   0.868  0.2768  0.5993  0.5709
 2493SOL    HW218942   3.572   1.032   0.808 -0.8412  2.5006  1.5687
 2494SOL     OW18943   0.937   2.952   1.479  0.0156 -0.3265 -0.0657
 2494SOL    HW118944   0.982   3.027   1.519  0.5311 -1.2016  0.9775
 2494SOL    HW218945   0.954   2.978   1.388 -0.0172 -1.9127 -0.5259
 2495SOL     OW18946   3.029   0.585  13.308  0.1444 -0.5621 -0.1681
 2495SOL    HW118947   2.993   0.543  13.386 -0.6137  1.5417  0.6060
 2495SOL    HW218948   3.109   0.534  13.294  0.4030 -0.2941  0.3338
 2496SOL     OW18949   2.254   1.044   3.750  0.3753  0.1505  0.3773
 2496SOL    HW118950   2.306   1.120   3.776 -1.6871  1.6670  0.0185
 2496SOL    HW218951   2.165   1.068   3.773  0.3576  0.3406  0.1168
 2497SOL     OW18952   3.686   1.185   2.404  0.0739 -0.6122 -0.0034
 2497SOL    HW118953   3.711   1.142   2.486  2.4314 -1.6491 -1.2629
 2497SOL    HW218954   3.753   1.158   2.341 -0.1993  1.3620 -1.1587
 2498SOL     OW18955   3.268   3.611   4.298  0.4008 -0.2087 -0.3461
 2498SOL    HW118956   3.308   3.599   4.385 -1.8938  0.8858  0.8511
 2498SOL    HW218957   3.183   3.573   4.322  1.7574 -2.1915  1.3549
 2499SOL     OW18958   1.106   2.776  17.093  0.3391 -0.6129 -0.4545
 2499SOL    HW118959   1.085   2.852  17.149 -0.1043 -2.6539  2.1781
 2499SOL    HW218960   1.122   2.816  17.008 -0.3927  0.6635 -0.0121
 2500SOL     OW18961   3.303   0.731   1.072 -0.0213 -0.7745 -0.0828
 2500SOL    HW118962   3.354   0.673   1.016  0.9221 -0.1922  0.1767
 2500SOL    HW218963   3.345   0.719   1.157 -0.1567  0.8820  0.2149
 2501SOL     OW18964   1.633   0.549   3.171  0.4223  0.4987 -0.1890
 2501SOL    HW118965   1.701   0.586   3.115 -0.2703  2.0113 -0.0235
 2501SOL    HW218966   1.557   0.550   3.113  0.6586  0.6374 -0.4953
 2502SOL     OW18967   3.702   0.714  12.571 -0.3768 -0.4742 -0.1037
 2502SOL    HW118968   3.715   0.621  12.589  0.2459 -0.0755  1.5145
 2502SOL    HW218969   3.685   0.752  12.657 -0.2107 -0.8231  0.0786
 2503SOL     OW18970   4.126   4.320   5.673 -0.0091  0.7250 -0.0121
 2503SOL    HW118971   4.083   4.264   5.610 -0.9361 -1.1027  2.2555
 2503SOL    HW218972   4.117   4.405   5.630  1.4390  0.6019 -0.5652
 2504SOL     OW18973   4.072   2.752   4.056 -0.0948  0.2542  0.3109
 2504SOL    HW118974   4.037   2.838   4.031 -1.3028 -0.5344 -0.7145
 2504SOL    HW218975   3.990   2.703   4.044  0.0165  0.7286 -2.5609
 2505SOL     OW18976   3.862   2.336   0.350  0.1737 -0.4171  0.0533
 2505SOL    HW118977   3.771   2.337   0.379  0.4246  3.0302  0.7246
 2505SOL    HW218978   3.892   2.251   0.383 -1.4054 -1.0185 -0.0871
 2506SOL     OW18979   3.804   3.934   5.333  0.3345 -0.3563  0.2876
 2506SOL    HW118980   3.821   3.895   5.248  0.0876  0.9440 -0.3667
 2506SOL    HW218981   3.894   3.933   5.365  0.3308 -0.1842  0.3077
 2507SOL     OW18982   0.272   1.064   7.062 -0.0783  0.3591  0.2802
 2507SOL    HW118983   0.233   1.091   6.979  1.2958 -0.3710 -0.6005
 2507SOL    HW218984   0.218   0.985   7.073 -1.3168  1.0912 -0.5490
 2508SOL     OW18985   2.844   0.168   1.335  0.2999  0.0929  0.6348
 2508SOL    HW118986   2.754   0.147   1.358  0.1632 -0.3072 -0.2400
 2508SOL    HW218987   2.818   0.244   1.283  0.6092 -0.2891 -0.0890
 2509SOL     OW18988   3.231   1.481   0.077 -0.2628  0.3666 -0.7067
 2509SOL    HW118989   3.244   1.512  17.678 -1.1369 -0.5976 -1.1768
 2509SOL    HW218990   3.181   1.403   0.052  1.6546 -0.3591 -2.2928
 2510SOL     OW18991   1.614   2.097   2.322 -0.1954  0.1412  0.4091
 2510SOL    HW118992   1.624   2.002   2.314  0.5068  0.2801 -0.3187
 2510SOL    HW218993   1.519   2.108   2.334  0.1678  0.6484  2.7288
 2511SOL     OW18994   0.716   2.361   4.229 -0.3791 -0.8004 -0.2069
 2511SOL    HW118995   0.636   2.340   4.180  0.6035 -4.7638 -0.1171
 2511SOL    HW218996   0.712   2.456   4.220  2.8488 -0.6678 -0.2473
 2512SOL     OW18997   4.407   2.610   8.172 -0.2660  0.1689 -0.2258
 2512SOL    HW118998   4.452   2.694   8.164  1.4165 -0.7163 -0.2295
 2512SOL    HW218999   4.465   2.568   8.236 -0.8318 -0.0862  0.1168
 2513SOL     OW19000   0.708   3.315   0.329 -0.2614  0.0853  0.9384
 2513SOL    HW119001   0.616   3.303   0.304 -0.3188 -0.4195  1.3877
 2513SOL    HW219002   0.759   3.269   0.262 -1.0482  1.8545 -0.8803
 2514SOL     OW19003   1.741   2.494   2.242  0.5454  0.6812 -0.1783
 2514SOL    HW119004   1.791   2.419   2.273 -1.2054 -1.3664 -2.3056
 2514SOL    HW219005   1.767   2.512   2.152  1.4252 -0.3164 -0.1156
 2515SOL     OW19006   1.637   1.265  11.773 -0.5894 -0.0828  0.2716
 2515SOL    HW119007   1.670   1.332  11.714  1.5972 -0.2650  1.2808
 2515SOL    HW219008   1.716   1.217  11.799  0.6536  0.8034 -1.9294
 2516SOL     OW19009   2.495   0.222   7.718 -0.2618 -0.7206  1.1765
 2516SOL    HW119010   2.441   0.217   7.797  0.9933 -0.5701  2.0397
 2516SOL    HW219011   2.565   0.277   7.754  0.0055  0.5006 -1.2162
 2517SOL     OW19012   4.141   0.211   2.342 -0.1538  0.0181 -0.4248
 2517SOL    HW119013   4.083   0.156   2.395  2.3865 -2.0851  0.1487
 2517SOL    HW219014   4.083   0.227   2.268 -1.5006 -0.1511  0.5939
 2518SOL     OW19015   0.162   3.864   5.490 -0.1955 -0.3125 -0.0201
 2518SOL    HW119016   0.240   3.864   5.544 -1.0379 -0.2054  1.1887
 2518SOL    HW219017   0.142   3.957   5.500 -1.8581 -0.7803  0.9448
 2519SOL     OW19018   1.635   2.761   2.273  0.2200  0.1446 -0.6438
 2519SOL    HW119019   1.550   2.731   2.306 -0.1948  1.6838 -0.2785
 2519SOL    HW219020   1.684   2.682   2.253 -1.6110 -0.9348 -0.8970
 2520SOL     OW19021   0.571   4.710   4.326  0.0857 -0.3482 -0.2754
 2520SOL    HW119022   0.497   4.719   4.386  0.8520 -0.3175  0.6598
 2520SOL    HW219023   0.554   0.052   4.258 -1.9929 -1.3647 -0.7165
 2521SOL     OW19024   0.021   1.987   5.008  0.7669  0.3770 -0.1603
 2521SOL    HW119025   0.012   1.895   5.031 -2.1362  0.2464 -1.8660
 2521SOL    HW219026   0.109   2.016   5.032  0.4989  1.0330  0.0486
 2522SOL     OW19027   4.396   0.652   6.973 -0.3856 -0.7616  0.6628
 2522SOL    HW119028   4.301   0.648   6.961 -0.3494  0.8535 -0.2646
 2522SOL    HW219029   4.409   0.666   6.879 -2.5015 -1.5732  0.2538
 2523SOL     OW19030   0.802   4.226   6.688  0.0710  0.0170 -0.3088
 2523SOL    HW119031   0.886   4.181   6.675 -0.7986 -1.6519 -0.1476
 2523SOL    HW219032   0.833   4.291   6.751 -0.2266 -1.4254  1.3400
 2524SOL     OW19033   4.285   1.268   0.097 -0.5654  0.2467  0.0090
 2524SOL    HW119034   4.291   1.347   0.150 -1.1606 -0.6152  1.3369
 2524SOL    HW219035   4.294   1.294   0.005  0.1775  0.0472  0.0195
 2525SOL     OW19036   2.606   0.641   6.904  0.3145 -0.2543  0.8278
 2525SOL    HW119037   2.544   0.568   6.899  0.3773 -0.1035 -2.1044
 2525SOL    HW219038   2.597   0.660   6.998  0.5061  1.0455  0.5797
 2526SOL     OW19039   2.517   2.878   1.819  0.1643 -0.2371  0.3997
 2526SOL    HW119040   2.490   2.804   1.765  0.8601  0.2060 -0.5520
 2526SOL    HW219041   2.591   2.842   1.867  0.8993  1.2229  0.3663
 2527SOL     OW19042   0.208   4.272   1.308  0.2280 -0.2705 -0.0284
 2527SOL    HW119043   0.149   4.343   1.281 -0.5232 -0.5327  0.9063
 2527SOL    HW219044   0.265   4.315   1.371 -0.6906  0.8503  0.0488
 2528SOL     OW19045   4.103   1.420   6.693  0.5508 -0.5187 -0.2474
 2528SOL    HW119046   4.184   1.369   6.701 -0.2628 -1.9758 -1.2728
 2528SOL    HW219047   4.113   1.476   6.616 -0.1222  0.7194  0.5727
 2529SOL     OW19048   0.361   2.023   3.450  0.5904  0.1167 -0.2770
 2529SOL    HW119049   0.371   1.928   3.457 -0.7324 -0.2073 -2.8596
 2529SOL    HW219050   0.416   2.037   3.373 -0.0988  3.9373 -0.0554
 2530SOL     OW19051   4.272   0.835   0.744 -0.2316 -0.5501 -0.5913
 2530SOL    HW119052   4.306   0.869   0.662 -1.5872  2.2223 -0.0096
 2530SOL    HW219053   4.189   0.877   0.765 -0.3594 -1.0392 -0.1009
 2531SOL     OW19054   1.410   2.326   7.576  0.0479 -0.3214  0.1712
 2531SOL    HW119055   1.397   2.421   7.571 -1.1839 -0.5989 -2.0173
 2531SOL    HW219056   1.333   2.294   7.622 -0.2278  1.4821  0.9533
 2532SOL     OW19057   3.679   3.371   1.266 -0.0353  0.0578  0.1155
 2532SOL    HW119058   3.653   3.443   1.208  1.1303  1.6158  1.5035
 2532SOL    HW219059   3.639   3.302   1.213 -1.4571  0.7018  0.3402
 2533SOL     OW19060   4.534   2.411   5.145 -0.6943 -0.0060  0.1996
 2533SOL    HW119061   4.577   2.357   5.078  1.5179  0.3833  1.2990
 2533SOL    HW219062   4.533   2.353   5.222 -1.2283 -3.3297 -2.3148
 2534SOL     OW19063   2.293   1.142   8.253 -0.1499  0.6624 -0.1511
 2534SOL    HW119064   2.329   1.228   8.233  0.5378  0.5736  0.6843
 2534SOL    HW219065   2.211   1.166   8.295 -0.3321  1.0652 -0.7432
 2535SOL     OW19066   0.709   4.015   8.167 -0.1439  0.4992  0.7403
 2535SOL    HW119067   0.756   3.967   8.235  3.0139 -0.4678 -2.1104
 2535SOL    HW219068   0.712   3.951   8.096  0.2251  1.9026 -0.4993
 2536SOL     OW19069   3.755   4.483   7.398 -0.1081  0.0219 -0.0079
 2536SOL    HW119070   3.681   4.438   7.438 -2.2840  1.4434 -2.4284
 2536SOL    HW219071   3.820   4.469   7.466  2.3084  1.5154 -1.9954
 2537SOL     OW19072   3.534   2.203   1.313  0.0064 -0.0532 -0.0311
 2537SOL    HW119073   3.508   2.222   1.222  2.0966 -1.5967 -0.9297
 2537SOL    HW219074   3.597   2.272   1.332  2.1785 -2.1882  0.5429
 2538SOL     OW19075   2.134   2.216   3.108 -0.5663  0.0761 -0.0504
 2538SOL    HW119076   2.062   2.238   3.167  0.6091  1.2499  0.9441
 2538SOL    HW219077   2.098   2.243   3.024 -0.5801  1.8261  0.5201
 2539SOL     OW19078   1.017   1.207   4.741  0.5323 -0.7777  0.4013
 2539SOL    HW119079   1.067   1.239   4.666  0.4681 -1.7602 -0.0656
 2539SOL    HW219080   1.013   1.290   4.790  0.4071 -1.5189  1.6430
 2540SOL     OW19081   0.546   2.251   2.378  0.3610  0.2036 -0.1728
 2540SOL    HW119082   0.606   2.176   2.368  2.0128  1.5165 -0.1558
 2540SOL    HW219083   0.556   2.273   2.471 -4.9233 -0.2838  0.4698
 2541SOL     OW19084   0.519   1.010   2.661 -0.5814  0.1835  0.2615
 2541SOL    HW119085   0.520   1.065   2.739 -0.5267  3.2930 -1.9266
 2541SOL    HW219086   0.438   0.962   2.648 -1.2429  1.7967 -1.5356
 2542SOL     OW19087   0.544   0.312   2.324  0.1245  0.1179  0.3165
 2542SOL    HW119088   0.462   0.340   2.282 -0.0659 -1.3847 -0.2938
 2542SOL    HW219089   0.507   0.275   2.404  2.4254 -0.4161  1.1227
 2543SOL     OW19090   3.401   4.053   6.656  0.0080  0.3771 -0.4800
 2543SOL    HW119091   3.447   4.052   6.572  0.9352  0.6120  0.0320
 2543SOL    HW219092   3.328   3.992   6.646  0.8071 -0.3284 -1.9832
 2544SOL     OW19093   2.324   1.599   4.174  0.4821 -0.0081 -0.0840
 2544SOL    HW119094   2.233   1.577   4.154  0.5021  1.3049 -1.5691
 2544SOL    HW219095   2.373   1.538   4.119 -0.7448 -1.0013 -0.0790
 2545SOL     OW19096   0.946   4.340   7.611  0.2874  0.3440 -0.4947
 2545SOL    HW119097   1.041   4.345   7.595  0.7882  1.4579  2.8341
 2545SOL    HW219098   0.951   4.372   7.701  2.0013 -0.1732 -0.3953
 2546SOL     OW19099   3.724   4.524   2.991  0.0086  0.0987  0.4967
 2546SOL    HW119100   3.654   4.542   3.054 -1.5834 -1.1756 -0.9240
 2546SOL    HW219101   3.781   4.597   3.016 -0.1376  0.4066 -0.0688
 2547SOL     OW19102   2.561   1.315  11.161 -0.3456 -0.1557 -0.5604
 2547SOL    HW119103   2.499   1.279  11.225 -0.9360 -1.8381 -2.1013
 2547SOL    HW219104   2.636   1.333  11.217 -0.6508  0.6187 -0.3937
 2548SOL     OW19105   3.619   3.711  16.346 -0.0104 -0.3062 -0.5140
 2548SOL    HW119106   3.592   3.760  16.424  1.2954 -1.8551  0.9112
 2548SOL    HW219107   3.677   3.773  16.302  1.1829 -1.6206 -0.7946
 2549SOL     OW19108   0.241   2.781  11.330  0.2404 -0.0051 -0.0983
 2549SOL    HW119109   0.259   2.771  11.424  0.7667  1.8318 -0.0083
 2549SOL    HW219110   0.293   2.709  11.296 -0.4200  0.2373 -1.5980
 2550SOL     OW19111   4.068   0.872   3.873  0.6852  0.8634  0.0517
 2550SOL    HW119112   4.046   0.905   3.960 -1.8426  1.6707 -0.8924
 2550SOL    HW219113   3.974   0.870   3.851  0.9194  1.5156 -0.9762
 2551SOL     OW19114   4.123   1.061   9.646  0.2611 -0.2591  0.2944
 2551SOL    HW119115   4.078   0.980   9.669 -1.5534  0.3556 -1.0890
 2551SOL    HW219116   4.182   1.065   9.721 -1.8832  1.3758  1.8990
 2552SOL     OW19117   3.800   3.598  10.832 -0.6144 -1.0287  0.6498
 2552SOL    HW119118   3.738   3.548  10.777  0.2434 -0.7905 -0.5343
 2552SOL    HW219119   3.745   3.619  10.907 -1.2012  2.0693 -0.6475
 2553SOL     OW19120   2.628   1.970  15.284 -0.1428  0.0372  0.4078
 2553SOL    HW119121   2.541   1.977  15.322  0.1660 -1.8622  1.4675
 2553SOL    HW219122   2.680   2.032  15.335 -1.7866  1.2536  0.5988
 2554SOL     OW19123   3.879   2.883   5.031  0.4476 -0.1478 -0.3579
 2554SOL    HW119124   3.886   2.971   5.068  0.1152 -0.3577  0.2218
 2554SOL    HW219125   3.837   2.844   5.108  3.1889 -2.7868 -0.1911
 2555SOL     OW19126   3.247   1.799  11.448 -0.1540 -0.5110  0.1094
 2555SOL    HW119127   3.234   1.707  11.472  0.2276 -0.9720 -1.4501
 2555SOL    HW219128   3.331   1.830  11.481 -0.8486  0.0529  1.3778
 2556SOL     OW19129   2.085   0.631   8.638  0.5970 -0.3406 -0.2773
 2556SOL    HW119130   2.050   0.680   8.712  1.0075  1.9623 -1.6037
 2556SOL    HW219131   2.122   0.558   8.688  1.9902  2.3090  2.5058
 2557SOL     OW19132   0.518   3.752   2.894  0.1738  0.7202 -0.0008
 2557SOL    HW119133   0.469   3.673   2.917 -0.5203  1.5112  1.2060
 2557SOL    HW219134   0.453   3.820   2.879  2.1601  2.0090 -2.7998
 2558SOL     OW19135   3.112   0.736  12.088  0.1579  0.5471 -0.0753
 2558SOL    HW119136   3.075   0.772  12.007  1.9850 -0.6454 -1.4423
 2558SOL    HW219137   3.150   0.651  12.068 -0.5128  0.7482 -2.1740
 2559SOL     OW19138   2.843   0.452   4.594 -0.4133  0.2083 -0.4280
 2559SOL    HW119139   2.844   0.524   4.656 -0.8319  0.3220 -0.5527
 2559SOL    HW219140   2.936   0.447   4.573 -0.4953 -2.2620 -0.2578
 2560SOL     OW19141   1.600   2.519  11.449  0.1297  0.6051  0.0531
 2560SOL    HW119142   1.552   2.496  11.370  2.3398 -1.6600 -0.6291
 2560SOL    HW219143   1.558   2.468  11.519  0.1243 -0.1112 -0.4663
 2561SOL     OW19144   2.906   3.198   6.176  0.1989 -0.4200  0.2679
 2561SOL    HW119145   2.965   3.270   6.154  0.5922 -1.4137 -1.8995
 2561SOL    HW219146   2.891   3.225   6.266  2.2761 -0.0562  0.5063
 2562SOL     OW19147   1.581   4.252  15.490  0.2414 -0.4758 -0.3268
 2562SOL    HW119148   1.511   4.238  15.426  0.3344 -0.6888 -0.3830
 2562SOL    HW219149   1.572   4.347  15.489 -3.3515 -0.7377  2.9393
 2563SOL     OW19150   1.408   0.814   5.176 -0.3690 -0.3483  0.4010
 2563SOL    HW119151   1.463   0.805   5.253 -1.1242 -1.2194  0.8491
 2563SOL    HW219152   1.408   0.725   5.141 -0.2915 -0.6382  1.1330
 2564SOL     OW19153   1.393   4.105   2.972 -0.2566 -0.2228 -0.1932
 2564SOL    HW119154   1.308   4.125   2.932  0.4851 -0.1261 -1.7333
 2564SOL    HW219155   1.375   4.118   3.065  0.1526  0.0108 -0.1456
 2565SOL     OW19156   1.219   1.280   6.661  0.0436 -0.1393  0.6502
 2565SOL    HW119157   1.223   1.184   6.666 -0.9390 -0.1925  0.4229
 2565SOL    HW219158   1.146   1.298   6.603  1.0739  0.1141 -0.5574
 2566SOL     OW19159   0.287   3.302  12.622 -0.1041 -0.3145 -0.0879
 2566SOL    HW119160   0.345   3.378  12.613 -2.4645  1.7506  2.3808
 2566SOL    HW219161   0.204   3.343  12.645 -0.0716 -0.8692  1.0407
 2567SOL     OW19162   0.048   0.016  15.553 -0.6063  0.5316 -0.8889
 2567SOL    HW119163   0.002   0.080  15.607  0.1829  3.3594 -3.5715
 2567SOL    HW219164   0.124   0.070  15.534  0.3790 -0.5658 -0.0317
 2568SOL     OW19165   2.586   3.376   9.312 -0.1160 -0.1594 -0.2812
 2568SOL    HW119166   2.587   3.289   9.271 -3.4307 -0.2797 -0.0991
 2568SOL    HW219167   2.590   3.356   9.406  2.5754  3.0783  0.2815
 2569SOL     OW19168   1.118   1.940   2.406  0.3575  0.4713  0.7265
 2569SOL    HW119169   1.166   1.882   2.346 -2.9367 -1.6636  0.1531
 2569SOL    HW219170   1.151   2.029   2.411  1.3461  0.2113 -0.8520
 2570SOL     OW19171   2.406   4.474   8.362 -0.3814 -0.2693 -0.1294
 2570SOL    HW119172   2.356   4.392   8.360 -2.3608  0.9509 -0.7027
 2570SOL    HW219173   2.491   4.451   8.401 -0.2242 -0.6347 -0.6905
 2571SOL     OW19174   1.059   1.991   4.694 -0.5834 -0.5358 -0.1963
 2571SOL    HW119175   1.051   1.901   4.663 -4.0345 -0.3926  0.3137
 2571SOL    HW219176   1.116   1.984   4.770 -1.5106 -0.1198  0.5326
 2572SOL     OW19177   1.596   3.496   9.818  0.3771  0.0574  0.0133
 2572SOL    HW119178   1.526   3.432   9.808  0.2704  0.0026  1.1097
 2572SOL    HW219179   1.553   3.544   9.889 -1.1197  2.4189 -2.4394
 2573SOL     OW19180   3.296   1.837  13.303 -0.0903 -0.4460 -0.3855
 2573SOL    HW119181   3.274   1.900  13.235 -1.1554  0.1107  0.4661
 2573SOL    HW219182   3.321   1.767  13.242 -0.1018 -0.9811  0.2181
 2574SOL     OW19183   3.555   3.095   6.023 -0.1158  0.1376  0.1856
 2574SOL    HW119184   3.516   3.049   5.950 -0.9026  0.6256  0.2986
 2574SOL    HW219185   3.636   3.130   5.985  1.2574 -0.4411  2.5740
 2575SOL     OW19186   2.722   1.205  12.849 -0.5685 -0.4213  0.4157
 2575SOL    HW119187   2.685   1.132  12.899 -1.1107 -1.2720 -1.2440
 2575SOL    HW219188   2.711   1.172  12.760  0.6273 -0.2220  0.1932
 2576SOL     OW19189   3.267   4.300   8.332  0.2589 -0.5105  0.1254
 2576SOL    HW119190   3.361   4.297   8.313  0.2271 -0.5212 -0.0295
 2576SOL    HW219191   3.264   4.227   8.395 -0.4384  1.4292  2.3163
 2577SOL     OW19192   1.679   3.163  14.850 -0.1163 -0.5192  0.0466
 2577SOL    HW119193   1.772   3.151  14.829  0.4830  0.0625  2.4293
 2577SOL    HW219194   1.681   3.239  14.909  1.6439 -0.3896 -0.1864
 2578SOL     OW19195   0.502   1.953  12.496 -0.2231  0.1918  0.1312
 2578SOL    HW119196   0.522   2.033  12.546 -0.7960  0.4063  0.0118
 2578SOL    HW219197   0.593   1.937  12.473 -0.5347 -1.7003  0.1733
 2579SOL     OW19198   2.759   0.254   8.286 -0.0149 -0.1581  0.1578
 2579SOL    HW119199   2.800   0.340   8.281 -0.6897  0.1161 -0.5061
 2579SOL    HW219200   2.723   0.257   8.375 -0.4741  1.8380 -0.1074
 2580SOL     OW19201   0.226   2.896   8.602 -0.2183 -0.5015 -0.7484
 2580SOL    HW119202   0.188   2.982   8.621  1.8423  0.4355 -0.8504
 2580SOL    HW219203   0.312   2.929   8.575 -0.8462  0.1799 -1.9270
 2581SOL     OW19204   2.328   3.163  16.532 -0.2034 -0.1234 -0.1887
 2581SOL    HW119205   2.372   3.153  16.617  0.6222  0.1594 -0.5764
 2581SOL    HW219206   2.408   3.142  16.482 -0.0681 -2.3587  0.9380
 2582SOL     OW19207   2.514   1.603   3.879 -0.0123 -0.0045  0.2217
 2582SOL    HW119208   2.596   1.629   3.837 -0.3077 -0.4864 -0.6640
 2582SOL    HW219209   2.461   1.682   3.888  0.1638  0.1177  0.1971
 2583SOL     OW19210   1.279   2.174   8.842 -0.2103 -0.6052 -0.4425
 2583SOL    HW119211   1.188   2.205   8.838  0.0226  0.0351 -0.9537
 2583SOL    HW219212   1.281   2.128   8.758  0.6329  2.7126 -2.2702
 2584SOL     OW19213   3.485   2.928   4.333  0.4484  0.8627  1.0270
 2584SOL    HW119214   3.418   2.911   4.266 -0.0946  3.1510  0.9523
 2584SOL    HW219215   3.500   2.837   4.355 -1.2884  0.4451  0.5094
 2585SOL     OW19216   0.365   3.071   1.510  0.2712 -0.6651 -0.0794
 2585SOL    HW119217   0.326   3.013   1.445  0.5963 -1.3377  0.3334
 2585SOL    HW219218   0.354   3.015   1.587 -1.2587  1.1268  1.0159
 2586SOL     OW19219   4.214   1.814   6.094 -0.3694 -0.2894  0.2029
 2586SOL    HW119220   4.245   1.900   6.069 -0.4965 -0.2082  0.3191
 2586SOL    HW219221   4.150   1.789   6.028  0.9478  0.9331 -1.5130
 2587SOL     OW19222   4.221   4.382   8.449  0.3559  0.7697 -0.3697
 2587SOL    HW119223   4.160   4.455   8.456 -0.7281 -0.1224 -0.4948
 2587SOL    HW219224   4.308   4.419   8.463  0.7720 -0.6743  0.8075
 2588SOL     OW19225   0.332   1.097   7.660  0.1486  0.0952 -0.0088
 2588SOL    HW119226   0.296   1.164   7.602 -0.6845 -0.6322 -0.3330
 2588SOL    HW219227   0.327   1.018   7.606 -1.4224 -0.1877  0.5434
 2589SOL     OW19228   2.676   2.411  11.987 -0.2812  0.0048 -0.4317
 2589SOL    HW119229   2.595   2.452  12.017 -1.8581 -1.0885 -3.1645
 2589SOL    HW219230   2.646   2.321  11.974  0.4758 -0.1188 -1.3646
 2590SOL     OW19231   0.496   1.305   5.334 -0.2236 -0.3958 -0.1561
 2590SOL    HW119232   0.496   1.230   5.394  0.1771  0.3826  0.8141
 2590SOL    HW219233   0.439   1.369   5.377  0.8525  0.6803 -0.3388
 2591SOL     OW19234   3.370   3.537   0.087  0.2697 -0.1442 -0.2694
 2591SOL    HW119235   3.381   3.587   0.006  1.0537  2.2746  1.3402
 2591SOL    HW219236   3.280   3.557   0.111  0.3826 -0.3639  0.3474
 2592SOL     OW19237   4.218   2.850   2.835 -0.8450  1.2623  0.6003
 2592SOL    HW119238   4.224   2.759   2.866  1.9136  0.7260 -1.5433
 2592SOL    HW219239   4.273   2.839   2.757  0.5496 -0.6217  1.8156
 2593SOL     OW19240   2.560   1.766   6.760 -0.5631 -0.1303 -0.2224
 2593SOL    HW119241   2.628   1.825   6.728 -0.4172 -0.5041 -0.6077
 2593SOL    HW219242   2.597   1.744   6.846 -0.7836  0.0979 -0.0731
 2594SOL     OW19243   1.791   2.096   6.589  0.0137 -0.4376 -0.0664
 2594SOL    HW119244   1.834   2.014   6.614  1.2197  1.1542  2.9826
 2594SOL    HW219245   1.787   2.145   6.671 -0.6260  1.8079 -1.4390
 2595SOL     OW19246   2.187   2.567   6.077  0.1550 -0.2165  0.0274
 2595SOL    HW119247   2.136   2.496   6.039  0.0831  1.2752 -2.6190
 2595SOL    HW219248   2.196   2.630   6.006 -1.3119 -0.7273 -0.6064
 2596SOL     OW19249   0.603   0.984   6.820  0.1271 -0.0282  0.2634
 2596SOL    HW119250   0.608   0.892   6.846  0.4410 -0.2277 -0.4892
 2596SOL    HW219251   0.517   0.977   6.779  0.3057 -0.7412  0.0096
 2597SOL     OW19252   0.172   3.575   6.634  0.4407  0.1295  0.1857
 2597SOL    HW119253   0.089   3.590   6.589  1.2638 -0.5972 -1.5774
 2597SOL    HW219254   0.155   3.588   6.727  1.6721  0.2690  0.3892
 2598SOL     OW19255   3.895   3.773  16.511  0.2930 -0.2404  0.1861
 2598SOL    HW119256   3.850   3.831  16.572  3.0112  0.4977  1.5256
 2598SOL    HW219257   3.987   3.786  16.534  0.0168 -0.3047  1.3272
 2599SOL     OW19258   2.627   3.583   4.658 -0.0449  0.4990  0.0716
 2599SOL    HW119259   2.618   3.672   4.692  1.2621  0.9559 -0.7744
 2599SOL    HW219260   2.590   3.588   4.570  1.3644  1.5937 -0.4677
 2600SOL     OW19261   1.770   3.735   5.624 -0.1432 -0.3517  0.3317
 2600SOL    HW119262   1.733   3.807   5.574  0.2546 -1.2342 -1.2529
 2600SOL    HW219263   1.824   3.706   5.550 -1.4924 -2.1415  0.0532
 2601SOL     OW19264   1.949   0.225   9.086 -0.1670  0.5107 -0.1085
 2601SOL    HW119265   1.904   0.143   9.108  1.3077 -0.1391  0.5190
 2601SOL    HW219266   1.931   0.285   9.158  2.4315  1.8451 -0.5915
 2602SOL     OW19267   2.073   1.036   6.693  0.5509  0.8249  0.1556
 2602SOL    HW119268   2.001   0.974   6.698  1.5470 -0.5076 -2.5742
 2602SOL    HW219269   2.031   1.087   6.625 -0.5218 -1.6128 -0.9783
 2603SOL     OW19270   4.701   1.610   3.073 -0.5978 -0.0743  0.2051
 2603SOL    HW119271   0.038   1.604   3.148 -1.8590 -2.1534  1.0473
 2603SOL    HW219272   4.722   1.699   3.046 -0.0709 -0.4313 -0.5696
 2604SOL     OW19273   2.461   1.010   0.582 -0.3760 -0.3900 -0.6227
 2604SOL    HW119274   2.546   1.053   0.582 -0.5911 -0.0056  3.1230
 2604SOL    HW219275   2.412   1.076   0.533  0.5491  0.6621 -0.1255
 2605SOL     OW19276   1.696   0.462  14.621  0.1827  0.0500 -0.7369
 2605SOL    HW119277   1.631   0.532  14.620  0.8040  0.5568 -4.5641
 2605SOL    HW219278   1.686   0.421  14.707  1.8050  0.1317 -0.5062
 2606SOL     OW19279   1.604   0.382   1.344 -0.0840  0.1883  0.2820
 2606SOL    HW119280   1.669   0.313   1.334 -0.1803  0.0688  0.4887
 2606SOL    HW219281   1.561   0.370   1.259 -1.5120  1.2234  0.8522
 2607SOL     OW19282   0.066   0.463   3.561 -0.0014  0.1436 -0.3855
 2607SOL    HW119283   0.123   0.388   3.578 -0.2388 -0.2573 -1.3951
 2607SOL    HW219284   4.702   0.421   3.561  0.7024 -1.2122 -3.4692
 2608SOL     OW19285   1.940   3.123   7.059  0.3396 -0.8657 -0.0485
 2608SOL    HW119286   1.956   3.210   7.096 -0.8825 -0.4893 -0.3990
 2608SOL    HW219287   2.006   3.117   6.990 -3.5547  2.1575 -4.0995
 2609SOL     OW19288   2.250   2.418   7.677 -0.0681  0.7778  0.1987
 2609SOL    HW119289   2.248   2.487   7.744 -0.1145 -0.5040  1.5208
 2609SOL    HW219290   2.293   2.461   7.604 -0.6683  0.6131 -0.2502
 2610SOL     OW19291   3.920   2.856   8.876 -0.4946 -0.3559 -0.2992
 2610SOL    HW119292   3.947   2.934   8.924  0.4189 -1.1190  0.4064
 2610SOL    HW219293   3.828   2.845   8.902 -0.3639 -0.4375  0.1238
 2611SOL     OW19294   0.027   0.318   2.347  0.5007 -0.1042  0.2114
 2611SOL    HW119295   0.012   0.315   2.441  1.5360  0.3761  0.3989
 2611SOL    HW219296   0.042   0.413   2.346 -0.2820  0.0102 -0.4267
 2612SOL     OW19297   1.228   0.444   0.197  0.4309 -0.2329  0.2533
 2612SOL    HW119298   1.288   0.370   0.210 -0.9289 -1.5747 -1.1165
 2612SOL    HW219299   1.285   0.489   0.135  0.4706  0.8651  1.1021
 2613SOL     OW19300   2.983   4.045   5.063  0.2703  0.1273 -0.5429
 2613SOL    HW119301   3.044   4.011   5.128  0.1369 -1.1909 -1.0923
 2613SOL    HW219302   2.965   4.134   5.093 -1.1621 -0.2228 -0.3639
 2614SOL     OW19303   2.159   1.348  11.160  0.3463 -0.3486  0.4007
 2614SOL    HW119304   2.227   1.332  11.094  0.9841 -1.7315  1.3981
 2614SOL    HW219305   2.082   1.361  11.105  1.0409 -0.2135 -0.5531
 2615SOL     OW19306   1.377   2.025   4.756 -0.3921 -0.6420 -0.7082
 2615SOL    HW119307   1.337   1.967   4.692 -3.0345 -1.4830  1.7032
 2615SOL    HW219308   1.298   2.059   4.798 -0.3096 -0.6878 -0.5108
 2616SOL     OW19309   2.457   1.884   7.912 -0.6724  0.0552  0.0177
 2616SOL    HW119310   2.376   1.931   7.891 -1.0454  0.4372  2.2741
 2616SOL    HW219311   2.438   1.849   7.999  0.0215 -1.4417 -0.4364
 2617SOL     OW19312   0.251   3.489   5.478 -0.2872  0.1642 -0.0035
 2617SOL    HW119313   0.280   3.414   5.530 -2.8715 -0.3639  0.6745
 2617SOL    HW219314   0.295   3.560   5.525 -1.2492  0.6229  0.2028
 2618SOL     OW19315   1.600   1.348  16.489  0.2768  0.3821  0.2406
 2618SOL    HW119316   1.538   1.416  16.514  1.4554  2.3803 -2.2805
 2618SOL    HW219317   1.591   1.354  16.394 -0.0640  0.9157  0.3096
 2619SOL     OW19318   3.760   1.444   2.761 -0.0507  0.5249  0.4411
 2619SOL    HW119319   3.849   1.411   2.746 -0.2611 -0.4134  1.2473
 2619SOL    HW219320   3.721   1.364   2.797 -1.4824  0.9101 -0.2627
 2620SOL     OW19321   4.016   2.348   5.647  0.2884 -0.8759 -0.7118
 2620SOL    HW119322   3.965   2.370   5.569 -1.5268  0.1127  0.7667
 2620SOL    HW219323   4.095   2.401   5.630 -0.6071  0.8584  0.5337
 2621SOL     OW19324   4.676   2.665   1.951 -0.1221 -0.2208 -0.4558
 2621SOL    HW119325   4.610   2.659   2.020 -0.7841 -1.4635 -1.1845
 2621SOL    HW219326   4.638   2.739   1.904 -1.8767 -1.0981 -0.4314
 2622SOL     OW19327   3.398   4.711   2.919 -0.0230 -0.0682  0.3645
 2622SOL    HW119328   3.397   0.079   2.886 -1.7715 -0.3467 -0.3492
 2622SOL    HW219329   3.443   4.663   2.849 -0.4356  1.2235 -0.7931
 2623SOL     OW19330   1.818   1.124  17.276 -0.3026  0.3144 -0.3139
 2623SOL    HW119331   1.872   1.151  17.351 -3.0040  1.8283  1.1118
 2623SOL    HW219332   1.736   1.154  17.314  0.1545  1.7916 -0.5158
 2624SOL     OW19333   4.605   4.333   9.526  0.2939 -0.3761  0.0549
 2624SOL    HW119334   4.547   4.405   9.502  0.6946 -0.5404 -1.3931
 2624SOL    HW219335   4.562   4.312   9.609 -0.8115 -1.2275 -0.7330
 2625SOL     OW19336   2.328   1.636   7.776 -0.4099 -0.1968  0.4008
 2625SOL    HW119337   2.272   1.671   7.707  1.1765 -0.0165 -0.7991
 2625SOL    HW219338   2.379   1.714   7.798 -0.9758  0.4314 -0.5538
 2626SOL     OW19339   4.490   2.769   1.171 -0.1854  0.0017  0.2579
 2626SOL    HW119340   4.571   2.754   1.219 -0.7040  0.1485  1.1983
 2626SOL    HW219341   4.460   2.858   1.192  2.7495  1.5163 -2.0334
 2627SOL     OW19342   1.434   0.953   8.471  0.7051  1.0741 -0.2083
 2627SOL    HW119343   1.421   0.934   8.564 -0.4744 -0.4276 -0.6782
 2627SOL    HW219344   1.361   0.904   8.433 -0.0405  0.2847  2.2047
 2628SOL     OW19345   2.955   0.933   8.770 -0.3694 -0.0351  0.3982
 2628SOL    HW119346   3.008   0.969   8.699  0.3400 -1.0694  0.3978
 2628SOL    HW219347   2.949   0.998   8.840  3.4794 -0.1732  0.8485
 2629SOL     OW19348   2.864   3.150   7.848  0.1510 -0.2239 -0.1919
 2629SOL    HW119349   2.816   3.129   7.768 -1.6883 -0.4679  0.9676
 2629SOL    HW219350   2.825   3.232   7.880 -2.4839 -1.9316  0.9530
 2630SOL     OW19351   3.397   3.456   4.514 -0.4256 -0.0198 -0.2146
 2630SOL    HW119352   3.419   3.405   4.436  1.6774 -0.5881  0.7388
 2630SOL    HW219353   3.465   3.423   4.573  1.6301  0.5214 -2.2834
 2631SOL     OW19354   4.011   1.871   7.515 -0.1072 -0.2272  0.2414
 2631SOL    HW119355   4.067   1.901   7.444  0.2059 -0.4292  0.4055
 2631SOL    HW219356   4.078   1.878   7.583  0.6898  1.7320 -0.7373
 2632SOL     OW19357   0.442   1.847   6.107  0.1873 -0.7888  0.2731
 2632SOL    HW119358   0.470   1.802   6.187  0.5908 -1.2282 -0.1223
 2632SOL    HW219359   0.373   1.788   6.078 -0.3450 -0.8739  1.6809
 2633SOL     OW19360   1.226   0.105   6.211  0.0000  0.1720  0.1006
 2633SOL    HW119361   1.308   0.059   6.193 -0.7198 -0.6306 -1.1169
 2633SOL    HW219362   1.177   0.030   6.245 -0.2851 -0.6624 -2.1638
 2634SOL     OW19363   4.587   0.244   3.526 -0.0304 -0.1146  0.8379
 2634SOL    HW119364   4.605   0.151   3.513 -2.1014 -0.5503  1.0140
 2634SOL    HW219365   4.498   0.256   3.493  0.3345  2.3959  0.7887
 2635SOL     OW19366   1.190   1.821   3.881  0.6060  0.6685 -0.7351
 2635SOL    HW119367   1.255   1.834   3.950 -1.1392  2.3285  0.5978
 2635SOL    HW219368   1.172   1.915   3.870 -1.3966  0.3652  0.0251
 2636SOL     OW19369   0.481   1.975  16.720  0.1762 -0.6828 -0.6740
 2636SOL    HW119370   0.455   2.008  16.806  2.3602  2.6352 -1.2686
 2636SOL    HW219371   0.577   1.980  16.722 -0.0163  2.6248  0.4726
 2637SOL     OW19372   1.923   1.040   9.444 -0.2634  0.0612  0.3884
 2637SOL    HW119373   1.883   0.953   9.436  1.4494 -0.8742  1.9989
 2637SOL    HW219374   1.850   1.094   9.475  0.8863  2.4843 -1.0899
 2638SOL     OW19375   3.751   3.281  12.995 -0.1612 -0.0410  0.5841
 2638SOL    HW119376   3.798   3.364  12.988  0.8555 -0.6505  0.2764
 2638SOL    HW219377   3.689   3.278  12.922 -0.1000  1.5011  0.4651
 2639SOL     OW19378   1.167   1.016   6.808  0.2804  0.0282  0.2343
 2639SOL    HW119379   1.134   0.930   6.780  0.3271 -0.1292  0.6612
 2639SOL    HW219380   1.239   0.988   6.864 -0.0664  0.9123  1.1117
 2640SOL     OW19381   2.115   0.020   3.051 -0.4653  0.3846  0.0051
 2640SOL    HW119382   2.048   0.044   3.115 -0.3479  0.8708 -0.0564
 2640SOL    HW219383   2.093   0.090   2.990  0.6014 -0.2127 -1.0585
 2641SOL     OW19384   4.522   2.219   5.359 -0.0397  0.0991  0.1900
 2641SOL    HW119385   4.466   2.207   5.436  0.7827  0.7813  0.8907
 2641SOL    HW219386   4.482   2.153   5.302  0.9442 -0.1245 -0.2255
 2642SOL     OW19387   3.541   0.695   5.281 -0.3754 -0.0954 -0.8409
 2642SOL    HW119388   3.626   0.670   5.318  0.2360  1.7897 -0.9550
 2642SOL    HW219389   3.488   0.625   5.319 -0.2470  0.0483 -0.3902
 2643SOL     OW19390   4.318   0.353  14.237 -0.1142 -0.0194 -0.4301
 2643SOL    HW119391   4.312   0.408  14.159  0.6685 -1.0703 -1.2266
 2643SOL    HW219392   4.409   0.324  14.233 -0.1701 -0.0567 -1.4333
 2644SOL     OW19393   0.401   0.320   3.248 -0.0010  0.3148 -0.0800
 2644SOL    HW119394   0.333   0.293   3.309  1.9842 -0.0958  1.9503
 2644SOL    HW219395   0.422   0.237   3.205 -1.0572 -0.6624  1.2881
 2645SOL     OW19396   3.352   3.472   3.628 -0.4026 -0.2490  0.4389
 2645SOL    HW119397   3.335   3.431   3.543 -0.7932 -1.7067  1.2234
 2645SOL    HW219398   3.288   3.543   3.628  0.0794  0.1902 -0.5944
 2646SOL     OW19399   4.701   0.350  12.905 -0.6401  0.0064  0.3031
 2646SOL    HW119400   4.635   0.295  12.948  1.0824  0.0792  3.0244
 2646SOL    HW219401   4.693   0.421  12.968  1.4756  2.0274 -1.7619
 2647SOL     OW19402   2.928   1.781  14.680 -0.0325 -0.0701 -0.0662
 2647SOL    HW119403   2.964   1.734  14.605  0.3745  0.3299 -0.1206
 2647SOL    HW219404   2.869   1.840  14.634 -0.4278 -1.7059 -1.6785
 2648SOL     OW19405   3.951   3.511  16.444  0.2754  0.1247 -0.4961
 2648SOL    HW119406   3.930   3.596  16.483  0.2750  0.3451 -0.9673
 2648SOL    HW219407   3.873   3.501  16.389 -0.0251  1.7156 -0.3636
 2649SOL     OW19408   1.390   4.221  12.134 -0.0425 -0.1721  0.2336
 2649SOL    HW119409   1.334   4.159  12.088  0.5514 -1.2385  0.9436
 2649SOL    HW219410   1.397   4.282  12.060  0.1773 -1.1331 -0.5321
 2650SOL     OW19411   1.381   0.368   3.263  0.3433 -0.2145  0.0347
 2650SOL    HW119412   1.311   0.307   3.242 -1.1860  1.4246  0.3903
 2650SOL    HW219413   1.375   0.427   3.187 -2.8942 -2.3101 -1.3253
 2651SOL     OW19414   3.046   2.655   9.548  0.1633  0.3620 -0.1824
 2651SOL    HW119415   3.103   2.653   9.625 -0.4083 -1.2467  0.2070
 2651SOL    HW219416   2.989   2.728   9.572 -1.6646 -1.7371  1.9313
 2652SOL     OW19417   2.572   2.342  10.065  0.4876  0.0801  0.1990
 2652SOL    HW119418   2.645   2.297  10.106  2.1674  1.7829 -0.8816
 2652SOL    HW219419   2.503   2.278  10.077 -0.8467  1.1767 -1.5332
 2653SOL     OW19420   2.138   2.251   6.407  0.1768 -0.4630 -0.4833
 2653SOL    HW119421   2.095   2.215   6.486  1.7158 -0.1129  0.5108
 2653SOL    HW219422   2.206   2.184   6.400  1.1237  0.7035 -2.1663
 2654SOL     OW19423   3.582   3.143   4.932  0.3651  0.5308 -0.3288
 2654SOL    HW119424   3.565   3.207   4.863 -1.0850  0.8357  0.2928
 2654SOL    HW219425   3.677   3.131   4.929  0.4884  1.3086  0.4655
 2655SOL     OW19426   0.997   1.190  13.935 -0.1820  0.4022  0.1490
 2655SOL    HW119427   0.921   1.247  13.928  0.8995  1.7352 -0.7579
 2655SOL    HW219428   0.955   1.110  13.967  0.5849 -0.5097 -1.1492
 2656SOL     OW19429   2.277   4.102   1.342 -0.1553  0.0953  0.2861
 2656SOL    HW119430   2.373   4.106   1.340 -0.1189 -1.3479 -0.4764
 2656SOL    HW219431   2.259   4.186   1.300  0.5657 -0.0504 -0.3134
 2657SOL     OW19432   1.992   3.394  16.842  0.1992 -0.3869  0.0531
 2657SOL    HW119433   2.075   3.412  16.798  0.9879  1.5979  2.3858
 2657SOL    HW219434   1.982   3.314  16.790  0.6694 -0.7446  0.5214
 2658SOL     OW19435   2.375   2.151   0.521 -0.8200  0.4642  0.7510
 2658SOL    HW119436   2.425   2.232   0.518  0.2993 -0.1826  2.1696
 2658SOL    HW219437   2.381   2.127   0.428 -0.8929 -3.8517  1.8603
 2659SOL     OW19438   4.228   2.776   6.298  0.1079 -0.7495  0.3203
 2659SOL    HW119439   4.270   2.825   6.369  0.6286 -0.9815  0.1745
 2659SOL    HW219440   4.188   2.707   6.351 -0.3822  0.4255  1.4777
 2660SOL     OW19441   0.382   2.294   8.975  0.6754  0.4159 -0.0283
 2660SOL    HW119442   0.410   2.276   9.065 -0.1605 -0.5578  0.0385
 2660SOL    HW219443   0.305   2.340   9.009  0.3665  0.6099 -0.9991
 2661SOL     OW19444   4.417   3.960   6.263 -0.4393 -0.0205  0.2680
 2661SOL    HW119445   4.405   3.945   6.170 -1.5752  0.7194  0.2950
 2661SOL    HW219446   4.357   4.034   6.267 -1.7446 -1.1832  2.7044
 2662SOL     OW19447   3.481   4.215  16.729  0.3276  0.1716  0.1991
 2662SOL    HW119448   3.570   4.225  16.764  0.4650  3.4217 -1.0760
 2662SOL    HW219449   3.485   4.279  16.658  2.4590 -0.5313 -0.3152
 2663SOL     OW19450   1.982   0.759   9.190  0.1086  0.3074 -0.1875
 2663SOL    HW119451   1.945   0.769   9.278  0.0945 -0.2374 -0.1283
 2663SOL    HW219452   1.962   0.848   9.164 -1.2440  0.1159  0.2091
 2664SOL     OW19453   1.443   4.677   6.189 -0.1158  0.6480  0.8643
 2664SOL    HW119454   1.525   4.713   6.155 -0.3824  0.7563  0.3457
 2664SOL    HW219455   1.460   4.591   6.228  1.6101  1.2335  1.4032
 2665SOL     OW19456   0.275   3.183   5.191 -0.1638  0.4728 -0.2551
 2665SOL    HW119457   0.304   3.166   5.102 -0.7366 -0.0735 -0.3286
 2665SOL    HW219458   0.279   3.279   5.195 -2.6833  0.6260 -1.5051
 2666SOL     OW19459   4.624   4.109   3.069 -0.4476  0.1297 -0.1675
 2666SOL    HW119460   4.543   4.106   3.120 -0.5087  1.5814 -0.1953
 2666SOL    HW219461   4.604   4.179   3.007  2.2006  2.6228  1.7955
 2667SOL     OW19462   2.316   0.262  12.030 -0.9085  0.2639  0.2201
 2667SOL    HW119463   2.374   0.293  12.101 -0.1816 -0.4022 -0.0828
 2667SOL    HW219464   2.249   0.219  12.083  0.3476  0.6699  2.1436
 2668SOL     OW19465   1.411   0.042  10.690  0.2139 -0.2681 -0.2543
 2668SOL    HW119466   1.329   4.716  10.697  0.4222 -0.7276 -0.9437
 2668SOL    HW219467   1.394   0.124  10.737 -1.6281 -1.1121  0.5484
 2669SOL     OW19468   1.575   0.658   6.708 -0.0769  0.4471 -0.3408
 2669SOL    HW119469   1.501   0.636   6.652 -2.7566 -0.2779  3.5194
 2669SOL    HW219470   1.532   0.677   6.791 -0.3988  0.7807 -0.5849
 2670SOL     OW19471   0.439   4.159   2.509 -0.7726  0.1481 -0.4852
 2670SOL    HW119472   0.468   4.100   2.439 -0.0030 -1.1054  0.8999
 2670SOL    HW219473   0.527   4.178   2.542 -1.2248 -1.1600  1.4818
 2671SOL     OW19474   3.552   0.442   8.691  0.2034 -0.5733  0.9773
 2671SOL    HW119475   3.605   0.395   8.627  2.4502  2.2593  0.7816
 2671SOL    HW219476   3.470   0.393   8.696  0.3550 -1.0302 -1.2906
 2672SOL     OW19477   2.990   0.175   6.969  0.3475  0.2409  0.1459
 2672SOL    HW119478   2.946   0.121   6.903  0.8559  0.1294 -0.1010
 2672SOL    HW219479   2.978   0.126   7.050  1.9379 -1.0307 -0.3771
 2673SOL     OW19480   4.227   4.709  14.336  0.3707  0.1110  0.1839
 2673SOL    HW119481   4.240   4.621  14.372 -1.0807 -0.7412 -1.3460
 2673SOL    HW219482   4.286   0.044  14.384  0.3418 -0.6970  1.1935
 2674SOL     OW19483   3.399   1.616  10.155  0.9758 -0.2177  0.7303
 2674SOL    HW119484   3.323   1.585  10.204  0.6640 -0.5934  0.0146
 2674SOL    HW219485   3.421   1.689  10.212 -0.8613  0.1640  0.9318
 2675SOL     OW19486   2.164   2.624   7.362 -0.5287 -0.4070 -0.2273
 2675SOL    HW119487   2.181   2.706   7.407 -2.6539 -0.2975  0.4188
 2675SOL    HW219488   2.249   2.591   7.333 -0.7923 -2.2398  1.0533
 2676SOL     OW19489   0.659   1.897  10.233 -0.2646 -0.1336 -0.3665
 2676SOL    HW119490   0.568   1.923  10.216 -0.1035 -0.1971 -1.3216
 2676SOL    HW219491   0.649   1.826  10.296  1.8325 -0.5515 -0.5005
 2677SOL     OW19492   3.521   1.146   5.915  0.0118 -0.0457 -0.3808
 2677SOL    HW119493   3.507   1.095   5.835  1.8630 -0.0301 -0.7136
 2677SOL    HW219494   3.566   1.218   5.872 -2.2597  1.2874 -0.5084
 2678SOL     OW19495   2.692   3.386  15.146  0.4904 -0.1043  0.0395
 2678SOL    HW119496   2.597   3.374  15.140  0.4828  0.3154 -0.7866
 2678SOL    HW219497   2.694   3.481  15.160 -3.2832 -0.1904  1.3103
 2679SOL     OW19498   1.018   3.776   2.166  0.2755  0.3505 -0.2025
 2679SOL    HW119499   0.954   3.717   2.207 -0.6068  1.4659  0.0444
 2679SOL    HW219500   0.975   3.811   2.089  1.0891  0.6458 -0.5231
 2680SOL     OW19501   3.825   3.447   2.412 -0.0298  0.1134  0.3358
 2680SOL    HW119502   3.836   3.528   2.461 -0.4955  0.7557 -0.6233
 2680SOL    HW219503   3.729   3.449   2.403  0.0164 -0.9544 -0.3744
 2681SOL     OW19504   0.936   1.111   5.123 -0.6390  0.3506  0.1423
 2681SOL    HW119505   0.939   1.149   5.211 -1.8393 -1.2147  0.8677
 2681SOL    HW219506   0.982   1.183   5.080  1.4253 -1.5719 -0.8474
 2682SOL     OW19507   4.589   0.957   9.088 -0.6066  0.1561 -0.2687
 2682SOL    HW119508   4.533   0.993   9.157  0.4505 -2.7556  2.0654
 2682SOL    HW219509   4.646   1.033   9.077  1.5283 -1.2105  1.4464
 2683SOL     OW19510   2.868   1.872   2.834 -0.0388  0.0986  0.3034
 2683SOL    HW119511   2.795   1.922   2.798 -1.1517 -0.2340  2.1114
 2683SOL    HW219512   2.933   1.871   2.763  0.5029  1.1686  0.7837
 2684SOL     OW19513   1.830   1.478   5.051  0.2769 -0.2383  0.2630
 2684SOL    HW119514   1.763   1.423   5.010  0.4670  0.0154 -0.4027
 2684SOL    HW219515   1.761   1.535   5.085  0.1136 -1.2368  1.6022
 2685SOL     OW19516   3.666   0.183   8.885  0.2178  0.1562 -0.1245
 2685SOL    HW119517   3.657   0.091   8.912 -1.7986  0.2612 -0.3919
 2685SOL    HW219518   3.575   0.214   8.891  0.7973  1.4767  1.5827
 2686SOL     OW19519   4.039   0.404  11.711 -0.2559  0.0140 -0.2811
 2686SOL    HW119520   4.049   0.469  11.642 -3.0643  1.0895  0.3162
 2686SOL    HW219521   3.962   0.359  11.675  1.3794 -0.5493 -3.0878
 2687SOL     OW19522   4.617   1.437   0.905  0.3670 -0.6788  0.1820
 2687SOL    HW119523   4.692   1.394   0.863 -0.4244 -2.8087  0.9954
 2687SOL    HW219524   4.565   1.466   0.830  1.1928  0.1587 -0.0737
 2688SOL     OW19525   3.250   1.760   3.169  0.6828 -0.0087 -0.4178
 2688SOL    HW119526   3.284   1.811   3.243 -1.0812 -0.9993  1.0924
 2688SOL    HW219527   3.310   1.794   3.103  1.2267  0.0220  0.0876
 2689SOL     OW19528   1.954   0.918   3.158  0.2823  0.0477  0.5721
 2689SOL    HW119529   2.016   0.948   3.092  1.3003 -3.0588  0.1168
 2689SOL    HW219530   1.873   0.921   3.108  1.5096 -0.1780 -1.4315
 2690SOL     OW19531   2.550   4.519   1.958  0.0618  0.0306 -0.8992
 2690SOL    HW119532   2.606   4.540   1.884  1.1129  0.5363  0.0402
 2690SOL    HW219533   2.463   4.512   1.919  0.4221  0.9341 -1.8453
 2691SOL     OW19534   2.623   0.820   4.238 -0.0409 -0.2969 -0.4252
 2691SOL    HW119535   2.631   0.737   4.191  1.6148 -0.6425  0.4722
 2691SOL    HW219536   2.532   0.831   4.208  0.1254 -0.2298 -0.9100
 2692SOL     OW19537   1.254   2.705   0.966  0.0989  0.1292  0.0699
 2692SOL    HW119538   1.344   2.728   0.988 -0.0592  0.5268  0.3283
 2692SOL    HW219539   1.285   2.627   0.921  1.0729 -0.2692  1.4385
 2693SOL     OW19540   2.859   3.713   8.600 -0.1542 -0.2398  0.6352
 2693SOL    HW119541   2.826   3.629   8.567  0.4993 -0.4950  0.6396
 2693SOL    HW219542   2.799   3.771   8.553  2.2209  1.8465  0.1960
 2694SOL     OW19543   0.288   1.237   5.968 -0.5475 -0.6426 -0.3255
 2694SOL    HW119544   0.202   1.196   5.962 -0.0542 -1.7151 -0.0375
 2694SOL    HW219545   0.265   1.285   6.048  1.9902 -2.3183  1.4048
 2695SOL     OW19546   4.095   0.223   4.374  0.3923  0.1042  0.3641
 2695SOL    HW119547   4.134   0.175   4.301  0.6282 -0.9229  1.1707
 2695SOL    HW219548   4.152   0.301   4.378  0.7032  0.0106 -1.9048
 2696SOL     OW19549   4.256   2.816   4.224 -0.2374  0.1480 -0.1291
 2696SOL    HW119550   4.168   2.810   4.188  0.0299  1.5951 -1.0045
 2696SOL    HW219551   4.310   2.818   4.145  0.5746 -1.7001  0.3688
 2697SOL     OW19552   1.251   4.373   5.338 -0.1335 -0.0583  0.0242
 2697SOL    HW119553   1.172   4.382   5.392 -1.7944 -0.0583 -2.4295
 2697SOL    HW219554   1.263   4.460   5.300  3.7949  0.3370  2.1785
 2698SOL     OW19555   1.037   2.501   7.218 -0.7534 -0.1373  0.0902
 2698SOL    HW119556   0.956   2.482   7.266 -0.3658 -1.3853  0.2445
 2698SOL    HW219557   1.023   2.445   7.142  2.0183  1.4395 -1.5550
 2699SOL     OW19558   0.205   2.107   8.149  0.5436 -0.8110  0.0139
 2699SOL    HW119559   0.245   2.190   8.123 -0.6692  0.1494  1.1591
 2699SOL    HW219560   0.117   2.138   8.173  0.0066 -1.5528 -0.9663
 2700SOL     OW19561   1.475   1.212   8.694  0.1965  0.1103 -0.3593
 2700SOL    HW119562   1.395   1.162   8.706 -0.8864  1.8903 -0.1370
 2700SOL    HW219563   1.521   1.163   8.626 -1.6079 -0.9252 -0.8204
 2701SOL     OW19564   4.014   3.724  11.940 -0.4164 -0.3585  0.5069
 2701SOL    HW119565   3.983   3.734  11.850  0.4026  1.0864  0.3990
 2701SOL    HW219566   3.930   3.743  11.983 -1.5060 -1.5785 -1.0569
 2702SOL     OW19567   1.031   4.268   4.699 -0.1612  0.2041 -0.0998
 2702SOL    HW119568   1.087   4.192   4.683  2.5838  2.6370 -2.0223
 2702SOL    HW219569   0.948   4.227   4.674  1.3963 -1.6104 -2.3015
 2703SOL     OW19570   4.443   0.057  16.799  0.4942 -0.2112 -0.2725
 2703SOL    HW119571   4.475   0.143  16.771 -0.3360  0.7802  1.8112
 2703SOL    HW219572   4.379   0.083  16.865 -0.0104  0.5902 -1.0762
 2704SOL     OW19573   2.031   4.444   2.297  0.5818  0.3510  0.1472
 2704SOL    HW119574   2.041   4.382   2.370  0.8507  1.4785  1.0611
 2704SOL    HW219575   2.102   4.412   2.242  0.0772 -0.4735 -0.0209
 2705SOL     OW19576   3.266   4.153  15.814  0.7542 -0.0240 -0.0405
 2705SOL    HW119577   3.225   4.227  15.769  1.5742 -0.0361 -0.7983
 2705SOL    HW219578   3.316   4.114  15.743 -0.9782 -0.2553 -1.1459
 2706SOL     OW19579   2.696   1.793  15.085 -0.2090 -0.5444 -0.0657
 2706SOL    HW119580   2.777   1.745  15.105 -0.1407  0.0371  1.0291
 2706SOL    HW219581   2.698   1.845  15.165 -2.9479  0.7630 -0.8538
 2707SOL     OW19582   0.532   1.841   2.243 -0.5570  0.7032  0.3464
 2707SOL    HW119583   0.604   1.779   2.236  0.1198  1.5430 -0.1893
 2707SOL    HW219584   0.480   1.835   2.163  1.0741  0.6612 -0.6992
 2708SOL     OW19585   4.304   0.382  11.773  0.1024  0.0115 -0.5350
 2708SOL    HW119586   4.217   0.415  11.754 -1.1201 -1.3044  2.8085
 2708SOL    HW219587   4.279   0.293  11.797  2.7664 -0.4984  0.4246
 2709SOL     OW19588   2.363   0.381   8.944  0.7280  0.9980  0.1451
 2709SOL    HW119589   2.288   0.412   8.893  0.0386 -1.7570 -0.4697
 2709SOL    HW219590   2.316   0.340   9.017 -1.1388 -3.4240 -3.5811
 2710SOL     OW19591   2.064   4.232  10.487 -0.1594  0.0272 -0.3521
 2710SOL    HW119592   2.018   4.168  10.541 -0.5026 -0.1973 -0.9134
 2710SOL    HW219593   2.139   4.182  10.456  0.0084  0.6308 -0.9414
 2711SOL     OW19594   1.476   0.987   5.964 -0.3318 -0.4342  0.2153
 2711SOL    HW119595   1.520   1.020   6.043  0.5540  0.8719 -0.8420
 2711SOL    HW219596   1.454   1.063   5.912  0.8791  0.8943  1.6424
 2712SOL     OW19597   2.418   4.692   6.651 -0.0107  0.0226  0.8118
 2712SOL    HW119598   2.511   4.691   6.676 -0.1726 -2.4170  1.2470
 2712SOL    HW219599   2.380   4.657   6.731  1.5819 -0.6417  1.2793
 2713SOL     OW19600   3.970   2.742   3.575  0.0664 -0.2749  0.2978
 2713SOL    HW119601   3.918   2.692   3.638  0.0982  0.0365  0.5683
 2713SOL    HW219602   3.966   2.677   3.505 -0.0391 -0.7929  0.7821
 2714SOL     OW19603   0.412   1.171   9.069  0.3724 -0.6643  0.5035
 2714SOL    HW119604   0.439   1.236   9.134  0.3665 -0.3001  0.1475
 2714SOL    HW219605   0.446   1.091   9.107 -1.3366 -0.0723  3.2331
 2715SOL     OW19606   0.041   0.891   6.164 -0.1153  0.2331 -0.0425
 2715SOL    HW119607   0.024   0.889   6.069  0.3548  1.0133 -0.1411
 2715SOL    HW219608   0.136   0.885   6.161 -0.1776 -0.7051 -0.0013
 2716SOL     OW19609   0.007   1.543   5.293 -0.3561  0.0262  0.1902
 2716SOL    HW119610   0.051   1.470   5.250 -2.8650 -1.2609 -0.1479
 2716SOL    HW219611   4.691   1.502   5.371 -0.2782  1.2723  0.8906
 2717SOL     OW19612   1.040   4.282  14.958  0.3460  0.2942  0.0089
 2717SOL    HW119613   1.074   4.327  15.035  0.1675 -1.6384  1.2027
 2717SOL    HW219614   1.096   4.206  14.973 -2.8401 -1.6984  1.8014
 2718SOL     OW19615   0.328   0.629   0.875  0.4729  0.3339  0.1285
 2718SOL    HW119616   0.410   0.677   0.883  1.5827 -1.3858 -1.0110
 2718SOL    HW219617   0.317   0.584   0.959 -1.5064 -0.7343 -0.6852
 2719SOL     OW19618   0.030   2.316   2.516 -0.3730 -1.0388 -0.0593
 2719SOL    HW119619   0.107   2.337   2.569 -1.1555  1.0315  0.2235
 2719SOL    HW219620   0.063   2.322   2.426 -1.2689  1.2486 -0.2353
 2720SOL     OW19621   2.479   2.029  15.534  0.8790 -0.5446  0.3913
 2720SOL    HW119622   2.391   2.062  15.553  0.3836 -0.9786 -1.1513
 2720SOL    HW219623   2.530   2.109  15.521 -0.9016  0.1855 -2.1133
 2721SOL     OW19624   0.729   1.156   3.040  0.1279  0.2397  0.2136
 2721SOL    HW119625   0.673   1.094   3.087 -0.6880 -0.0929 -1.1695
 2721SOL    HW219626   0.680   1.182   2.962  1.4755 -0.4405 -0.8808
 2722SOL     OW19627   3.055   4.324   9.118  0.5915 -0.0363  0.1780
 2722SOL    HW119628   3.032   4.416   9.126 -1.1166 -0.3282 -1.2187
 2722SOL    HW219629   2.996   4.301   9.046  0.2961  4.1450 -0.8844
 2723SOL     OW19630   3.063   3.257   8.468 -0.0877 -0.3147 -0.0234
 2723SOL    HW119631   2.973   3.225   8.473 -0.1645 -0.5936 -3.4143
 2723SOL    HW219632   3.057   3.329   8.405 -1.3258 -0.3105  0.0936
 2724SOL     OW19633   2.852   3.974   6.927  0.0951 -0.3721 -0.4062
 2724SOL    HW119634   2.890   4.032   6.861 -0.2867  0.5960  0.2103
 2724SOL    HW219635   2.759   3.998   6.931  0.4490  0.9864 -0.3071
 2725SOL     OW19636   3.628   0.048  13.306  0.4440  0.1103  0.5988
 2725SOL    HW119637   3.683   0.103  13.250 -2.7717  3.1388  0.4189
 2725SOL    HW219638   3.558   0.110  13.324 -0.1791 -0.3315 -0.3022
 2726SOL     OW19639   4.490   2.188  16.967 -0.4600 -0.6138  0.2176
 2726SOL    HW119640   4.401   2.189  17.001 -0.7798 -1.1447 -0.6122
 2726SOL    HW219641   4.477   2.116  16.906 -1.2800  1.6873 -2.3143
 2727SOL     OW19642   4.385   4.275   2.513  0.1489 -0.3395 -0.7336
 2727SOL    HW119643   4.356   4.339   2.448  0.2944  0.2073 -0.2635
 2727SOL    HW219644   4.333   4.298   2.589  0.0567  1.2877 -1.2948
 2728SOL     OW19645   0.833   1.663  13.100 -0.4081  0.1666 -0.0082
 2728SOL    HW119646   0.827   1.601  13.027 -2.2065  0.0566  0.2374
 2728SOL    HW219647   0.751   1.646  13.146 -1.5264  0.9503 -1.6999
 2729SOL     OW19648   3.372   3.009  16.775 -0.4160 -0.1613  0.3510
 2729SOL    HW119649   3.356   3.083  16.833 -0.6970 -1.2936  1.7323
 2729SOL    HW219650   3.462   2.983  16.796 -0.8979 -1.3373  0.9998
 2730SOL     OW19651   0.243   4.191   8.160 -0.2199  0.4156  0.1921
 2730SOL    HW119652   0.251   4.161   8.070  0.2076  0.1210  0.3279
 2730SOL    HW219653   0.302   4.130   8.205  1.2266  0.8727 -1.1039
 2731SOL     OW19654   2.781   3.338   8.079 -0.5141  0.3370 -0.1604
 2731SOL    HW119655   2.690   3.324   8.108 -0.0308 -1.5185  0.4729
 2731SOL    HW219656   2.767   3.411   8.019 -1.7582 -0.6355 -1.0717
 2732SOL     OW19657   3.689   3.665   8.348 -0.5914  0.3249 -0.5430
 2732SOL    HW119658   3.739   3.693   8.424 -0.0000 -1.0474 -0.4242
 2732SOL    HW219659   3.742   3.715   8.285  0.3423  2.0672  1.6224
 2733SOL     OW19660   0.315   3.591   6.352 -0.1858 -0.1984 -0.0084
 2733SOL    HW119661   0.241   3.652   6.346 -0.0685 -0.1161 -0.6119
 2733SOL    HW219662   0.276   3.510   6.385 -1.0941  0.4852  0.6014
 2734SOL     OW19663   1.981   3.686  14.999  0.0916 -0.5379  0.1042
 2734SOL    HW119664   1.892   3.669  15.031  0.6634  0.0467  1.9499
 2734SOL    HW219665   1.957   3.712  14.910 -0.4623  1.0046  0.7084
 2735SOL     OW19666   4.696   2.999   7.833 -0.4103 -0.2094 -0.3782
 2735SOL    HW119667   4.668   3.080   7.791 -1.0393 -1.0761 -1.6359
 2735SOL    HW219668   4.621   2.964   7.880  0.7772 -1.8045  0.3461
 2736SOL     OW19669   0.643   2.106   4.586  0.8115 -0.0253  0.2452
 2736SOL    HW119670   0.679   2.018   4.577  0.2870 -0.1838 -0.2818
 2736SOL    HW219671   0.552   2.094   4.559  1.0472 -0.3537 -0.3978
 2737SOL     OW19672   4.364   4.098   7.393 -0.3785  0.1455 -0.5594
 2737SOL    HW119673   4.339   4.147   7.472  1.8346  1.6818 -0.8364
 2737SOL    HW219674   4.323   4.014   7.414  2.6398 -0.7903  1.5769
 2738SOL     OW19675   0.076   2.287   2.240  0.1699  0.2164  0.1453
 2738SOL    HW119676   4.713   2.255   2.209 -0.5657  0.0236  2.3228
 2738SOL    HW219677   0.113   2.203   2.268  2.8999  1.0265 -1.0221
 2739SOL     OW19678   4.623   3.964   7.334 -0.8223  0.0229  0.1888
 2739SOL    HW119679   4.651   3.992   7.247 -0.7554 -1.9624 -0.4098
 2739SOL    HW219680   4.542   4.012   7.351  0.2547  1.3307  1.7157
 2740SOL     OW19681   2.609   3.226   7.066  0.0589 -0.6439  0.4730
 2740SOL    HW119682   2.588   3.135   7.086  0.5407 -0.4631  1.7694
 2740SOL    HW219683   2.556   3.274   7.130 -1.0625 -1.0292 -0.1592
 2741SOL     OW19684   1.485   2.716   4.918 -0.4075  0.2801  0.1297
 2741SOL    HW119685   1.455   2.797   4.876  0.3297  0.8039  0.6057
 2741SOL    HW219686   1.433   2.725   4.997 -1.4082  0.0711 -0.5105
 2742SOL     OW19687   1.776   2.148   3.058  0.5528 -0.0112  0.1012
 2742SOL    HW119688   1.688   2.162   3.092  1.0158 -1.2223  1.7738
 2742SOL    HW219689   1.779   2.207   2.982  1.1189 -0.9803 -0.6262
 2743SOL     OW19690   0.284   2.319   2.718  0.6935  1.1032 -0.3499
 2743SOL    HW119691   0.312   2.259   2.787 -0.3432  0.9915 -0.0254
 2743SOL    HW219692   0.373   2.331   2.685  0.8452  1.5230  0.2113
 2744SOL     OW19693   0.810   1.142   8.399  0.2159  0.6351  0.1836
 2744SOL    HW119694   0.753   1.214   8.370 -1.1397 -1.1260 -1.5411
 2744SOL    HW219695   0.744   1.083   8.435 -1.2777  2.5981  0.6800
 2745SOL     OW19696   1.155   4.609   0.141 -0.2212 -0.1855 -0.2972
 2745SOL    HW119697   1.188   4.595   0.053  0.9089  2.8252 -0.3679
 2745SOL    HW219698   1.080   4.551   0.145  0.0566 -0.4047  2.2597
 2746SOL     OW19699   4.056   4.162   7.793 -0.4742  0.4183  0.0209
 2746SOL    HW119700   3.967   4.140   7.766 -0.2176 -1.6163  0.8250
 2746SOL    HW219701   4.060   4.117   7.877  1.6598  1.7788  0.6517
 2747SOL     OW19702   0.569   3.622   8.152 -0.1356 -0.1037 -0.6093
 2747SOL    HW119703   0.569   3.607   8.246  2.8520  0.8693 -0.4555
 2747SOL    HW219704   0.593   3.530   8.139  2.1512  0.9222 -3.7129
 2748SOL     OW19705   0.035   3.371   5.032  0.3056  0.5177  0.2353
 2748SOL    HW119706   0.115   3.415   5.002 -0.1229 -0.4106 -2.3319
 2748SOL    HW219707   0.013   3.419   5.111  0.8674  2.6667 -0.9175
 2749SOL     OW19708   1.830   3.816   7.219  0.6102 -0.2953  0.6855
 2749SOL    HW119709   1.757   3.832   7.278  0.8678  0.2574  0.8588
 2749SOL    HW219710   1.801   3.767   7.142 -1.2089  1.1213  0.4541
 2750SOL     OW19711   0.034   2.200   7.108 -0.9474  0.2262 -0.6687
 2750SOL    HW119712   0.029   2.179   7.014 -0.6164 -2.2592 -0.1246
 2750SOL    HW219713   0.062   2.292   7.106  0.2951 -0.1419  0.1234
 2751SOL     OW19714   4.179   1.391   5.433 -0.1684  0.3493 -0.0298
 2751SOL    HW119715   4.141   1.307   5.408  0.6814 -0.2046  0.5246
 2751SOL    HW219716   4.111   1.450   5.400  0.8238  1.0975 -0.7173
 2752SOL     OW19717   2.827   3.984   8.086 -0.2305  0.4706  0.4005
 2752SOL    HW119718   2.842   3.891   8.103 -1.5158  0.2005  0.0681
 2752SOL    HW219719   2.735   3.991   8.113  0.0150 -0.2096  1.4170
 2753SOL     OW19720   1.977   3.999   6.236  0.4948  0.3410  1.0319
 2753SOL    HW119721   2.069   4.022   6.224  0.3716 -0.7317 -1.9981
 2753SOL    HW219722   1.952   4.037   6.321 -0.1759 -0.9717  1.4403
 2754SOL     OW19723   3.250   2.462  12.874 -0.2835 -0.2691  0.3553
 2754SOL    HW119724   3.337   2.488  12.846  0.2783 -1.2889  1.1305
 2754SOL    HW219725   3.212   2.484  12.789 -1.4882 -1.6661  0.5116
 2755SOL     OW19726   1.262   1.331   9.971  0.2737 -0.0266 -1.0654
 2755SOL    HW119727   1.237   1.240   9.986 -2.6275  0.8810 -0.4917
 2755SOL    HW219728   1.346   1.322   9.926  0.0273 -1.7104 -1.1746
 2756SOL     OW19729   2.009   2.502  11.909 -0.0341 -0.0964 -0.3643
 2756SOL    HW119730   1.976   2.487  11.997 -2.0472 -0.4381 -1.1811
 2756SOL    HW219731   2.090   2.452  11.904  0.3825  0.4982  0.4346
 2757SOL     OW19732   2.333   0.492   1.882 -0.0323 -0.2526  0.0439
 2757SOL    HW119733   2.274   0.565   1.864  2.7127  1.8561 -0.4237
 2757SOL    HW219734   2.389   0.505   1.805 -0.0233  0.5729  0.1965
 2758SOL     OW19735   3.793   1.568   8.167 -0.1648  0.1856  0.2175
 2758SOL    HW119736   3.732   1.638   8.192 -1.2162 -1.1572  1.4081
 2758SOL    HW219737   3.787   1.512   8.244 -0.5091  0.9198  0.7327
 2759SOL     OW19738   3.515   3.119  11.330 -0.0034 -0.0498  0.2116
 2759SOL    HW119739   3.451   3.047  11.328  0.7111 -0.6326 -1.3016
 2759SOL    HW219740   3.521   3.131  11.425 -0.7496 -0.8918  0.3720
 2760SOL     OW19741   4.692   0.066   0.121  0.0581 -0.4331 -0.1550
 2760SOL    HW119742   0.047   0.094   0.072  0.5574  3.2070  2.7227
 2760SOL    HW219743   4.655   0.150   0.148  1.6341 -0.3726  1.8797
 2761SOL     OW19744   1.765   2.325   2.844  0.0549 -0.3652 -0.0543
 2761SOL    HW119745   1.776   2.370   2.760  0.9203 -0.5473 -0.0393
 2761SOL    HW219746   1.737   2.242   2.805  0.8694 -1.1371  1.0154
 2762SOL     OW19747   1.628   3.269   1.688  0.2343  0.4178 -0.4400
 2762SOL    HW119748   1.689   3.331   1.649 -1.7263  2.1423 -0.8014
 2762SOL    HW219749   1.636   3.284   1.782 -0.5264  1.1613 -0.4894
 2763SOL     OW19750   0.497   3.879  11.008  0.1776  0.1339 -0.1211
 2763SOL    HW119751   0.401   3.874  11.006  0.3738 -4.1220  1.9527
 2763SOL    HW219752   0.521   3.846  11.095  1.1801  0.0186 -0.4523
 2764SOL     OW19753   1.511   2.616   7.978  0.0036 -0.0985 -0.1737
 2764SOL    HW119754   1.504   2.646   8.069 -1.3813 -0.3715 -0.1846
 2764SOL    HW219755   1.604   2.597   7.966  0.1397  2.0052 -2.4787
 2765SOL     OW19756   3.271   0.641   1.787 -0.2013 -0.2927 -0.3712
 2765SOL    HW119757   3.200   0.645   1.852  1.3314 -0.6389  1.3397
 2765SOL    HW219758   3.288   0.548   1.772 -0.5907 -0.1198 -1.8196
 2766SOL     OW19759   2.238   2.586   4.839  0.3013  0.3596  0.3942
 2766SOL    HW119760   2.173   2.516   4.843  0.0954  0.4775 -0.8156
 2766SOL    HW219761   2.296   2.543   4.777 -0.1775 -0.3790  0.4468
 2767SOL     OW19762   1.572   1.673   7.709  0.4692  0.2080 -0.6927
 2767SOL    HW119763   1.547   1.598   7.763  1.0035  0.5595  0.0364
 2767SOL    HW219764   1.545   1.747   7.764  0.5843  1.6131 -2.5439
 2768SOL     OW19765   0.753   4.163  15.582 -0.3089  0.0191 -0.1617
 2768SOL    HW119766   0.773   4.188  15.672  3.5139 -1.0364 -0.7143
 2768SOL    HW219767   0.744   4.254  15.554 -2.2975  0.5002  2.0599
 2769SOL     OW19768   2.245   0.706   1.701  0.3046  0.6835 -0.2145
 2769SOL    HW119769   2.177   0.767   1.728  0.7205  1.8440 -1.7744
 2769SOL    HW219770   2.324   0.760   1.692 -1.7817  3.8334  0.5988
 2770SOL     OW19771   2.465   0.082   0.305  0.1836 -0.0906  0.1716
 2770SOL    HW119772   2.479   0.157   0.363  1.8992 -0.0144 -0.3409
 2770SOL    HW219773   2.376   0.063   0.333  1.4532 -2.3687  2.7069
 2771SOL     OW19774   3.906   4.071   2.058  0.0596  0.2162  0.3074
 2771SOL    HW119775   3.900   4.034   1.969 -0.0262 -1.2635  0.9323
 2771SOL    HW219776   3.999   4.087   2.074  0.2287 -0.4643 -0.0139
 2772SOL     OW19777   2.527   1.142   5.647  0.0565 -0.0060 -0.0511
 2772SOL    HW119778   2.565   1.183   5.725  1.4260 -0.2720 -0.5727
 2772SOL    HW219779   2.595   1.145   5.579 -1.7589  0.0203 -1.8481
 2773SOL     OW19780   1.189   1.904  16.244 -0.2174 -0.6197 -0.1910
 2773SOL    HW119781   1.112   1.867  16.288  0.7002 -0.0532  1.9353
 2773SOL    HW219782   1.210   1.983  16.295  0.9731 -0.9248 -0.2002
 2774SOL     OW19783   2.048   4.506  15.028 -0.2354 -0.4506 -0.6138
 2774SOL    HW119784   1.983   4.573  15.052  1.6159  1.5233 -1.1771
 2774SOL    HW219785   2.031   4.499  14.934 -1.1980  3.1821 -0.7018
 2775SOL     OW19786   4.416   2.039   6.890 -0.1685 -0.2039 -0.3515
 2775SOL    HW119787   4.439   1.978   6.960  1.3243 -0.1975 -0.8272
 2775SOL    HW219788   4.433   1.981   6.815 -0.2532 -1.0313  0.2741
 2776SOL     OW19789   1.067   2.892   2.274  0.1487 -0.4744  0.3910
 2776SOL    HW119790   1.129   2.920   2.207  0.2688 -1.3635  0.1206
 2776SOL    HW219791   1.120   2.901   2.353 -1.1527 -0.7315  1.2948
 2777SOL     OW19792   4.702   2.722   3.843  0.4880  1.3398 -0.1745
 2777SOL    HW119793   4.631   2.738   3.782 -0.0590 -0.3647  0.0294
 2777SOL    HW219794   4.696   2.794   3.907  1.6113 -0.0088  1.4534
 2778SOL     OW19795   4.172   4.205  14.158 -0.4275 -0.1776 -0.3269
 2778SOL    HW119796   4.138   4.280  14.110 -0.8886  0.8199  1.5743
 2778SOL    HW219797   4.264   4.228  14.154 -0.5074  0.1543 -0.2292
 2779SOL     OW19798   1.273   3.635   3.033 -0.7470  0.0095  0.8374
 2779SOL    HW119799   1.200   3.674   2.984 -1.2529 -0.4775  1.2115
 2779SOL    HW219800   1.271   3.682   3.116 -0.2174 -0.5208  1.1497
 2780SOL     OW19801   4.035   3.854   2.471  0.0314  0.3722  0.2792
 2780SOL    HW119802   4.040   3.806   2.388 -3.7228  2.9168 -1.3717
 2780SOL    HW219803   4.101   3.919   2.449 -1.8265  1.5163 -1.8720
 2781SOL     OW19804   0.568   3.114   3.137  0.4270  0.5838  0.0001
 2781SOL    HW119805   0.534   3.197   3.170  1.2980 -0.0850  2.5963
 2781SOL    HW219806   0.623   3.080   3.208  1.9077  1.1233 -0.8801
 2782SOL     OW19807   0.161   2.668   2.937  0.1235  0.2477  0.3118
 2782SOL    HW119808   0.136   2.611   2.864  0.4270 -1.8226  1.8334
 2782SOL    HW219809   0.257   2.663   2.935  0.1942  2.3902 -1.7370
 2783SOL     OW19810   4.259   1.490  10.386  0.5004 -0.2596 -0.2211
 2783SOL    HW119811   4.350   1.461  10.378  0.2626 -0.8682 -0.7125
 2783SOL    HW219812   4.259   1.538  10.469  1.4858 -0.3378 -0.1781
 2784SOL     OW19813   4.079   0.618   6.420 -0.0037 -0.4685 -0.3080
 2784SOL    HW119814   4.093   0.578   6.334 -0.0071 -0.6760 -0.2118
 2784SOL    HW219815   4.118   0.547   6.470 -0.0856  0.7467  1.4836
 2785SOL     OW19816   3.300   0.529   8.186 -0.5579  0.4491  0.0675
 2785SOL    HW119817   3.357   0.497   8.116 -0.0946 -0.5841  0.9029
 2785SOL    HW219818   3.221   0.494   8.146 -0.4190 -1.5227  1.4991
 2786SOL     OW19819   2.683   0.343   6.617 -0.2011  0.2656 -0.8165
 2786SOL    HW119820   2.743   0.321   6.545 -1.1927 -0.5627 -1.3959
 2786SOL    HW219821   2.749   0.395   6.663  0.0907 -1.1745  0.3853
 2787SOL     OW19822   2.072   3.664   9.241  0.2741  0.6033  0.4643
 2787SOL    HW119823   2.105   3.582   9.205 -0.0952 -0.2531  2.0551
 2787SOL    HW219824   2.010   3.629   9.305 -0.5009  0.4390 -0.3837
 2788SOL     OW19825   2.978   0.998   1.043  0.0972  0.1966  0.0800
 2788SOL    HW119826   3.044   1.016   0.976  0.6093  0.0570  0.5555
 2788SOL    HW219827   2.896   1.044   1.021 -1.2478 -1.7507  1.0544
 2789SOL     OW19828   1.994   0.773   8.866 -0.0690  0.2092 -0.3076
 2789SOL    HW119829   1.926   0.708   8.851 -0.2985  0.4909 -0.4816
 2789SOL    HW219830   2.035   0.735   8.944  1.4266  3.0679  0.2889
 2790SOL     OW19831   1.639   0.201   6.426 -0.1129  0.0524 -0.8439
 2790SOL    HW119832   1.593   0.123   6.458 -2.7915  1.5926 -0.9961
 2790SOL    HW219833   1.646   0.237   6.514 -1.1851 -0.6345 -0.4830
 2791SOL     OW19834   1.531   1.273   2.778 -0.1716  0.0897  0.7163
 2791SOL    HW119835   1.499   1.291   2.690  2.0146 -1.2416 -0.3733
 2791SOL    HW219836   1.554   1.359   2.813  2.0284 -0.9485  1.8479
 2792SOL     OW19837   1.634   0.744  15.484  0.2773  0.3264  0.4312
 2792SOL    HW119838   1.692   0.817  15.465 -0.9364  1.9687  2.9885
 2792SOL    HW219839   1.641   0.677  15.416  2.5286  0.9205  0.0783
 2793SOL     OW19840   2.511   3.191  17.154 -0.0520  0.4858  0.0157
 2793SOL    HW119841   2.450   3.119  17.139  0.7370 -0.4396  1.1941
 2793SOL    HW219842   2.462   3.255  17.103  0.2904 -0.5923 -1.6448
 2794SOL     OW19843   4.356   2.771   8.713 -0.0900 -0.2454  0.1026
 2794SOL    HW119844   4.423   2.825   8.756  1.7449 -0.7171 -2.1601
 2794SOL    HW219845   4.287   2.775   8.779 -0.4797  0.2964 -0.3414
 2795SOL     OW19846   1.869   0.187   6.267  0.0010  0.3415  0.6178
 2795SOL    HW119847   1.789   0.192   6.319 -0.4963  0.9561 -0.2222
 2795SOL    HW219848   1.924   0.245   6.319  1.4815 -0.3740 -0.1599
 2796SOL     OW19849   3.633   3.328   8.576  0.1761  0.2744 -0.1239
 2796SOL    HW119850   3.711   3.278   8.551  0.5798 -1.1120  3.9212
 2796SOL    HW219851   3.651   3.335   8.670  0.0708 -1.1498  0.0059
 2797SOL     OW19852   2.109   2.213   2.393 -0.1350  0.2928 -0.0239
 2797SOL    HW119853   2.143   2.270   2.323  0.2311  0.3009  0.1592
 2797SOL    HW219854   2.189   2.206   2.444 -0.3928  0.0875  0.3490
 2798SOL     OW19855   1.956   4.054   8.880  0.3283  0.7277 -0.4752
 2798SOL    HW119856   1.989   3.977   8.926  0.4918 -0.4719 -2.6049
 2798SOL    HW219857   1.925   4.018   8.797 -2.1425  3.3318 -0.6922
 2799SOL     OW19858   2.585   4.103   1.309  0.0126 -0.0675  0.0585
 2799SOL    HW119859   2.633   4.048   1.371 -3.0898 -0.4399  2.1902
 2799SOL    HW219860   2.645   4.177   1.306  0.2635 -0.2129  1.3785
 2800SOL     OW19861   1.832   1.123   4.209  0.7835 -0.0694  0.0562
 2800SOL    HW119862   1.853   1.199   4.263 -0.4922  0.6828 -0.5313
 2800SOL    HW219863   1.829   1.166   4.124 -0.7640 -0.7580 -0.2379
 2801SOL     OW19864   0.588   2.490   0.847 -0.0741  0.1926  0.5470
 2801SOL    HW119865   0.564   2.407   0.890 -2.1176  1.9129  2.8034
 2801SOL    HW219866   0.504   2.528   0.873 -1.8718 -2.4524 -1.3871
 2802SOL     OW19867   0.818   2.717   7.527  0.5472  0.5910  0.2246
 2802SOL    HW119868   0.813   2.659   7.451  2.2095  1.9897 -0.9446
 2802SOL    HW219869   0.901   2.682   7.559  0.7027 -0.9089 -1.7972
 2803SOL     OW19870   1.837   3.745   2.063 -0.3442 -0.7575 -0.5807
 2803SOL    HW119871   1.932   3.739   2.072 -0.0875  2.0681 -1.1809
 2803SOL    HW219872   1.812   3.825   2.110  1.3553  0.1055 -1.1453
 2804SOL     OW19873   4.641   0.094   5.215 -0.2223  0.1076  0.7583
 2804SOL    HW119874   4.559   0.143   5.204  0.2115  1.0434  1.7255
 2804SOL    HW219875   4.679   0.103   5.128 -1.1463  3.7710  0.7120
 2805SOL     OW19876   4.135   4.569   5.566 -0.6338  0.0285 -0.3674
 2805SOL    HW119877   4.165   4.568   5.475  0.1628  1.5129 -0.1299
 2805SOL    HW219878   4.073   4.642   5.567  1.7387  2.0771 -1.4375
 2806SOL     OW19879   0.662   0.029   6.221 -0.1001 -0.5902 -0.2352
 2806SOL    HW119880   0.749   0.050   6.253 -0.2332 -2.5782  1.4103
 2806SOL    HW219881   0.682   4.677   6.163  0.6549 -0.1162 -0.5824
 2807SOL     OW19882   3.681   3.373   8.304 -0.7290  0.0569 -0.2000
 2807SOL    HW119883   3.644   3.363   8.392 -0.2445 -0.3120 -0.0377
 2807SOL    HW219884   3.671   3.467   8.289 -0.4188  0.2658  0.9063
 2808SOL     OW19885   4.405   0.845  10.430  0.0456 -0.4673 -0.4209
 2808SOL    HW119886   4.402   0.802  10.515  1.7024  2.2107  1.0161
 2808SOL    HW219887   4.320   0.817  10.398  0.4453  0.2233 -2.0898
 2809SOL     OW19888   3.266   4.150   7.377  0.0608 -0.1254  0.1276
 2809SOL    HW119889   3.279   4.214   7.307  1.5192  1.1932  1.6420
 2809SOL    HW219890   3.183   4.164   7.423 -0.4411 -0.9905 -0.5032
 2810SOL     OW19891   0.018   3.844   9.825  0.0593 -0.1068  0.0346
 2810SOL    HW119892   0.112   3.852   9.811 -0.0995  0.7297 -0.5684
 2810SOL    HW219893   0.005   3.755   9.858  1.7716  0.2804  1.7040
 2811SOL     OW19894   1.594   3.384  15.778 -0.6657 -0.3426 -0.1360
 2811SOL    HW119895   1.643   3.307  15.805  1.3710  0.8854 -0.2997
 2811SOL    HW219896   1.597   3.365  15.685  1.6845 -0.7490  0.0193
 2812SOL     OW19897   3.758   4.418   4.198 -0.1422  0.2854 -0.1092
 2812SOL    HW119898   3.667   4.443   4.214 -0.5696 -1.2840 -0.0798
 2812SOL    HW219899   3.795   4.504   4.179 -0.5385  0.7299  1.1280
 2813SOL     OW19900   1.697   1.866  10.908 -0.3336  0.1269 -0.0342
 2813SOL    HW119901   1.702   1.859  10.813  0.3268  0.0020  0.0118
 2813SOL    HW219902   1.603   1.879  10.919 -0.3892  1.5188 -2.1306
 2814SOL     OW19903   3.317   3.751  16.177  0.5976 -0.3069 -0.0768
 2814SOL    HW119904   3.304   3.749  16.082 -1.4562 -0.5938  0.2275
 2814SOL    HW219905   3.409   3.724  16.167  1.1459  1.4530  0.1054
 2815SOL     OW19906   2.339   0.205   8.638  0.3643 -0.2537  0.2842
 2815SOL    HW119907   2.425   0.227   8.603  0.7555  0.1053  1.4660
 2815SOL    HW219908   2.327   0.117   8.603  0.0107 -0.8021  1.7528
 2816SOL     OW19909   2.605   1.148  14.018  0.1105 -0.3396 -0.1038
 2816SOL    HW119910   2.699   1.154  14.035  0.6209 -1.0751 -2.7486
 2816SOL    HW219911   2.567   1.228  14.055 -2.7500 -1.6879 -0.0868
 2817SOL     OW19912   4.558   0.930   7.438 -0.2476  0.4351  0.2771
 2817SOL    HW119913   4.542   0.856   7.379  0.0802 -0.5848  1.4350
 2817SOL    HW219914   4.641   0.896   7.473 -1.1264 -3.0672 -1.0653
 2818SOL     OW19915   2.293   1.255   8.678  0.5232  0.2606 -0.3121
 2818SOL    HW119916   2.305   1.163   8.701  0.9903 -0.0855 -1.9459
 2818SOL    HW219917   2.378   1.291   8.703 -0.3634  2.0155  0.2032
 2819SOL     OW19918   4.153   3.585   4.149  0.6666 -0.2337  0.4622
 2819SOL    HW119919   4.230   3.640   4.134 -0.0234  0.4477 -0.6070
 2819SOL    HW219920   4.195   3.499   4.145 -0.5348 -0.8943  1.8836
 2820SOL     OW19921   2.993   0.232   0.071  0.2265 -0.0883  0.3257
 2820SOL    HW119922   3.021   0.154   0.022  1.0499  0.4773 -0.1013
 2820SOL    HW219923   2.912   0.261   0.029 -0.0361  1.0061  1.5916
 2821SOL     OW19924   3.865   4.159   1.665 -0.0025  0.1541  0.2072
 2821SOL    HW119925   3.853   4.078   1.714 -0.5956  0.4156  0.5032
 2821SOL    HW219926   3.931   4.114   1.613  0.8648  0.2982  1.1957
 2822SOL     OW19927   3.544   0.705  12.336 -0.0271  0.7468 -0.3876
 2822SOL    HW119928   3.461   0.724  12.293 -0.3873  1.1706  0.5103
 2822SOL    HW219929   3.571   0.784  12.383 -0.4996  0.7984 -0.2077
 2823SOL     OW19930   1.310   1.873   4.117 -0.4392 -0.6807 -0.1707
 2823SOL    HW119931   1.281   1.855   4.206 -2.7406  2.7066 -0.2331
 2823SOL    HW219932   1.264   1.956   4.104  0.0258 -0.5457 -0.9260
 2824SOL     OW19933   2.109   2.749   1.227 -0.0895  0.0566  0.0225
 2824SOL    HW119934   2.054   2.671   1.219  1.8211 -1.1745 -1.0770
 2824SOL    HW219935   2.095   2.779   1.138 -0.6051  1.0687  0.4373
 2825SOL     OW19936   0.246   3.745   6.047 -0.6269  0.4608 -0.0404
 2825SOL    HW119937   0.313   3.767   6.111 -0.5473 -1.5514  0.5355
 2825SOL    HW219938   0.258   3.819   5.987 -1.1357 -1.4828 -2.5626
 2826SOL     OW19939   0.426   0.303   1.531 -0.1653  0.5437 -0.6193
 2826SOL    HW119940   0.476   0.251   1.593  0.1494  2.0485  0.3760
 2826SOL    HW219941   0.383   0.368   1.587 -1.4154 -2.2624  1.6855
 2827SOL     OW19942   2.687   4.479   0.970  0.1440  0.2387 -0.0587
 2827SOL    HW119943   2.659   4.429   1.047  0.2169 -0.5629 -0.5547
 2827SOL    HW219944   2.654   4.418   0.904  0.0362  1.2515 -0.9369
 2828SOL     OW19945   2.902   3.793   7.614 -0.6090  0.4789  1.3124
 2828SOL    HW119946   2.828   3.792   7.675 -1.9223  0.0238 -0.3201
 2828SOL    HW219947   2.860   3.833   7.538  2.0059 -0.4248 -0.6276
 2829SOL     OW19948   2.692   4.328   9.362 -0.5129 -0.3319 -0.3593
 2829SOL    HW119949   2.772   4.364   9.400  0.2983 -0.4488 -1.9508
 2829SOL    HW219950   2.679   4.255   9.423 -2.0734 -0.5673 -0.9872
 2830SOL     OW19951   0.510   0.698  11.742 -0.2912  0.1622  0.3179
 2830SOL    HW119952   0.497   0.611  11.780  1.8283  0.6507  2.1793
 2830SOL    HW219953   0.457   0.759  11.793 -0.6471 -0.6840  0.9697
 2831SOL     OW19954   0.259   2.772   7.168  0.0003  0.0010  0.4066
 2831SOL    HW119955   0.258   2.818   7.084 -0.1053  0.4539  0.6552
 2831SOL    HW219956   0.280   2.684   7.139  3.2244  0.9835 -0.2834
 2832SOL     OW19957   0.876   4.044   5.018  0.0844  0.5206 -0.1976
 2832SOL    HW119958   0.826   4.117   4.981  0.0803  0.3643 -0.4974
 2832SOL    HW219959   0.805   4.000   5.064  0.6583  0.8729  1.0089
 2833SOL     OW19960   2.518   2.411  15.002 -0.6970  0.4775  0.4316
 2833SOL    HW119961   2.446   2.388  14.943  0.0073 -0.8845  0.1054
 2833SOL    HW219962   2.586   2.422  14.936 -0.2992  3.2662  1.2778
 2834SOL     OW19963   0.781   3.928   3.937  0.6968 -0.6881 -0.6891
 2834SOL    HW119964   0.709   3.905   3.879  1.4675 -1.3870 -1.3563
 2834SOL    HW219965   0.791   4.018   3.906  0.2145 -0.3505  0.1151
 2835SOL     OW19966   1.902   3.822  13.179  0.3372  0.6433 -0.1556
 2835SOL    HW119967   1.906   3.785  13.267 -2.6007  0.0906 -0.2722
 2835SOL    HW219968   1.962   3.767  13.128  0.3022  0.2135  0.2696
 2836SOL     OW19969   3.504   0.575   8.357  0.1261  0.2276 -0.3707
 2836SOL    HW119970   3.487   0.484   8.382 -0.3402  0.5377  0.4130
 2836SOL    HW219971   3.444   0.582   8.283  0.5696  1.5715 -0.5953
 2837SOL     OW19972   3.757   0.009   1.819 -0.1528  0.0773 -0.1507
 2837SOL    HW119973   3.662   0.020   1.822 -0.5334 -3.1529  0.4618
 2837SOL    HW219974   3.767   4.689   1.734 -0.8263  0.7916 -0.5833
 2838SOL     OW19975   2.277   1.213   6.046  0.2618 -0.2980 -0.3150
 2838SOL    HW119976   2.249   1.194   6.135  1.0957  2.4799  0.5432
 2838SOL    HW219977   2.320   1.129   6.029  0.1867 -0.2869 -0.5635
 2839SOL     OW19978   4.243   3.016   5.664  0.6275  0.1573 -0.8788
 2839SOL    HW119979   4.281   3.041   5.579  3.1294  1.6951  0.6887
 2839SOL    HW219980   4.291   2.938   5.691 -0.3785  0.0671  0.6235
 2840SOL     OW19981   2.282   1.181   6.316  0.4719  0.3041 -0.2487
 2840SOL    HW119982   2.349   1.208   6.379  1.0548 -1.5218 -0.0834
 2840SOL    HW219983   2.278   1.087   6.334  1.4699  0.5029  1.0592
 2841SOL     OW19984   3.638   3.452  10.661  0.2986 -0.0692 -0.2622
 2841SOL    HW119985   3.543   3.452  10.669  0.2391 -1.1550 -0.8806
 2841SOL    HW219986   3.665   3.360  10.663  1.7530  0.4271  3.7515
 2842SOL     OW19987   0.665   3.485  16.471 -0.2574 -0.2104  0.0925
 2842SOL    HW119988   0.738   3.503  16.413  0.3212  0.5316  1.0477
 2842SOL    HW219989   0.599   3.453  16.409 -1.7822  0.5506  1.3069
 2843SOL     OW19990   3.454   1.066   8.882 -0.8947  0.1128  0.4404
 2843SOL    HW119991   3.514   1.140   8.882  2.1058 -2.2802 -0.9071
 2843SOL    HW219992   3.386   1.107   8.935 -1.8939 -2.8123  1.4207
 2844SOL     OW19993   2.758   0.474  12.846 -0.2366  0.1503 -0.0236
 2844SOL    HW119994   2.772   0.496  12.938 -2.7689 -0.4474  0.5251
 2844SOL    HW219995   2.838   0.511  12.809  0.3212  0.2939  1.3289
 2845SOL     OW19996   3.330   2.076   8.155 -0.1205 -0.1877  0.3707
 2845SOL    HW119997   3.308   2.077   8.062  1.7907 -0.7478 -0.0886
 2845SOL    HW219998   3.405   2.017   8.153  0.4653  0.5849 -0.5394
 2846SOL     OW19999   4.676   0.885  11.550 -0.2973  0.3393  0.0217
 2846SOL    HW120000   4.642   0.973  11.564 -1.9700 -0.1320 -1.0984
 2846SOL    HW220001   4.611   0.824  11.586 -3.6578  3.1072 -1.4049
 2847SOL     OW20002   2.525   3.533  14.823 -0.1760 -0.4513 -0.0835
 2847SOL    HW120003   2.582   3.580  14.883  0.3062  0.0068 -0.9017
 2847SOL    HW220004   2.576   3.536  14.742 -0.6732 -0.1180 -0.3837
 2848SOL     OW20005   1.594   0.748  12.258  0.8499 -0.3880  0.3327
 2848SOL    HW120006   1.598   0.807  12.182  1.3438 -0.3762  0.3673
 2848SOL    HW220007   1.537   0.679  12.225  1.0238 -0.4344  0.1311
 2849SOL     OW20008   0.651   3.795   4.213  0.5236 -0.5077  0.2461
 2849SOL    HW120009   0.730   3.744   4.230  0.6689 -1.3007 -2.7302
 2849SOL    HW220010   0.626   3.748   4.134  0.6895  0.8913 -0.6371
 2850SOL     OW20011   4.357   2.306   9.770 -0.0049  0.2727 -0.1996
 2850SOL    HW120012   4.265   2.293   9.747  0.0101 -1.3475  0.6600
 2850SOL    HW220013   4.399   2.347   9.694 -1.0944 -2.5335 -2.3190
 2851SOL     OW20014   2.755   3.036   4.834 -0.2949  0.2587  0.3922
 2851SOL    HW120015   2.818   3.074   4.772  1.2100 -0.7573  1.2776
 2851SOL    HW220016   2.678   3.034   4.778  1.5348 -1.1677 -2.0358
 2852SOL     OW20017   3.959   3.722  11.668 -0.0529 -0.0892  0.1512
 2852SOL    HW120018   3.875   3.765  11.687 -0.1948 -0.1535 -0.3529
 2852SOL    HW220019   3.976   3.763  11.584  1.7853 -0.5747  0.3088
 2853SOL     OW20020   3.435   0.518  13.584 -0.0389 -0.7652 -0.3742
 2853SOL    HW120021   3.465   0.578  13.652  0.2463 -0.1018 -1.0809
 2853SOL    HW220022   3.395   0.444  13.629  2.6367 -0.8625  1.8405
 2854SOL     OW20023   0.859   3.279   2.399  0.1814 -0.2976  0.2527
 2854SOL    HW120024   0.951   3.261   2.413  0.2875 -0.4486 -0.6271
 2854SOL    HW220025   0.815   3.195   2.417 -0.3492  0.0613  0.6245
 2855SOL     OW20026   3.380   0.902   1.806 -0.7619 -0.8723  0.0166
 2855SOL    HW120027   3.383   0.807   1.801  0.1068 -0.6757 -3.6507
 2855SOL    HW220028   3.289   0.902   1.775  0.3053  0.1741 -3.1816
 2856SOL     OW20029   3.249   4.335   7.993  0.1251  0.0670  0.0725
 2856SOL    HW120030   3.161   4.306   7.967  0.4709 -1.6972  0.8506
 2856SOL    HW220031   3.281   4.245   7.990  1.4846  0.5635 -0.2193
 2857SOL     OW20032   3.768   4.627   7.018  0.2499  0.1945 -0.5643
 2857SOL    HW120033   3.727   4.713   7.033  0.0192  0.0355 -0.2958
 2857SOL    HW220034   3.814   4.652   6.937 -0.2352 -3.7540 -2.0561
 2858SOL     OW20035   2.874   0.606   3.911 -0.7844 -0.2120 -0.0355
 2858SOL    HW120036   2.792   0.649   3.889 -1.3225 -1.3789 -0.3045
 2858SOL    HW220037   2.905   0.579   3.825 -1.1165 -0.8729  0.0522
 2859SOL     OW20038   2.801   2.065  16.750 -0.4278  0.3681 -0.2175
 2859SOL    HW120039   2.825   2.034  16.837 -2.3029  0.5934  0.3847
 2859SOL    HW220040   2.891   2.083  16.722  0.0149  0.9235  1.5381
 2860SOL     OW20041   0.159   2.013  12.915 -0.4651 -0.0021  0.2657
 2860SOL    HW120042   0.155   2.088  12.974  1.1066  2.1443 -2.3553
 2860SOL    HW220043   0.250   2.013  12.886 -0.9129 -1.0078 -1.1753
 2861SOL     OW20044   1.161   3.619   8.117 -0.4412 -0.1251  0.3477
 2861SOL    HW120045   1.114   3.672   8.054  1.1083 -0.6217 -1.2229
 2861SOL    HW220046   1.111   3.539   8.134 -1.6942  1.0189  2.0050
 2862SOL     OW20047   4.444   2.455   9.543 -0.0062  0.3349 -0.4431
 2862SOL    HW120048   4.487   2.442   9.458  0.9201 -0.3363  0.1247
 2862SOL    HW220049   4.416   2.546   9.535  0.8729  0.6018 -0.4798
 2863SOL     OW20050   4.661   3.256   8.105 -0.0965  0.5294 -0.2669
 2863SOL    HW120051   4.643   3.183   8.046 -2.2056  1.1968 -0.4480
 2863SOL    HW220052   4.669   3.207   8.186  0.2446  1.7234  0.4149
 2864SOL     OW20053   4.263   3.442  14.166  0.2909 -0.3185 -0.4476
 2864SOL    HW120054   4.204   3.388  14.219  0.2759  2.2763  2.1736
 2864SOL    HW220055   4.203   3.491  14.110 -0.3586  1.4710  1.8462
 2865SOL     OW20056   1.865   1.539  14.835  0.0033  0.5621 -0.1495
 2865SOL    HW120057   1.783   1.516  14.880  0.4125  2.0602  1.3140
 2865SOL    HW220058   1.831   1.564  14.749 -0.6932 -0.8552 -0.2917
 2866SOL     OW20059   2.845   3.873   2.273 -0.0448 -0.6828  0.3335
 2866SOL    HW120060   2.822   3.855   2.182 -1.4080  1.1057  0.3438
 2866SOL    HW220061   2.827   3.967   2.272 -0.2298 -0.7540 -1.9589
 2867SOL     OW20062   0.888   2.240   1.897 -0.7230 -1.1777  0.0868
 2867SOL    HW120063   0.924   2.160   1.937  1.4365  0.2633  1.0094
 2867SOL    HW220064   0.795   2.243   1.920 -0.2757 -0.6745  1.8279
 2868SOL     OW20065   2.384   0.727   7.121  0.2859 -0.4678 -0.1667
 2868SOL    HW120066   2.369   0.643   7.163  0.1849 -0.1882  0.3462
 2868SOL    HW220067   2.366   0.709   7.028 -1.6147 -0.5573  0.2324
 2869SOL     OW20068   2.281   4.058   6.482  0.1103  0.4392  0.2142
 2869SOL    HW120069   2.225   3.980   6.484  1.8136 -0.7389  2.2950
 2869SOL    HW220070   2.329   4.038   6.562  1.1683 -0.0994 -0.5499
 2870SOL     OW20071   4.298   1.746  11.156 -0.7836  0.3993 -0.0293
 2870SOL    HW120072   4.208   1.738  11.186 -1.3055  1.0150 -1.4484
 2870SOL    HW220073   4.298   1.693  11.077 -1.7390  2.1415 -1.1855
 2871SOL     OW20074   3.047   3.455   6.515 -0.7098  0.0098  0.0700
 2871SOL    HW120075   2.973   3.430   6.461 -0.1261 -2.1931  0.3049
 2871SOL    HW220076   3.023   3.413   6.597  0.4042 -2.9715 -1.1466
 2872SOL     OW20077   3.140   0.424   8.447  0.3407  0.1870 -0.3091
 2872SOL    HW120078   3.115   0.362   8.515 -0.1817 -0.3378 -0.9828
 2872SOL    HW220079   3.231   0.398   8.433  0.2091 -1.6670  2.3195
 2873SOL     OW20080   2.022   0.626   6.805  0.0061  0.1885  0.1192
 2873SOL    HW120081   1.945   0.670   6.769 -0.4851  0.3036  1.2965
 2873SOL    HW220082   2.013   0.648   6.898 -0.4515  0.1969  0.0724
 2874SOL     OW20083   4.373   3.202   3.643  0.2980 -0.9511 -0.4398
 2874SOL    HW120084   4.443   3.250   3.599  0.4968  0.0188  0.9121
 2874SOL    HW220085   4.328   3.178   3.563  0.5047  0.1879 -0.9001
 2875SOL     OW20086   0.226   4.235   5.837  0.0956  0.1025 -0.5148
 2875SOL    HW120087   0.280   4.304   5.874  0.2321 -0.7112  0.7759
 2875SOL    HW220088   0.164   4.215   5.907 -2.0878  1.9873 -1.8938
 2876SOL     OW20089   0.042   2.596   4.601 -0.5661 -0.4885  0.3997
 2876SOL    HW120090   0.138   2.595   4.596 -0.4927  0.6229  1.5214
 2876SOL    HW220091   0.040   2.690   4.618  0.0175 -0.5006  0.5413
 2877SOL     OW20092   2.031   4.229   4.042  0.4290 -0.3649  0.2892
 2877SOL    HW120093   2.099   4.254   4.104  0.8160  1.1945 -0.7434
 2877SOL    HW220094   2.017   4.322   4.022  0.9926 -0.3128  0.1423
 2878SOL     OW20095   1.501   2.262   6.585  0.3351 -0.1701 -0.4546
 2878SOL    HW120096   1.511   2.343   6.635  1.6851 -1.2554  1.0210
 2878SOL    HW220097   1.538   2.200   6.648 -0.4835  0.0635  0.2632
 2879SOL     OW20098   0.728   2.940   8.521 -0.5992  0.1359  0.0766
 2879SOL    HW120099   0.720   2.953   8.427  2.3420 -0.4158 -0.2253
 2879SOL    HW220100   0.797   2.874   8.517  0.1595  0.7679  2.4357
 2880SOL     OW20101   0.407   2.005   3.742 -0.3486  0.3522  0.8156
 2880SOL    HW120102   0.422   2.028   3.651  0.1069  0.3784  0.8961
 2880SOL    HW220103   0.367   1.919   3.730 -0.0098  0.3195 -0.0636
 2881SOL     OW20104   4.526   1.470  15.226 -1.0855  0.1810  0.5998
 2881SOL    HW120105   4.475   1.516  15.160 -1.4317  0.1451  0.8404
 2881SOL    HW220106   4.492   1.381  15.235  1.7666 -0.6786  3.1056
 2882SOL     OW20107   0.941   2.278   6.575 -0.0636 -0.0621 -0.0224
 2882SOL    HW120108   0.907   2.248   6.491 -0.9753 -0.1690  0.3815
 2882SOL    HW220109   0.861   2.287   6.628  0.1292 -0.6016  0.3626
 2883SOL     OW20110   2.427   2.500   7.457  0.3578 -0.2806 -0.0934
 2883SOL    HW120111   2.509   2.524   7.499  0.0353 -1.0814  0.9934
 2883SOL    HW220112   2.461   2.470   7.373 -1.1019 -1.4650 -0.2649
 2884SOL     OW20113   1.827   2.225  11.048 -0.0379 -0.4285 -0.1712
 2884SOL    HW120114   1.875   2.167  10.989  0.9681 -0.4944  0.6971
 2884SOL    HW220115   1.820   2.297  10.985  1.0235 -1.2194 -1.1937
 2885SOL     OW20116   3.135   2.552   2.692  0.3609 -0.3279  0.1739
 2885SOL    HW120117   3.066   2.485   2.687  0.4666 -0.3388 -1.0628
 2885SOL    HW220118   3.199   2.539   2.622 -0.0594 -1.2602 -0.0387
 2886SOL     OW20119   2.587   3.731   6.610  0.2197  0.2423  0.1712
 2886SOL    HW120120   2.634   3.760   6.689  1.5214  2.4182 -1.4222
 2886SOL    HW220121   2.505   3.707   6.653  0.2737  1.6024  1.0326
 2887SOL     OW20122   4.566   2.530   6.856 -0.1600  0.0361  0.6842
 2887SOL    HW120123   4.658   2.504   6.848 -1.2239 -3.4090 -0.5427
 2887SOL    HW220124   4.524   2.444   6.853  0.5658 -0.3412  1.1575
 2888SOL     OW20125   3.974   0.951   7.898 -0.5376 -0.0978  0.7144
 2888SOL    HW120126   4.015   0.969   7.814  0.7398 -0.8500  1.1752
 2888SOL    HW220127   3.909   0.887   7.871 -1.2905  1.4837 -1.2648
 2889SOL     OW20128   3.116   2.682  13.665 -0.4790  0.0455  0.2561
 2889SOL    HW120129   3.091   2.600  13.624  0.5267  0.4170 -1.0856
 2889SOL    HW220130   3.145   2.657  13.753 -1.5989  1.7181  1.1046
 2890SOL     OW20131   3.594   3.771   2.269  0.5123  0.4703  0.6859
 2890SOL    HW120132   3.643   3.777   2.187  0.2517  0.1274  0.5041
 2890SOL    HW220133   3.577   3.678   2.279 -0.4494  0.5425 -0.2373
 2891SOL     OW20134   1.754   3.427  16.433 -0.5639 -0.0142 -0.3785
 2891SOL    HW120135   1.715   3.477  16.361  0.6175  0.7244 -0.5238
 2891SOL    HW220136   1.741   3.480  16.512 -1.8329 -0.1018 -0.5348
 2892SOL     OW20137   3.324   3.853   7.282 -0.0213  0.1272  0.2678
 2892SOL    HW120138   3.292   3.941   7.300  1.7871  0.9585 -0.6140
 2892SOL    HW220139   3.392   3.837   7.347 -1.1426  1.3799  1.7474
 2893SOL     OW20140   3.137   1.870   9.416  0.5374  0.1951  0.1395
 2893SOL    HW120141   3.142   1.776   9.401  1.0050  0.2833 -0.2625
 2893SOL    HW220142   3.043   1.889   9.411  1.0539  3.0967  1.5123
 2894SOL     OW20143   0.505   0.499   1.360  0.3624  0.3076 -0.8124
 2894SOL    HW120144   0.441   0.461   1.419  1.7036 -0.3061  0.2359
 2894SOL    HW220145   0.581   0.445   1.380 -0.4451 -0.5844 -0.1421
 2895SOL     OW20146   4.461   0.709   8.509 -0.0628  0.2037 -0.6469
 2895SOL    HW120147   4.533   0.769   8.527  0.2691 -0.0318 -1.2033
 2895SOL    HW220148   4.408   0.703   8.589  2.5512  2.3497  1.2735
 2896SOL     OW20149   2.790   2.875   5.039  0.1375 -0.3698 -0.3779
 2896SOL    HW120150   2.769   2.926   4.961 -0.7666  0.3189  0.3132
 2896SOL    HW220151   2.713   2.819   5.055  0.6111 -1.0333 -0.4165
 2897SOL     OW20152   2.275   3.591   3.942 -0.3197  0.2098  0.0358
 2897SOL    HW120153   2.222   3.612   3.865  1.7677  1.0275 -1.1669
 2897SOL    HW220154   2.219   3.520   3.974  0.5410 -0.8758 -0.8755
 2898SOL     OW20155   0.037   2.725  10.559 -0.0172  0.4709 -0.1938
 2898SOL    HW120156   0.090   2.675  10.497  1.5605  1.4597  0.3745
 2898SOL    HW220157   0.048   2.816  10.531  1.1939 -0.1096 -1.5776
 2899SOL     OW20158   3.194   3.628   6.079  0.2890  0.0956 -0.3461
 2899SOL    HW120159   3.206   3.719   6.051 -0.3400 -0.2257 -1.6866
 2899SOL    HW220160   3.288   3.613   6.086  0.1962 -1.6139 -2.5740
 2900SOL     OW20161   3.631   0.814  13.112 -0.7582 -0.5788  0.5623
 2900SOL    HW120162   3.710   0.782  13.155 -0.1921  0.0561 -0.0095
 2900SOL    HW220163   3.571   0.818  13.186  0.2985 -1.4051  1.4520
 2901SOL     OW20164   4.165   0.638   6.752 -0.3598 -0.4411 -0.1760
 2901SOL    HW120165   4.235   0.685   6.705  0.1678  1.2634  2.3063
 2901SOL    HW220166   4.090   0.655   6.696  1.7308  1.0220 -2.5764
 2902SOL     OW20167   3.021   2.722   6.157  0.0673  0.1225  0.4148
 2902SOL    HW120168   2.981   2.710   6.244 -0.0880  0.7996  0.4375
 2902SOL    HW220169   2.956   2.788   6.132 -1.4470 -0.5469  2.5296
 2903SOL     OW20170   2.111   2.649   6.992  0.2210 -0.0547 -0.3178
 2903SOL    HW120171   2.155   2.570   7.024 -2.0367 -1.0258  0.4328
 2903SOL    HW220172   2.158   2.722   7.031 -1.3957  1.1693 -0.6523
 2904SOL     OW20173   3.981   4.227   2.504  0.8076 -0.2742  0.6639
 2904SOL    HW120174   4.017   4.235   2.592  0.8948 -1.3760  0.7387
 2904SOL    HW220175   3.943   4.139   2.503 -0.9708  0.5015 -0.9998
 2905SOL     OW20176   1.436   1.441   6.546 -0.1139 -0.0985  0.6470
 2905SOL    HW120177   1.382   1.379   6.595  0.6437 -2.3462 -1.4022
 2905SOL    HW220178   1.389   1.453   6.464  0.3925  0.5343  0.4466
 2906SOL     OW20179   0.643   0.572   4.498 -0.5279 -0.4546 -0.1440
 2906SOL    HW120180   0.699   0.647   4.518  0.3139 -1.3832  1.0484
 2906SOL    HW220181   0.650   0.570   4.403 -0.8444 -1.5297 -0.1367
 2907SOL     OW20182   0.049   3.289  17.254  0.1701  0.0980 -0.2073
 2907SOL    HW120183   0.065   3.326  17.167 -1.0539 -1.8650 -1.2379
 2907SOL    HW220184   0.030   3.369  17.303 -1.4688 -0.0044 -0.6742
 2908SOL     OW20185   1.051   0.451  15.760 -0.1756 -0.3064  0.2210
 2908SOL    HW120186   0.962   0.427  15.785  0.6505 -2.7693  0.7536
 2908SOL    HW220187   1.042   0.490  15.673  1.4766  0.1625  0.2628
 2909SOL     OW20188   0.637   0.266   4.498 -0.0470 -0.0351  0.6740
 2909SOL    HW120189   0.637   0.360   4.481 -0.2356 -0.2054 -0.2571
 2909SOL    HW220190   0.719   0.245   4.453  0.3731  0.7268  1.0962
 2910SOL     OW20191   3.149   4.100  16.404  0.2578 -0.2129  0.0818
 2910SOL    HW120192   3.194   4.177  16.440 -0.0963 -0.0930  0.2798
 2910SOL    HW220193   3.097   4.080  16.482 -0.5687 -0.6977 -0.5846
 2911SOL     OW20194   1.530   4.014   4.711  0.2683 -0.4703 -0.3503
 2911SOL    HW120195   1.486   4.042   4.630 -2.6225 -1.7441  0.7890
 2911SOL    HW220196   1.499   4.086   4.765 -0.1965 -1.8365  1.2100
 2912SOL     OW20197   3.802   0.002  11.647 -0.2879  0.0294 -0.2978
 2912SOL    HW120198   3.850   4.643  11.662 -2.0422 -1.2301 -1.4606
 2912SOL    HW220199   3.753   0.009  11.729  0.4381 -0.7721  0.1962
 2913SOL     OW20200   0.529   1.606   5.964  0.4800 -0.3616  0.4302
 2913SOL    HW120201   0.576   1.671   6.015 -2.4306  1.9849  0.1219
 2913SOL    HW220202   0.551   1.526   6.011 -0.5159  0.6785  2.6615
 2914SOL     OW20203   0.990   1.982   7.119  0.1594  0.2935 -0.0511
 2914SOL    HW120204   0.988   1.899   7.166  2.2150  0.6903  0.7338
 2914SOL    HW220205   1.061   1.961   7.059  0.4666 -3.1047  1.4965
 2915SOL     OW20206   0.144   4.539   4.547 -0.8985 -0.0964  0.0167
 2915SOL    HW120207   0.134   4.539   4.452  0.0549 -1.8884 -0.0861
 2915SOL    HW220208   0.239   4.527   4.548 -0.6462  1.8911  1.0552
 2916SOL     OW20209   3.863   2.856   1.710  0.4757 -1.0394 -0.1382
 2916SOL    HW120210   3.943   2.833   1.663  2.6014  0.3378  2.7790
 2916SOL    HW220211   3.817   2.774   1.692 -0.9648 -0.7333  2.2329
 2917SOL     OW20212   0.299   4.499   0.574 -0.1373  0.3946  0.1173
 2917SOL    HW120213   0.363   4.464   0.512  1.7489  2.4007  0.9409
 2917SOL    HW220214   0.312   4.429   0.639  0.7007  1.4763  1.0974
 2918SOL     OW20215   1.906   2.938   8.436  0.6123  0.7207  0.6333
 2918SOL    HW120216   1.930   3.029   8.416  1.0413  0.7734  1.3746
 2918SOL    HW220217   1.854   2.908   8.362  1.5979 -0.1501  0.2890
 2919SOL     OW20218   1.327   0.993   5.699 -0.7994 -0.6552  0.5040
 2919SOL    HW120219   1.331   0.898   5.696  1.8431 -0.5271 -0.0110
 2919SOL    HW220220   1.281   1.008   5.617 -0.1320  0.3806  0.3211
 2920SOL     OW20221   4.005   2.547   0.289  0.6542 -0.2259  0.1688
 2920SOL    HW120222   4.001   2.617   0.355  1.6852  0.1538 -0.1628
 2920SOL    HW220223   3.947   2.478   0.320 -0.9572  0.4983 -1.2812
 2921SOL     OW20224   2.629   0.597  16.970 -0.2689 -0.1592 -0.1950
 2921SOL    HW120225   2.714   0.622  16.934 -0.3717  1.2591  0.5294
 2921SOL    HW220226   2.626   0.666  17.037 -1.3099  1.4443 -1.8904
 2922SOL     OW20227   1.843   1.773   4.570 -0.0411  0.7868  0.4983
 2922SOL    HW120228   1.929   1.807   4.545 -0.4189  0.5948 -1.0721
 2922SOL    HW220229   1.793   1.851   4.597 -3.8052 -1.0437 -1.1763
 2923SOL     OW20230   0.758   0.464   3.782  0.1617  0.2180  0.2266
 2923SOL    HW120231   0.670   0.441   3.751  0.2379  2.4369 -1.6552
 2923SOL    HW220232   0.767   0.398   3.850  0.0282 -0.0619 -0.0277
 2924SOL     OW20233   4.662   2.984   3.495  0.4419  0.1013 -0.7792
 2924SOL    HW120234   4.596   2.941   3.550  2.3807 -1.2302  0.5018
 2924SOL    HW220235   0.020   2.996   3.546  1.0659  1.2854 -2.0495
 2925SOL     OW20236   1.531   1.785   6.944 -0.7141 -0.1089  0.2835
 2925SOL    HW120237   1.522   1.806   7.036  2.1485 -0.5202  0.6455
 2925SOL    HW220238   1.540   1.690   6.937  1.5442  0.1536 -0.3245
 2926SOL     OW20239   0.212   3.427   7.685 -0.1385  0.1006 -0.1185
 2926SOL    HW120240   0.134   3.375   7.667  0.3325 -0.6578  0.0102
 2926SOL    HW220241   0.216   3.435   7.780 -1.1616  4.2740 -0.4197
 2927SOL     OW20242   3.495   0.140   2.121  0.6144 -0.1683  0.4641
 2927SOL    HW120243   3.437   0.216   2.120  1.0716  0.1795  0.1168
 2927SOL    HW220244   3.561   0.172   2.059  1.8340 -1.6551  0.9993
 2928SOL     OW20245   3.714   0.136   3.296 -0.0880 -0.1466  0.6719
 2928SOL    HW120246   3.682   0.207   3.351  0.1745  0.2753  0.2802
 2928SOL    HW220247   3.634   0.100   3.259  1.1906 -4.3264  1.9020
 2929SOL     OW20248   2.499   0.371   5.113  0.1413 -0.1624  0.1978
 2929SOL    HW120249   2.413   0.348   5.149 -1.4528  2.5040 -1.8825
 2929SOL    HW220250   2.528   0.455   5.149 -3.1269  0.6886  0.8547
 2930SOL     OW20251   1.394   2.764   5.164  0.1362 -0.2929  0.8112
 2930SOL    HW120252   1.374   2.686   5.216 -1.3390 -0.2851  0.2505
 2930SOL    HW220253   1.325   2.825   5.191  2.2408  2.3696  0.2190
 2931SOL     OW20254   2.880   4.096  10.460  0.1045  0.6299  0.2527
 2931SOL    HW120255   2.868   4.175  10.409  2.9276  1.0628  0.2552
 2931SOL    HW220256   2.889   4.128  10.550 -1.9490  1.2477  0.2274
 2932SOL     OW20257   1.429   2.537   6.679  0.0432 -0.2245 -0.0010
 2932SOL    HW120258   1.518   2.566   6.698 -0.1474  0.7069 -0.5626
 2932SOL    HW220259   1.414   2.592   6.602 -0.4525  0.6716  0.7326
 2933SOL     OW20260   0.432   2.873   0.625 -0.3452  0.1069 -0.5043
 2933SOL    HW120261   0.483   2.948   0.596  0.1840  0.8386  2.3347
 2933SOL    HW220262   0.344   2.904   0.645 -1.5493 -2.5351 -1.6127
 2934SOL     OW20263   4.531   1.914   2.895 -0.4366 -0.4262 -0.0542
 2934SOL    HW120264   4.507   1.972   2.823  2.0890  0.0564 -0.5338
 2934SOL    HW220265   4.626   1.911   2.884 -0.6189  1.0417 -1.9897
 2935SOL     OW20266   3.042   2.174  10.038  0.0187  0.0978  0.1803
 2935SOL    HW120267   3.043   2.269  10.025 -0.7359 -0.1928 -1.9259
 2935SOL    HW220268   3.103   2.151   9.968  0.4009 -1.2302  0.9290
 2936SOL     OW20269   4.156   0.598   2.276 -0.3781  0.1273 -0.0300
 2936SOL    HW120270   4.132   0.601   2.368  1.8788 -1.9204  0.6136
 2936SOL    HW220271   4.249   0.592   2.296 -0.1652 -1.8859 -1.5845
 2937SOL     OW20272   1.311   1.119   3.012  0.6224  0.2691 -0.5399
 2937SOL    HW120273   1.383   1.151   2.958  3.2996 -0.6900  2.4471
 2937SOL    HW220274   1.354   1.066   3.079  1.7174 -0.1624 -1.5798
 2938SOL     OW20275   2.036   2.354   4.856 -0.1231 -0.0693  0.2264
 2938SOL    HW120276   2.112   2.347   4.915  0.5353 -0.4543 -0.6697
 2938SOL    HW220277   1.957   2.334   4.907 -1.0166  0.8705 -0.8155
 2939SOL     OW20278   0.862   0.017  12.078  0.0486  0.1053  0.0190
 2939SOL    HW120279   0.938   4.700  12.120 -0.1738  0.0345  0.3534
 2939SOL    HW220280   0.801   0.034  12.150 -0.0619  0.8806 -0.2545
 2940SOL     OW20281   4.228   1.882   9.538  0.0243  0.4985  0.2475
 2940SOL    HW120282   4.210   1.899   9.630  0.9521  3.4126 -0.1240
 2940SOL    HW220283   4.323   1.870   9.539 -0.0771 -0.4997 -1.9158
 2941SOL     OW20284   0.599   2.592  10.270 -0.3375  0.2809 -0.4725
 2941SOL    HW120285   0.557   2.612  10.354 -0.4059 -0.9132 -0.2157
 2941SOL    HW220286   0.688   2.589  10.306 -0.8353 -0.1531  0.7275
 2942SOL     OW20287   3.652   1.187   9.714 -0.2793  0.5187 -0.0930
 2942SOL    HW120288   3.694   1.135   9.783  0.0069 -0.2502 -0.8360
 2942SOL    HW220289   3.728   1.194   9.656  0.2024 -1.2567  0.3173
 2943SOL     OW20290   1.348   3.456   1.722 -0.0279 -0.3077  0.0808
 2943SOL    HW120291   1.275   3.418   1.672  1.1447 -0.4528 -1.5201
 2943SOL    HW220292   1.421   3.407   1.683  0.0066 -1.2906  1.3774
 2944SOL     OW20293   3.041   0.216   2.575  0.4742  0.2796  0.0810
 2944SOL    HW120294   2.992   0.178   2.502  0.7772 -0.0476  0.0508
 2944SOL    HW220295   3.118   0.244   2.527  0.0736  4.0590  1.5719
 2945SOL     OW20296   3.453   1.309   8.557  0.6581  0.4301  0.0360
 2945SOL    HW120297   3.498   1.225   8.548  0.5297  0.2995  0.6494
 2945SOL    HW220298   3.461   1.332   8.464 -1.7770  0.4149 -0.1906
 2946SOL     OW20299   2.634   2.605   9.464  0.5283  0.5924  0.5522
 2946SOL    HW120300   2.555   2.646   9.429  1.0436 -0.0984 -1.3950
 2946SOL    HW220301   2.696   2.591   9.393  0.0137  1.2949 -0.0267
 2947SOL     OW20302   1.275   0.764   3.109 -0.4570 -0.4307  0.0379
 2947SOL    HW120303   1.267   0.823   3.035 -0.1353 -0.1441  0.2291
 2947SOL    HW220304   1.303   0.822   3.180 -0.5151 -0.7410  0.3132
 2948SOL     OW20305   4.008   4.322   8.645 -0.3555 -0.0196 -0.0464
 2948SOL    HW120306   4.079   4.301   8.584 -0.6597  1.4269 -0.9149
 2948SOL    HW220307   4.049   4.359   8.724 -0.3784 -3.3049  1.4718
 2949SOL     OW20308   0.276   0.524   3.059 -0.5317  0.3079  0.1490
 2949SOL    HW120309   0.231   0.592   3.008 -2.4595 -2.1205 -1.3821
 2949SOL    HW220310   0.267   0.453   2.996 -0.8938  1.2228 -0.8375
 2950SOL     OW20311   3.522   2.569   7.839  0.1414 -0.3515 -1.1608
 2950SOL    HW120312   3.550   2.656   7.813  1.3668  0.0825  1.5361
 2950SOL    HW220313   3.602   2.527   7.872 -0.9073  0.2958  2.2815
 2951SOL     OW20314   3.251   4.380  13.545 -0.5484  0.1497 -0.1965
 2951SOL    HW120315   3.279   4.312  13.606 -1.8881 -1.0808 -0.9552
 2951SOL    HW220316   3.236   4.325  13.468  0.3525  2.3037 -1.9397
 2952SOL     OW20317   3.876   1.095   2.152  0.4564 -0.4041  0.2952
 2952SOL    HW120318   3.930   1.025   2.114 -0.4258  0.5987 -2.8049
 2952SOL    HW220319   3.839   1.118   2.067 -0.4320  1.7061  1.2704
 2953SOL     OW20320   4.279   0.168   1.438  0.0025  0.3813 -0.1253
 2953SOL    HW120321   4.333   0.092   1.418  0.3438  0.2470  1.2960
 2953SOL    HW220322   4.205   0.163   1.377 -1.4265  0.0025  1.6499
 2954SOL     OW20323   1.245   1.554   4.152 -0.0039  0.2038  0.4989
 2954SOL    HW120324   1.311   1.540   4.219  1.1917 -0.0915 -0.7368
 2954SOL    HW220325   1.276   1.633   4.108 -0.8468  0.3657  0.1949
 2955SOL     OW20326   0.297   4.709   2.704  0.1442 -0.7207  0.1620
 2955SOL    HW120327   0.235   4.688   2.634  1.2623 -2.1762 -0.4046
 2955SOL    HW220328   0.319   4.623   2.740  3.9768  0.8960  1.7398
 2956SOL     OW20329   3.462   2.432   4.815 -0.0974  0.1905 -0.1305
 2956SOL    HW120330   3.373   2.463   4.801 -0.5988 -0.4964  1.5102
 2956SOL    HW220331   3.455   2.384   4.898  2.5851 -0.2677 -0.1503
 2957SOL     OW20332   4.321   3.069   1.228  0.0557  0.3793 -0.1908
 2957SOL    HW120333   4.273   3.145   1.261  1.3368  1.4599 -0.8318
 2957SOL    HW220334   4.411   3.101   1.237  0.6812 -1.0163 -1.5923
 2958SOL     OW20335   2.628   3.473   3.561  0.5665 -0.0965  0.2340
 2958SOL    HW120336   2.608   3.491   3.469 -1.3508 -1.6326  0.3480
 2958SOL    HW220337   2.663   3.562   3.567  0.2516  0.2091 -2.2414
 2959SOL     OW20338   0.707   4.639   3.186 -0.4574 -0.0872 -0.1486
 2959SOL    HW120339   0.701   4.650   3.091  1.4624  0.5523 -0.1846
 2959SOL    HW220340   0.773   4.570   3.191  0.9449  1.2279 -0.5573
 2960SOL     OW20341   3.536   4.493   9.162 -0.2521  0.0725 -0.7833
 2960SOL    HW120342   3.496   4.557   9.220 -0.5095 -0.2843 -0.5723
 2960SOL    HW220343   3.464   4.437   9.133  0.4105 -0.3764 -1.6062
 2961SOL     OW20344   4.555   0.176   7.294 -0.1622 -0.0756 -0.0059
 2961SOL    HW120345   4.587   0.176   7.384 -0.9324  0.8561  0.2689
 2961SOL    HW220346   4.467   0.139   7.295 -0.2744  0.1531 -1.6985
 2962SOL     OW20347   1.980   3.997   6.944 -0.0084  0.2655 -0.4603
 2962SOL    HW120348   1.936   4.065   6.893 -0.5983 -0.6590 -1.1756
 2962SOL    HW220349   1.974   4.030   7.033  0.1803 -1.6436  0.2574
 2963SOL     OW20350   4.674   0.530   9.099  0.0080  0.0058  0.0360
 2963SOL    HW120351   4.706   0.447   9.065  3.6508  2.4146 -2.5564
 2963SOL    HW220352   4.674   0.519   9.194 -1.0751 -1.8244 -0.1930
 2964SOL     OW20353   1.856   0.409  11.966 -0.2671 -0.1747  0.5329
 2964SOL    HW120354   1.829   0.418  12.058  0.8568 -0.1597  0.8591
 2964SOL    HW220355   1.839   0.316  11.952 -2.2242  0.1881  0.3688
 2965SOL     OW20356   2.724   1.287   1.666 -0.1345  0.2098 -0.5680
 2965SOL    HW120357   2.742   1.317   1.577  0.1462 -0.9469 -0.8921
 2965SOL    HW220358   2.708   1.195   1.647 -0.2067 -0.1034  1.0052
 2966SOL     OW20359   1.486   3.055  13.557  0.3927 -0.3382 -0.5830
 2966SOL    HW120360   1.573   3.063  13.596  0.4980 -0.5646 -0.7779
 2966SOL    HW220361   1.443   3.109  13.624  0.9080  1.3540 -1.5939
 2967SOL     OW20362   2.434   0.080  11.861 -0.0723  0.5705 -0.1411
 2967SOL    HW120363   2.383   0.140  11.914  4.0031  4.7072 -0.9268
 2967SOL    HW220364   2.374   0.005  11.854 -0.6263  1.1529 -1.5567
 2968SOL     OW20365   4.169   4.155   6.781  0.0412 -0.3960 -0.3758
 2968SOL    HW120366   4.137   4.231   6.732  3.4267  1.9950  1.1601
 2968SOL    HW220367   4.093   4.121   6.828  2.6095 -4.1161  1.0901
 2969SOL     OW20368   1.293   2.676   2.017 -0.0185  0.3085  0.7312
 2969SOL    HW120369   1.334   2.659   1.932 -0.5499  0.6146  0.4201
 2969SOL    HW220370   1.367   2.717   2.061  1.5499 -1.2263 -0.4497
 2970SOL     OW20371   0.331   0.130   1.343 -0.0603 -0.2647  0.1591
 2970SOL    HW120372   0.294   0.193   1.281  1.3380 -1.8756 -2.3061
 2970SOL    HW220373   0.361   0.192   1.410  0.1694 -1.7498  1.4208
 2971SOL     OW20374   1.086   1.937   2.672 -0.0663  0.3457 -0.0572
 2971SOL    HW120375   1.030   2.012   2.656  0.2899  0.2555 -1.6585
 2971SOL    HW220376   1.111   1.914   2.583 -0.0775  1.9147 -0.4552
 2972SOL     OW20377   4.173   4.123   6.201 -0.0638 -0.0196  0.3454
 2972SOL    HW120378   4.100   4.182   6.183 -0.2673 -0.4637 -0.2899
 2972SOL    HW220379   4.138   4.067   6.270  1.5982  0.1536  1.3273
 2973SOL     OW20380   0.593   3.682   1.522 -0.4861 -0.0500 -0.3652
 2973SOL    HW120381   0.659   3.619   1.492 -0.4995  0.8989 -2.4292
 2973SOL    HW220382   0.599   3.676   1.617 -2.6489  0.8256 -0.1621
 2974SOL     OW20383   3.742   1.132  14.092  0.8489 -0.2558  0.1911
 2974SOL    HW120384   3.827   1.145  14.050 -0.2106  1.3328 -1.4195
 2974SOL    HW220385   3.692   1.209  14.069 -0.9205 -1.7431 -0.9335
 2975SOL     OW20386   3.838   0.395  16.272  0.2700 -0.3738  0.5536
 2975SOL    HW120387   3.816   0.321  16.329 -0.4824 -0.6649 -0.1137
 2975SOL    HW220388   3.756   0.436  16.244  0.7295  0.0444 -0.1800
 2976SOL     OW20389   3.598   2.806   7.581 -0.7617 -0.2271 -0.6759
 2976SOL    HW120390   3.565   2.873   7.521  1.9287  1.1150 -0.6548
 2976SOL    HW220391   3.693   2.802   7.567 -0.8551 -1.5741 -0.8936
 2977SOL     OW20392   1.595   4.394   4.155  0.1601 -0.6158 -0.5558
 2977SOL    HW120393   1.677   4.351   4.181  0.4640 -0.3868 -1.1344
 2977SOL    HW220394   1.589   4.388   4.060 -1.8719 -0.6933 -0.4108
 2978SOL     OW20395   0.034   2.741   1.230  0.0757 -0.2327  0.1361
 2978SOL    HW120396   0.075   2.696   1.304 -1.8826 -0.8787  0.8265
 2978SOL    HW220397   0.101   2.808   1.217  0.8638 -0.5467  2.5921
 2979SOL     OW20398   2.604   3.115  10.355  0.1343 -0.4353  0.1248
 2979SOL    HW120399   2.583   3.068  10.275  2.0126 -0.6159 -0.2728
 2979SOL    HW220400   2.673   3.062  10.394  1.5943  0.4314 -1.2635
 2980SOL     OW20401   2.934   2.860   9.324 -0.0151  0.0651 -0.4183
 2980SOL    HW120402   2.945   2.921   9.397  1.5430  1.1503 -1.5514
 2980SOL    HW220403   2.963   2.783   9.373  1.7803  0.8606 -0.2275
 2981SOL     OW20404   3.893   1.971   7.992 -0.0523  0.1341 -0.3751
 2981SOL    HW120405   3.966   2.014   7.948 -0.0795 -0.0459 -0.5974
 2981SOL    HW220406   3.941   1.909   8.047 -0.3835  0.2300  0.0284
 2982SOL     OW20407   3.083   4.424  11.404 -0.0915  0.0087 -0.2987
 2982SOL    HW120408   3.113   4.449  11.317  3.8807 -1.2795  0.6853
 2982SOL    HW220409   2.991   4.443  11.389 -0.0245 -0.4905 -1.3391
 2983SOL     OW20410   2.109   0.877   5.611 -0.0141  0.6772  0.2216
 2983SOL    HW120411   2.194   0.861   5.652  0.4735  0.0763 -1.0132
 2983SOL    HW220412   2.112   0.972   5.623  2.4414  0.8807 -2.0053
 2984SOL     OW20413   1.604   0.369   0.475 -0.0202  0.2339  0.1243
 2984SOL    HW120414   1.679   0.310   0.484 -0.0791  0.4225  2.0021
 2984SOL    HW220415   1.650   0.426   0.414  0.3272  0.4211  0.5637
 2985SOL     OW20416   1.719   1.961  16.350  0.0429 -0.2706  0.0646
 2985SOL    HW120417   1.727   1.923  16.262  1.4409  0.0905  0.0285
 2985SOL    HW220418   1.758   1.892  16.404 -0.8750 -1.4090 -0.7261
 2986SOL     OW20419   4.193   3.492  11.344  0.7331 -0.5321 -0.0315
 2986SOL    HW120420   4.162   3.478  11.434  2.9575 -1.2732  0.6101
 2986SOL    HW220421   4.247   3.570  11.346 -1.4546  0.9521  1.6485
 2987SOL     OW20422   1.677   3.109  15.826  0.0675 -0.3076 -0.6233
 2987SOL    HW120423   1.720   3.098  15.911 -0.6626  0.9236 -0.1006
 2987SOL    HW220424   1.591   3.069  15.838  0.1286 -0.1704  0.2416
 2988SOL     OW20425   4.463   0.080  17.645  0.0399  0.2586 -0.0324
 2988SOL    HW120426   4.545   0.077   0.004  0.7324  2.8349 -1.0045
 2988SOL    HW220427   4.496   0.047  17.562 -0.7973 -0.8426  0.0806
 2989SOL     OW20428   4.266   2.384   5.538 -0.1567  0.2328  0.0475
 2989SOL    HW120429   4.303   2.470   5.517  0.7725  0.0555  0.9616
 2989SOL    HW220430   4.342   2.338   5.574 -0.5817  0.9153  1.7878
 2990SOL     OW20431   1.851   3.042   6.235  0.3680  0.7728  0.1792
 2990SOL    HW120432   1.921   3.015   6.175  0.0448  2.7907 -1.1068
 2990SOL    HW220433   1.858   2.967   6.294 -0.2977  1.6133  1.3098
 2991SOL     OW20434   2.230   4.067   7.918  0.4932  0.3964 -0.5224
 2991SOL    HW120435   2.322   4.041   7.916  0.4401  0.1939 -0.2969
 2991SOL    HW220436   2.232   4.155   7.957  1.2964 -0.5530  1.5925
 2992SOL     OW20437   3.388   1.231  11.351  0.0218  0.0373  0.5265
 2992SOL    HW120438   3.417   1.323  11.354  2.0348 -0.5175 -1.6611
 2992SOL    HW220439   3.428   1.202  11.269 -1.3338  1.1502 -0.5316
 2993SOL     OW20440   4.506   2.489  12.202  0.2294  0.3640 -0.1030
 2993SOL    HW120441   4.555   2.533  12.133 -0.9520  0.4970 -0.8511
 2993SOL    HW220442   4.421   2.527  12.182 -0.4318 -1.3656 -0.5591
 2994SOL     OW20443   2.924   4.422   6.383 -0.4077 -0.2841 -0.4037
 2994SOL    HW120444   2.842   4.395   6.425  0.0475  0.5377  1.0291
 2994SOL    HW220445   2.943   4.512   6.409 -1.2827 -0.5267  1.1243
 2995SOL     OW20446   2.494   1.433   5.332  0.4286 -0.3896 -0.1417
 2995SOL    HW120447   2.402   1.408   5.335  0.1346  0.7908  0.7230
 2995SOL    HW220448   2.504   1.447   5.238 -2.5676  3.5545  0.1483
 2996SOL     OW20449   1.785   1.278   6.838 -0.3116  0.4412 -0.1885
 2996SOL    HW120450   1.851   1.317   6.781  1.0922 -0.8206  0.5688
 2996SOL    HW220451   1.744   1.220   6.774 -0.8577  0.8139 -0.1809
 2997SOL     OW20452   3.883   3.870   8.323 -0.2109  1.0951  0.1064
 2997SOL    HW120453   3.940   3.826   8.259 -0.6280 -1.4810  1.4900
 2997SOL    HW220454   3.923   3.843   8.406  3.6244 -0.4145 -2.1857
 2998SOL     OW20455   3.211   3.870   4.989  0.0390  0.3136  0.1357
 2998SOL    HW120456   3.277   3.807   5.018 -0.1166 -0.5161 -1.2650
 2998SOL    HW220457   3.143   3.826   5.041 -0.4520  0.5718 -0.2894
 2999SOL     OW20458   2.085   1.063   8.830 -0.0354  0.7224 -0.0888
 2999SOL    HW120459   2.008   1.091   8.879 -0.8868  0.1846 -1.1500
 2999SOL    HW220460   2.069   0.969   8.822 -2.4243  0.9922  1.6125
 3000SOL     OW20461   0.802   4.013  13.220 -0.3626 -1.1851  0.0015
 3000SOL    HW120462   0.837   3.941  13.272 -1.0984  0.1297  2.3382
 3000SOL    HW220463   0.710   3.985  13.222 -1.0491  0.9805 -2.5824
 3001SOL     OW20464   0.420   3.824   1.031  0.2500 -0.0609 -0.0994
 3001SOL    HW120465   0.328   3.838   1.054  0.1880 -0.1687 -0.2749
 3001SOL    HW220466   0.457   3.771   1.101  0.5519  1.1031  0.6265
 3002SOL     OW20467   2.766   2.605   3.709 -0.0063  0.2069  0.4513
 3002SOL    HW120468   2.774   2.687   3.758  0.6594 -0.5410  1.5885
 3002SOL    HW220469   2.692   2.556   3.745  0.8082 -0.8511  0.6661
 3003SOL     OW20470   0.414   2.237   9.226  0.2438  0.6977  0.0832
 3003SOL    HW120471   0.473   2.294   9.275  0.4104 -0.8932  1.6999
 3003SOL    HW220472   0.396   2.162   9.283  2.2923  1.1793  1.3332
 3004SOL     OW20473   4.421   4.081   2.812  0.8334 -0.3455 -0.5470
 3004SOL    HW120474   4.486   4.058   2.746  2.3819  1.4869  0.3485
 3004SOL    HW220475   4.345   4.042   2.769 -1.2956  0.1053  2.8184
 3005SOL     OW20476   0.826   3.912   8.634 -0.1626  0.0277 -0.4477
 3005SOL    HW120477   0.761   3.954   8.691  1.0244  1.2835 -0.0362
 3005SOL    HW220478   0.894   3.889   8.697 -1.0322  0.4083  0.6340
 3006SOL     OW20479   4.570   2.409  10.958  0.2292 -0.5571 -0.0228
 3006SOL    HW120480   4.641   2.427  11.020  0.6752  1.7154 -1.2000
 3006SOL    HW220481   4.612   2.371  10.881 -0.6536 -1.2466 -0.1717
 3007SOL     OW20482   1.001   0.501   6.290  0.4789  0.3753 -0.5214
 3007SOL    HW120483   1.013   0.438   6.219  3.2573  1.0512 -0.6587
 3007SOL    HW220484   0.947   0.453   6.353  0.3281  0.2023 -0.7836
 3008SOL     OW20485   3.967   3.628  12.293 -0.7885 -0.1345 -0.6120
 3008SOL    HW120486   3.905   3.692  12.327  1.8331  2.1160 -0.1199
 3008SOL    HW220487   3.926   3.552  12.335 -0.4322 -0.0789 -0.1674
 3009SOL     OW20488   3.285   0.506   5.316 -0.4224 -0.6918  0.1704
 3009SOL    HW120489   3.220   0.554   5.265  1.0360  2.3845  1.2128
 3009SOL    HW220490   3.251   0.532   5.402 -1.4047  0.6481 -0.6155
 3010SOL     OW20491   2.824   2.545   9.237 -0.1362  0.8198 -0.6197
 3010SOL    HW120492   2.901   2.512   9.284 -2.0538 -0.8481  1.3551
 3010SOL    HW220493   2.798   2.479   9.172 -0.1658  1.5821 -1.3775
 3011SOL     OW20494   3.909   1.035   5.807 -0.5925 -0.2738 -0.1535
 3011SOL    HW120495   3.942   1.114   5.764  0.5581 -0.3987  0.5177
 3011SOL    HW220496   3.840   1.005   5.747  3.2360 -0.3834 -4.4824
 3012SOL     OW20497   2.842   4.674   2.666 -0.3359 -0.2200 -0.1154
 3012SOL    HW120498   2.782   4.688   2.739 -0.6857 -0.4670 -0.3547
 3012SOL    HW220499   2.917   0.003   2.696 -0.2588 -1.3168  1.5946
 3013SOL     OW20500   3.618   1.190   3.740  0.2349 -0.1323  0.1040
 3013SOL    HW120501   3.591   1.270   3.784  3.7774  0.5907  0.9432
 3013SOL    HW220502   3.536   1.166   3.697  0.5204 -0.2371 -0.3831
 3014SOL     OW20503   3.401   3.591   8.111  0.3514  0.2287  0.1516
 3014SOL    HW120504   3.454   3.666   8.139  0.8006  0.3925 -1.1051
 3014SOL    HW220505   3.338   3.576   8.182  0.1103  0.6445  0.0255
 3015SOL     OW20506   0.242   2.542   8.263 -0.1481 -0.0954  0.2474
 3015SOL    HW120507   0.269   2.634   8.254 -0.6722  0.2609  2.4744
 3015SOL    HW220508   0.175   2.558   8.329 -0.4772  1.2704 -0.4151
 3016SOL     OW20509   3.053   0.744  12.501  0.0640 -1.2686 -0.2917
 3016SOL    HW120510   3.016   0.771  12.417  0.1833  0.8742  0.3445
 3016SOL    HW220511   3.136   0.706  12.473  1.9752  0.0426  3.5536
 3017SOL     OW20512   4.328   3.286   3.215  0.4365  0.1697 -0.5553
 3017SOL    HW120513   4.280   3.246   3.142  1.1020 -2.1080  0.2857
 3017SOL    HW220514   4.357   3.366   3.170  0.9432  0.0113 -0.5077
 3018SOL     OW20515   1.280   3.219   6.804  0.1215 -0.1041 -0.3648
 3018SOL    HW120516   1.305   3.311   6.797  2.1103 -0.6344 -0.2514
 3018SOL    HW220517   1.194   3.237   6.843  0.8314 -0.0977  1.2316
 3019SOL     OW20518   3.858   3.480   9.002 -0.4964  0.0344 -0.0729
 3019SOL    HW120519   3.945   3.449   8.977  0.1023  0.7064  1.1920
 3019SOL    HW220520   3.859   3.475   9.098  2.1073 -0.2713 -0.1293
 3020SOL     OW20521   3.549   2.715   9.257  0.1819  0.4672  0.0604
 3020SOL    HW120522   3.463   2.737   9.222 -0.6066  0.1797  1.7765
 3020SOL    HW220523   3.558   2.764   9.339 -1.4794  1.8534 -0.6065
 3021SOL     OW20524   1.187   3.034   1.656  0.6090 -0.6097  0.6237
 3021SOL    HW120525   1.246   3.030   1.581  2.0703  0.0035  1.7476
 3021SOL    HW220526   1.177   3.128   1.669 -0.8826 -0.9818  2.1477
 3022SOL     OW20527   0.709   0.706   3.942 -0.3465  0.2687  0.1084
 3022SOL    HW120528   0.767   0.653   3.887 -0.7702 -2.8263  2.6464
 3022SOL    HW220529   0.641   0.737   3.882  0.2105 -3.0655 -2.2423
 3023SOL     OW20530   3.232   2.321  11.457 -0.4774  0.3908  0.5811
 3023SOL    HW120531   3.314   2.314  11.506  0.9145 -0.0174 -1.8048
 3023SOL    HW220532   3.254   2.378  11.384  1.0358 -0.0308  0.7053
 3024SOL     OW20533   1.972   0.099   4.383  0.2638 -0.7270 -0.7821
 3024SOL    HW120534   1.953   0.007   4.367 -1.6292 -0.6209  0.9217
 3024SOL    HW220535   2.064   0.090   4.410  0.9344  2.2490 -2.0972
 3025SOL     OW20536   0.419   3.740   5.059 -0.2515 -0.4007 -0.6432
 3025SOL    HW120537   0.357   3.767   5.127 -0.4866  1.4694 -1.6041
 3025SOL    HW220538   0.408   3.801   4.986 -0.4047 -1.4598 -1.5179
 3026SOL     OW20539   3.019   3.911   7.153 -0.1863 -0.0679  0.2667
 3026SOL    HW120540   2.969   3.925   7.233 -1.0970 -3.8561  0.3907
 3026SOL    HW220541   2.956   3.918   7.081  1.8800  0.7841 -1.4839
 3027SOL     OW20542   2.641   1.117   7.377 -0.0773  0.1043 -0.2158
 3027SOL    HW120543   2.658   1.125   7.283  0.5103 -0.2778 -0.1449
 3027SOL    HW220544   2.550   1.146   7.373 -0.2591 -0.5386 -0.7809
 3028SOL     OW20545   2.898   4.483  17.258 -0.1842 -0.1514 -0.0837
 3028SOL    HW120546   2.819   4.521  17.219  0.1286 -0.6110 -1.1569
 3028SOL    HW220547   2.930   4.443  17.177 -0.2019  0.4481 -0.3808
 3029SOL     OW20548   0.638   2.298   4.785  0.3313 -0.0195 -0.2925
 3029SOL    HW120549   0.713   2.246   4.813 -0.6659 -1.3944 -0.1511
 3029SOL    HW220550   0.606   2.241   4.716 -1.2522 -1.1889  1.3823
 3030SOL     OW20551   2.619   2.931   3.567  0.1189  0.4027 -0.8842
 3030SOL    HW120552   2.565   2.900   3.494  0.4225  1.0892 -1.3982
 3030SOL    HW220553   2.559   3.001   3.592  0.7372  0.7574 -0.4143
 3031SOL     OW20554   4.479   4.624  12.605  0.4224 -0.4362  0.4913
 3031SOL    HW120555   4.466   4.598  12.697  1.7885  0.2336  0.8726
 3031SOL    HW220556   4.433   4.553  12.560  0.2487 -1.6317  2.5205
 3032SOL     OW20557   1.890   1.202   2.728 -0.1181 -0.1078  0.2654
 3032SOL    HW120558   1.851   1.267   2.670 -1.1320 -0.8026  0.1713
 3032SOL    HW220559   1.953   1.153   2.675  0.2271  0.0318  0.5496
 3033SOL     OW20560   0.997   0.753   1.599 -0.3598 -0.3264  0.1723
 3033SOL    HW120561   1.084   0.715   1.592 -0.3466 -0.2440 -0.1254
 3033SOL    HW220562   1.001   0.763   1.504 -1.4379 -2.0486 -0.0578
 3034SOL     OW20563   3.635   4.375  13.627  0.0255  0.2081 -0.1068
 3034SOL    HW120564   3.631   4.349  13.535  1.0553  1.1352 -0.4101
 3034SOL    HW220565   3.669   4.464  13.617  1.3976 -0.2279  0.7660
 3035SOL     OW20566   1.997   0.130  12.413  0.2245 -0.2635 -0.4123
 3035SOL    HW120567   1.932   0.059  12.416 -1.0507  0.8781 -0.9147
 3035SOL    HW220568   1.949   0.207  12.444  0.1210 -0.0667 -1.0673
 3036SOL     OW20569   2.595   1.651  15.833  0.1445 -0.7172  0.2326
 3036SOL    HW120570   2.579   1.559  15.814 -0.1317 -0.8356  1.0427
 3036SOL    HW220571   2.595   1.685  15.743 -0.6837 -0.9258  0.1569
 3037SOL     OW20572   3.861   4.269  13.145 -0.1871 -0.3203 -0.0668
 3037SOL    HW120573   3.819   4.226  13.070  0.5831  1.2234 -1.3790
 3037SOL    HW220574   3.932   4.316  13.100  0.5763  0.6520  2.1339
 3038SOL     OW20575   0.904   3.546   2.444 -0.2108  0.0111 -0.5074
 3038SOL    HW120576   0.860   3.461   2.438  1.2645 -1.1230  3.9938
 3038SOL    HW220577   0.869   3.590   2.367 -3.7657 -0.8697  0.5756
 3039SOL     OW20578   1.079   2.666   7.607  0.2368 -0.5794  0.5769
 3039SOL    HW120579   1.149   2.648   7.545 -0.0616  1.4089 -0.3399
 3039SOL    HW220580   1.067   2.573   7.630  0.7789 -0.9795 -0.7909
 3040SOL     OW20581   1.355   1.464   6.893  0.0033 -0.6855 -0.2516
 3040SOL    HW120582   1.292   1.435   6.828  0.3431  2.5432 -1.9933
 3040SOL    HW220583   1.433   1.462   6.838 -0.4328  0.0404 -0.8969
 3041SOL     OW20584   1.159   0.262   0.702 -0.3313 -0.3170 -0.0578
 3041SOL    HW120585   1.097   0.332   0.685 -1.2564 -0.5130  2.5938
 3041SOL    HW220586   1.184   0.222   0.618 -1.7852  0.4962 -0.8756
 3042SOL     OW20587   3.484   0.857   8.261  0.2016  0.0252 -0.8299
 3042SOL    HW120588   3.517   0.767   8.253 -1.6324 -0.9865  2.9430
 3042SOL    HW220589   3.473   0.883   8.170 -1.0599 -2.6996 -1.4818
 3043SOL     OW20590   2.784   0.534  13.106  0.1776 -0.7550 -0.6209
 3043SOL    HW120591   2.717   0.602  13.101  2.2508  1.3071 -0.1579
 3043SOL    HW220592   2.849   0.570  13.167  1.5929  1.2542 -3.3531
 3044SOL     OW20593   1.645   2.859   5.141 -0.2736 -0.2021 -0.1261
 3044SOL    HW120594   1.552   2.836   5.140 -0.2667 -0.2411  0.0246
 3044SOL    HW220595   1.656   2.898   5.055 -1.2020 -0.9423 -0.5887
 3045SOL     OW20596   2.059   2.762  12.509  0.0027  0.1355  0.1730
 3045SOL    HW120597   2.101   2.825  12.567  0.4268  0.2645 -0.2707
 3045SOL    HW220598   1.994   2.721  12.566  0.6654  0.6943  1.3364
 3046SOL     OW20599   4.620   2.987   2.742  0.3223  0.4441  0.0133
 3046SOL    HW120600   4.637   2.894   2.757  1.4951  0.8852  1.4481
 3046SOL    HW220601   4.604   3.007   2.650 -1.1728 -1.1922 -0.0737
 3047SOL     OW20602   4.720   4.314   4.637 -0.1868  0.9172  0.1056
 3047SOL    HW120603   0.062   4.383   4.618  1.5176 -0.6568  0.0915
 3047SOL    HW220604   0.012   4.276   4.724  0.0343 -0.7801 -0.6533
 3048SOL     OW20605   4.652   1.743  13.185  0.3456  0.0282 -0.8719
 3048SOL    HW120606   4.651   1.786  13.271  0.3619 -0.5855 -0.5679
 3048SOL    HW220607   4.566   1.774  13.158 -0.4401 -1.6275 -0.2374
 3049SOL     OW20608   0.695   2.552  12.630  1.1793 -0.0252  0.3119
 3049SOL    HW120609   0.699   2.462  12.598  0.1654 -1.1487  3.3492
 3049SOL    HW220610   0.770   2.592  12.586  0.4406  1.1338  0.1008
 3050SOL     OW20611   2.377   0.710   5.599 -0.4107  0.2106  0.1650
 3050SOL    HW120612   2.413   0.760   5.673  0.9353  1.0820 -1.1004
 3050SOL    HW220613   2.352   0.761   5.523 -1.8367  1.4518  1.4537
 3051SOL     OW20614   4.586   3.244   0.345  0.1501  0.1312 -0.1485
 3051SOL    HW120615   4.665   3.190   0.352  0.0704  0.1962  1.3121
 3051SOL    HW220616   4.562   3.221   0.255 -1.5218 -2.2041  0.9062
 3052SOL     OW20617   3.093   1.038   6.819 -0.2640 -0.3030  0.7582
 3052SOL    HW120618   3.026   0.987   6.773 -2.2831  2.2438  0.8367
 3052SOL    HW220619   3.067   1.126   6.791 -2.6997 -1.6581 -1.1936
 3053SOL     OW20620   3.208   3.342   2.115  0.1137 -0.0758 -0.3144
 3053SOL    HW120621   3.251   3.275   2.169  1.4717 -0.1902 -1.5331
 3053SOL    HW220622   3.173   3.404   2.180 -1.9730 -1.9360  0.3406
 3054SOL     OW20623   1.931   2.454  12.162  0.1395 -0.0022 -0.2373
 3054SOL    HW120624   1.864   2.483  12.224 -0.6526  1.4642 -1.7674
 3054SOL    HW220625   2.007   2.453  12.220 -0.0454 -0.0631  0.0011
 3055SOL     OW20626   0.643   3.480  15.108 -0.6967  0.6244 -0.0089
 3055SOL    HW120627   0.574   3.414  15.111 -0.3612  0.2729 -0.0052
 3055SOL    HW220628   0.613   3.548  15.169 -0.8956  0.0680  0.5079
 3056SOL     OW20629   0.988   2.610   2.289 -0.7436 -0.1555  0.4460
 3056SOL    HW120630   0.999   2.705   2.295  0.8934 -0.2995 -0.3076
 3056SOL    HW220631   0.941   2.603   2.206  0.6185  0.9168 -0.4214
 3057SOL     OW20632   0.669   2.474   6.351 -0.5314  0.2372 -0.5356
 3057SOL    HW120633   0.678   2.511   6.263 -1.7412  0.2222 -0.6759
 3057SOL    HW220634   0.678   2.547   6.412  0.7401 -0.3287 -0.0647
 3058SOL     OW20635   1.312   0.501   8.365 -0.5633  0.3427  0.1501
 3058SOL    HW120636   1.294   0.595   8.368 -0.1915  0.4372 -0.4129
 3058SOL    HW220637   1.252   0.471   8.298 -1.0437 -1.3765  1.3727
 3059SOL     OW20638   2.349   3.312   4.395  0.4224  0.3942 -0.3022
 3059SOL    HW120639   2.278   3.250   4.378  0.0358  1.0011 -0.8673
 3059SOL    HW220640   2.409   3.287   4.325 -1.1995 -1.6757 -0.9491
 3060SOL     OW20641   4.706   0.481   8.184 -0.0998 -0.0713  0.1408
 3060SOL    HW120642   4.708   0.570   8.219 -2.6382  0.0074  0.0765
 3060SOL    HW220643   0.061   0.439   8.222 -1.0626 -1.6492  0.3314
 3061SOL     OW20644   0.864   2.773   4.279  0.4430 -0.1404  0.2914
 3061SOL    HW120645   0.924   2.755   4.206  0.4053 -0.2115  0.2776
 3061SOL    HW220646   0.794   2.719   4.242  0.8189  0.5218 -1.4049
 3062SOL     OW20647   0.134   0.782   1.050 -0.0467 -0.5944  0.5201
 3062SOL    HW120648   0.178   0.740   0.975 -2.4209 -0.4153 -0.9706
 3062SOL    HW220649   0.050   0.811   1.014 -1.4832 -2.8011  2.1499
 3063SOL     OW20650   1.578   3.239  15.225  0.0666  0.0401 -0.2642
 3063SOL    HW120651   1.568   3.289  15.144  3.0358  2.2911  0.7721
 3063SOL    HW220652   1.491   3.198  15.231 -0.1812  0.9324  2.2826
 3064SOL     OW20653   1.474   2.364   2.817  0.1973  0.4443  0.0124
 3064SOL    HW120654   1.511   2.444   2.779 -0.4143  1.3439  1.3046
 3064SOL    HW220655   1.550   2.314   2.845  0.0325 -0.1471 -0.5971
 3065SOL     OW20656   1.647   2.969  15.459 -0.8220  0.0697  0.3809
 3065SOL    HW120657   1.667   3.022  15.382 -2.1410 -2.5672 -1.8008
 3065SOL    HW220658   1.699   3.010  15.527 -0.4126  1.5632 -0.8346
 3066SOL     OW20659   2.934   2.248   4.014  0.0515  0.3931 -0.2419
 3066SOL    HW120660   2.841   2.267   4.025 -0.3926 -2.2947  0.7631
 3066SOL    HW220661   2.926   2.194   3.936  1.0543 -0.2101  0.0702
 3067SOL     OW20662   0.479   2.233   5.901 -0.9543 -0.1156  0.2031
 3067SOL    HW120663   0.437   2.311   5.936 -1.4156 -1.2167  2.1086
 3067SOL    HW220664   0.423   2.162   5.934 -1.8451  0.2965 -0.4391
 3068SOL     OW20665   4.385   4.600  15.399  0.7967 -0.5361 -0.3564
 3068SOL    HW120666   4.319   4.559  15.454  0.2547 -0.8040 -1.2023
 3068SOL    HW220667   4.333   4.680  15.389  0.3165 -0.4934  2.5664
 3069SOL     OW20668   3.451   3.066   8.794 -0.0726  0.0320 -0.0262
 3069SOL    HW120669   3.410   2.989   8.833  0.7697  1.0489  2.8482
 3069SOL    HW220670   3.380   3.125   8.771  0.8470  0.2428 -2.3598
 3070SOL     OW20671   1.835   4.084   2.475  0.0517 -0.1111 -0.5853
 3070SOL    HW120672   1.895   4.122   2.540  0.6883  0.5034 -1.5299
 3070SOL    HW220673   1.755   4.132   2.495 -0.9047 -1.9492 -0.1176
 3071SOL     OW20674   0.573   2.049  14.675  0.2467 -0.1267  0.1432
 3071SOL    HW120675   0.571   2.144  14.668  1.7821 -0.1875 -1.1018
 3071SOL    HW220676   0.530   2.034  14.591  1.4544 -0.4387 -0.4237
 3072SOL     OW20677   2.399   2.995   3.143 -0.3791  0.0476 -0.2491
 3072SOL    HW120678   2.425   3.006   3.051  1.6505  1.0864  0.4367
 3072SOL    HW220679   2.476   3.032   3.187 -0.4983 -0.9145  0.7547
 3073SOL     OW20680   2.064   3.740   9.948  0.8761 -0.0951 -0.2270
 3073SOL    HW120681   2.009   3.802   9.996  1.3924  0.0549  0.1727
 3073SOL    HW220682   2.006   3.666   9.930 -2.1197  2.5681 -1.5467
 3074SOL     OW20683   4.016   3.268   3.568  0.1670 -0.1854  0.2968
 3074SOL    HW120684   4.061   3.333   3.622  3.5759 -1.9133 -0.5330
 3074SOL    HW220685   4.085   3.223   3.520 -1.6961 -0.4138 -2.1236
 3075SOL     OW20686   1.826   3.179   5.324 -0.2294  0.1194  0.3017
 3075SOL    HW120687   1.905   3.197   5.375  0.1666  0.1529 -0.3171
 3075SOL    HW220688   1.791   3.098   5.360 -0.2345  0.4082  0.9471
 3076SOL     OW20689   4.188   0.048   6.002 -0.5280 -0.4706  0.1803
 3076SOL    HW120690   4.233   0.014   5.925  0.8080  0.1494  0.6966
 3076SOL    HW220691   4.159   0.138   5.984 -1.0331 -0.9542 -1.4460
 3077SOL     OW20692   0.814   4.231  15.090  0.2255 -0.2603  0.3115
 3077SOL    HW120693   0.802   4.188  15.006  1.0600 -0.1011  0.1121
 3077SOL    HW220694   0.890   4.285  15.067  1.3275 -1.1213  1.9471
 3078SOL     OW20695   3.753   4.685   1.146  0.6855  0.6279 -0.7971
 3078SOL    HW120696   3.780   4.636   1.068 -1.2420 -1.0016 -0.4551
 3078SOL    HW220697   3.695   4.617   1.182 -0.8535  0.0947 -4.2533
 3079SOL     OW20698   4.592   3.827   2.944 -0.0400  0.4631  0.8146
 3079SOL    HW120699   4.576   3.903   3.001  0.1111  1.4070 -0.4095
 3079SOL    HW220700   4.622   3.868   2.864 -0.0966 -1.3063 -0.1098
 3080SOL     OW20701   0.223   1.124   0.208  0.3671  0.3766 -0.0197
 3080SOL    HW120702   0.298   1.106   0.151  1.2842  1.2912  0.8837
 3080SOL    HW220703   0.271   1.140   0.290 -0.6619  0.7297  0.5151
 3081SOL     OW20704   3.673   3.381  10.329  0.3711 -0.7971  0.2812
 3081SOL    HW120705   3.608   3.432  10.281  2.3418  3.0519  1.7046
 3081SOL    HW220706   3.702   3.450  10.389  1.3405 -0.7299 -0.2694
 3082SOL     OW20707   4.512   1.369  12.616  0.0837 -0.0812  0.0931
 3082SOL    HW120708   4.427   1.357  12.658  1.3542 -1.4606  2.2750
 3082SOL    HW220709   4.506   1.460  12.588  1.8300  0.1387  0.4031
 3083SOL     OW20710   4.601   3.295   6.327 -0.6167 -0.1926  0.2452
 3083SOL    HW120711   4.547   3.222   6.297 -0.2011 -0.0664 -0.8047
 3083SOL    HW220712   4.597   3.358   6.255 -2.1565  1.1050  1.4520
 3084SOL     OW20713   3.845   4.246   7.570 -0.0695 -0.1735  1.1825
 3084SOL    HW120714   3.778   4.300   7.612 -0.1320  1.1349 -0.6285
 3084SOL    HW220715   3.804   4.163   7.597  1.7487 -1.2359  0.7112
 3085SOL     OW20716   3.504   2.712   3.705  0.6032 -0.2215 -0.0298
 3085SOL    HW120717   3.511   2.722   3.610 -0.0316 -0.6913 -0.1295
 3085SOL    HW220718   3.587   2.671   3.727  2.0648  0.2203 -4.7181
 3086SOL     OW20719   1.734   1.909  17.620  0.1044  0.0396  0.1209
 3086SOL    HW120720   1.796   1.866  17.562 -1.3843 -1.5891 -0.2755
 3086SOL    HW220721   1.687   1.967  17.559 -1.5427 -0.4581  0.9204
 3087SOL     OW20722   2.293   2.316  16.719  0.3551 -0.0471 -0.3672
 3087SOL    HW120723   2.334   2.398  16.692 -1.5055  1.3328  1.0305
 3087SOL    HW220724   2.312   2.332  16.812 -2.5392 -0.3636  0.2927
 3088SOL     OW20725   1.698   1.450   3.369 -0.5526  0.6073  0.0383
 3088SOL    HW120726   1.709   1.520   3.434  0.7068  0.6504 -0.2198
 3088SOL    HW220727   1.686   1.502   3.289  0.3077 -0.2434 -0.6322
 3089SOL     OW20728   0.706   0.344   1.471  0.5501  0.3019 -0.0346
 3089SOL    HW120729   0.679   0.342   1.563 -1.3746 -1.0528 -0.6229
 3089SOL    HW220730   0.742   0.432   1.478  0.9050  0.2118 -0.6930
 3090SOL     OW20731   0.337   3.990  14.704  0.3006  0.5303  0.2414
 3090SOL    HW120732   0.415   4.045  14.698  0.9533 -0.4430 -0.0276
 3090SOL    HW220733   0.274   4.045  14.751 -0.7873  0.1104 -0.7235
 3091SOL     OW20734   1.444   2.721   8.228 -0.1104  0.4988  0.1083
 3091SOL    HW120735   1.375   2.659   8.251  0.0866 -0.3958 -1.7713
 3091SOL    HW220736   1.500   2.701   8.303 -0.4913  2.2369  0.8528
 3092SOL     OW20737   0.479   2.441   8.304  0.4193 -0.3529 -0.0457
 3092SOL    HW120738   0.394   2.475   8.275  0.1987 -1.7807 -1.0609
 3092SOL    HW220739   0.498   2.503   8.375 -1.0372  0.0419 -0.0010
 3093SOL     OW20740   2.101   1.104   9.654 -0.4089  0.0043 -0.0870
 3093SOL    HW120741   2.102   1.019   9.697 -1.0035 -0.0348 -0.1495
 3093SOL    HW220742   2.044   1.072   9.584 -0.6786  1.7679 -0.6707
 3094SOL     OW20743   4.169   0.881   1.689 -0.1183  0.5733 -0.4379
 3094SOL    HW120744   4.120   0.889   1.607 -0.6085 -1.6060 -0.3415
 3094SOL    HW220745   4.239   0.823   1.656  1.8152  3.1641 -0.9073
 3095SOL     OW20746   2.476   0.045  17.196  0.0827  0.2896  0.7897
 3095SOL    HW120747   2.495   0.129  17.155 -0.8481  0.0985 -0.0350
 3095SOL    HW220748   2.423   0.078  17.269  1.1698  0.7650  1.3632
 3096SOL     OW20749   3.541   2.090   9.246 -0.6895  0.2451  0.0952
 3096SOL    HW120750   3.616   2.078   9.304  0.1276 -1.1441 -1.2560
 3096SOL    HW220751   3.512   2.000   9.233 -2.0267  0.3964  1.9318
 3097SOL     OW20752   4.299   3.514   7.044  0.1163  0.1088 -0.1998
 3097SOL    HW120753   4.304   3.528   6.949  0.5560  1.9034  0.0875
 3097SOL    HW220754   4.263   3.599   7.070 -2.4355 -0.5073 -1.6646
 3098SOL     OW20755   2.527   1.202   6.822 -0.1333 -0.0882 -0.3558
 3098SOL    HW120756   2.538   1.297   6.821 -0.3447 -0.0482  3.1882
 3098SOL    HW220757   2.494   1.182   6.734 -2.5303  0.5193  0.4129
 3099SOL     OW20758   3.526   1.547   2.350  0.1713  0.6916  0.1550
 3099SOL    HW120759   3.478   1.617   2.307 -0.1852 -0.3901 -1.1973
 3099SOL    HW220760   3.581   1.592   2.414  0.2141  2.5550 -1.2153
 3100SOL     OW20761   3.883   1.921  11.142 -0.7973 -0.4367  0.2593
 3100SOL    HW120762   3.961   1.976  11.152  0.9129 -2.9017  0.5172
 3100SOL    HW220763   3.917   1.839  11.178 -0.8093 -0.8572 -0.6636
 3101SOL     OW20764   2.585   4.009   6.085 -0.1278 -0.1897  0.6093
 3101SOL    HW120765   2.629   3.931   6.119  1.6982  0.9094  0.7925
 3101SOL    HW220766   2.523   4.027   6.156  0.0607 -3.9451  1.6909
 3102SOL     OW20767   0.728   0.672   8.732  0.0737  0.2566 -0.8107
 3102SOL    HW120768   0.681   0.679   8.816  1.2588  1.7626 -0.2719
 3102SOL    HW220769   0.722   0.581   8.704  1.9271 -0.4144  0.9638
 3103SOL     OW20770   1.758   4.474  15.257 -0.0033 -0.1623  0.4903
 3103SOL    HW120771   1.741   4.483  15.164 -1.6554  1.7058  0.9518
 3103SOL    HW220772   1.752   4.566  15.285  1.2055 -0.1817  0.8434
 3104SOL     OW20773   3.165   0.748   8.123  0.0877  0.1825 -1.0511
 3104SOL    HW120774   3.162   0.777   8.214  3.0963  0.4781 -1.0699
 3104SOL    HW220775   3.249   0.703   8.130 -0.2039  0.1170  1.7947
 3105SOL     OW20776   1.309   1.786   4.966 -0.1580  0.3864  0.1437
 3105SOL    HW120777   1.237   1.800   4.903  0.0346  0.6043 -0.0284
 3105SOL    HW220778   1.366   1.732   4.912 -0.1001 -0.7108  1.3067
 3106SOL     OW20779   4.381   3.850   5.388 -0.1404  0.2080  0.1237
 3106SOL    HW120780   4.451   3.791   5.416 -1.0834 -0.2554  1.4451
 3106SOL    HW220781   4.354   3.890   5.471 -1.7851  0.0703 -0.3483
 3107SOL     OW20782   3.736   3.132   7.568 -0.7374  0.3234  0.3275
 3107SOL    HW120783   3.793   3.085   7.629  0.1901  2.4313  1.0660
 3107SOL    HW220784   3.655   3.087   7.590 -1.4225  0.5325 -1.7733
 3108SOL     OW20785   4.674   0.442   7.669 -0.0670  0.2644  0.2277
 3108SOL    HW120786   4.609   0.491   7.619  0.2800  2.8671  2.2877
 3108SOL    HW220787   4.672   0.486   7.754 -1.8758  2.1950 -0.8253
 3109SOL     OW20788   1.602   3.164   3.624  0.2914 -0.6354 -0.1048
 3109SOL    HW120789   1.509   3.168   3.603  0.7281 -1.1528 -2.2066
 3109SOL    HW220790   1.636   3.156   3.534  1.1963  2.4817 -0.0419
 3110SOL     OW20791   0.563   2.275   1.497  0.1687 -0.2169  0.0848
 3110SOL    HW120792   0.654   2.282   1.527  0.6852 -2.9666 -0.7873
 3110SOL    HW220793   0.521   2.285   1.582  2.0428 -0.8204  1.0846
 3111SOL     OW20794   2.048   3.683   7.363  0.1360 -0.0202  0.5380
 3111SOL    HW120795   2.020   3.648   7.448 -1.4574 -0.5299 -0.1973
 3111SOL    HW220796   1.971   3.735   7.339 -0.2901 -0.2268  1.4433
 3112SOL     OW20797   1.065   1.549   2.410  0.3755  0.2955  0.1235
 3112SOL    HW120798   1.092   1.597   2.331  0.1888 -0.9248 -0.6934
 3112SOL    HW220799   0.973   1.526   2.398 -0.2624  3.4229 -1.1946
 3113SOL     OW20800   3.318   0.084   0.997  0.3113  0.5477 -0.1561
 3113SOL    HW120801   3.379   0.091   1.071 -1.0663 -2.7873  1.3236
 3113SOL    HW220802   3.230   0.090   1.035 -0.9217 -0.1885 -2.8990
 3114SOL     OW20803   3.232   4.545  15.961  0.0957  0.1738  0.3027
 3114SOL    HW120804   3.275   4.630  15.969  2.4939 -0.9379 -0.8570
 3114SOL    HW220805   3.143   4.570  15.935  0.2101  0.8685  0.5774
 3115SOL     OW20806   0.174   3.811   8.307 -0.5041  0.2065  0.6757
 3115SOL    HW120807   0.149   3.861   8.229  0.3901 -1.1957 -0.5041
 3115SOL    HW220808   0.202   3.738   8.252 -1.2313 -1.0047  1.9215
 3116SOL     OW20809   0.977   2.854   7.264 -0.9617 -0.0902  0.1452
 3116SOL    HW120810   1.064   2.848   7.303 -0.8847 -1.1145 -0.1882
 3116SOL    HW220811   0.926   2.896   7.334 -0.7909  0.6765 -0.1887
 3117SOL     OW20812   1.905   4.302  15.604  0.1849  0.0855 -0.2036
 3117SOL    HW120813   1.915   4.257  15.688 -0.0406  1.4641  0.5644
 3117SOL    HW220814   1.814   4.281  15.584 -0.3155  1.9862  0.0347
 3118SOL     OW20815   1.146   1.601   7.316  0.1716  0.6310 -0.4247
 3118SOL    HW120816   1.188   1.620   7.400 -1.9574 -0.8918  0.9752
 3118SOL    HW220817   1.209   1.632   7.252  0.1715 -0.0265 -0.7468
 3119SOL     OW20818   4.329   2.497  10.835  0.2204  0.1852 -0.1198
 3119SOL    HW120819   4.355   2.418  10.787  0.1861 -0.3993  0.8238
 3119SOL    HW220820   4.401   2.550  10.801 -0.3758  1.1982  0.1962
 3120SOL     OW20821   2.777   3.899   5.884 -0.2069 -0.2537 -0.5872
 3120SOL    HW120822   2.723   3.968   5.922  0.5930 -1.1605  2.2088
 3120SOL    HW220823   2.830   3.948   5.821  0.8170 -1.3517 -0.5696
 3121SOL     OW20824   2.212   1.507   8.581 -0.4620 -0.4456 -0.1695
 3121SOL    HW120825   2.300   1.544   8.589 -0.1204 -1.4215  0.5378
 3121SOL    HW220826   2.235   1.417   8.605  0.7836 -0.5055 -1.6410
 3122SOL     OW20827   3.758   4.341   9.253  0.1168  0.5593 -0.2056
 3122SOL    HW120828   3.674   4.382   9.234  0.1498  0.0081 -1.5447
 3122SOL    HW220829   3.810   4.388   9.188  1.1184 -0.2010  0.0496
 3123SOL     OW20830   1.027   2.373   0.599  0.2204 -0.4292 -0.4453
 3123SOL    HW120831   1.085   2.301   0.575  0.9414 -0.4800  1.4279
 3123SOL    HW220832   0.977   2.381   0.517 -1.4936  0.0672  0.6574
 3124SOL     OW20833   0.572   0.456  13.877 -0.0090 -0.1467  0.0079
 3124SOL    HW120834   0.598   0.439  13.967 -0.9863  0.2847  0.3619
 3124SOL    HW220835   0.605   0.545  13.866  0.1025 -0.5973 -3.3024
 3125SOL     OW20836   2.269   2.825   4.478 -0.1142  0.0492  0.0573
 3125SOL    HW120837   2.249   2.893   4.542  1.3184 -0.3064  0.8931
 3125SOL    HW220838   2.185   2.780   4.477 -0.4961  0.7285  1.7723
 3126SOL     OW20839   0.615   2.802  15.803  0.3256 -0.2684 -0.2406
 3126SOL    HW120840   0.608   2.780  15.896 -0.6286  0.3198 -0.1685
 3126SOL    HW220841   0.682   2.869  15.815 -0.1720  0.1061  0.4161
 3127SOL     OW20842   3.487   1.835   2.266  0.3334 -0.0428  1.1625
 3127SOL    HW120843   3.437   1.779   2.206 -0.3426 -1.3288  2.9094
 3127SOL    HW220844   3.480   1.923   2.229  0.8282 -1.0536 -1.3327
 3128SOL     OW20845   4.050   4.316   6.500 -0.1022  0.1683 -0.2782
 3128SOL    HW120846   4.017   4.329   6.589 -0.0795 -1.0836 -0.0887
 3128SOL    HW220847   4.140   4.347   6.511  0.2352 -2.1816  3.4643
 3129SOL     OW20848   0.988   3.808   3.739 -0.2130  0.2064 -0.0543
 3129SOL    HW120849   0.915   3.781   3.684 -0.7624  1.0678  0.2495
 3129SOL    HW220850   0.935   3.853   3.805 -0.5000  0.2734 -0.3322
 3130SOL     OW20851   1.981   0.273  13.830 -0.6260 -0.1503  0.1767
 3130SOL    HW120852   2.059   0.282  13.883  0.8053  0.5731 -2.0536
 3130SOL    HW220853   1.918   0.329  13.876 -0.0690 -0.3369  1.1630
 3131SOL     OW20854   0.579   2.719   8.341 -0.0472 -0.4914  0.5409
 3131SOL    HW120855   0.486   2.717   8.317  0.2045  2.9403 -0.6989
 3131SOL    HW220856   0.577   2.687   8.431  2.8468 -1.1134  0.3776
 3132SOL     OW20857   0.829   2.003   6.195  0.5169  0.6348  0.1988
 3132SOL    HW120858   0.844   2.072   6.260  2.1968  0.9563 -0.5228
 3132SOL    HW220859   0.919   1.971   6.193  0.0297 -0.5948 -1.8729
 3133SOL     OW20860   1.461   0.260   8.887 -0.1720 -0.1637  0.5071
 3133SOL    HW120861   1.487   0.179   8.930  0.6122 -0.1867 -0.0102
 3133SOL    HW220862   1.453   0.241   8.794  0.6925 -1.9065  0.7862
 3134SOL     OW20863   2.864   1.282   2.025  0.4900 -0.2855  0.4707
 3134SOL    HW120864   2.816   1.208   2.061 -2.0478  1.5041  0.7514
 3134SOL    HW220865   2.944   1.232   2.008  0.2740 -0.2436 -0.7151
 3135SOL     OW20866   2.105   1.277   6.830  0.3382  0.8398  0.7231
 3135SOL    HW120867   2.131   1.234   6.911  2.4862  0.3152 -0.2519
 3135SOL    HW220868   2.072   1.200   6.784  0.2510  0.4937  1.3646
 3136SOL     OW20869   3.789   2.457   1.824 -0.1460 -0.3475 -0.2188
 3136SOL    HW120870   3.750   2.541   1.847  1.0181  0.4703 -1.2442
 3136SOL    HW220871   3.734   2.396   1.874 -1.0300  1.5237  1.0586
 3137SOL     OW20872   1.657   1.401   3.775  0.4153 -0.1261  0.2996
 3137SOL    HW120873   1.564   1.397   3.753  0.1418  0.7050  1.3093
 3137SOL    HW220874   1.693   1.323   3.731 -0.5385 -0.2330 -0.2874
 3138SOL     OW20875   1.243   2.144   6.101  0.5720 -0.0634  0.1947
 3138SOL    HW120876   1.284   2.221   6.062 -1.5071  0.2226 -1.4269
 3138SOL    HW220877   1.198   2.177   6.178  2.1344  0.9831  0.6563
 3139SOL     OW20878   4.025   1.615  16.800  0.7339 -0.2483 -0.2832
 3139SOL    HW120879   4.055   1.646  16.885 -0.5160 -0.8629  0.3797
 3139SOL    HW220880   3.991   1.694  16.757 -1.1676  0.3351  2.2665
 3140SOL     OW20881   4.117   3.853   1.568  0.2699 -0.3043  0.0397
 3140SOL    HW120882   4.119   3.758   1.552  0.0001 -0.3671  0.3590
 3140SOL    HW220883   4.063   3.893   1.500  0.5034 -0.3548 -0.1754
 3141SOL     OW20884   0.877   0.294  10.837 -0.4985 -0.2017  0.0228
 3141SOL    HW120885   0.929   0.238  10.894 -0.1746 -0.2399 -0.3114
 3141SOL    HW220886   0.789   0.278  10.871 -0.0098  2.0978  2.4172
 3142SOL     OW20887   4.078   3.829   6.384  0.6510  0.3086 -0.1140
 3142SOL    HW120888   4.012   3.823   6.452 -1.7123 -0.9642 -2.5189
 3142SOL    HW220889   4.058   3.922   6.377 -1.4920 -0.0818  0.6990
 3143SOL     OW20890   1.198   1.752   3.100 -0.4173 -0.4784  0.3080
 3143SOL    HW120891   1.204   1.770   3.006 -1.0334  0.0020  0.3593
 3143SOL    HW220892   1.277   1.791   3.138 -1.6174  1.2562  1.0199
 3144SOL     OW20893   3.217   0.503  11.982  0.7655  0.2396  0.4044
 3144SOL    HW120894   3.218   0.453  11.900 -0.8263  0.4152  0.2617
 3144SOL    HW220895   3.203   0.437  12.050 -0.5823 -0.2843 -0.3745
 3145SOL     OW20896   3.637   1.423   8.747 -0.5510  0.0732 -0.4124
 3145SOL    HW120897   3.563   1.391   8.696 -0.5848 -0.7276  0.1265
 3145SOL    HW220898   3.623   1.410   8.841  0.5115 -0.2258 -0.2954
 3146SOL     OW20899   2.492   4.341  10.319 -0.1363 -0.5875  0.2336
 3146SOL    HW120900   2.427   4.338  10.390 -0.4374  0.1967 -0.0117
 3146SOL    HW220901   2.500   4.247  10.300 -0.3037 -0.2404 -1.5054
 3147SOL     OW20902   0.662   1.125   7.622 -0.0503 -0.1269 -0.1849
 3147SOL    HW120903   0.587   1.181   7.642 -0.7797 -1.5951  1.1934
 3147SOL    HW220904   0.724   1.191   7.592 -0.5193 -0.4221 -1.8372
 3148SOL     OW20905   4.480   3.622   0.890  0.6890 -0.2068  0.1484
 3148SOL    HW120906   4.407   3.660   0.937  1.7484  1.1933  0.6527
 3148SOL    HW220907   4.433   3.571   0.824  0.8511 -2.8348  2.0786
 3149SOL     OW20908   3.515   0.982  12.512 -0.2137 -0.1688 -0.0571
 3149SOL    HW120909   3.486   1.071  12.529 -2.0639 -0.5162 -1.3730
 3149SOL    HW220910   3.460   0.927  12.568  0.2359 -0.7311 -0.1662
 3150SOL     OW20911   1.068   4.069  11.639  0.1471 -0.2867 -0.1514
 3150SOL    HW120912   0.987   4.024  11.613  1.9125 -1.5484 -3.3902
 3150SOL    HW220913   1.129   3.999  11.660 -0.5531 -0.7113  0.5078
 3151SOL     OW20914   3.146   4.523   2.752  0.4648  0.1678 -0.0381
 3151SOL    HW120915   3.207   4.570   2.695  0.1504  0.9664  0.2954
 3151SOL    HW220916   3.068   4.578   2.750 -1.5920 -2.6329  1.9415
 3152SOL     OW20917   3.570   4.328   3.836 -0.2435 -0.5198 -0.2258
 3152SOL    HW120918   3.490   4.365   3.799  1.1894  1.7037 -1.0488
 3152SOL    HW220919   3.524   4.270   3.898 -1.0006  1.5326  1.1503
 3153SOL     OW20920   2.394   2.404   4.658 -0.6047 -0.3788 -0.0564
 3153SOL    HW120921   2.474   2.445   4.626  0.4549 -3.1333 -0.9085
 3153SOL    HW220922   2.361   2.367   4.577 -2.5578 -1.0820  1.0642
 3154SOL     OW20923   2.664   0.156   5.159 -0.2991  0.4343  0.3302
 3154SOL    HW120924   2.613   0.226   5.120 -0.6436  1.1929  2.1320
 3154SOL    HW220925   2.585   0.111   5.189  0.2705  0.0006  1.2071
 3155SOL     OW20926   0.845   2.760   5.719 -0.4885 -0.2990 -0.1596
 3155SOL    HW120927   0.805   2.806   5.793  0.7010  1.7667 -0.7847
 3155SOL    HW220928   0.866   2.827   5.654  0.8202  0.3067  0.8959
 3156SOL     OW20929   4.017   4.121   7.394  0.2192  0.2794 -0.3950
 3156SOL    HW120930   4.064   4.127   7.477 -0.5725  1.9597 -0.0643
 3156SOL    HW220931   3.936   4.163   7.423  0.2941  0.3502 -0.2903
 3157SOL     OW20932   2.802   4.384  12.172 -0.2147  0.1009 -0.2036
 3157SOL    HW120933   2.819   4.382  12.078 -2.1081  0.6455 -0.5545
 3157SOL    HW220934   2.878   4.333  12.200 -0.2225  0.0619 -0.2522
 3158SOL     OW20935   3.012   2.883   6.931 -0.7929  0.4800 -0.8303
 3158SOL    HW120936   2.927   2.928   6.931 -0.0678  1.8286 -0.9465
 3158SOL    HW220937   3.004   2.813   6.996  2.4075  2.1463  1.3490
 3159SOL     OW20938   1.892   2.587   5.079 -0.4541  0.6700 -0.3784
 3159SOL    HW120939   1.901   2.608   5.172 -0.3582  1.4078 -0.5472
 3159SOL    HW220940   1.932   2.669   5.048 -0.7631  0.1733 -2.0927
 3160SOL     OW20941   0.977   3.940  15.087 -0.2004  0.2727  0.4044
 3160SOL    HW120942   0.963   4.034  15.083 -0.6828  0.1912  0.2095
 3160SOL    HW220943   0.922   3.913  15.013 -0.9919  0.9731  0.7369
 3161SOL     OW20944   0.894   0.568   3.101 -0.5121 -0.1199  0.2963
 3161SOL    HW120945   0.902   0.536   3.011 -1.9526 -0.1495  0.1780
 3161SOL    HW220946   0.925   0.488   3.143  2.0376  1.4927  1.4686
 3162SOL     OW20947   2.667   3.522   1.672  0.3550  0.2802 -0.4801
 3162SOL    HW120948   2.617   3.470   1.609 -0.1969 -2.3264  2.1020
 3162SOL    HW220949   2.749   3.523   1.624  0.0940 -1.1501 -0.9550
 3163SOL     OW20950   4.620   3.506  11.258 -0.1898  0.1555 -0.2222
 3163SOL    HW120951   4.569   3.425  11.249  0.5351 -0.1822 -1.2354
 3163SOL    HW220952   4.631   3.509  11.353 -2.9624 -3.6183  0.2136
 3164SOL     OW20953   3.024   0.073   0.769 -0.2014 -0.3155 -0.1772
 3164SOL    HW120954   3.071   4.712   0.776  1.9664  0.9133  0.1765
 3164SOL    HW220955   2.952   0.054   0.828 -0.1244  0.4700  0.1769
 3165SOL     OW20956   3.078   3.618   1.280 -0.8503 -0.0481 -0.5242
 3165SOL    HW120957   3.143   3.580   1.220  0.0630  2.6417 -1.2244
 3165SOL    HW220958   3.133   3.687   1.317 -0.2699 -0.1119 -1.2717
 3166SOL     OW20959   2.960   0.648  10.497  0.0063 -0.2931  0.3922
 3166SOL    HW120960   2.933   0.599  10.575  1.7974 -2.3343 -0.2914
 3166SOL    HW220961   3.014   0.719  10.533 -0.5545 -0.6334  1.9270
 3167SOL     OW20962   3.413   4.063   7.570 -0.1753 -0.2085  0.5156
 3167SOL    HW120963   3.358   4.105   7.505 -1.1435  1.0639  2.1574
 3167SOL    HW220964   3.389   3.971   7.556 -1.5303  0.5367 -1.9693
 3168SOL     OW20965   0.875   4.076   2.788 -0.4939  0.3661 -0.0461
 3168SOL    HW120966   0.841   4.011   2.849  0.7158 -1.6650 -1.5157
 3168SOL    HW220967   0.969   4.062   2.774 -0.4639 -0.4290  0.9411
 3169SOL     OW20968   2.923   2.150   3.173  0.1077  0.2630  0.1339
 3169SOL    HW120969   2.888   2.239   3.170 -0.7764 -0.0648  0.7158
 3169SOL    HW220970   3.007   2.170   3.131  1.5931 -1.0193  2.5270
 3170SOL     OW20971   3.496   3.373   7.568  0.4568  0.1587  0.8299
 3170SOL    HW120972   3.418   3.426   7.583  2.3781  2.9791  0.7499
 3170SOL    HW220973   3.443   3.293   7.571 -0.1144  0.4267 -1.7033
 3171SOL     OW20974   2.681   1.002   8.755  0.4062 -0.3368 -0.4289
 3171SOL    HW120975   2.774   1.013   8.735 -0.0930  2.4246 -1.1797
 3171SOL    HW220976   2.680   0.946   8.833 -0.5137  1.0723  0.5593
 3172SOL     OW20977   2.240   3.100  11.120 -0.4228  0.4113 -0.1183
 3172SOL    HW120978   2.254   3.020  11.170  2.0366  0.5412 -0.6168
 3172SOL    HW220979   2.281   3.162  11.180  1.3364 -2.7470  1.9341
 3173SOL     OW20980   0.292   3.456   5.197  0.3975  0.1414 -0.0806
 3173SOL    HW120981   0.258   3.462   5.286 -0.5319  0.0309 -0.4238
 3173SOL    HW220982   0.267   3.543   5.166  0.8766 -0.0425 -0.9925
 3174SOL     OW20983   3.780   0.677  13.280  0.5399  0.2678 -0.6859
 3174SOL    HW120984   3.853   0.723  13.321  2.0626 -1.3898 -1.5768
 3174SOL    HW220985   3.723   0.664  13.356  2.0499 -2.8698 -0.1195
 3175SOL     OW20986   1.486   1.399   0.833 -0.3364 -0.0953  0.4572
 3175SOL    HW120987   1.420   1.330   0.844  0.2987 -1.0531 -1.9231
 3175SOL    HW220988   1.527   1.370   0.752 -1.5675 -2.8003  0.8183
 3176SOL     OW20989   2.602   1.502  15.109  0.0426 -0.0903  0.4104
 3176SOL    HW120990   2.622   1.590  15.078  0.8830 -0.0168  1.1594
 3176SOL    HW220991   2.690   1.467  15.124 -0.7596 -2.5731 -0.6556
 3177SOL     OW20992   4.338   3.135  10.546 -0.3609 -0.4701 -0.0788
 3177SOL    HW120993   4.395   3.189  10.491  1.8726 -2.8439 -0.0685
 3177SOL    HW220994   4.395   3.081  10.599  0.5115 -0.6557 -1.2033
 3178SOL     OW20995   0.154   4.182   3.024 -0.1959 -0.2244  0.3519
 3178SOL    HW120996   0.184   4.166   3.113  2.9319  1.5388 -0.3843
 3178SOL    HW220997   0.069   4.138   3.034 -0.5210  0.0380 -1.2791
 3179SOL     OW20998   3.360   2.664   8.253 -0.4179 -0.3421  0.5830
 3179SOL    HW120999   3.361   2.574   8.287 -2.6617 -0.1555  1.1302
 3179SOL    HW221000   3.427   2.700   8.312  2.2153  1.2339 -3.3716
 3180SOL     OW21001   0.958   4.542   4.267 -0.7685 -0.1820  0.7176
 3180SOL    HW121002   0.928   4.615   4.323  0.1829 -0.1237  1.1520
 3180SOL    HW221003   0.914   4.560   4.184  2.8704  1.1394 -0.9149
 3181SOL     OW21004   3.093   2.078   9.221 -1.0943 -0.2461 -0.4291
 3181SOL    HW121005   3.171   2.134   9.222 -1.4069  0.1842 -0.2035
 3181SOL    HW221006   3.109   2.020   9.295  1.7791 -1.6862 -2.1706
 3182SOL     OW21007   2.163   2.476   8.410  0.8596 -0.0216  0.0142
 3182SOL    HW121008   2.153   2.556   8.359 -0.0690 -1.0365 -1.3845
 3182SOL    HW221009   2.143   2.516   8.495  0.2383 -0.5514  0.1172
 3183SOL     OW21010   1.089   2.130   3.261 -0.1895  0.0963 -0.4365
 3183SOL    HW121011   1.014   2.106   3.315  1.3383 -0.8232  1.2705
 3183SOL    HW221012   1.047   2.165   3.182  0.9871  1.1302 -0.6052
 3184SOL     OW21013   3.023   0.371   6.279 -0.1544  0.2990  0.5627
 3184SOL    HW121014   2.935   0.336   6.293 -0.5505  1.9641  2.4018
 3184SOL    HW221015   3.083   0.305   6.312  0.0026  0.6211  0.9346
 3185SOL     OW21016   0.679   0.641   1.628 -0.1422 -0.2084  0.2381
 3185SOL    HW121017   0.638   0.568   1.674  2.4994 -1.4700  0.6122
 3185SOL    HW221018   0.637   0.642   1.543 -1.8892  1.3139  1.1286
 3186SOL     OW21019   1.775   2.417  13.620 -0.2822  0.1340  0.5278
 3186SOL    HW121020   1.682   2.438  13.615  0.0601  1.7156  0.8980
 3186SOL    HW221021   1.806   2.408  13.530 -1.6535 -1.0071  0.1735
 3187SOL     OW21022   2.183   0.545   5.842 -0.1710 -0.0761 -0.3743
 3187SOL    HW121023   2.133   0.621   5.810 -0.5609 -0.4052 -0.5477
 3187SOL    HW221024   2.112   0.488   5.870 -0.0119 -0.7152 -1.2920
 3188SOL     OW21025   2.523   3.855  15.232 -0.3799 -0.2570 -0.8726
 3188SOL    HW121026   2.473   3.886  15.307 -0.8641 -3.1478 -0.0072
 3188SOL    HW221027   2.467   3.875  15.156 -1.6157 -0.4077  0.0023
 3189SOL     OW21028   4.426   2.281   1.814  0.1491  0.1540  0.2295
 3189SOL    HW121029   4.448   2.245   1.728  0.4274 -1.0027  0.7904
 3189SOL    HW221030   4.344   2.234   1.830 -1.2265  2.0132 -1.2559
 3190SOL     OW21031   0.482   0.649  14.888 -0.1312 -0.4750 -0.0687
 3190SOL    HW121032   0.468   0.560  14.853 -0.6894 -1.2609  2.1489
 3190SOL    HW221033   0.404   0.701  14.868  1.1922  0.8564 -1.7029
 3191SOL     OW21034   1.424   4.618  15.869 -0.0067 -0.4150  0.3750
 3191SOL    HW121035   1.500   4.613  15.927  1.8259 -0.0848 -2.0151
 3191SOL    HW221036   1.449   4.554  15.803 -1.5505  0.5070 -1.0846
 3192SOL     OW21037   3.703   1.937  16.204  0.5404  0.5089 -0.0646
 3192SOL    HW121038   3.664   1.849  16.198  0.9692  0.5508 -3.0610
 3192SOL    HW221039   3.795   1.914  16.219 -0.1743 -0.8360  2.3401
 3193SOL     OW21040   0.214   2.358  13.776  0.2211  0.3563  0.3204
 3193SOL    HW121041   0.288   2.396  13.730  0.3940 -0.6577 -0.2214
 3193SOL    HW221042   0.185   2.303  13.704 -1.2167 -0.2998  1.4013
 3194SOL     OW21043   2.190   1.783  13.163 -0.1338  0.2163  0.4033
 3194SOL    HW121044   2.173   1.868  13.202  0.6426  1.1323 -1.2716
 3194SOL    HW221045   2.262   1.805  13.105  0.8492  2.4666  2.5007
 3195SOL     OW21046   1.854   3.237   4.803 -0.2083 -0.2284  0.3025
 3195SOL    HW121047   1.894   3.311   4.757 -0.8234 -0.1200 -0.0567
 3195SOL    HW221048   1.786   3.210   4.742  0.7136 -2.6086  0.3313
 3196SOL     OW21049   1.274   3.122  10.016  0.9740 -0.2811 -0.3133
 3196SOL    HW121050   1.273   3.086   9.927  1.1871  1.6242 -1.0831
 3196SOL    HW221051   1.182   3.115  10.039  1.1390  0.2214  0.5136
 3197SOL     OW21052   2.888   1.243   2.377  0.1273 -0.6194  0.0807
 3197SOL    HW121053   2.889   1.161   2.329 -2.4913 -1.0956  0.8498
 3197SOL    HW221054   2.964   1.220   2.431  0.8868  0.5325 -0.4967
 3198SOL     OW21055   3.517   0.644  11.678 -0.4117  0.1556  0.5131
 3198SOL    HW121056   3.542   0.652  11.770  1.2051  0.2489  0.0681
 3198SOL    HW221057   3.565   0.717  11.639 -0.6730  0.5229  0.8784
 3199SOL     OW21058   4.657   0.896   3.391 -0.2850 -0.3071 -0.4606
 3199SOL    HW121059   4.593   0.914   3.461 -1.3786 -1.0038 -1.2992
 3199SOL    HW221060   4.709   0.826   3.431 -1.9927 -0.6698  1.1519
 3200SOL     OW21061   2.582   0.540   9.810  0.0131  0.4947  0.5222
 3200SOL    HW121062   2.622   0.500   9.733  0.5551  1.7765  0.1383
 3200SOL    HW221063   2.621   0.628   9.810  0.9621  0.0737  1.1210
 3201SOL     OW21064   3.550   4.057  13.852 -0.0364 -0.1504 -0.2638
 3201SOL    HW121065   3.613   4.060  13.779  0.3415 -0.9694  0.0252
 3201SOL    HW221066   3.560   3.963  13.869 -0.0733 -0.3004 -1.0684
 3202SOL     OW21067   1.476   4.611   4.982  0.0741 -0.2008 -0.7929
 3202SOL    HW121068   1.520   4.544   5.034 -0.4665 -0.0210 -0.0940
 3202SOL    HW221069   1.401   4.561   4.950  1.0969 -0.8694 -2.1376
 3203SOL     OW21070   2.823   4.477   0.213  0.1814  0.8365  0.0278
 3203SOL    HW121071   2.818   4.572   0.225  1.6456  0.6555  2.0311
 3203SOL    HW221072   2.819   4.465   0.118  0.9505  0.4415  0.0486
 3204SOL     OW21073   0.170   3.872   1.098  0.2963 -0.0722  0.1059
 3204SOL    HW121074   0.163   3.825   1.182 -1.1082  1.7740  1.0105
 3204SOL    HW221075   0.078   3.896   1.094  0.2580 -0.5353 -1.8143
 3205SOL     OW21076   0.118   0.255   1.957  0.2364  0.1163  0.1345
 3205SOL    HW121077   0.177   0.179   1.958  0.4457  0.3244  2.8139
 3205SOL    HW221078   0.123   0.284   2.048  3.6801 -0.4411  0.1469
 3206SOL     OW21079   2.276   2.050  16.692  0.0406 -0.1974 -0.7636
 3206SOL    HW121080   2.300   2.024  16.603  2.4016  1.6759 -0.6570
 3206SOL    HW221081   2.295   2.143  16.701 -2.2623  0.2297 -0.4183
 3207SOL     OW21082   1.952   3.838   0.008  0.3539 -0.0547  0.4603
 3207SOL    HW121083   1.896   3.760   0.003  0.7689 -0.2812 -0.5191
 3207SOL    HW221084   1.982   3.840  17.608  1.5169  1.1910  0.8679
 3208SOL     OW21085   1.933   2.973   2.293  0.6125 -0.1348 -0.2127
 3208SOL    HW121086   1.903   2.888   2.262  1.8892 -0.2756 -1.0345
 3208SOL    HW221087   1.909   2.960   2.385  2.2371  0.6927  0.3389
 3209SOL     OW21088   0.912   1.173   7.921 -0.3888 -0.0513  0.2239
 3209SOL    HW121089   0.920   1.134   8.008 -2.6541 -0.7511  0.1206
 3209SOL    HW221090   0.887   1.108   7.855  1.6809 -0.6257  0.0254
 3210SOL     OW21091   4.039   3.125   4.332 -0.2615  0.1826 -0.0194
 3210SOL    HW121092   3.945   3.117   4.346 -0.2667  2.1339  1.1174
 3210SOL    HW221093   4.054   3.036   4.364 -3.2362  0.7656  2.9531
 3211SOL     OW21094   0.398   2.642   3.266  0.2685 -0.0673 -0.7648
 3211SOL    HW121095   0.441   2.562   3.295 -0.5648  0.6770  2.4914
 3211SOL    HW221096   0.328   2.665   3.327  0.1779  0.2930 -1.0034
 3212SOL     OW21097   4.179   4.641   7.720  0.3497 -0.5113  0.3999
 3212SOL    HW121098   4.095   4.657   7.677  1.0498  0.4706 -0.6080
 3212SOL    HW221099   4.214   0.003   7.749 -1.0931  0.2518 -0.0983
 3213SOL     OW21100   0.667   4.236  16.905 -0.4854 -0.2701  0.0360
 3213SOL    HW121101   0.726   4.241  16.980 -0.0255 -0.0629 -0.3397
 3213SOL    HW221102   0.678   4.319  16.859  2.2858 -0.5808  0.1093
 3214SOL     OW21103   1.323   0.072   8.240  0.1084 -0.0379  0.1698
 3214SOL    HW121104   1.402   0.018   8.243  1.0678  1.5498  2.9586
 3214SOL    HW221105   1.373   0.152   8.255 -1.7221  1.3583 -1.2161
 3215SOL     OW21106   3.255   2.696   1.169 -0.2257 -0.2044  0.0928
 3215SOL    HW121107   3.180   2.653   1.208 -0.9658 -0.0075 -1.1323
 3215SOL    HW221108   3.310   2.618   1.165 -1.1566 -0.8040 -0.7205
 3216SOL     OW21109   1.640   1.493   4.655 -0.2462 -0.4087 -0.0031
 3216SOL    HW121110   1.699   1.529   4.589  0.0078  0.3279  0.6295
 3216SOL    HW221111   1.636   1.398   4.645 -0.0300 -0.4672  0.4702
 3217SOL     OW21112   1.601   0.252  12.602  0.1284 -0.2323  0.6037
 3217SOL    HW121113   1.525   0.293  12.644  0.7113 -0.1997  1.6204
 3217SOL    HW221114   1.648   0.207  12.672 -2.0983  0.2176  2.3870
 3218SOL     OW21115   1.937   4.154  11.862 -0.0815  0.3716 -0.0659
 3218SOL    HW121116   1.986   4.094  11.806  1.2121 -0.3802  1.8608
 3218SOL    HW221117   1.974   4.137  11.949  0.5701  2.2123  0.0183
 3219SOL     OW21118   1.817   3.588  11.631 -0.3399 -0.8580  0.7217
 3219SOL    HW121119   1.800   3.637  11.551 -1.6335 -0.0835  1.4621
 3219SOL    HW221120   1.755   3.519  11.607 -2.6628  0.7668  1.9403
 3220SOL     OW21121   2.163   1.000  14.365 -0.5826  0.2730 -0.5317
 3220SOL    HW121122   2.139   1.093  14.364 -0.1712  0.3748 -0.8017
 3220SOL    HW221123   2.191   0.994  14.274  0.6545 -0.5955 -0.0818
 3221SOL     OW21124   3.463   1.144  11.101  0.2073 -0.3210  0.2379
 3221SOL    HW121125   3.431   1.058  11.073 -1.1815  0.0015  0.8145
 3221SOL    HW221126   3.470   1.196  11.021 -0.5513  0.5030  0.7123
 3222SOL     OW21127   3.046   0.567   3.034  0.3103  0.1024 -0.2592
 3222SOL    HW121128   2.983   0.585   2.964 -0.0836 -1.3951 -0.2759
 3222SOL    HW221129   3.026   0.629   3.104 -0.9786 -0.0530 -0.5028
 3223SOL     OW21130   0.027   2.286  10.394  0.3615 -0.4003 -0.1015
 3223SOL    HW121131   4.694   2.209  10.405  0.1098 -0.4720 -1.8848
 3223SOL    HW221132   4.683   2.333  10.343 -0.9805 -2.3123 -0.1297
 3224SOL     OW21133   1.954   2.047   9.423 -0.0398  0.5081  0.0251
 3224SOL    HW121134   1.861   2.042   9.447  0.2429  1.2981  1.3018
 3224SOL    HW221135   2.001   2.004   9.495 -1.2480  0.4628  0.7894
 3225SOL     OW21136   4.242   0.425   8.610  0.5770  0.3324  0.0875
 3225SOL    HW121137   4.261   0.505   8.657  0.1159 -0.6430  1.9215
 3225SOL    HW221138   4.151   0.438   8.583  0.3764 -0.1868  0.5091
 3226SOL     OW21139   2.250   4.192   2.095 -0.2039  0.0637  0.1106
 3226SOL    HW121140   2.332   4.214   2.138  0.2726  0.1412 -0.8416
 3226SOL    HW221141   2.208   4.269   2.057  1.2769 -0.1296 -1.9264
 3227SOL     OW21142   3.667   1.811   4.757  0.4453  0.2282 -0.7539
 3227SOL    HW121143   3.715   1.883   4.798  1.9246 -1.2815  0.1625
 3227SOL    HW221144   3.578   1.822   4.793  0.6873 -2.6783  0.7126
 3228SOL     OW21145   4.332   4.476   5.007  0.1759  0.1697  0.1631
 3228SOL    HW121146   4.412   4.491   4.956  0.7388 -1.6188  0.5088
 3228SOL    HW221147   4.278   4.426   4.945  2.4398  0.6459 -2.2186
 3229SOL     OW21148   4.140   2.561   6.456 -0.0389  0.4367 -0.5445
 3229SOL    HW121149   4.121   2.520   6.540  0.9074  0.7747 -0.1753
 3229SOL    HW221150   4.127   2.485   6.398  0.3641  0.4916 -0.7071
 3230SOL     OW21151   0.490   1.271   6.743 -0.3123 -0.1788  0.4911
 3230SOL    HW121152   0.558   1.322   6.787 -1.0145  0.4680  0.8226
 3230SOL    HW221153   0.530   1.185   6.756 -1.9858 -1.3437 -2.1547
 3231SOL     OW21154   4.434   0.216   9.027  0.0320 -0.0164  0.2527
 3231SOL    HW121155   4.450   0.149   9.093 -0.3606 -0.1250  0.2362
 3231SOL    HW221156   4.355   0.254   9.064 -0.9322  0.6751 -2.4873
 3232SOL     OW21157   1.651   3.511   7.221 -0.5553  0.2576 -0.2227
 3232SOL    HW121158   1.640   3.417   7.236  2.1953  0.1499  1.0939
 3232SOL    HW221159   1.564   3.552   7.221 -0.2268  1.0023  1.7329
 3233SOL     OW21160   1.383   1.360   3.777 -0.2137  0.1371  0.4948
 3233SOL    HW121161   1.294   1.361   3.814  0.2088  2.0996  1.4309
 3233SOL    HW221162   1.356   1.318   3.695 -0.1282 -0.6988  0.8865
 3234SOL     OW21163   4.245   4.525   6.865 -0.2388  0.4498  0.8093
 3234SOL    HW121164   4.173   4.464   6.850  0.3378  0.0446 -0.2479
 3234SOL    HW221165   4.324   4.471   6.862  1.0072  2.3882 -1.4951
 3235SOL     OW21166   0.612   3.573  11.199 -0.1504 -0.0193  1.0282
 3235SOL    HW121167   0.680   3.554  11.135 -0.3109 -0.0057  0.8553
 3235SOL    HW221168   0.598   3.664  11.176 -1.1294 -0.7522 -1.2689
 3236SOL     OW21169   2.089   1.458   6.355 -0.1597  0.0803  0.3309
 3236SOL    HW121170   2.166   1.422   6.398 -1.1874 -1.2604  1.0612
 3236SOL    HW221171   2.092   1.401   6.278 -0.5166  0.3760  0.0944
 3237SOL     OW21172   1.858   2.705   7.041  0.2959  0.5019 -0.1593
 3237SOL    HW121173   1.945   2.684   7.008  0.9122  1.7455  0.6645
 3237SOL    HW221174   1.842   2.792   7.005  2.2082  0.2162 -1.6968
 3238SOL     OW21175   1.158   1.216  13.710 -0.3397  0.1182 -0.6940
 3238SOL    HW121176   1.107   1.268  13.647 -1.0610 -1.3692 -1.3573
 3238SOL    HW221177   1.086   1.185  13.765  0.6360 -0.0033  0.5037
 3239SOL     OW21178   0.041   1.217   0.768 -0.2023 -0.4251  0.1249
 3239SOL    HW121179   0.072   1.286   0.709 -1.3567  0.3688  0.4644
 3239SOL    HW221180   0.048   1.142   0.709 -0.5999  1.1280 -1.8824
 3240SOL     OW21181   1.125   1.227   6.255  0.7598 -0.0531  0.3127
 3240SOL    HW121182   1.070   1.190   6.185  2.6022 -1.8434 -0.1976
 3240SOL    HW221183   1.136   1.147   6.306 -0.2019 -1.0652 -1.0565
 3241SOL     OW21184   0.522   4.600   0.332 -0.9120  0.4869 -0.1192
 3241SOL    HW121185   0.474   4.553   0.263  1.1189  1.7339 -2.3664
 3241SOL    HW221186   0.550   4.532   0.393 -0.6474  1.0663  0.4073
 3242SOL     OW21187   4.198   2.272   9.310  0.4867 -0.0959 -0.1793
 3242SOL    HW121188   4.287   2.306   9.305  0.5758 -0.4096 -0.7381
 3242SOL    HW221189   4.186   2.255   9.404  0.2144  0.6846 -0.0667
 3243SOL     OW21190   4.670   3.373   9.675  0.2624  0.4993 -0.2258
 3243SOL    HW121191   4.662   3.463   9.642 -2.0471  0.3883  0.0579
 3243SOL    HW221192   0.043   3.361   9.676  0.0178 -1.4957 -1.2661
 3244SOL     OW21193   2.067   3.927  10.903  0.5208 -0.3784  0.0143
 3244SOL    HW121194   2.068   4.003  10.962 -0.8974 -3.4497  4.0267
 3244SOL    HW221195   2.027   3.969  10.827 -0.5581 -1.5038 -0.0291
 3245SOL     OW21196   3.095   1.430   5.420 -0.2194  0.3549  0.4091
 3245SOL    HW121197   3.147   1.354   5.446  1.9335  1.9322  0.6467
 3245SOL    HW221198   3.080   1.413   5.326 -2.3653 -1.9558  1.1579
 3246SOL     OW21199   0.896   1.649  16.153  0.2361  0.7257 -0.1402
 3246SOL    HW121200   0.921   1.707  16.225  1.3860  1.4088 -1.0767
 3246SOL    HW221201   0.954   1.671  16.080 -0.6544 -0.3875 -1.1745
 3247SOL     OW21202   0.639   1.952   9.271 -0.1924 -0.0443 -0.0619
 3247SOL    HW121203   0.545   1.964   9.257 -0.1241  1.1464  0.5396
 3247SOL    HW221204   0.646   1.915   9.360  2.2483  1.9989  0.5811
 3248SOL     OW21205   3.670   0.759   3.451 -0.7648 -0.0344 -0.1265
 3248SOL    HW121206   3.604   0.778   3.384  1.0362  0.2811 -1.8059
 3248SOL    HW221207   3.709   0.677   3.422 -0.2959  0.4393 -0.8275
 3249SOL     OW21208   2.942   3.497   2.999  0.0150 -0.0824  0.3053
 3249SOL    HW121209   2.946   3.541   3.084  0.6684 -0.8280  0.6527
 3249SOL    HW221210   2.935   3.406   3.027  1.0395  0.7368  3.2274
 3250SOL     OW21211   1.963   0.084  15.235 -0.6701  0.4169 -0.0319
 3250SOL    HW121212   1.888   0.057  15.289 -1.0981  0.0844 -0.7991
 3250SOL    HW221213   2.037   0.096  15.294  0.8012 -0.1545 -1.7730
 3251SOL     OW21214   1.044   1.773   8.552  0.0995  0.6914 -0.1615
 3251SOL    HW121215   1.065   1.756   8.644  0.7121  1.9619 -0.0706
 3251SOL    HW221216   1.101   1.703   8.521  0.8690  1.2543 -0.0002
 3252SOL     OW21217   0.872   1.965  10.085 -0.0881  0.4608 -0.3730
 3252SOL    HW121218   0.853   2.051  10.124 -2.6963 -0.2879 -0.0044
 3252SOL    HW221219   0.798   1.914  10.119  0.5015  0.5368  1.0104
 3253SOL     OW21220   2.876   1.819   3.113  0.5429 -0.7083 -0.1679
 3253SOL    HW121221   2.951   1.776   3.072 -0.9689 -2.7639 -0.7348
 3253SOL    HW221222   2.854   1.882   3.044 -0.9102 -0.1609  0.7922
 3254SOL     OW21223   2.224   4.004   4.251  0.0767 -0.3706 -0.5318
 3254SOL    HW121224   2.144   3.970   4.211 -0.5579  2.0768 -1.3823
 3254SOL    HW221225   2.192   4.079   4.302 -1.9124 -2.1359  0.8105
 3255SOL     OW21226   3.612   3.316  13.717 -0.0271 -0.1058 -0.2443
 3255SOL    HW121227   3.645   3.404  13.735  0.7328 -0.5424  0.4995
 3255SOL    HW221228   3.551   3.302  13.789 -0.8449 -0.2893 -0.9781
 3256SOL     OW21229   4.503   3.177   3.880  0.7856  0.3119  0.7554
 3256SOL    HW121230   4.433   3.155   3.818  1.1890 -0.8616  0.7219
 3256SOL    HW221231   4.439   3.185   3.950  2.2948 -0.5869  2.2293
 3257SOL     OW21232   0.476   1.945   5.389  0.0003  0.3756 -0.3548
 3257SOL    HW121233   0.526   1.985   5.318  2.1996  0.1456  1.0394
 3257SOL    HW221234   0.543   1.887   5.424  0.7290  1.9700  0.9201
 3258SOL     OW21235   3.051   1.943  16.281 -0.2315 -0.0864 -0.2856
 3258SOL    HW121236   3.131   1.936  16.229  1.2085 -2.2812  2.1988
 3258SOL    HW221237   3.006   1.863  16.256 -0.5285  0.4766 -1.5612
 3259SOL     OW21238   3.766   2.333   3.034  0.3871 -0.1451 -0.1400
 3259SOL    HW121239   3.703   2.403   3.044 -2.0191 -2.5552  1.6194
 3259SOL    HW221240   3.823   2.382   2.975  0.1818 -1.1220 -1.1566
 3260SOL     OW21241   2.526   2.554  16.906 -0.1883  0.2237  0.0369
 3260SOL    HW121242   2.545   2.460  16.911 -0.8001  0.2162  2.0913
 3260SOL    HW221243   2.465   2.551  16.832  0.1262  1.4231 -0.2695
 3261SOL     OW21244   1.515   2.658   4.073 -0.3346 -0.3558  0.6365
 3261SOL    HW121245   1.604   2.693   4.077 -0.2758 -0.5599  1.1618
 3261SOL    HW221246   1.498   2.647   4.167 -1.7881  1.8798  0.6386
 3262SOL     OW21247   0.321   3.768  15.928  0.2198  0.1702  0.5025
 3262SOL    HW121248   0.246   3.790  15.984  0.1696 -0.7739  0.7984
 3262SOL    HW221249   0.292   3.687  15.887  1.9153 -0.6980  1.0246
 3263SOL     OW21250   1.685   1.048   2.786 -0.0075 -0.1056  0.0130
 3263SOL    HW121251   1.615   1.111   2.770  1.4121  1.4487 -0.0691
 3263SOL    HW221252   1.768   1.090   2.765  0.5597 -1.4685 -0.4816
 3264SOL     OW21253   2.708   0.161  17.313  0.5997 -0.2774  0.0380
 3264SOL    HW121254   2.737   0.126  17.397 -0.2410  2.4463  1.4461
 3264SOL    HW221255   2.674   0.077  17.281 -3.0464  1.4060 -0.5240
 3265SOL     OW21256   1.329   2.780   8.748 -0.3979  0.7727  0.0569
 3265SOL    HW121257   1.283   2.742   8.822 -1.3127  2.4751  0.3776
 3265SOL    HW221258   1.312   2.872   8.768  0.2568  1.1727 -1.2095
 3266SOL     OW21259   2.057   0.561   6.502  0.1623 -0.1677 -0.5110
 3266SOL    HW121260   2.031   0.613   6.578 -0.8690 -1.9363  0.3560
 3266SOL    HW221261   2.151   0.583   6.499  0.2172 -0.3323 -0.0763
 3267SOL     OW21262   3.494   1.725   7.423  0.1533 -0.1585 -0.1189
 3267SOL    HW121263   3.513   1.750   7.333 -0.7937 -0.0310 -0.2778
 3267SOL    HW221264   3.507   1.631   7.430 -1.7565 -0.5334 -1.7873
 3268SOL     OW21265   0.962   0.512   4.424 -0.1567  0.3506  0.0281
 3268SOL    HW121266   1.037   0.568   4.406  0.2458  0.2437  1.3532
 3268SOL    HW221267   0.895   0.565   4.380 -0.6229  1.0591  1.5904
 3269SOL     OW21268   2.585   1.781   5.868 -0.3928 -0.2081 -0.5835
 3269SOL    HW121269   2.524   1.735   5.926 -2.0410 -0.1259 -2.2458
 3269SOL    HW221270   2.535   1.809   5.791 -0.0046  1.0915 -0.3666
 3270SOL     OW21271   2.853   2.210  13.313  0.5451 -0.0124  0.1911
 3270SOL    HW121272   2.903   2.140  13.354 -1.9712 -1.2723  1.1134
 3270SOL    HW221273   2.876   2.286  13.367 -0.1232  0.1964  0.1860
 3271SOL     OW21274   2.117   4.420   2.018  0.1283  0.2407 -0.2986
 3271SOL    HW121275   2.028   4.385   2.019  0.1531  0.1092 -3.6081
 3271SOL    HW221276   2.107   4.514   2.035 -2.4327 -0.4728  2.1732
 3272SOL     OW21277   2.590   2.300   1.809 -0.3420  0.4769  0.7689
 3272SOL    HW121278   2.659   2.254   1.761  0.3670  0.5219  1.7594
 3272SOL    HW221279   2.517   2.290   1.748 -0.9337  0.0139  1.5649
 3273SOL     OW21280   1.796   4.314   4.930  0.1043 -0.2368  0.4015
 3273SOL    HW121281   1.852   4.391   4.943  0.6256 -0.4208 -0.8085
 3273SOL    HW221282   1.750   4.345   4.852  0.5265 -0.4090  0.0851
 3274SOL     OW21283   0.441   0.100   4.558 -0.2916  0.5704  0.1307
 3274SOL    HW121284   0.515   0.161   4.555  0.1270  0.0332 -0.6954
 3274SOL    HW221285   0.486   0.017   4.576  0.5726  0.5974 -1.9047
 3275SOL     OW21286   4.087   3.941  10.212  0.1158  0.6123 -0.0606
 3275SOL    HW121287   4.160   3.888  10.244 -0.3092  0.5462  0.7947
 3275SOL    HW221288   4.109   3.941  10.118  0.9363 -0.3674  0.1320
 3276SOL     OW21289   1.645   3.592  10.299 -0.4611  0.0716  0.1763
 3276SOL    HW121290   1.581   3.658  10.275 -0.3333 -0.8226 -2.6140
 3276SOL    HW221291   1.684   3.567  10.215 -0.4100 -2.2266  0.8642
 3277SOL     OW21292   2.832   1.085   8.129  0.1616  0.2449  0.1999
 3277SOL    HW121293   2.770   1.025   8.088  1.3541 -0.0188 -1.2360
 3277SOL    HW221294   2.770   1.153   8.155 -2.2749 -1.4715 -1.1089
 3278SOL     OW21295   0.226   2.648  13.294  0.1160 -0.5489  0.3278
 3278SOL    HW121296   0.188   2.684  13.374 -1.6976 -0.9299 -0.3734
 3278SOL    HW221297   0.202   2.556  13.304  3.6036 -1.5940 -0.8853
 3279SOL     OW21298   2.114   3.192  10.240  0.3826 -0.1271 -0.1259
 3279SOL    HW121299   2.026   3.182  10.204  0.7161  3.2437 -1.8697
 3279SOL    HW221300   2.095   3.139  10.317  3.5498  0.0933  0.8047
 3280SOL     OW21301   3.794   3.251   3.029 -0.0107  0.1532  0.2033
 3280SOL    HW121302   3.724   3.316   3.027 -0.8041 -0.7405 -1.1253
 3280SOL    HW221303   3.850   3.282   2.957 -0.3712  0.9437  0.2669
 3281SOL     OW21304   4.305   0.424   4.049  0.1612 -0.2164 -0.4085
 3281SOL    HW121305   4.347   0.384   4.126 -2.4261 -0.7402  0.7078
 3281SOL    HW221306   4.216   0.400   4.074  0.3808 -0.5429  0.0654
 3282SOL     OW21307   3.722   4.227   9.478  0.1826 -0.7558  0.1524
 3282SOL    HW121308   3.689   4.309   9.516  1.2681  0.5143 -1.6426
 3282SOL    HW221309   3.717   4.245   9.384  0.9800  2.1658  0.6449
 3283SOL     OW21310   1.049   3.787  10.083  0.3487  0.5316  0.0106
 3283SOL    HW121311   1.039   3.734  10.004 -1.2718 -0.4064  0.8225
 3283SOL    HW221312   0.960   3.819  10.098  0.3732 -0.4880  2.4021
 3284SOL     OW21313   3.208   4.233  13.289  0.3781  0.2491 -0.4414
 3284SOL    HW121314   3.120   4.197  13.300 -0.8024  3.1525 -0.4466
 3284SOL    HW221315   3.247   4.159  13.242 -0.4199 -0.2141 -0.3813
 3285SOL     OW21316   2.958   1.660   5.001  0.2081 -0.2376 -0.5652
 3285SOL    HW121317   2.982   1.752   5.012  0.5115 -0.1459 -2.1043
 3285SOL    HW221318   2.863   1.671   5.000 -0.1099 -2.9023  0.8689
 3286SOL     OW21319   2.298   1.477   4.995  0.9226 -0.4891 -0.3426
 3286SOL    HW121320   2.256   1.427   4.925 -0.2778  1.0174 -0.7094
 3286SOL    HW221321   2.272   1.567   4.976 -0.7885 -1.5511 -2.9957
 3287SOL     OW21322   2.267   1.998   6.405  0.0199 -0.0795  0.1494
 3287SOL    HW121323   2.282   1.936   6.476 -1.7749 -0.3226  0.3190
 3287SOL    HW221324   2.200   1.959   6.349  2.7380 -2.6981 -1.2887
 3288SOL     OW21325   3.123   2.011   8.353 -0.7109  0.6413 -0.1773
 3288SOL    HW121326   3.169   2.041   8.275 -1.0665 -1.2154 -1.1043
 3288SOL    HW221327   3.195   2.017   8.416 -1.3449  2.0994  0.3916
 3289SOL     OW21328   2.607   0.949   8.282  0.0392  0.4001 -0.0308
 3289SOL    HW121329   2.544   0.964   8.212 -1.3130  0.1529  1.1528
 3289SOL    HW221330   2.555   0.940   8.361 -0.4485 -0.5794 -0.4593
 3290SOL     OW21331   4.025   0.698  16.984  0.7069 -0.5533 -0.3191
 3290SOL    HW121332   3.956   0.745  16.937  0.3252 -0.3170  0.4773
 3290SOL    HW221333   4.015   0.749  17.064  0.9470  0.5714 -1.0147
 3291SOL     OW21334   3.232   2.975   8.567  0.1052  0.1880 -0.1990
 3291SOL    HW121335   3.323   2.986   8.538 -0.1954  1.3909 -0.6761
 3291SOL    HW221336   3.214   3.068   8.571 -1.1144 -0.0363 -0.4159
 3292SOL     OW21337   2.102   1.586   7.592  0.6437 -0.1039  0.4986
 3292SOL    HW121338   2.021   1.636   7.603 -0.2425 -1.1736 -1.1974
 3292SOL    HW221339   2.077   1.507   7.639 -2.5894  0.2799 -0.5665
 3293SOL     OW21340   2.614   4.069  15.836  0.3371  0.0998  0.5269
 3293SOL    HW121341   2.702   4.034  15.821 -1.4823 -2.3756 -4.6301
 3293SOL    HW221342   2.637   4.162  15.836 -0.6223  0.3506 -1.0132
 3294SOL     OW21343   2.877   4.366   8.671 -0.1750  0.5571  0.7015
 3294SOL    HW121344   2.910   4.349   8.760 -2.5381 -1.3198  1.2270
 3294SOL    HW221345   2.800   4.310   8.670 -0.1568  0.5472  0.1972
 3295SOL     OW21346   3.670   3.636   8.883 -0.4836 -0.1054 -0.6048
 3295SOL    HW121347   3.719   3.646   8.801  0.3680  2.4569  0.2091
 3295SOL    HW221348   3.724   3.577   8.935  1.9020  2.3369 -0.3126
 3296SOL     OW21349   1.490   0.124   2.351  0.1883  0.4213  0.4997
 3296SOL    HW121350   1.530   0.058   2.407 -1.5740  0.9890  2.4375
 3296SOL    HW221351   1.551   0.198   2.349  0.7239 -0.0338  0.1170
 3297SOL     OW21352   0.008   4.164   3.610 -0.1136 -0.3293 -0.1103
 3297SOL    HW121353   0.047   4.084   3.645 -0.2717 -0.4387 -0.1855
 3297SOL    HW221354   0.074   4.221   3.649 -0.5126 -0.2948  0.5185
 3298SOL     OW21355   3.154   2.945   7.572 -0.3823  0.4257 -0.2913
 3298SOL    HW121356   3.092   2.988   7.514 -2.1255 -2.4097 -0.5389
 3298SOL    HW221357   3.099   2.888   7.626 -0.9245 -0.4179 -1.7227
 3299SOL     OW21358   4.122   4.532  14.157 -0.0806  0.4560 -0.1495
 3299SOL    HW121359   4.155   4.559  14.071 -0.0346 -0.8569 -0.5467
 3299SOL    HW221360   4.146   4.603  14.215 -1.0137 -0.1087  0.9275
 3300SOL     OW21361   3.356   3.110   9.345 -0.5872  0.5290 -0.4338
 3300SOL    HW121362   3.395   3.148   9.424  0.5105  0.1531 -0.7965
 3300SOL    HW221363   3.391   3.021   9.354 -1.5121  0.2127  0.0289
 3301SOL     OW21364   3.609   0.512   7.597  0.2061 -0.7091  0.5442
 3301SOL    HW121365   3.564   0.563   7.665 -0.6891 -1.1662  0.2900
 3301SOL    HW221366   3.534   0.489   7.543 -0.2803 -0.7471  1.2397
 3302SOL     OW21367   0.081   1.207   3.073  0.8800  0.1810  0.0879
 3302SOL    HW121368   0.093   1.127   3.023  0.7867 -0.2658  0.7802
 3302SOL    HW221369   0.012   1.245   3.018  0.6678 -0.4136 -0.0527
 3303SOL     OW21370   1.950   1.725   1.865 -0.4071  0.0921 -0.4247
 3303SOL    HW121371   1.877   1.762   1.816 -0.7362 -1.0578 -0.7954
 3303SOL    HW221372   1.906   1.676   1.934 -1.4532  0.3640 -0.8990
 3304SOL     OW21373   0.953   4.631   2.712  0.4518 -0.3776  0.2938
 3304SOL    HW121374   0.862   4.659   2.702  0.2212 -1.4721 -0.7938
 3304SOL    HW221375   0.951   4.553   2.656  1.9469 -1.5587  1.8891
 3305SOL     OW21376   4.510   0.460   6.149  0.6105  0.5328  0.2607
 3305SOL    HW121377   4.590   0.415   6.176 -0.5821 -1.3810  0.5781
 3305SOL    HW221378   4.473   0.453   6.237  0.9009 -1.4870  0.2076
 3306SOL     OW21379   3.414   2.263   3.743 -0.4386 -0.1451  0.5446
 3306SOL    HW121380   3.461   2.253   3.660 -1.5033  0.3143 -0.1127
 3306SOL    HW221381   3.326   2.257   3.705 -0.7910  1.0722  1.1785
 3307SOL     OW21382   0.102   1.359  13.299 -0.5627  1.0852  0.4117
 3307SOL    HW121383   0.081   1.402  13.216  0.4295  0.8450  0.0287
 3307SOL    HW221384   0.182   1.401  13.332  0.3871 -0.7731  0.5160
 3308SOL     OW21385   3.432   0.523   0.943  0.5893  0.3262  0.0582
 3308SOL    HW121386   3.483   0.445   0.919 -0.4450 -0.1563 -0.6026
 3308SOL    HW221387   3.347   0.480   0.952  0.5667  0.6657  1.4216
 3309SOL     OW21388   0.137   0.732   6.626  0.0851 -0.5308  0.4356
 3309SOL    HW121389   0.223   0.710   6.590 -1.4840 -1.1318 -2.9333
 3309SOL    HW221390   0.085   0.715   6.548  1.3710  0.0667 -0.5548
 3310SOL     OW21391   0.050   3.865   7.850  0.1463 -0.1193  0.6710
 3310SOL    HW121392   0.059   3.851   7.755 -0.8860  1.6131  0.3094
 3310SOL    HW221393   0.088   3.952   7.857 -1.3384  0.4557  1.4905
 3311SOL     OW21394   4.159   4.110  16.271 -0.2844  0.0435  0.1494
 3311SOL    HW121395   4.082   4.052  16.270 -1.3689  1.4696  0.4601
 3311SOL    HW221396   4.221   4.042  16.244 -0.2417 -0.2935  1.0850
 3312SOL     OW21397   4.103   0.627   4.185 -0.1999  0.1645  0.1860
 3312SOL    HW121398   4.152   0.568   4.242 -1.4636 -0.5445  0.5478
 3312SOL    HW221399   4.051   0.562   4.138 -2.2145  1.7865  0.1244
 3313SOL     OW21400   0.857   0.938  14.041  0.0172 -0.6096 -0.0986
 3313SOL    HW121401   0.790   0.889  13.993 -1.1673 -0.7583  1.7173
 3313SOL    HW221402   0.822   0.927  14.129  0.5343 -3.2162 -0.2312
 3314SOL     OW21403   3.990   0.256   6.491  0.1449  0.3359  0.4000
 3314SOL    HW121404   4.050   0.321   6.528 -0.3649  0.5325  0.8791
 3314SOL    HW221405   4.053   0.195   6.452  1.6354  2.7271 -0.9609
 3315SOL     OW21406   1.619   1.590   6.739  0.2080  0.0108  0.0479
 3315SOL    HW121407   1.585   1.541   6.664 -3.8966 -0.9113  2.4785
 3315SOL    HW221408   1.605   1.683   6.720 -1.1903 -0.1166  0.4447
 3316SOL     OW21409   2.581   3.101   6.368  0.0961  0.2237  0.5352
 3316SOL    HW121410   2.486   3.113   6.362 -0.0325 -1.7874 -1.4768
 3316SOL    HW221411   2.597   3.138   6.455  0.4943  0.9404  0.1516
 3317SOL     OW21412   1.911   1.757   0.841 -0.4258  0.4583 -0.3922
 3317SOL    HW121413   1.878   1.812   0.769  1.0206  2.3335  0.3668
 3317SOL    HW221414   1.833   1.747   0.895 -0.6426  2.7856 -0.2706
 3318SOL     OW21415   3.363   0.372   1.743 -0.1328 -0.2272 -0.0078
 3318SOL    HW121416   3.441   0.375   1.687  0.6571  2.7367  1.2726
 3318SOL    HW221417   3.300   0.322   1.692  1.3671 -0.0875 -1.9735
 3319SOL     OW21418   2.576   4.378   5.036  0.2591  0.3956  0.4728
 3319SOL    HW121419   2.534   4.331   4.964 -0.2223  2.4126 -0.5623
 3319SOL    HW221420   2.668   4.369   5.014  0.6333  3.2939  0.9711
 3320SOL     OW21421   2.260   0.865   6.415 -0.3656 -0.2600 -0.2453
 3320SOL    HW121422   2.306   0.825   6.489 -1.0168  1.3877  1.0441
 3320SOL    HW221423   2.291   0.814   6.340  0.6427 -1.0170  0.6874
 3321SOL     OW21424   1.624   2.221   7.130  0.3427 -0.0084 -0.0527
 3321SOL    HW121425   1.636   2.212   7.225 -1.7631  1.0325  0.3301
 3321SOL    HW221426   1.546   2.168   7.114  0.0764 -0.0556  1.3655
 3322SOL     OW21427   1.846   0.122  17.042  0.7522 -0.2304  0.2997
 3322SOL    HW121428   1.843   0.105  16.948  0.9656  1.3458  0.0170
 3322SOL    HW221429   1.936   0.112  17.074  0.1542 -0.3848  1.9241
 3323SOL     OW21430   0.959   2.460  11.203 -0.1029  0.2130  0.1719
 3323SOL    HW121431   0.958   2.414  11.287 -1.0281 -0.2811 -0.1130
 3323SOL    HW221432   0.989   2.546  11.232  0.4533  0.0532  0.0729
 3324SOL     OW21433   2.132   3.574  12.080 -0.3843 -0.5348 -0.2822
 3324SOL    HW121434   2.188   3.497  12.066 -0.3308 -0.2423 -1.6837
 3324SOL    HW221435   2.135   3.608  11.991  1.4218  0.0334  0.0137
 3325SOL     OW21436   2.203   4.717   4.476  0.4685  0.0150  0.4501
 3325SOL    HW121437   2.273   4.670   4.431  0.8021  1.5055 -0.5902
 3325SOL    HW221438   2.248   0.025   4.555 -0.0300  0.9842  0.3630
 3326SOL     OW21439   4.381   2.451  10.222  0.1080  0.1848  0.1264
 3326SOL    HW121440   4.364   2.521  10.285 -2.0820 -0.2076 -0.0105
 3326SOL    HW221441   4.457   2.474  10.169  0.4309  0.5587  0.7653
 3327SOL     OW21442   2.094   3.261   7.433 -0.5276 -0.0622  0.1747
 3327SOL    HW121443   2.014   3.270   7.382  0.7153 -1.4285 -2.0038
 3327SOL    HW221444   2.109   3.167   7.427  0.9817  0.1245  0.9486
 3328SOL     OW21445   3.463   2.172   8.732 -0.0745  0.2494  0.2247
 3328SOL    HW121446   3.482   2.258   8.770 -5.1108  1.0357  0.9344
 3328SOL    HW221447   3.375   2.185   8.697 -0.3669 -0.4935  0.6828
 3329SOL     OW21448   1.747   3.543   6.789 -0.0674 -0.3809  0.0947
 3329SOL    HW121449   1.695   3.472   6.752  1.4111 -1.1010 -0.6144
 3329SOL    HW221450   1.752   3.608   6.718  0.5350  0.3643  0.8111
 3330SOL     OW21451   4.567   3.991   2.599 -0.1256  0.0310  0.2722
 3330SOL    HW121452   4.615   4.073   2.590  0.7523 -0.5813 -0.6453
 3330SOL    HW221453   4.626   3.932   2.552 -1.2883  1.3368 -2.8490
 3331SOL     OW21454   0.537   4.305   1.674 -0.2839 -0.3511  0.1141
 3331SOL    HW121455   0.620   4.268   1.643  0.0217 -0.5123  1.0984
 3331SOL    HW221456   0.576   4.387   1.704 -0.8169  0.0096 -0.1784
 3332SOL     OW21457   1.553   0.208   5.984 -0.4893  0.0510  0.1557
 3332SOL    HW121458   1.636   0.230   5.942 -0.4514 -0.3192  0.0349
 3332SOL    HW221459   1.575   0.247   6.068 -0.4439  1.0311 -0.3104
 3333SOL     OW21460   0.831   2.233  16.890 -0.3232 -0.1915  0.0293
 3333SOL    HW121461   0.780   2.164  16.933  1.1364 -0.6576  1.0151
 3333SOL    HW221462   0.761   2.297  16.884 -1.1855 -1.0930  0.4185
 3334SOL     OW21463   3.565   3.831  16.575  0.0904  0.3571  0.1807
 3334SOL    HW121464   3.644   3.864  16.619 -0.0635 -0.2239  0.8896
 3334SOL    HW221465   3.516   3.788  16.645  1.0562  1.0468  1.2781
 3335SOL     OW21466   3.860   4.251   5.290  0.0064  0.0853  0.2562
 3335SOL    HW121467   3.798   4.188   5.255  1.1913 -0.7422 -0.3791
 3335SOL    HW221468   3.918   4.244   5.214 -0.8002 -1.1433 -0.2542
 3336SOL     OW21469   4.475   0.886   1.468 -0.6163 -0.0167 -0.1063
 3336SOL    HW121470   4.448   0.978   1.467 -5.0479 -1.3158 -1.2677
 3336SOL    HW221471   4.411   0.835   1.518 -1.1979  0.5727 -0.2410
 3337SOL     OW21472   1.259   4.011   6.178  0.3109  0.2689 -0.1483
 3337SOL    HW121473   1.284   4.027   6.087 -2.9836  1.2549 -0.8867
 3337SOL    HW221474   1.339   3.965   6.205 -0.4154 -0.7192  0.3270
 3338SOL     OW21475   1.593   3.315   6.743 -0.0418 -0.0414  0.6651
 3338SOL    HW121476   1.573   3.250   6.675 -1.0621 -1.3937  2.2709
 3338SOL    HW221477   1.611   3.253   6.814  0.7657  0.1198  0.5986
 3339SOL     OW21478   4.463   2.089   4.152 -0.3657 -0.5458 -0.3680
 3339SOL    HW121479   4.475   2.030   4.226  0.0162 -2.6263 -2.1024
 3339SOL    HW221480   4.541   2.144   4.153  0.3220 -1.5317 -0.1783
 3340SOL     OW21481   4.223   0.323   2.585  0.0120 -0.1644 -0.2152
 3340SOL    HW121482   4.200   0.287   2.500  2.1854 -1.7993 -0.1160
 3340SOL    HW221483   4.278   0.259   2.631 -1.0099 -1.2099 -0.4768
 3341SOL     OW21484   0.385   0.786   8.021  0.4880  0.1745 -0.0528
 3341SOL    HW121485   0.406   0.716   7.959  0.1033  0.9813 -1.0979
 3341SOL    HW221486   0.446   0.857   8.002  1.5848 -1.0300 -1.0508
 3342SOL     OW21487   0.394   4.178   8.622  0.1235  0.1781 -0.1063
 3342SOL    HW121488   0.410   4.271   8.641  1.3948  0.3880 -2.2320
 3342SOL    HW221489   0.316   4.185   8.567 -0.1949 -0.8510  0.2142
 3343SOL     OW21490   1.372   0.892   0.938 -0.7580 -0.0546 -0.2726
 3343SOL    HW121491   1.354   0.956   0.870  0.7936  0.2340 -0.4169
 3343SOL    HW221492   1.465   0.910   0.955 -0.8406 -0.0784  0.2160
 3344SOL     OW21493   0.769   0.219   2.712 -0.1088  0.3109  0.3943
 3344SOL    HW121494   0.708   0.291   2.728  0.7686  1.0394  0.4289
 3344SOL    HW221495   0.850   0.270   2.714  0.4360 -0.5499  0.2378
 3345SOL     OW21496   0.868   3.777   3.200  0.0731 -0.7166 -0.2018
 3345SOL    HW121497   0.900   3.867   3.208  0.0678 -0.6363 -1.1294
 3345SOL    HW221498   0.783   3.783   3.243  0.2133 -1.3486  0.1734
 3346SOL     OW21499   3.734   3.079  13.843  0.1113 -0.5119  0.6533
 3346SOL    HW121500   3.791   3.124  13.781 -2.2054 -1.1053 -1.9015
 3346SOL    HW221501   3.648   3.113  13.820  1.0697  1.5485  0.1340
 3347SOL     OW21502   3.195   4.625  13.453  0.6214 -0.2178 -0.1582
 3347SOL    HW121503   3.198   4.538  13.494 -1.5860  0.9079  2.3974
 3347SOL    HW221504   3.106   4.623  13.418  0.2639 -2.1655  0.8570
 3348SOL     OW21505   2.113   0.556   9.036  0.2315 -0.7317  0.0703
 3348SOL    HW121506   2.054   0.597   9.099  1.0863  0.8767 -0.1729
 3348SOL    HW221507   2.076   0.468   9.029 -0.9698 -0.1663 -0.6867
 3349SOL     OW21508   3.663   1.320   5.728 -0.0285 -0.2324 -0.2130
 3349SOL    HW121509   3.633   1.324   5.638  1.8454  2.1952 -0.7110
 3349SOL    HW221510   3.755   1.294   5.717  0.5180  0.9394  1.5825
 3350SOL     OW21511   0.089   3.247   6.922  0.0187 -0.0939  0.5953
 3350SOL    HW121512   0.168   3.251   6.869 -1.2960  0.2722 -1.3202
 3350SOL    HW221513   0.080   3.152   6.917  1.2252 -0.2622  1.6207
 3351SOL     OW21514   1.088   4.069   9.906  0.2883  0.1528  0.2205
 3351SOL    HW121515   1.017   4.131   9.921 -1.2285 -1.3419 -0.7558
 3351SOL    HW221516   1.049   3.994   9.860 -0.4171  2.4453 -2.9050
 3352SOL     OW21517   0.735   0.860   1.909 -0.8870  0.3401 -0.5003
 3352SOL    HW121518   0.754   0.795   1.976  0.6400 -0.9994 -2.2430
 3352SOL    HW221519   0.753   0.938   1.961 -2.0369  0.5753 -0.4644
 3353SOL     OW21520   0.855   0.766   2.660  0.4684  0.3232  0.1105
 3353SOL    HW121521   0.812   0.691   2.617 -1.3843  0.5762  1.5053
 3353SOL    HW221522   0.799   0.772   2.737 -0.1284  3.5707 -0.5808
 3354SOL     OW21523   1.333   3.575   7.885 -0.1611 -0.3576 -0.3813
 3354SOL    HW121524   1.304   3.591   7.975 -0.2230  1.0932 -0.6578
 3354SOL    HW221525   1.267   3.618   7.830 -1.2051 -0.0407  1.1359
 3355SOL     OW21526   2.523   4.626  10.266  0.7279 -0.0806 -0.0880
 3355SOL    HW121527   2.609   4.634  10.225 -1.1303  0.9785 -3.7910
 3355SOL    HW221528   2.513   4.532  10.279  0.2492 -0.1356 -0.8263
 3356SOL     OW21529   2.027   1.390   7.788  0.2996 -0.0308 -0.4413
 3356SOL    HW121530   1.941   1.347   7.790  1.5288 -2.4067  0.5644
 3356SOL    HW221531   2.028   1.405   7.883 -2.3771  0.3927 -0.4679
 3357SOL     OW21532   2.506   1.197   9.352 -0.6400 -0.1097  0.1609
 3357SOL    HW121533   2.446   1.189   9.427 -2.0041  2.3617 -0.6924
 3357SOL    HW221534   2.458   1.266   9.308 -0.4731 -0.1874 -0.1463
 3358SOL     OW21535   2.210   1.701   9.172  0.4395  0.0515 -0.8695
 3358SOL    HW121536   2.150   1.775   9.176  0.8105  0.2361  1.0762
 3358SOL    HW221537   2.170   1.642   9.108  0.4902 -1.8381  0.8387
 3359SOL     OW21538   2.667   4.019   6.424  0.3558 -0.4047 -0.3334
 3359SOL    HW121539   2.700   3.939   6.383 -1.5403 -0.0320 -2.6166
 3359SOL    HW221540   2.574   3.994   6.428  0.7106 -1.2765  2.1537
 3360SOL     OW21541   0.767   2.353   1.644 -0.4066  0.3215  0.6867
 3360SOL    HW121542   0.820   2.428   1.618 -1.5569  0.5221 -1.0857
 3360SOL    HW221543   0.829   2.314   1.706 -1.0466 -0.0757  1.0873
 3361SOL     OW21544   2.374   4.645   4.973 -0.0290  0.4726  0.2847
 3361SOL    HW121545   2.334   4.722   5.014  1.5928  0.6214  1.5938
 3361SOL    HW221546   2.325   4.575   5.016 -0.5724 -0.1259 -1.3054
 3362SOL     OW21547   2.062   3.793   2.964 -0.4652 -0.9066  0.5096
 3362SOL    HW121548   2.108   3.788   2.880 -0.9702  1.7815  0.0856
 3362SOL    HW221549   2.014   3.710   2.972  1.3881 -1.9217  1.0718
 3363SOL     OW21550   4.158   4.110   1.633 -0.3967  0.6292  0.6432
 3363SOL    HW121551   4.140   4.016   1.626  0.0390  0.3041  4.0964
 3363SOL    HW221552   4.188   4.117   1.723  3.4132  1.6843 -0.7000
 3364SOL     OW21553   3.475   2.686   3.992 -0.0653 -0.0505  0.0848
 3364SOL    HW121554   3.477   2.691   3.896  0.4396  0.5899  0.1321
 3364SOL    HW221555   3.454   2.779   3.998 -0.1551 -0.0518 -0.1797
 3365SOL     OW21556   2.619   2.866  13.532 -0.3409 -0.2355 -0.2513
 3365SOL    HW121557   2.563   2.930  13.487  1.0024  1.1843  0.1026
 3365SOL    HW221558   2.629   2.799  13.465  1.5314  1.8566 -2.0306
 3366SOL     OW21559   4.064   1.300   1.640  0.2775  0.0693 -0.1046
 3366SOL    HW121560   4.081   1.394   1.626 -2.2487  0.7246  1.2149
 3366SOL    HW221561   3.979   1.292   1.597 -0.6803 -1.5182  2.1154
 3367SOL     OW21562   0.976   4.016   6.297  0.5200 -0.2612  0.1478
 3367SOL    HW121563   0.973   3.921   6.312 -1.0179 -0.1165  0.7737
 3367SOL    HW221564   1.067   4.023   6.268  0.5500 -0.0040  0.3057
 3368SOL     OW21565   1.437   4.277   5.127 -0.0398 -0.2667  0.2831
 3368SOL    HW121566   1.353   4.286   5.171 -0.3513 -0.9171 -0.1662
 3368SOL    HW221567   1.497   4.325   5.184 -0.6914  2.9646 -1.7468
 3369SOL     OW21568   2.996   0.278   5.948  0.2547  0.0063  0.1052
 3369SOL    HW121569   3.075   0.277   6.002 -0.6527  0.4832  1.4400
 3369SOL    HW221570   3.000   0.190   5.912 -0.6412  0.2014 -0.4616
 3370SOL     OW21571   2.248   3.517  15.274 -0.2895  0.4654 -0.2655
 3370SOL    HW121572   2.193   3.440  15.265 -1.1029  0.8586  1.2774
 3370SOL    HW221573   2.321   3.479  15.226  0.4530  1.4769  0.0537
 3371SOL     OW21574   2.812   2.760  11.654  0.1548  0.1751  0.1958
 3371SOL    HW121575   2.821   2.668  11.680  0.7914  0.1769 -0.0083
 3371SOL    HW221576   2.757   2.749  11.577  2.6654 -3.4527 -1.0913
 3372SOL     OW21577   3.686   3.642  15.512 -0.0652  0.2477  0.4899
 3372SOL    HW121578   3.724   3.555  15.502 -0.8343 -0.0454  0.1575
 3372SOL    HW221579   3.714   3.691  15.434  0.8342 -1.4199 -0.2222
 3373SOL     OW21580   2.524   4.503   5.269  0.3659 -0.0877  0.4226
 3373SOL    HW121581   2.490   4.588   5.241 -1.9225 -1.4553 -0.9411
 3373SOL    HW221582   2.533   4.455   5.187 -0.8645 -1.3518  1.0366
 3374SOL     OW21583   3.253   1.680   8.904  0.1509  0.4784 -0.6684
 3374SOL    HW121584   3.208   1.752   8.948  0.2385  0.1558 -0.0468
 3374SOL    HW221585   3.309   1.659   8.978  0.3619  1.5458 -0.5217
 3375SOL     OW21586   0.748   0.613   8.185  0.0406 -0.7449  0.3021
 3375SOL    HW121587   0.714   0.696   8.220 -1.0673 -0.8360 -0.5483
 3375SOL    HW221588   0.814   0.585   8.248  2.1254  0.1215 -1.5103
 3376SOL     OW21589   3.579   4.370   6.884  0.3768 -0.7149 -0.0459
 3376SOL    HW121590   3.636   4.436   6.845  3.1276 -2.5845  0.8143
 3376SOL    HW221591   3.579   4.393   6.977 -1.6192 -1.3340  0.1058
 3377SOL     OW21592   1.922   2.028  11.264 -0.2173 -0.2501 -0.2686
 3377SOL    HW121593   1.852   1.975  11.227  1.6608 -1.1486 -2.4771
 3377SOL    HW221594   2.004   2.002  11.222 -0.6298 -0.3551 -1.0016
 3378SOL     OW21595   3.763   3.742  12.041 -0.3086  0.1398 -0.2201
 3378SOL    HW121596   3.820   3.780  12.109 -0.2316 -2.5013  1.1907
 3378SOL    HW221597   3.743   3.657  12.078  0.2167  0.1426  0.0805
 3379SOL     OW21598   0.773   2.900   3.630 -0.3584 -0.4078  0.0825
 3379SOL    HW121599   0.740   2.828   3.685 -1.2079  0.0021  0.1166
 3379SOL    HW221600   0.832   2.851   3.573  1.4182  1.1863  0.5863
 3380SOL     OW21601   0.541   3.442  12.580  0.4000  0.0142 -0.0647
 3380SOL    HW121602   0.524   3.449  12.486 -0.4154 -0.5833  0.0399
 3380SOL    HW221603   0.610   3.377  12.570 -0.4837 -1.1932  1.7690
 3381SOL     OW21604   1.824   0.508  10.537 -0.3516  0.0796 -0.3881
 3381SOL    HW121605   1.772   0.523  10.616 -1.4989  0.5327 -1.2214
 3381SOL    HW221606   1.815   0.414  10.525 -1.8411  0.2266 -0.4637
 3382SOL     OW21607   1.841   0.880  17.544  0.1499 -0.1331  0.0922
 3382SOL    HW121608   1.912   0.821  17.569  1.5126  1.4454 -0.1056
 3382SOL    HW221609   1.880   0.963  17.571  0.8711 -0.8223  1.1689
 3383SOL     OW21610   2.943   1.223  15.915 -0.6010  0.3168  0.3695
 3383SOL    HW121611   2.892   1.279  15.857 -1.0550 -1.4132 -0.8924
 3383SOL    HW221612   2.930   1.141  15.867 -3.0230  0.7085  0.3637
 3384SOL     OW21613   1.870   0.342   8.808  0.4052 -0.1286  0.0374
 3384SOL    HW121614   1.844   0.321   8.897  0.9501 -1.7827 -0.1803
 3384SOL    HW221615   1.820   0.285   8.749  2.3581 -0.5177 -1.2626
 3385SOL     OW21616   2.453   4.519  17.074 -0.5699  0.4599 -0.2922
 3385SOL    HW121617   2.493   4.463  17.142  0.3051  1.5506  0.0815
 3385SOL    HW221618   2.435   4.601  17.121  0.3245  0.6611 -0.2953
 3386SOL     OW21619   4.613   1.424   7.346 -0.5982 -0.0369  0.0652
 3386SOL    HW121620   4.670   1.434   7.422  0.1834  0.2537 -0.5574
 3386SOL    HW221621   4.646   1.338   7.318  0.0323 -0.0587  0.8795
 3387SOL     OW21622   4.390   0.378   0.767 -0.3894 -0.2953  0.3535
 3387SOL    HW121623   4.435   0.384   0.852  0.7825  1.3610 -0.3915
 3387SOL    HW221624   4.346   0.293   0.774 -1.5650  0.2017 -1.2117
 3388SOL     OW21625   1.339   3.909   7.726  0.8634  0.0351 -0.3411
 3388SOL    HW121626   1.269   3.852   7.758 -0.3420  2.3638  1.0853
 3388SOL    HW221627   1.331   3.994   7.769  3.6479  0.4300 -0.6136
 3389SOL     OW21628   2.740   1.949   6.658  0.0549  0.0622 -0.5632
 3389SOL    HW121629   2.786   2.030   6.679 -2.8958  1.8265 -0.9241
 3389SOL    HW221630   2.809   1.897   6.616  1.9805  1.5143  0.8364
 3390SOL     OW21631   4.635   4.532   5.219  0.6133  0.4944 -0.0931
 3390SOL    HW121632   4.599   4.540   5.307  2.3243  1.9862  0.4672
 3390SOL    HW221633   4.634   4.623   5.190 -1.8595  0.9638  1.5462
 3391SOL     OW21634   4.710   4.095  10.077  0.2585  0.2134  0.3337
 3391SOL    HW121635   0.073   4.132  10.052  0.2380  0.7931  1.1107
 3391SOL    HW221636   4.654   4.172  10.071 -0.2665 -0.1695  0.2978
 3392SOL     OW21637   1.213   3.288   8.360 -0.2475  0.0681 -0.6813
 3392SOL    HW121638   1.154   3.354   8.395 -0.3853 -0.6643  0.4640
 3392SOL    HW221639   1.284   3.341   8.324  0.4403 -0.8598 -0.6958
 3393SOL     OW21640   2.537   2.572  15.637 -0.0517  0.4722 -0.1360
 3393SOL    HW121641   2.583   2.639  15.687  0.2388  0.2370 -0.0870
 3393SOL    HW221642   2.608   2.507  15.636 -1.2478 -0.8348 -3.9995
 3394SOL     OW21643   0.674   0.087   2.212 -0.5034 -0.0097 -0.2704
 3394SOL    HW121644   0.622   0.159   2.248  0.3679  1.2663 -1.6043
 3394SOL    HW221645   0.626   0.013   2.250  0.6243 -2.1017 -2.9036
 3395SOL     OW21646   3.071   0.383   8.065 -0.0794  0.4393 -0.5589
 3395SOL    HW121647   3.009   0.421   8.126 -0.1457 -0.8606  0.1874
 3395SOL    HW221648   3.068   0.289   8.084  1.7384  0.7658  1.2872
 3396SOL     OW21649   2.376   3.659  15.968 -0.3693 -0.0694  0.5373
 3396SOL    HW121650   2.304   3.671  15.906 -0.2769  0.6590  0.5755
 3396SOL    HW221651   2.439   3.720  15.929  0.9750 -1.5212  0.4527
 3397SOL     OW21652   0.794   1.414   8.507 -0.2587  0.2593 -0.0837
 3397SOL    HW121653   0.741   1.394   8.430 -2.2230  0.4974  1.2011
 3397SOL    HW221654   0.877   1.376   8.478 -1.2447 -1.3946 -0.6855
 3398SOL     OW21655   0.994   0.818   5.144  0.8917  0.9758  0.2213
 3398SOL    HW121656   1.023   0.895   5.095  0.4338  0.3279 -1.0812
 3398SOL    HW221657   1.046   0.821   5.224  2.0423  0.5706 -0.5223
 3399SOL     OW21658   4.304   2.450   2.619 -0.5735 -0.8704 -0.3173
 3399SOL    HW121659   4.379   2.402   2.585 -0.0150 -0.1264 -0.1139
 3399SOL    HW221660   4.261   2.473   2.537 -1.1693 -2.7065 -0.5160
 3400SOL     OW21661   1.180   2.021  13.788  0.3038 -0.8469  0.0294
 3400SOL    HW121662   1.088   2.039  13.769  1.1616  1.1571 -2.2292
 3400SOL    HW221663   1.179   2.015  13.883 -1.1910 -0.8887  0.0158
 3401SOL     OW21664   2.495   2.116  10.194  0.2787  0.2489 -0.3900
 3401SOL    HW121665   2.436   2.046  10.167 -2.3306  1.9816  0.8455
 3401SOL    HW221666   2.576   2.067  10.209 -0.7274 -0.9454  1.1264
 3402SOL     OW21667   3.772   4.597  10.470 -0.9802 -0.1295 -0.1012
 3402SOL    HW121668   3.829   4.588  10.547  0.3779  1.2941 -0.9206
 3402SOL    HW221669   3.717   4.671  10.498 -0.3108 -0.1858  1.3758
 3403SOL     OW21670   4.559   1.329   3.797 -0.0371 -0.0106 -0.3053
 3403SOL    HW121671   4.629   1.365   3.742  0.8819 -0.8848  0.2827
 3403SOL    HW221672   4.577   1.386   3.872  1.1258  0.2709 -0.7911
 3404SOL     OW21673   2.809   2.411   3.177  0.4520  0.2782  0.6216
 3404SOL    HW121674   2.769   2.458   3.104  0.2107  0.0326  0.5933
 3404SOL    HW221675   2.778   2.469   3.247  1.7442  0.6880  0.8533
 3405SOL     OW21676   3.846   3.999  15.865  0.0824 -0.3751 -0.2170
 3405SOL    HW121677   3.882   3.969  15.782 -2.7293  0.0105 -1.5859
 3405SOL    HW221678   3.855   3.919  15.918  0.5770 -0.2322 -0.0831
 3406SOL     OW21679   3.623   2.368   0.430  0.0608 -0.4603  0.6498
 3406SOL    HW121680   3.567   2.436   0.467  0.6876  0.3459  0.1127
 3406SOL    HW221681   3.634   2.396   0.339  1.8191  0.8449  1.2638
 3407SOL     OW21682   2.168   4.347  12.384  0.1292 -0.3017 -0.2072
 3407SOL    HW121683   2.254   4.309  12.403 -0.0069  0.5723  2.1485
 3407SOL    HW221684   2.109   4.311  12.451  1.5711  0.3675  1.4216
 3408SOL     OW21685   4.549   1.625   3.875  0.4579 -0.2528 -0.4575
 3408SOL    HW121686   4.513   1.632   3.787 -0.7030  1.7592  0.1897
 3408SOL    HW221687   4.479   1.652   3.934  1.4720  0.1344  0.5856
 3409SOL     OW21688   0.587   3.359  11.421 -0.1107 -0.2686 -0.1592
 3409SOL    HW121689   0.571   3.329  11.331  2.0274  0.0348 -0.6372
 3409SOL    HW221690   0.627   3.280  11.457 -0.1429 -0.5136 -0.6556
 3410SOL     OW21691   3.278   2.019   6.385 -0.6072  0.5891  0.0885
 3410SOL    HW121692   3.265   1.949   6.450  1.4889 -0.3077 -0.4702
 3410SOL    HW221693   3.183   2.029   6.373 -0.8061 -2.6906 -1.0497
 3411SOL     OW21694   4.429   1.456   5.976  0.7414  0.2590  0.1748
 3411SOL    HW121695   4.459   1.376   6.020  1.7175  1.7507  2.2303
 3411SOL    HW221696   4.464   1.517   6.041  0.6192 -0.7903  1.2277
 3412SOL     OW21697   0.797   3.277   8.604 -0.0596 -0.7003 -0.2088
 3412SOL    HW121698   0.788   3.185   8.631  0.7803 -0.3796  1.1478
 3412SOL    HW221699   0.731   3.324   8.655 -0.0295 -0.1551 -0.6808
 3413SOL     OW21700   2.024   1.787   2.703  0.5640 -0.4370  0.2029
 3413SOL    HW121701   2.115   1.772   2.677  0.4222 -2.9978  1.1931
 3413SOL    HW221702   1.982   1.702   2.689 -0.1605 -0.4848  2.6816
 3414SOL     OW21703   1.319   3.439  15.856 -0.0144 -0.5406  0.0725
 3414SOL    HW121704   1.393   3.411  15.802 -2.0788 -0.5125 -2.8000
 3414SOL    HW221705   1.253   3.391  15.806  0.2767  0.7202 -1.5322
 3415SOL     OW21706   1.131   4.163   2.530 -0.3098 -0.0759  0.4705
 3415SOL    HW121707   1.178   4.234   2.485  0.9165 -3.0316 -2.8732
 3415SOL    HW221708   1.111   4.103   2.459  1.0904 -0.6889  0.5772
 3416SOL     OW21709   3.545   0.730   6.070 -0.0618  0.4793 -0.1339
 3416SOL    HW121710   3.530   0.700   5.981 -0.9704  2.7515 -0.7474
 3416SOL    HW221711   3.460   0.728   6.115  0.3288 -1.2837  0.5374
 3417SOL     OW21712   1.499   2.262   3.435 -0.1277  0.1925 -0.3032
 3417SOL    HW121713   1.537   2.347   3.414 -0.0675 -0.2912 -2.1037
 3417SOL    HW221714   1.574   2.221   3.478 -1.4736 -0.9206  0.9725
 3418SOL     OW21715   1.675   0.058   3.719  0.2382 -0.9980  0.4067
 3418SOL    HW121716   1.735   0.108   3.663  0.8832 -1.9696  0.2352
 3418SOL    HW221717   1.712   0.085   3.802  2.1552 -0.7166 -0.5453
 3419SOL     OW21718   2.570   1.953   1.641 -0.2792  0.1617 -0.2216
 3419SOL    HW121719   2.646   2.005   1.669 -0.3574 -0.1508  0.5775
 3419SOL    HW221720   2.572   1.861   1.668  0.9462 -0.1566 -1.3776
 3420SOL     OW21721   3.087   1.390   9.145 -0.4866 -0.5867 -0.4047
 3420SOL    HW121722   3.113   1.461   9.204 -2.2499  0.0805 -0.4376
 3420SOL    HW221723   3.036   1.439   9.081 -2.6635  1.0145  2.5165
 3421SOL     OW21724   3.090   4.461   4.668 -0.1957  0.2641  0.1136
 3421SOL    HW121725   3.087   4.534   4.606 -1.7950  1.5971  1.7359
 3421SOL    HW221726   3.003   4.424   4.654 -0.2920 -0.2795  2.0816
 3422SOL     OW21727   2.492   4.021  13.834  0.4138 -0.7019  0.1884
 3422SOL    HW121728   2.484   3.996  13.926 -1.9511  0.7530  0.3602
 3422SOL    HW221729   2.586   4.004  13.830  0.4928 -0.2275 -0.0720
 3423SOL     OW21730   0.940   1.964   5.277 -0.8272  0.4444  0.3029
 3423SOL    HW121731   0.930   1.872   5.304 -0.3090  0.2152 -0.2812
 3423SOL    HW221732   1.028   1.979   5.311 -0.4164  0.2277 -0.6882
 3424SOL     OW21733   4.707   3.024  17.282  0.5784  0.2877  0.2266
 3424SOL    HW121734   0.026   3.108  17.304 -0.3341  0.2602  2.0827
 3424SOL    HW221735   4.715   3.012  17.188  0.3033 -0.0799  0.2491
 3425SOL     OW21736   2.169   2.952   0.758  0.2359  0.6841  0.1839
 3425SOL    HW121737   2.199   3.029   0.807  0.9810  2.3162 -2.8119
 3425SOL    HW221738   2.244   2.924   0.707  0.5017  0.4136  0.7278
 3426SOL     OW21739   1.403   4.247   4.826 -0.5380 -0.5766  0.5959
 3426SOL    HW121740   1.321   4.198   4.828  0.9049 -3.0643 -0.7744
 3426SOL    HW221741   1.402   4.296   4.908  1.2631  0.4409  0.0190
 3427SOL     OW21742   3.137   2.552   3.866  0.1924  0.3016 -0.2024
 3427SOL    HW121743   3.066   2.493   3.841 -0.4015  0.0316  2.1570
 3427SOL    HW221744   3.102   2.583   3.949 -0.5315 -2.9527  0.7162
 3428SOL     OW21745   2.404   3.005   0.353 -0.2124  0.6387 -0.1987
 3428SOL    HW121746   2.452   2.995   0.270  2.4052  0.2098  1.3678
 3428SOL    HW221747   2.470   3.055   0.401 -0.2605  2.1713 -1.6988
 3429SOL     OW21748   3.211   2.061   4.221 -0.0277  0.4642 -0.2275
 3429SOL    HW121749   3.260   2.095   4.296  2.4479 -1.3716 -1.0521
 3429SOL    HW221750   3.275   2.004   4.180  0.7065  0.0498  1.4993
 3430SOL     OW21751   2.979   3.568   9.691 -0.4449  0.3090 -0.5101
 3430SOL    HW121752   2.893   3.566   9.734 -0.8379  0.4509 -1.2874
 3430SOL    HW221753   2.953   3.511   9.618  0.3464 -0.0689 -0.4926
 3431SOL     OW21754   2.454   0.380   3.892  0.0600 -0.3423  0.2120
 3431SOL    HW121755   2.505   0.459   3.911 -0.0269 -0.5741  1.4176
 3431SOL    HW221756   2.402   0.386   3.972  1.6616 -0.4154  1.2540
 3432SOL     OW21757   2.884   2.508   5.241  0.0657 -0.1621  0.3980
 3432SOL    HW121758   2.833   2.460   5.306 -0.3854  1.0413  0.9123
 3432SOL    HW221759   2.907   2.592   5.280  2.1188 -0.2797 -0.5706
 3433SOL     OW21760   1.512   1.481   8.567  0.0568 -0.1514  0.3063
 3433SOL    HW121761   1.427   1.520   8.583  0.2275  0.1562  0.4716
 3433SOL    HW221762   1.498   1.403   8.620 -0.0888  0.7256  1.5620
 3434SOL     OW21763   2.681   0.582  13.779  0.2141  0.1306 -0.0832
 3434SOL    HW121764   2.729   0.571  13.861  0.5884 -2.5315 -0.6394
 3434SOL    HW221765   2.685   0.494  13.741 -2.4367 -0.0907  0.2203
 3435SOL     OW21766   3.363   3.228   9.087 -0.2014  0.0324  0.3621
 3435SOL    HW121767   3.438   3.287   9.093  0.9839 -1.5247  0.6977
 3435SOL    HW221768   3.353   3.185   9.172  1.2505 -1.2917 -0.1534
 3436SOL     OW21769   0.635   0.356   3.521 -0.3128 -0.0973 -0.1549
 3436SOL    HW121770   0.692   0.423   3.483  0.9100 -1.7275 -1.1908
 3436SOL    HW221771   0.577   0.415   3.570 -1.0148 -1.3365  0.4880
 3437SOL     OW21772   1.129   4.132  16.961  0.3106  0.2386  0.5242
 3437SOL    HW121773   1.150   4.050  16.917 -1.1430  0.1536 -0.0255
 3437SOL    HW221774   1.082   4.170  16.886 -0.7793 -1.7384  0.2223
 3438SOL     OW21775   1.139   4.106   2.073 -0.1730  0.0352  0.3428
 3438SOL    HW121776   1.147   4.088   1.980 -0.2499 -1.3188  0.5986
 3438SOL    HW221777   1.148   4.201   2.078 -0.7233  0.1175 -0.2111
 3439SOL     OW21778   4.179   0.430   6.564  0.6170 -0.9104  0.8976
 3439SOL    HW121779   4.194   0.483   6.642 -1.4319 -0.4445  0.9790
 3439SOL    HW221780   4.267   0.405   6.536  0.8461 -2.9130  3.4565
 3440SOL     OW21781   1.636   2.064   6.309 -0.0894 -0.0380  0.3025
 3440SOL    HW121782   1.660   2.122   6.381  1.3483  0.4765 -0.6010
 3440SOL    HW221783   1.595   2.127   6.250  0.5220 -0.0414 -0.1205
 3441SOL     OW21784   2.296   2.376  16.989 -0.3799 -0.0968 -0.1519
 3441SOL    HW121785   2.350   2.407  17.062 -0.3458 -2.5945  0.8907
 3441SOL    HW221786   2.219   2.344  17.037 -0.1520  0.1860  0.4062
 3442SOL     OW21787   3.010   1.701   6.935 -0.2312  0.3598 -0.2329
 3442SOL    HW121788   3.078   1.750   6.890  2.3170 -0.6959  2.5254
 3442SOL    HW221789   2.960   1.657   6.866 -0.9019  0.6357  0.0751
 3443SOL     OW21790   0.895   0.834   6.961  0.1706  0.2108 -0.3531
 3443SOL    HW121791   0.838   0.901   6.998 -1.0615 -0.5414 -0.8893
 3443SOL    HW221792   0.889   0.859   6.868 -1.2765 -3.2959 -1.1987
 3444SOL     OW21793   3.092   4.263   4.360  0.0151 -0.1757  0.7486
 3444SOL    HW121794   3.005   4.253   4.399 -0.2607  2.7405  0.8869
 3444SOL    HW221795   3.145   4.224   4.429 -2.1572 -2.0459  1.3721
 3445SOL     OW21796   1.273   0.724   5.625 -0.7342 -0.3466 -0.1049
 3445SOL    HW121797   1.293   0.716   5.718  1.2889 -1.5710 -0.6528
 3445SOL    HW221798   1.261   0.633   5.597  1.6742 -0.9897  0.9384
 3446SOL     OW21799   1.371   0.123   6.913 -0.5738 -0.7156 -0.3493
 3446SOL    HW121800   1.346   0.143   6.823 -2.5514  0.9722  0.5529
 3446SOL    HW221801   1.351   0.030   6.923 -1.0223 -0.5850 -0.0187
 3447SOL     OW21802   3.238   1.158  16.188 -0.1449  0.3354 -0.2570
 3447SOL    HW121803   3.219   1.250  16.168  0.7130  0.7335  0.8052
 3447SOL    HW221804   3.192   1.143  16.270  0.7606 -2.4868 -0.2904
 3448SOL     OW21805   3.453   1.538   9.366  0.0238  0.1095 -0.1278
 3448SOL    HW121806   3.481   1.535   9.457 -0.8302  1.3750  0.1715
 3448SOL    HW221807   3.506   1.472   9.321  2.1179 -0.6330  3.4472
 3449SOL     OW21808   0.118   0.080   6.237 -0.0579 -0.2491 -0.4090
 3449SOL    HW121809   0.062   0.063   6.161 -1.6668  0.5289  0.5958
 3449SOL    HW221810   0.051   0.061   6.303 -0.6299  1.0752 -0.6077
 3450SOL     OW21811   4.541   3.422   6.591  0.0791 -0.1552  0.7644
 3450SOL    HW121812   4.598   3.346   6.580 -0.2210 -0.2893  0.1154
 3450SOL    HW221813   4.582   3.484   6.530 -1.4955  1.8351  1.7497
 3451SOL     OW21814   3.776   1.653   8.813  1.3603 -1.0273 -0.4910
 3451SOL    HW121815   3.742   1.564   8.802 -2.2338  0.0889  1.5708
 3451SOL    HW221816   3.844   1.650   8.880  1.3913 -0.3613 -0.4921
 3452SOL     OW21817   1.957   3.964  17.101  0.2401 -0.4273 -0.6718
 3452SOL    HW121818   2.002   3.888  17.138  0.2060  0.7679  1.8167
 3452SOL    HW221819   1.997   3.964  17.014 -1.5217 -2.0777 -1.4953
 3453SOL     OW21820   1.068   1.642   5.607  0.2227  0.4000 -0.3286
 3453SOL    HW121821   1.101   1.730   5.626  0.8112  0.3834 -1.2966
 3453SOL    HW221822   1.147   1.604   5.569  0.4032  0.3911  0.0591
 3454SOL     OW21823   0.111   0.780   8.012  0.0641 -0.1368  0.0792
 3454SOL    HW121824   0.098   0.828   7.930  0.4795 -0.0893  0.0374
 3454SOL    HW221825   0.206   0.771   8.022  0.1311  0.6359  0.1453
 3455SOL     OW21826   0.600   3.746  16.551 -0.1616 -0.6038 -0.0288
 3455SOL    HW121827   0.593   3.653  16.530 -0.1974 -0.3163 -1.2548
 3455SOL    HW221828   0.692   3.769  16.539 -0.8843  2.5193  0.2186
 3456SOL     OW21829   4.584   2.061   8.022 -0.1451 -0.0418 -0.3674
 3456SOL    HW121830   4.606   2.083   8.112  0.6477 -2.1152 -0.0624
 3456SOL    HW221831   4.587   2.140   7.968 -0.9386 -1.0678 -1.9256
 3457SOL     OW21832   0.653   1.901   8.141  0.3614  0.0640  0.2274
 3457SOL    HW121833   0.738   1.893   8.098 -0.3578  1.5015 -1.4804
 3457SOL    HW221834   0.604   1.969   8.094 -1.5753 -1.8539 -0.5431
 3458SOL     OW21835   2.495   1.627   1.974 -0.4697  0.0493  0.1277
 3458SOL    HW121836   2.450   1.624   1.889  2.3972  0.2646 -1.3738
 3458SOL    HW221837   2.562   1.562   1.957 -0.9371 -0.0244 -1.4295
 3459SOL     OW21838   3.243   1.531  11.589  0.7164 -0.4056 -0.2302
 3459SOL    HW121839   3.212   1.472  11.658 -0.7854 -0.0149 -0.5660
 3459SOL    HW221840   3.196   1.503  11.511 -0.1291 -3.1766  1.2740
 3460SOL     OW21841   1.166   0.423   8.135  0.1768  0.0571 -0.5630
 3460SOL    HW121842   1.076   0.451   8.149  0.6935  2.0935 -1.2155
 3460SOL    HW221843   1.214   0.486   8.080 -3.4474  3.6821  0.3996
 3461SOL     OW21844   0.115   0.552   1.301 -0.1054 -0.1964  0.5995
 3461SOL    HW121845   0.027   0.580   1.277  0.9615  2.3354 -0.3349
 3461SOL    HW221846   0.145   0.638   1.330 -0.5847  0.6020 -1.2893
 3462SOL     OW21847   3.978   0.403   9.383  1.0569  0.2662  0.4575
 3462SOL    HW121848   3.994   0.368   9.470  0.2096 -1.7623 -0.2014
 3462SOL    HW221849   4.060   0.451   9.384  2.1721 -1.6592  1.8477
 3463SOL     OW21850   2.481   2.176   7.238  0.1217 -0.3106 -0.4229
 3463SOL    HW121851   2.537   2.102   7.261  1.4461  1.0381  0.7980
 3463SOL    HW221852   2.433   2.149   7.160  1.6097  0.0112 -1.4699
 3464SOL     OW21853   2.022   2.563   2.670  0.0107  0.5999 -0.2884
 3464SOL    HW121854   2.054   2.647   2.704  2.3963 -0.8878  1.1106
 3464SOL    HW221855   2.083   2.559   2.595  0.3382  0.8484 -0.0356
 3465SOL     OW21856   3.276   2.427   9.612  0.3286  0.2864  0.8481
 3465SOL    HW121857   3.326   2.451   9.689  0.5445  0.9803  0.4934
 3465SOL    HW221858   3.293   2.503   9.557  0.3799 -1.5871 -1.7661
 3466SOL     OW21859   1.031   0.970   4.113  0.2364 -0.2153 -0.6129
 3466SOL    HW121860   1.087   0.954   4.038  1.0212 -1.2927  0.1963
 3466SOL    HW221861   1.091   1.002   4.180 -0.4921 -0.4890  0.1770
 3467SOL     OW21862   3.753   4.517   5.340 -0.6980 -0.1823 -0.1762
 3467SOL    HW121863   3.748   4.569   5.420 -2.0180 -2.3448  1.1544
 3467SOL    HW221864   3.751   4.425   5.369  0.8213 -0.5194 -1.1064
 3468SOL     OW21865   3.470   4.457  17.586 -0.2430 -0.1823 -0.0174
 3468SOL    HW121866   3.490   4.382  17.532 -1.0780  0.2833 -0.9703
 3468SOL    HW221867   3.497   4.428  17.673 -1.6286  0.2905  0.5720
 3469SOL     OW21868   0.326   1.778   8.524 -1.1539 -0.0533 -0.3470
 3469SOL    HW121869   0.282   1.856   8.489 -0.5532  0.6839  0.5365
 3469SOL    HW221870   0.377   1.754   8.447 -1.2048  2.1528 -1.0906
 3470SOL     OW21871   0.326   4.192   1.053  0.0090 -0.3342  0.4724
 3470SOL    HW121872   0.296   4.102   1.046 -0.5889 -0.3286  2.8275
 3470SOL    HW221873   0.284   4.215   1.137 -0.6056 -0.6352  0.2511
 3471SOL     OW21874   0.251   4.494  13.229  0.2529 -0.2766  0.4522
 3471SOL    HW121875   0.323   4.557  13.221  2.2807 -2.6888 -0.5589
 3471SOL    HW221876   0.288   4.438  13.297 -0.5135 -0.2484  0.8841
 3472SOL     OW21877   1.972   3.608   3.449 -0.1997  0.0451  0.1619
 3472SOL    HW121878   1.999   3.698   3.469 -2.1859  0.9251 -1.1311
 3472SOL    HW221879   2.018   3.605   3.365  1.5002  2.4297  1.0183
 3473SOL     OW21880   1.259   2.796   9.202 -0.0991  0.2685  0.0532
 3473SOL    HW121881   1.235   2.856   9.273 -0.6079 -1.8822  1.6800
 3473SOL    HW221882   1.352   2.815   9.192  0.1189 -0.7961  0.0783
 3474SOL     OW21883   2.851   4.560  15.125  0.1089 -0.2042  0.1295
 3474SOL    HW121884   2.850   4.545  15.219 -0.1635 -0.0005  0.1602
 3474SOL    HW221885   2.820   4.478  15.087 -0.9256  0.4777 -0.5026
 3475SOL     OW21886   1.845   3.345   3.085 -0.2141 -0.2460  0.2051
 3475SOL    HW121887   1.912   3.278   3.096 -0.5159 -0.2064  2.1428
 3475SOL    HW221888   1.767   3.299   3.117  0.2864 -1.7702 -0.7808
 3476SOL     OW21889   0.466   1.222   7.832 -0.2462  0.5713  0.0139
 3476SOL    HW121890   0.405   1.165   7.785 -0.7934 -0.3402  1.8538
 3476SOL    HW221891   0.481   1.165   7.907 -0.1164  0.6104  0.0171
 3477SOL     OW21892   0.447   2.202   6.646  0.3981  0.0941 -0.3213
 3477SOL    HW121893   0.374   2.261   6.658  1.4772  1.5029 -0.7501
 3477SOL    HW221894   0.444   2.136   6.716 -0.4490  2.2829  1.7093
 3478SOL     OW21895   3.525   0.531   8.967 -0.0265 -0.8235 -0.0629
 3478SOL    HW121896   3.536   0.508   8.875 -1.9282  0.2296 -0.5645
 3478SOL    HW221897   3.586   0.605   8.972  1.2366 -1.9272  0.9666
 3479SOL     OW21898   1.813   3.860   4.506 -0.6739 -0.2572  0.0658
 3479SOL    HW121899   1.782   3.882   4.594 -0.2559  0.4931  0.0264
 3479SOL    HW221900   1.773   3.924   4.447 -1.3580 -0.9611 -0.2418
 3480SOL     OW21901   1.721   4.721   6.118 -0.1053  0.0523  0.8512
 3480SOL    HW121902   1.784   0.043   6.176  0.0503 -0.4496  1.0591
 3480SOL    HW221903   1.760   4.634   6.105 -0.9045 -0.3553  1.2359
 3481SOL     OW21904   1.947   2.877   4.715 -0.0887  0.0017  0.2794
 3481SOL    HW121905   1.915   2.876   4.805  0.2092 -0.0232  0.3830
 3481SOL    HW221906   1.927   2.787   4.691 -2.8392  0.0682  2.2733
 3482SOL     OW21907   2.548   0.963   7.144 -0.0218  0.1497 -0.4445
 3482SOL    HW121908   2.618   0.934   7.086 -0.4573  1.0331 -1.4052
 3482SOL    HW221909   2.507   0.887   7.184  0.3299  0.2341  0.0768
 3483SOL     OW21910   2.564   4.373   0.578 -0.3604 -0.3876 -0.2813
 3483SOL    HW121911   2.618   4.347   0.503 -1.2885 -0.0305 -1.0601
 3483SOL    HW221912   2.509   4.297   0.595 -3.2562  1.9683  0.7963
 3484SOL     OW21913   0.434   1.064  13.247  0.7426 -0.1908 -0.2976
 3484SOL    HW121914   0.434   1.004  13.173 -2.3566  0.4795 -0.8435
 3484SOL    HW221915   0.421   1.154  13.216  0.7799 -0.1476 -0.1904
 3485SOL     OW21916   2.423   4.035   0.755 -0.4544  0.5022  0.1485
 3485SOL    HW121917   2.436   4.000   0.667 -0.3990  3.4940 -1.0547
 3485SOL    HW221918   2.331   4.061   0.752 -0.6575 -0.5348 -2.7660
 3486SOL     OW21919   1.394   3.112   3.934 -0.4966 -0.4506 -0.1902
 3486SOL    HW121920   1.488   3.102   3.922 -0.8477 -1.0461 -2.4147
 3486SOL    HW221921   1.374   3.059   4.011 -0.0150 -1.2137 -0.5966
 3487SOL     OW21922   3.864   2.383  13.533  0.0464  0.3557  0.4015
 3487SOL    HW121923   3.821   2.459  13.573 -0.5241  0.9854 -1.4135
 3487SOL    HW221924   3.928   2.368  13.603 -0.7146  1.2419  1.2850
 3488SOL     OW21925   4.338   0.941   8.884  0.8366 -0.5593 -0.0279
 3488SOL    HW121926   4.277   0.922   8.813 -0.4679 -1.5988  1.3477
 3488SOL    HW221927   4.407   0.994   8.845 -0.5164  1.9528  0.9924
 3489SOL     OW21928   2.351   3.873  15.008  0.2633  0.3685  0.2093
 3489SOL    HW121929   2.300   3.939  14.962  0.7878  1.7062  1.5575
 3489SOL    HW221930   2.316   3.790  14.973  0.0979 -0.1779  1.6772
 3490SOL     OW21931   1.725   3.676   7.018 -0.2666  0.3139 -0.2152
 3490SOL    HW121932   1.687   3.641   6.938 -2.2310  2.7861 -0.3720
 3490SOL    HW221933   1.708   3.599   7.073  2.0385  0.4077  0.6375
 3491SOL     OW21934   4.687   0.877  15.727 -0.1340  0.1371 -0.1035
 3491SOL    HW121935   4.641   0.955  15.758 -1.7110 -1.6081  1.9722
 3491SOL    HW221936   4.630   0.808  15.761 -1.8344  1.2685 -0.6709
 3492SOL     OW21937   0.514   0.766   5.243 -0.9120 -0.2350  0.1080
 3492SOL    HW121938   0.498   0.755   5.337 -2.4955 -0.3331 -0.1609
 3492SOL    HW221939   0.583   0.832   5.249 -0.1808 -0.7925 -1.9299
 3493SOL     OW21940   3.793   4.519   5.953  0.0332 -0.7220 -0.0307
 3493SOL    HW121941   3.729   4.481   6.013 -0.8967 -1.9825 -1.8127
 3493SOL    HW221942   3.858   4.537   6.021  0.6257  0.4770 -0.9274
 3494SOL     OW21943   0.953   2.769   6.657  0.1825 -0.5225  0.6363
 3494SOL    HW121944   1.047   2.770   6.634  0.0912 -4.3256  0.1084
 3494SOL    HW221945   0.931   2.689   6.608 -0.9960  1.2398 -1.7323
 3495SOL     OW21946   0.931   2.170   0.194  0.0075  0.1672 -0.1363
 3495SOL    HW121947   0.856   2.152   0.137  1.0340  0.2912 -1.5248
 3495SOL    HW221948   0.894   2.240   0.247 -1.2008 -0.3003 -0.3528
 3496SOL     OW21949   2.504   2.438   6.876 -0.1501  0.7092  0.0275
 3496SOL    HW121950   2.521   2.463   6.785  2.4935 -1.0574  0.0177
 3496SOL    HW221951   2.421   2.391   6.870 -0.2767  0.8503  0.7477
 3497SOL     OW21952   2.221   3.140   2.910  0.2674  0.4803 -0.2909
 3497SOL    HW121953   2.313   3.129   2.933  0.2386  0.6932 -0.0774
 3497SOL    HW221954   2.205   3.080   2.837 -1.5982  2.3926 -1.4416
 3498SOL     OW21955   1.655   1.814  10.651  0.0050 -0.1340  0.3427
 3498SOL    HW121956   1.661   1.848  10.561  1.9512  0.5349  0.7277
 3498SOL    HW221957   1.560   1.812  10.661 -0.1474  1.9095 -0.5848
 3499SOL     OW21958   4.575   3.240   7.738  0.2405  0.2734  0.0856
 3499SOL    HW121959   4.559   3.329   7.768  0.1848  0.7454 -1.3391
 3499SOL    HW221960   4.610   3.260   7.651  1.8142 -1.2222  0.3743
 3500SOL     OW21961   4.169   0.334   7.898  0.0640 -0.6797  0.2309
 3500SOL    HW121962   4.243   0.353   7.841 -2.4129 -1.2456 -3.1964
 3500SOL    HW221963   4.100   0.309   7.836  0.3046 -0.9058  0.0521
 3501SOL     OW21964   1.954   0.370   6.060 -0.6253  0.4953 -0.4514
 3501SOL    HW121965   1.927   0.443   6.117 -0.3047 -1.2323  1.9205
 3501SOL    HW221966   1.959   0.303   6.128  1.1924  2.5886  1.4539
 3502SOL     OW21967   0.199   2.662   6.440 -0.1631  0.5127 -0.4600
 3502SOL    HW121968   0.251   2.595   6.395 -0.8274 -0.6388  0.4720
 3502SOL    HW221969   0.123   2.664   6.382  0.9704 -2.0859 -2.0504
 3503SOL     OW21970   3.866   2.088   2.525  0.0283 -0.0845 -0.2312
 3503SOL    HW121971   3.878   2.180   2.504 -1.6071 -0.5098 -2.9821
 3503SOL    HW221972   3.838   2.090   2.617 -1.5265 -3.2467 -0.6449
 3504SOL     OW21973   0.753   1.432   7.953 -0.2851 -0.0801  0.2904
 3504SOL    HW121974   0.797   1.347   7.950 -0.5217 -0.1732 -0.6779
 3504SOL    HW221975   0.784   1.459   8.040 -1.5256 -0.5101  0.8749
 3505SOL     OW21976   0.731   0.953   5.204  0.1126  0.5956  0.4403
 3505SOL    HW121977   0.789   1.019   5.166 -0.2959  0.2904 -0.6862
 3505SOL    HW221978   0.807   0.905   5.238  1.4510  0.9160 -2.1430
 3506SOL     OW21979   0.284   2.346   3.583  0.0796 -0.3703 -0.2816
 3506SOL    HW121980   0.207   2.401   3.595  1.0033  0.8160  0.2462
 3506SOL    HW221981   0.236   2.264   3.578 -0.7469  0.1650 -1.1336
 3507SOL     OW21982   2.532   4.151   8.572  0.2736  0.2527 -0.2902
 3507SOL    HW121983   2.471   4.175   8.643  0.9971 -0.0363  0.4310
 3507SOL    HW221984   2.612   4.135   8.621 -1.0075  0.2728  1.8359
 3508SOL     OW21985   2.003   1.329   4.556  0.3122  0.4621  0.6786
 3508SOL    HW121986   1.990   1.339   4.462  1.9184 -1.0910  0.2950
 3508SOL    HW221987   2.065   1.398   4.580  2.2865 -0.5448 -1.5564
 3509SOL     OW21988   2.295   4.673   1.494  0.0098 -0.1772  0.1255
 3509SOL    HW121989   2.217   4.617   1.497  0.3653 -0.5950  1.4209
 3509SOL    HW221990   2.288   4.715   1.408 -0.9711  0.8801  0.7182
 3510SOL     OW21991   2.237   3.210   2.472 -0.2685 -0.1605 -0.5496
 3510SOL    HW121992   2.294   3.138   2.447 -0.3861 -0.3986 -0.1421
 3510SOL    HW221993   2.170   3.208   2.404  0.3579  0.0519 -1.1610
 3511SOL     OW21994   0.959   3.788  17.375  0.5233  0.2334 -0.3146
 3511SOL    HW121995   1.042   3.834  17.387  0.9424  0.1327 -2.8150
 3511SOL    HW221996   0.917   3.807  17.459 -2.2612  2.1954 -2.1544
 3512SOL     OW21997   0.541   3.818  11.300 -0.4240 -0.6441 -0.0552
 3512SOL    HW121998   0.458   3.786  11.337 -1.2371  0.4589 -0.9366
 3512SOL    HW221999   0.600   3.803  11.374  0.5460 -3.5807 -1.4538
 3513SOL     OW22000   2.347   1.572   8.203 -0.0282 -0.0741 -0.4677
 3513SOL    HW122001   2.411   1.523   8.255 -1.1520 -0.5033  0.4966
 3513SOL    HW222002   2.337   1.508   8.132  1.5647 -1.1413  0.2757
 3514SOL     OW22003   1.002   3.538   1.259  0.3369 -0.0261 -0.2155
 3514SOL    HW122004   1.071   3.603   1.273 -0.6869  1.8000 -3.4466
 3514SOL    HW222005   0.985   3.556   1.166 -1.9393  1.3670  0.4730
 3515SOL     OW22006   1.185   1.345   5.512 -0.0833 -0.3636  0.6347
 3515SOL    HW122007   1.125   1.311   5.578 -1.6851  0.0300 -0.6208
 3515SOL    HW222008   1.242   1.401   5.564 -0.9687  1.1359 -0.0118
 3516SOL     OW22009   3.600   2.195   2.415 -0.3948 -0.3797 -0.2043
 3516SOL    HW122010   3.514   2.230   2.392  0.7110  2.1927 -0.3529
 3516SOL    HW222011   3.650   2.275   2.431  1.8701 -2.2949  2.3883
 3517SOL     OW22012   2.318   1.425   7.151  0.2114  0.3523  0.4940
 3517SOL    HW122013   2.268   1.412   7.070  1.4546  0.6333 -0.3195
 3517SOL    HW222014   2.251   1.448   7.216  0.1164 -2.5173  1.3846
 3518SOL     OW22015   2.202   2.843   2.410 -0.3280  0.1852  0.6022
 3518SOL    HW122016   2.118   2.839   2.365 -0.2985 -0.4786  0.6068
 3518SOL    HW222017   2.268   2.820   2.344  0.8487  3.0278  0.8002
 3519SOL     OW22018   1.564   2.462   5.712 -0.3739 -0.0551 -0.2945
 3519SOL    HW122019   1.502   2.534   5.700 -0.1151  0.2478  0.1581
 3519SOL    HW222020   1.523   2.389   5.665 -0.9408  0.3243 -0.3905
 3520SOL     OW22021   3.322   4.112   8.512 -0.8672  0.1809  0.1937
 3520SOL    HW122022   3.376   4.035   8.533 -1.7175 -0.3658  0.3818
 3520SOL    HW222023   3.319   4.166   8.591  0.8591 -2.1493  1.8717
 3521SOL     OW22024   4.270   3.414   7.818  0.0439  0.2596  0.1402
 3521SOL    HW122025   4.214   3.339   7.839  0.5571  0.4908  2.3655
 3521SOL    HW222026   4.313   3.393   7.736 -0.7866  1.0835 -0.5038
 3522SOL     OW22027   2.939   3.374   5.079 -0.4605 -0.3350  0.4227
 3522SOL    HW122028   2.985   3.450   5.044  0.1691 -0.1755  1.5940
 3522SOL    HW222029   2.935   3.315   5.004 -0.9089 -0.5521  0.6153
 3523SOL     OW22030   2.545   3.908  12.225  0.5086  0.1482 -0.1233
 3523SOL    HW122031   2.583   3.939  12.308 -1.4502 -0.4298  0.9914
 3523SOL    HW222032   2.599   3.947  12.156 -0.0000  1.3708  0.1656
 3524SOL     OW22033   0.070   2.320  16.046 -0.0562 -0.4046 -0.8270
 3524SOL    HW122034   0.067   2.413  16.024 -1.2539 -0.0637  0.7933
 3524SOL    HW222035   0.146   2.281  16.003 -0.4583 -1.6905 -0.3690
 3525SOL     OW22036   1.535   3.460   5.443 -0.3445 -0.2778  0.5867
 3525SOL    HW122037   1.491   3.441   5.360  0.4870 -0.5816  0.2167
 3525SOL    HW222038   1.622   3.461   5.404 -0.0791  0.3441  1.1924
 3526SOL     OW22039   4.017   2.102  14.946  0.0489  0.1874  0.7297
 3526SOL    HW122040   3.933   2.086  14.903  1.6997 -2.2082 -1.5926
 3526SOL    HW222041   4.042   2.015  14.976  0.6133  0.5331  1.2513
 3527SOL     OW22042   1.225   2.483   2.234 -0.0860 -0.0280  0.0924
 3527SOL    HW122043   1.261   2.527   2.157  0.2368 -0.2134  0.1370
 3527SOL    HW222044   1.144   2.533   2.245  1.2565  2.0223  0.5179
 3528SOL     OW22045   3.220   4.495  14.437  0.0980  0.6898  0.0958
 3528SOL    HW122046   3.255   4.406  14.436 -0.7334  0.3668 -0.8373
 3528SOL    HW222047   3.297   4.535  14.398  0.7210 -2.5529 -2.0369
 3529SOL     OW22048   0.345   2.763   9.884  0.0421 -0.0634  0.5946
 3529SOL    HW122049   0.266   2.719   9.853  1.2342 -0.9168 -1.1750
 3529SOL    HW222050   0.384   2.799   9.804  2.4504 -0.5384  1.5486
 3530SOL     OW22051   2.624   3.520   5.112 -0.2093 -0.2739  0.0416
 3530SOL    HW122052   2.683   3.572   5.166 -0.6102 -0.6270  0.8105
 3530SOL    HW222053   2.663   3.533   5.026 -0.0768  0.8334  0.2687
 3531SOL     OW22054   3.437   0.468   7.349 -0.4116 -0.5292 -0.1301
 3531SOL    HW122055   3.483   0.551   7.361 -1.0727 -0.1685 -0.1158
 3531SOL    HW222056   3.360   0.495   7.299 -0.3295 -0.6623 -0.3279
 3532SOL     OW22057   1.968   2.753  15.664 -0.3965  0.4515 -0.5550
 3532SOL    HW122058   1.989   2.805  15.586  0.8724  1.1980  0.2720
 3532SOL    HW222059   1.966   2.812  15.740 -0.5718 -0.8783  0.4832
 3533SOL     OW22060   0.871   0.155   3.212  0.5600  0.1368  0.3283
 3533SOL    HW122061   0.817   0.095   3.262 -1.1084  0.6941 -0.7949
 3533SOL    HW222062   0.813   0.231   3.203  0.6177  0.3236  1.5810
 3534SOL     OW22063   3.608   4.481  11.585 -0.8340 -0.0469  0.2691
 3534SOL    HW122064   3.668   4.462  11.514  0.4517  0.4063  1.2334
 3534SOL    HW222065   3.550   4.405  11.585 -0.5084 -0.2950  0.8299
 3535SOL     OW22066   1.862   2.415  13.333  0.2253 -0.5239 -0.9332
 3535SOL    HW122067   1.956   2.426  13.345 -0.2326  0.4187  1.8566
 3535SOL    HW222068   1.855   2.361  13.254  1.2588 -1.1839 -0.5750
 3536SOL     OW22069   1.866   1.543   9.966  0.2203 -0.2900  0.1393
 3536SOL    HW122070   1.858   1.567  10.058  2.0115  2.3871 -0.4107
 3536SOL    HW222071   1.887   1.454   9.993  1.1430 -0.2210 -0.3469
 3537SOL     OW22072   1.587   3.895  15.724 -0.0703 -0.1404  0.2722
 3537SOL    HW122073   1.626   3.909  15.637 -1.7186  1.4128 -0.2371
 3537SOL    HW222074   1.604   3.980  15.766  0.4315 -1.2774  2.3677
 3538SOL     OW22075   0.497   3.116  12.175  0.4319 -0.1432 -0.4350
 3538SOL    HW122076   0.521   3.038  12.225 -0.1750  0.4554  0.8049
 3538SOL    HW222077   0.410   3.133  12.213  0.7416  0.7689 -0.1402
 3539SOL     OW22078   0.103   1.180   7.826  0.1453  0.1172  0.2441
 3539SOL    HW122079   0.113   1.274   7.815  0.7911  0.1182  0.8294
 3539SOL    HW222080   0.164   1.171   7.899  0.4757 -4.0091 -0.5389
 3540SOL     OW22081   3.822   0.256  12.124  0.3703  0.1253 -0.1758
 3540SOL    HW122082   3.847   0.187  12.186  0.6357  0.2570 -0.1383
 3540SOL    HW222083   3.752   0.304  12.169  1.0390  1.7498 -0.8855
 3541SOL     OW22084   2.952   1.754   9.804  0.0094  0.3470 -0.4029
 3541SOL    HW122085   2.971   1.847   9.789 -0.7186  0.3030 -1.6159
 3541SOL    HW222086   2.861   1.752   9.832 -0.2176 -0.9005 -1.2422
 3542SOL     OW22087   3.789   3.875   4.242  0.3113 -0.5246  0.0601
 3542SOL    HW122088   3.790   3.923   4.325  0.5863 -1.4107  0.5665
 3542SOL    HW222089   3.729   3.802   4.253 -0.6019  0.7023  3.2708
 3543SOL     OW22090   3.422   1.719   5.648 -0.5677 -0.4428 -0.4738
 3543SOL    HW122091   3.503   1.699   5.694 -2.4422 -1.4425  2.4184
 3543SOL    HW222092   3.439   1.809   5.622 -0.7747 -0.8035 -1.8494
 3544SOL     OW22093   4.147   3.441   6.328  0.2929 -0.0547  0.2406
 3544SOL    HW122094   4.210   3.417   6.260 -1.3165  1.0939 -1.6748
 3544SOL    HW222095   4.189   3.413   6.409 -0.1421 -0.2732  0.3891
 3545SOL     OW22096   0.712   4.046   1.728  0.0737  0.2523  0.2309
 3545SOL    HW122097   0.658   3.982   1.773 -0.9405 -1.2790 -3.1614
 3545SOL    HW222098   0.707   4.028   1.634 -0.1444  0.0739  0.2776
 3546SOL     OW22099   0.028   3.794   2.713 -0.0914 -0.1257  0.6470
 3546SOL    HW122100   0.038   3.836   2.627 -0.8325 -2.2004 -0.4364
 3546SOL    HW222101   0.120   3.802   2.736 -0.0155  1.6039 -0.2413
 3547SOL     OW22102   0.641   0.823   8.310 -0.0598  0.2439 -0.4278
 3547SOL    HW122103   0.670   0.844   8.399 -2.8151 -1.6139  0.9128
 3547SOL    HW222104   0.545   0.820   8.318 -0.0792 -1.3970 -1.1579
 3548SOL     OW22105   3.179   0.946   1.545 -0.4761 -0.1761  0.0961
 3548SOL    HW122106   3.183   1.029   1.591 -1.2235  1.4641 -2.8093
 3548SOL    HW222107   3.192   0.980   1.456 -1.0112  0.0113  0.0886
 3549SOL     OW22108   0.986   3.629   0.070  0.9913  0.5867  0.1740
 3549SOL    HW122109   0.928   3.676   0.129 -1.2470 -2.4853  0.4675
 3549SOL    HW222110   0.922   3.570   0.029  1.6958  1.7378 -2.5490
 3550SOL     OW22111   2.022   1.635   4.743  0.3914  0.0056  0.0283
 3550SOL    HW122112   2.039   1.695   4.816  0.7047 -0.4307  0.3121
 3550SOL    HW222113   1.932   1.664   4.726 -0.0574  0.1448  2.6462
 3551SOL     OW22114   4.330   0.333   2.864  0.2123 -1.3485 -0.1962
 3551SOL    HW122115   4.381   0.413   2.850 -0.3023 -0.6846  1.7525
 3551SOL    HW222116   4.265   0.359   2.929  1.2215  0.9574 -0.1213
 3552SOL     OW22117   0.219   2.479   4.892 -0.3548 -0.0099  0.7502
 3552SOL    HW122118   0.290   2.535   4.860 -1.4529  2.2548  2.2514
 3552SOL    HW222119   0.154   2.549   4.905  1.7718  1.9361  0.8787
 3553SOL     OW22120   1.429   0.607   6.481  0.4185 -0.5302 -0.1069
 3553SOL    HW122121   1.380   0.613   6.399  0.2686  3.6489  0.2766
 3553SOL    HW222122   1.376   0.538   6.520  0.3171  0.3246  1.2685
 3554SOL     OW22123   2.972   2.323   5.883  0.0100 -0.0543 -0.1154
 3554SOL    HW122124   3.046   2.322   5.944  1.2717 -0.4889 -1.6480
 3554SOL    HW222125   2.946   2.415   5.890 -1.5976 -0.5091 -0.1113
 3555SOL     OW22126   2.213   0.434  12.530 -0.5754 -0.3767  0.2344
 3555SOL    HW122127   2.119   0.417  12.528 -0.3198 -1.8321  0.2768
 3555SOL    HW222128   2.217   0.514  12.477 -1.0102 -0.9725 -0.7076
 3556SOL     OW22129   2.990   3.805   5.482 -0.0856 -0.1632  0.0129
 3556SOL    HW122130   3.015   3.813   5.390  2.5432  0.5766  0.8070
 3556SOL    HW222131   3.065   3.770   5.530  2.6665  1.0747 -3.3848
 3557SOL     OW22132   0.950   0.845   6.679  0.3480 -0.1393  0.1307
 3557SOL    HW122133   0.919   0.757   6.661 -0.0774  0.3834 -1.7032
 3557SOL    HW222134   1.029   0.849   6.625 -0.7122  2.0995 -1.2895
 3558SOL     OW22135   1.056   1.709   8.100  0.0932 -0.0026  0.1897
 3558SOL    HW122136   0.996   1.761   8.046 -0.1041  1.0927  1.4766
 3558SOL    HW222137   1.062   1.778   8.166  0.9200 -0.3968  0.5297
 3559SOL     OW22138   1.998   4.607  10.197  0.0239  0.0949  0.6212
 3559SOL    HW122139   1.998   4.524  10.148  0.8661  0.8095 -0.5899
 3559SOL    HW222140   2.046   4.667  10.140 -2.1041 -0.3746 -1.6189
 3560SOL     OW22141   0.998   3.318  10.448  0.0310  0.1153 -0.0004
 3560SOL    HW122142   1.077   3.270  10.425  1.1058  1.7329  0.3267
 3560SOL    HW222143   0.938   3.255  10.409 -0.5301  1.0350 -0.6069
 3561SOL     OW22144   1.818   4.636  14.331 -0.3428 -0.7858  0.8233
 3561SOL    HW122145   1.768   4.573  14.279  1.9461 -0.4337 -1.8452
 3561SOL    HW222146   1.894   4.644  14.273 -0.4014  2.7278  1.2211
 3562SOL     OW22147   2.179   0.913   7.227  0.2275  0.1144 -0.0785
 3562SOL    HW122148   2.265   0.870   7.223  0.2140  0.2487 -1.9545
 3562SOL    HW222149   2.147   0.881   7.311 -2.6385  0.8683 -0.8917
 3563SOL     OW22150   1.818   4.324  14.833  0.9839  0.3959  0.2348
 3563SOL    HW122151   1.842   4.409  14.796  0.3850  1.2619  1.8150
 3563SOL    HW222152   1.838   4.276  14.753 -2.4735 -0.1421 -0.2709
 3564SOL     OW22153   0.809   0.008  11.714  0.1672 -0.5006 -0.3618
 3564SOL    HW122154   0.850   0.011  11.628 -1.0551  0.5913 -0.8971
 3564SOL    HW222155   0.853   4.653  11.751  3.2404  1.4785  0.1729
 3565SOL     OW22156   1.600   1.660   6.387 -0.0908 -0.5151  0.2064
 3565SOL    HW122157   1.666   1.591   6.375  0.6407  0.1088  0.6334
 3565SOL    HW222158   1.613   1.703   6.303 -3.3679  2.9699  1.5409
 3566SOL     OW22159   4.502   0.410  10.510  0.1807  0.0972  0.8006
 3566SOL    HW122160   4.485   0.485  10.453 -2.3327  0.7483  2.3776
 3566SOL    HW222161   4.416   0.386  10.544 -0.7381 -0.7833 -2.2166
 3567SOL     OW22162   3.001   1.680   3.926  0.0903  0.0311  1.0599
 3567SOL    HW122163   3.043   1.765   3.939  0.0320  0.2188 -0.0105
 3567SOL    HW222164   3.040   1.635   4.001  0.8252  0.7423  1.1019
 3568SOL     OW22165   2.809   3.169   6.876 -0.4045 -0.8055  0.3112
 3568SOL    HW122166   2.747   3.238   6.899  2.0267  0.5722  2.8325
 3568SOL    HW222167   2.774   3.093   6.921 -1.3638 -1.4925 -1.6000
 3569SOL     OW22168   0.612   3.131   9.985 -0.6219  0.2200 -0.1394
 3569SOL    HW122169   0.614   3.148  10.079 -0.3289 -0.2034 -0.0682
 3569SOL    HW222170   0.675   3.060   9.987 -1.3480 -0.4180  0.1655
 3570SOL     OW22171   2.644   2.437   6.003 -0.8368  0.1363  0.6146
 3570SOL    HW122172   2.564   2.448   6.054  0.5053  0.0977  2.7429
 3570SOL    HW222173   2.713   2.434   6.070  0.0124  1.3975 -0.1898
 3571SOL     OW22174   4.119   1.516   7.261 -0.2081  0.2184 -0.3927
 3571SOL    HW122175   4.096   1.452   7.328 -0.7171 -1.4632 -2.1582
 3571SOL    HW222176   4.209   1.484   7.252 -0.4862 -0.7696  0.3720
 3572SOL     OW22177   0.610   3.642   0.420  0.0089  0.1853 -0.1613
 3572SOL    HW122178   0.524   3.600   0.416 -0.7553  1.7061  0.2203
 3572SOL    HW222179   0.636   3.619   0.509  1.3702  0.4338 -0.5006
 3573SOL     OW22180   3.412   1.331   5.539  0.3917 -0.2714  0.2420
 3573SOL    HW122181   3.384   1.381   5.615  0.3502  0.2869 -0.1412
 3573SOL    HW222182   3.344   1.266   5.521 -1.5478  1.3926  1.7160
 3574SOL     OW22183   3.628   4.551   2.082 -0.0980 -0.2506  0.2866
 3574SOL    HW122184   3.643   4.639   2.050  2.0752 -1.0963 -1.0382
 3574SOL    HW222185   3.708   4.520   2.126 -0.1364  1.4029  1.5015
 3575SOL     OW22186   0.012   4.493   9.166 -0.2495 -0.5163  0.1190
 3575SOL    HW122187   0.021   4.417   9.224  1.6529 -0.5447 -0.2272
 3575SOL    HW222188   0.094   4.487   9.117  0.0555 -1.0818  0.6987
 3576SOL     OW22189   1.667   1.141   9.273 -0.5072 -0.5087 -0.2285
 3576SOL    HW122190   1.592   1.107   9.226 -0.3618  0.9782 -1.5450
 3576SOL    HW222191   1.652   1.234   9.257 -3.3311 -0.7413  1.0761
 3577SOL     OW22192   2.163   3.132   6.875  0.3360 -0.1736  0.3758
 3577SOL    HW122193   2.179   3.078   6.797 -1.5823 -0.0378 -0.1019
 3577SOL    HW222194   2.174   3.221   6.842 -0.8338  0.6537  2.2437
 3578SOL     OW22195   2.826   0.542   3.631 -0.4603  0.6685 -0.0239
 3578SOL    HW122196   2.790   0.615   3.580 -1.1367 -0.3245 -0.9691
 3578SOL    HW222197   2.804   0.469   3.572  1.6003  1.3894 -1.7071
 3579SOL     OW22198   1.560   1.807   7.402 -0.5495 -0.3145 -0.1526
 3579SOL    HW122199   1.489   1.869   7.420  2.2625  2.2418  2.1198
 3579SOL    HW222200   1.608   1.800   7.485  0.5633 -1.4460 -0.9110
 3580SOL     OW22201   2.520   4.424   5.990  0.2700 -0.1728 -0.6824
 3580SOL    HW122202   2.489   4.513   5.974  0.4212  0.6787  3.5341
 3580SOL    HW222203   2.569   4.400   5.912  1.7425  0.6787 -0.0199
 3581SOL     OW22204   2.475   2.985   4.766 -0.1933 -0.4193  0.1334
 3581SOL    HW122205   2.456   3.076   4.743  2.5684  0.0689 -0.1716
 3581SOL    HW222206   2.397   2.938   4.736  0.0956  0.3636 -1.8506
 3582SOL     OW22207   3.741   0.049   3.671  0.4299 -0.3008  0.6830
 3582SOL    HW122208   3.728   0.004   3.587 -1.6840  0.2189  0.7210
 3582SOL    HW222209   3.752   4.694   3.727  1.2074 -0.3294  0.4812
 3583SOL     OW22210   1.473   3.415   9.133  0.7981 -0.4654  0.2443
 3583SOL    HW122211   1.491   3.495   9.084 -0.1801  0.5665  1.5715
 3583SOL    HW222212   1.513   3.434   9.218  1.1463 -0.7207  0.1366
 3584SOL     OW22213   1.797   0.818   7.698 -0.2540 -0.1092  0.0687
 3584SOL    HW122214   1.764   0.873   7.627 -0.4014  1.2234  1.1844
 3584SOL    HW222215   1.808   0.885   7.766  1.4434  1.1704 -1.4743
 3585SOL     OW22216   1.110   4.170  16.422 -0.3899 -0.0847  0.8066
 3585SOL    HW122217   1.134   4.078  16.429 -2.2506 -0.5448  1.2405
 3585SOL    HW222218   1.124   4.177  16.327  1.5963  1.5671  1.2492
 3586SOL     OW22219   4.383   3.789   4.505  0.0620 -0.1123 -0.1948
 3586SOL    HW122220   4.442   3.841   4.450 -0.8905  2.5160  1.2709
 3586SOL    HW222221   4.302   3.836   4.490  1.0572  1.3087 -1.0900
 3587SOL     OW22222   4.105   3.866   5.879 -0.0974  0.1778 -0.4154
 3587SOL    HW122223   4.038   3.843   5.944  1.1511  0.5015  0.9864
 3587SOL    HW222224   4.057   3.931   5.828 -1.8720 -0.4641  0.4132
 3588SOL     OW22225   1.048   3.066   8.881  0.2511  0.4659 -0.0379
 3588SOL    HW122226   1.026   3.094   8.970  0.0128 -2.4723  0.8220
 3588SOL    HW222227   0.963   3.050   8.841  2.0029 -2.8812 -2.3281
 3589SOL     OW22228   3.067   4.292  16.625 -0.5834  0.0937 -0.1014
 3589SOL    HW122229   3.099   4.377  16.596  0.9700 -0.1697  0.8605
 3589SOL    HW222230   2.972   4.293  16.627 -0.5759  3.8576 -2.3047
 3590SOL     OW22231   4.719   1.780   3.708 -0.1027 -0.4835  0.0223
 3590SOL    HW122232   4.679   1.728   3.777  0.3913 -0.5960  0.2268
 3590SOL    HW222233   4.668   1.753   3.631 -0.7496  1.1030 -0.1120
 3591SOL     OW22234   1.531   2.535  15.649 -0.3194 -0.1990  0.2547
 3591SOL    HW122235   1.527   2.631  15.655 -3.7188 -0.4323  1.8930
 3591SOL    HW222236   1.624   2.519  15.637 -0.5408 -0.8782 -0.5109
 3592SOL     OW22237   0.083   1.855   4.695 -0.1281  0.2599 -0.1057
 3592SOL    HW122238   0.063   1.917   4.624 -2.1640 -0.6365 -0.3225
 3592SOL    HW222239   0.011   1.795   4.711 -0.1775  0.2497 -0.3591
 3593SOL     OW22240   4.468   3.023   0.489 -0.2952 -0.2605  0.1175
 3593SOL    HW122241   4.525   3.068   0.551 -0.1554 -3.0886  2.0733
 3593SOL    HW222242   4.466   3.094   0.425  0.6062  0.0413  0.4231
 3594SOL     OW22243   0.807   2.673   4.517 -0.3626 -0.1697  0.3060
 3594SOL    HW122244   0.727   2.723   4.501  0.2677 -0.2263 -3.0212
 3594SOL    HW222245   0.853   2.696   4.436  1.9580 -3.0263  0.8098
 3595SOL     OW22246   3.071   4.053   0.248  0.0498  0.4690  0.2065
 3595SOL    HW122247   3.079   3.961   0.272  2.3768  1.0686  1.7191
 3595SOL    HW222248   3.080   4.044   0.153  1.5558 -2.7308  0.6603
 3596SOL     OW22249   0.991   2.352   8.358  0.4540 -0.2299  0.2943
 3596SOL    HW122250   0.942   2.404   8.423  0.2122  1.9615 -1.6463
 3596SOL    HW222251   1.072   2.341   8.407  1.3867  1.1543 -0.9539
 3597SOL     OW22252   1.743   1.302   9.574 -0.1842 -0.4795 -0.3827
 3597SOL    HW122253   1.790   1.372   9.530  1.2588 -1.3805 -0.2640
 3597SOL    HW222254   1.748   1.337   9.663 -0.3113  0.8256 -0.8923
 3598SOL     OW22255   0.345   2.622   6.810  0.3717  0.1875  0.1502
 3598SOL    HW122256   0.435   2.603   6.835  0.3141 -2.0888 -1.3387
 3598SOL    HW222257   0.358   2.671   6.728 -1.1092  0.1371 -0.1159
 3599SOL     OW22258   4.182   1.788   6.386  0.8469  0.0493 -0.5702
 3599SOL    HW122259   4.088   1.808   6.391  0.5687 -1.2188 -0.5293
 3599SOL    HW222260   4.200   1.792   6.292 -0.8702  1.6949 -0.8208
 3600SOL     OW22261   4.120   3.142   4.648 -0.1726  0.1334 -0.1391
 3600SOL    HW122262   4.209   3.106   4.637 -0.9521 -2.2333  1.3337
 3600SOL    HW222263   4.145   3.235   4.644 -1.9621  0.6333  0.5797
 3601SOL     OW22264   0.894   2.456  13.592 -0.1746  0.3481  0.4202
 3601SOL    HW122265   0.892   2.394  13.519 -0.4272  0.1748  0.5758
 3601SOL    HW222266   0.861   2.399  13.661  0.5599 -1.1418 -0.4309
 3602SOL     OW22267   0.729   2.152   5.865 -0.6413 -0.0677  0.2824
 3602SOL    HW122268   0.649   2.205   5.863 -0.1056  0.6355 -2.8607
 3602SOL    HW222269   0.709   2.095   5.938 -0.1706 -2.0861 -1.1679
 3603SOL     OW22270   1.539   1.845  17.012  0.3479 -0.0607 -0.0475
 3603SOL    HW122271   1.568   1.857  16.922  2.0163  0.9606  0.6219
 3603SOL    HW222272   1.462   1.902  17.007 -0.6114 -1.1174  2.5769
 3604SOL     OW22273   1.864   4.446   0.824 -0.0126 -0.2550 -0.8083
 3604SOL    HW122274   1.864   4.357   0.791  0.8891 -0.8781  0.8429
 3604SOL    HW222275   1.861   4.425   0.918  1.9376 -0.1556 -0.7131
 3605SOL     OW22276   2.408   3.422   6.705 -0.0235  0.0850  0.0206
 3605SOL    HW122277   2.324   3.394   6.740  0.0435  0.2945  0.3438
 3605SOL    HW222278   2.413   3.517   6.718  0.0417  0.1628 -0.5509
 3606SOL     OW22279   0.231   4.301  16.202  0.2474 -0.3178 -0.1675
 3606SOL    HW122280   0.214   4.377  16.257  0.8849 -1.4007  1.5298
 3606SOL    HW222281   0.196   4.227  16.252  0.9953 -1.1546 -0.8866
 3607SOL     OW22282   3.428   1.320   3.122 -0.1936  1.1195 -0.8239
 3607SOL    HW122283   3.479   1.396   3.092 -0.7308  2.0145  0.5300
 3607SOL    HW222284   3.395   1.278   3.043 -0.5331 -0.4012  0.1289
 3608SOL     OW22285   4.599   0.621  16.107 -0.2626  0.4438  0.3121
 3608SOL    HW122286   4.595   0.667  16.023 -1.0827  0.4926  0.3782
 3608SOL    HW222287   4.630   0.687  16.169  1.0950 -0.2667  0.3917
 3609SOL     OW22288   3.158   1.374   7.200  0.3933 -0.2267  0.1970
 3609SOL    HW122289   3.104   1.298   7.181  0.3313 -0.4210  1.1266
 3609SOL    HW222290   3.126   1.390   7.289 -2.1138 -0.1151 -0.7423
 3610SOL     OW22291   2.395   1.853   3.840 -0.5646  0.2256 -0.8510
 3610SOL    HW122292   2.379   1.887   3.752 -0.3410  0.1243 -0.9303
 3610SOL    HW222293   2.414   1.931   3.890  0.4038  0.4755 -1.6118
 3611SOL     OW22294   4.142   1.400  16.661 -0.2901  0.4706 -0.3296
 3611SOL    HW122295   4.201   1.388  16.736  1.3143 -0.2532 -1.7244
 3611SOL    HW222296   4.089   1.472  16.695  0.8772  1.9547 -1.6837
 3612SOL     OW22297   4.152   4.132   3.232 -0.0681 -0.6406  0.4766
 3612SOL    HW122298   4.064   4.114   3.265 -0.8637  3.0636  0.4162
 3612SOL    HW222299   4.143   4.193   3.158  1.4978 -0.9799  0.0061
 3613SOL     OW22300   1.112   1.475  15.579 -0.0370  0.6919 -0.2815
 3613SOL    HW122301   1.115   1.380  15.590  0.0802  0.6157 -0.9391
 3613SOL    HW222302   1.107   1.473  15.483 -1.0367  0.6016 -0.2301
 3614SOL     OW22303   4.632   4.335   2.913  0.5519  0.1654  0.4299
 3614SOL    HW122304   4.570   4.391   2.866 -1.1755 -1.1915  1.0494
 3614SOL    HW222305   4.701   4.400   2.904  0.5249  0.1819  0.3444
 3615SOL     OW22306   1.518   1.166   9.599 -0.6793 -0.0599 -0.3255
 3615SOL    HW122307   1.461   1.161   9.522  0.4718  2.8396 -1.3820
 3615SOL    HW222308   1.599   1.207   9.569 -0.0784  0.4614  2.0192
 3616SOL     OW22309   1.977   4.245  14.101 -0.4560 -0.3597  0.1097
 3616SOL    HW122310   1.941   4.215  14.017  1.2735 -2.0736 -0.0042
 3616SOL    HW222311   2.062   4.279  14.072 -1.0773  1.4097  0.3368
 3617SOL     OW22312   4.670   3.686   7.478 -0.0779 -0.4878  0.0869
 3617SOL    HW122313   4.658   3.764   7.533  0.9767 -0.4364  0.2573
 3617SOL    HW222314   4.685   3.722   7.391  1.6155 -1.5894 -0.0793
 3618SOL     OW22315   1.947   3.190   1.918 -0.5690  0.0802 -0.1219
 3618SOL    HW122316   1.988   3.277   1.922  0.2353 -0.2564 -1.1843
 3618SOL    HW222317   1.960   3.172   1.825 -1.6598 -2.4243  0.2126
 3619SOL     OW22318   4.201   2.350   4.746 -0.0473 -0.5608  0.6615
 3619SOL    HW122319   4.233   2.314   4.828  1.6691  1.6460  0.9745
 3619SOL    HW222320   4.277   2.330   4.691 -0.5541 -0.6873  0.0039
 3620SOL     OW22321   3.617   4.570   3.241 -0.1813  0.1134 -0.2202
 3620SOL    HW122322   3.552   4.635   3.216 -0.1211 -0.1289 -1.0125
 3620SOL    HW222323   3.563   4.492   3.225  0.2268 -0.4186  1.0363
 3621SOL     OW22324   0.175   2.652   5.837  0.2573 -0.0150 -0.6478
 3621SOL    HW122325   0.215   2.727   5.880  1.9243  0.3611 -2.8598
 3621SOL    HW222326   0.105   2.686   5.781 -0.4681 -0.3833  0.0323
 3622SOL     OW22327   1.561   1.342  11.478 -0.5141  0.2637  0.5328
 3622SOL    HW122328   1.498   1.291  11.427  0.6345  0.5681 -1.1715
 3622SOL    HW222329   1.507   1.398  11.534 -1.8189 -1.1589  0.6912
 3623SOL     OW22330   2.460   2.812   5.653  0.4300 -0.0805 -0.6543
 3623SOL    HW122331   2.511   2.777   5.580  1.2158 -1.7098  0.6643
 3623SOL    HW222332   2.442   2.740   5.715  0.2168  1.6506  1.3037
 3624SOL     OW22333   4.406   1.271   5.519  0.6046 -0.0839 -0.4854
 3624SOL    HW122334   4.318   1.309   5.517  1.8487  2.8767  0.7329
 3624SOL    HW222335   4.432   1.287   5.428 -1.3728  0.5682 -0.9526
 3625SOL     OW22336   2.042   1.869   4.106  0.3090 -0.2662  0.1539
 3625SOL    HW122337   2.138   1.874   4.105  0.2103  0.8577 -3.2198
 3625SOL    HW222338   2.028   1.919   4.187  1.0385 -0.0161  0.1240
 3626SOL     OW22339   4.542   2.349   4.357  0.3095  0.4385 -0.9048
 3626SOL    HW122340   4.475   2.416   4.364 -0.0231 -0.0884  0.9665
 3626SOL    HW222341   4.584   2.360   4.272 -0.5202  0.4423 -1.3110
 3627SOL     OW22342   1.097   3.476   0.423  0.5603  0.1032  0.2899
 3627SOL    HW122343   1.009   3.445   0.443  0.8582  0.4341  2.1171
 3627SOL    HW222344   1.127   3.416   0.355  0.3160 -0.3018  0.5446
 3628SOL     OW22345   2.632   0.558   4.122  0.0831  0.5444 -0.3096
 3628SOL    HW122346   2.615   0.608   4.042  2.0137  0.1300 -0.9756
 3628SOL    HW222347   2.670   0.476   4.089  0.1103  0.5861 -0.3823
 3629SOL     OW22348   2.193   2.039   7.865  0.4118  0.5644  0.0381
 3629SOL    HW122349   2.155   2.126   7.875  0.7300  0.7899 -0.7058
 3629SOL    HW222350   2.185   2.015   7.957  0.1249 -0.3989 -0.2329
 3630SOL     OW22351   2.451   2.112   2.944 -0.6586  0.6553 -0.2294
 3630SOL    HW122352   2.423   2.190   2.992 -0.5490 -0.5039  1.7016
 3630SOL    HW222353   2.546   2.125   2.949 -0.8007  2.0001 -0.9524
 3631SOL     OW22354   4.302   0.570  12.156 -0.1430  0.4771 -0.5215
 3631SOL    HW122355   4.235   0.508  12.184  0.8458 -0.9753 -1.4255
 3631SOL    HW222356   4.380   0.516  12.152  0.4425  1.6024 -4.3057
 3632SOL     OW22357   3.290   0.683   4.623  0.1291  0.1509 -0.0534
 3632SOL    HW122358   3.247   0.681   4.537 -1.6044 -1.1344  0.8384
 3632SOL    HW222359   3.262   0.767   4.660  0.6983  0.9322 -1.4274
 3633SOL     OW22360   2.514   2.096  13.517  0.5158 -0.5460 -0.1203
 3633SOL    HW122361   2.564   2.093  13.599  1.4056  0.9030 -0.5921
 3633SOL    HW222362   2.547   2.016  13.477  0.3098 -0.2872 -0.8047
 3634SOL     OW22363   1.201   1.145   5.911  0.0288 -0.4644  0.3108
 3634SOL    HW122364   1.233   1.103   5.831  2.0068 -1.0521  1.3995
 3634SOL    HW222365   1.117   1.101   5.919 -0.9158  0.9942 -1.7122
 3635SOL     OW22366   2.256   4.552   2.671 -0.6819  0.1207  0.5391
 3635SOL    HW122367   2.320   4.486   2.699 -0.4182  1.4478  3.0116
 3635SOL    HW222368   2.302   4.613   2.615  1.9328  0.4215  3.0178
 3636SOL     OW22369   2.128   3.324   3.668 -0.1496 -0.3032 -0.3618
 3636SOL    HW122370   2.214   3.351   3.700 -0.9606  2.5053 -0.4739
 3636SOL    HW222371   2.145   3.339   3.575 -0.8028 -1.9228 -0.7390
 3637SOL     OW22372   3.687   0.525  12.864 -0.0878  0.1221  0.2461
 3637SOL    HW122373   3.708   0.480  12.945 -0.4834  1.6413  1.1943
 3637SOL    HW222374   3.771   0.516  12.818  0.9776  0.2895  2.1527
 3638SOL     OW22375   1.918   4.041   2.913  0.2652 -0.4662 -0.2090
 3638SOL    HW122376   1.828   4.015   2.894  0.6749 -0.8245 -1.6959
 3638SOL    HW222377   1.958   3.957   2.935  1.9753  0.8347  1.6414
 3639SOL     OW22378   0.769   0.260   0.847  0.5063 -1.1187  0.1718
 3639SOL    HW122379   0.805   0.232   0.931  0.2206  1.6997  1.2188
 3639SOL    HW222380   0.775   0.352   0.872  0.2699 -0.4997 -2.0797
 3640SOL     OW22381   0.934   4.362   2.268  0.5519  0.2067 -0.0857
 3640SOL    HW122382   0.998   4.356   2.197  1.3056  0.5736  0.5607
 3640SOL    HW222383   0.863   4.414   2.231  1.1323  0.3698 -0.9704
 3641SOL     OW22384   1.301   0.376   6.076  0.1772  0.3674  0.3991
 3641SOL    HW122385   1.208   0.364   6.062  0.1150 -0.8226  1.8821
 3641SOL    HW222386   1.329   0.378   5.984  3.1525 -0.1197  1.3010
 3642SOL     OW22387   1.008   1.786   7.709 -0.2990 -0.1881  0.4719
 3642SOL    HW122388   0.936   1.723   7.704 -1.7441  1.7242 -2.4385
 3642SOL    HW222389   0.963   1.870   7.701 -0.2239 -0.0908  1.1140
 3643SOL     OW22390   1.170   2.492   6.757 -0.5677  0.3420 -0.0089
 3643SOL    HW122391   1.179   2.549   6.833 -0.6525 -0.5483  0.6741
 3643SOL    HW222392   1.264   2.492   6.735 -0.4580 -2.7968  0.4858
 3644SOL     OW22393   4.570   1.214   5.016  0.0865  0.3833  0.1238
 3644SOL    HW122394   4.585   1.128   4.977  2.4077  0.3796  1.0160
 3644SOL    HW222395   4.657   1.242   5.044 -0.5982  1.1631  1.4974
 3645SOL     OW22396   1.370   1.050   5.052 -0.3260  0.5437  0.2994
 3645SOL    HW122397   1.302   1.037   4.986 -0.3702  1.6594  0.1268
 3645SOL    HW222398   1.339   0.989   5.119  0.0856 -0.7624 -0.7055
 3646SOL     OW22399   2.183   4.368  14.003  0.2833 -0.2136 -0.1225
 3646SOL    HW122400   2.276   4.391  14.008 -0.2624  1.6238  1.2699
 3646SOL    HW222401   2.181   4.319  13.921  1.2190  1.5047 -1.1782
 3647SOL     OW22402   3.069   0.123   9.392  0.0141 -0.0566  0.0577
 3647SOL    HW122403   3.108   0.167   9.468  0.8550  0.7677 -0.8435
 3647SOL    HW222404   3.021   0.190   9.341 -0.1479  0.0198  0.3087
 3648SOL     OW22405   4.579   1.360   9.189 -0.2865 -0.5666  0.1721
 3648SOL    HW122406   4.541   1.273   9.201 -0.1709 -0.7063 -0.4767
 3648SOL    HW222407   4.585   1.393   9.278  0.1329  0.4157 -0.2169
 3649SOL     OW22408   3.278   3.127  15.861  0.0290 -0.4977  0.1065
 3649SOL    HW122409   3.303   3.058  15.923 -0.0483 -1.6289 -1.1314
 3649SOL    HW222410   3.353   3.142  15.804  1.5682  0.7929  2.4774
 3650SOL     OW22411   2.839   3.793  12.224  0.3481 -0.0708  0.2428
 3650SOL    HW122412   2.846   3.722  12.287  0.0225 -0.9917 -0.7699
 3650SOL    HW222413   2.861   3.870  12.278  4.2943 -0.4297 -0.8602
 3651SOL     OW22414   2.751   0.985   5.264  0.7844 -0.3585 -0.2861
 3651SOL    HW122415   2.731   1.070   5.303  2.3802 -0.0047 -0.2344
 3651SOL    HW222416   2.846   0.990   5.256  0.7724  1.4131  0.6626
 3652SOL     OW22417   0.430   1.494   2.030  0.5992  0.1160 -0.0802
 3652SOL    HW122418   0.445   1.588   2.017  0.6082  0.2511  0.9384
 3652SOL    HW222419   0.352   1.487   1.975 -0.0957  2.1888  0.6176
 3653SOL     OW22420   3.527   3.283   6.433  0.2488 -0.3746 -0.0343
 3653SOL    HW122421   3.515   3.198   6.476  2.0656 -1.4443 -1.6209
 3653SOL    HW222422   3.480   3.338   6.495 -0.2332  1.7783 -2.2804
 3654SOL     OW22423   1.949   1.090   1.894  0.0662 -0.2594 -0.4123
 3654SOL    HW122424   1.930   1.088   1.800  0.1128 -2.3030 -0.3852
 3654SOL    HW222425   1.989   1.177   1.904  0.0352 -0.3229  0.2449
 3655SOL     OW22426   2.550   1.915   2.772 -0.0179 -0.2434  0.4120
 3655SOL    HW122427   2.539   1.961   2.689 -1.5118 -2.1185 -0.4385
 3655SOL    HW222428   2.522   1.985   2.830  0.9855 -1.1952  2.0482
 3656SOL     OW22429   3.816   0.436  11.387 -0.4460  0.9894 -0.8376
 3656SOL    HW122430   3.774   0.363  11.342  1.1704 -0.5034  0.0526
 3656SOL    HW222431   3.840   0.400  11.473 -1.7401 -0.4800 -1.0810
 3657SOL     OW22432   0.603   4.263  10.098  0.0746 -0.1684 -0.9769
 3657SOL    HW122433   0.613   4.349  10.057 -1.2955  0.4124 -0.1051
 3657SOL    HW222434   0.586   4.290  10.188  0.2562  0.7331 -1.2119
 3658SOL     OW22435   1.965   2.645   6.731 -0.2306  0.0572  0.1582
 3658SOL    HW122436   2.012   2.600   6.801 -0.0646 -1.0180 -0.6460
 3658SOL    HW222437   1.971   2.737   6.757  0.5358  0.4090 -1.2626
 3659SOL     OW22438   2.189   3.698   0.113 -0.0255 -0.3269 -0.7662
 3659SOL    HW122439   2.240   3.724   0.190  0.6471 -0.8642 -1.0305
 3659SOL    HW222440   2.124   3.768   0.104 -0.1339 -0.2119  0.7845
 3660SOL     OW22441   2.857   2.837   7.459  0.7234  0.2960  0.6639
 3660SOL    HW122442   2.902   2.777   7.519 -1.2124  2.2936  4.1406
 3660SOL    HW222443   2.926   2.832   7.393  1.1919  1.2140  1.0774
 3661SOL     OW22444   4.463   4.635   8.861 -0.3252  0.2872  0.2582
 3661SOL    HW122445   4.372   4.648   8.835 -0.4144 -0.2122  0.3121
 3661SOL    HW222446   4.505   4.717   8.836  0.8391  0.1588  1.7589
 3662SOL     OW22447   1.100   1.190  17.199  0.5233 -0.2371 -0.4305
 3662SOL    HW122448   1.172   1.243  17.165 -1.2715  4.7138  3.3991
 3662SOL    HW222449   1.143   1.107  17.218 -2.8739 -2.5195 -2.7205
 3663SOL     OW22450   2.201   2.238  10.600 -0.0515  0.2889  0.4500
 3663SOL    HW122451   2.249   2.271  10.524 -2.8010  0.2332 -1.2763
 3663SOL    HW222452   2.138   2.181  10.556 -1.3401 -0.0304  2.7255
 3664SOL     OW22453   2.678   0.766   3.094 -0.3765 -0.0113  0.3855
 3664SOL    HW122454   2.586   0.787   3.110 -0.3712 -1.3817  2.1400
 3664SOL    HW222455   2.717   0.852   3.075  0.7936 -0.2753  1.6073
 3665SOL     OW22456   3.996   2.204   3.650  0.2614 -0.2707  0.3118
 3665SOL    HW122457   4.008   2.121   3.695 -3.2362  0.0151  1.7908
 3665SOL    HW222458   3.929   2.186   3.584 -1.1347 -1.0179  1.9350
 3666SOL     OW22459   4.127   0.937   5.951  0.4806  0.1322  0.5018
 3666SOL    HW122460   4.046   0.921   5.902 -0.2068  2.6580  0.8315
 3666SOL    HW222461   4.118   1.032   5.958  0.8524  0.1302  1.0106
 3667SOL     OW22462   0.699   4.292   0.217 -0.2800 -0.4112  0.0087
 3667SOL    HW122463   0.609   4.291   0.250 -1.2424 -0.8527 -2.6797
 3667SOL    HW222464   0.736   4.224   0.274  0.7125  0.0658 -0.0730
 3668SOL     OW22465   0.918   0.380  12.225  0.1445 -0.0962 -0.8560
 3668SOL    HW122466   0.941   0.440  12.154 -0.2224 -1.2739 -1.9698
 3668SOL    HW222467   0.983   0.309  12.218 -2.1858 -2.3889  0.8578
 3669SOL     OW22468   3.868   2.401  13.011  0.0660  0.1045 -0.5542
 3669SOL    HW122469   3.789   2.398  12.956 -1.6588 -0.6253  1.9475
 3669SOL    HW222470   3.840   2.357  13.092 -0.3192  1.4115  0.0171
 3670SOL     OW22471   1.156   3.356   7.599 -0.2119  0.3245  0.5136
 3670SOL    HW122472   1.087   3.409   7.639 -1.9451 -1.9924  0.5545
 3670SOL    HW222473   1.108   3.289   7.550 -1.1519  1.6392 -0.3587
 3671SOL     OW22474   4.429   2.582  14.632 -0.1578  0.6838  0.0946
 3671SOL    HW122475   4.491   2.533  14.686  1.0025  0.1397 -1.7407
 3671SOL    HW222476   4.384   2.511  14.587 -0.6940  0.6203  0.7297
 3672SOL     OW22477   2.105   3.735   3.236 -0.1331  0.0625 -0.0709
 3672SOL    HW122478   2.149   3.819   3.250 -1.0207  0.6272 -0.6155
 3672SOL    HW222479   2.087   3.742   3.142  1.8978 -0.6933 -0.5106
 3673SOL     OW22480   0.518   4.024   3.143  0.3017 -0.1837 -0.3775
 3673SOL    HW122481   0.468   4.010   3.063  1.9554 -1.8861 -1.1337
 3673SOL    HW222482   0.450   4.015   3.209  0.1499  0.4234 -0.4603
 3674SOL     OW22483   2.463   3.907   4.948 -0.2174 -0.0524  0.3783
 3674SOL    HW122484   2.486   3.867   4.864 -1.7004  2.2457 -1.1431
 3674SOL    HW222485   2.373   3.878   4.960 -1.1460  2.4977 -0.5273
 3675SOL     OW22486   4.292   2.926   0.848  0.1407 -0.2391 -0.4070
 3675SOL    HW122487   4.285   2.922   0.753  0.5027 -1.3643 -0.3786
 3675SOL    HW222488   4.290   3.019   0.870 -0.4555 -0.2067 -0.5992
 3676SOL     OW22489   4.602   0.669   7.135 -0.3155  0.0255  0.1785
 3676SOL    HW122490   4.618   0.591   7.188 -0.0360  1.4363  2.1666
 3676SOL    HW222491   4.538   0.647   7.067 -0.5283 -0.5523  0.5618
 3677SOL     OW22492   2.888   3.843   1.596  0.2896 -0.0778  0.0800
 3677SOL    HW122493   2.896   3.939   1.595  0.6079 -0.0881  1.8899
 3677SOL    HW222494   2.975   3.815   1.566 -0.2973 -3.8244  1.9760
 3678SOL     OW22495   0.512   2.271  10.256 -0.3717  0.0415  0.7781
 3678SOL    HW122496   0.426   2.268  10.298 -1.0371 -0.0465 -0.5943
 3678SOL    HW222497   0.535   2.362  10.273  0.0503  0.6872 -3.2044
 3679SOL     OW22498   2.395   0.765   2.954 -0.4006 -0.7635  0.1339
 3679SOL    HW122499   2.320   0.759   3.013 -0.5296  2.2177  0.2350
 3679SOL    HW222500   2.362   0.832   2.894 -1.1993 -2.1604 -0.9911
 3680SOL     OW22501   2.241   1.762   7.267  0.2753 -0.1585  0.4178
 3680SOL    HW122502   2.323   1.744   7.313  0.4408  0.9484  0.5721
 3680SOL    HW222503   2.189   1.688   7.298 -0.7903 -0.5690 -2.4241
 3681SOL     OW22504   1.177   1.795   4.369  0.2180 -0.2873  0.2100
 3681SOL    HW122505   1.125   1.874   4.381  1.4911  0.6579 -0.4169
 3681SOL    HW222506   1.112   1.726   4.380 -1.2848  1.5640  2.8853
 3682SOL     OW22507   1.398   1.544   2.191 -0.1046 -0.5696 -0.3940
 3682SOL    HW122508   1.492   1.536   2.175  0.7424  2.1890  3.1453
 3682SOL    HW222509   1.382   1.609   2.122 -0.5609 -1.8816 -1.5229
 3683SOL     OW22510   1.191   0.356  17.257  0.4466  0.7035  0.0850
 3683SOL    HW122511   1.281   0.383  17.241  2.1170 -4.6441  0.4835
 3683SOL    HW222512   1.199   0.315  17.343 -0.6276  1.2233  0.4348
 3684SOL     OW22513   1.635   3.505   7.702 -0.4620  0.1328  0.4439
 3684SOL    HW122514   1.547   3.469   7.715 -0.1970 -0.8565 -0.4554
 3684SOL    HW222515   1.620   3.548   7.618 -2.6702 -1.2341  0.1212
 3685SOL     OW22516   4.316   0.086   3.896  0.1507 -0.1167  0.0938
 3685SOL    HW122517   4.302   0.138   3.817  1.0722 -0.5429 -0.3525
 3685SOL    HW222518   4.408   0.062   3.886 -0.1067  0.1583 -2.9304
 3686SOL     OW22519   2.671   0.098  16.285 -0.0950 -0.5654  0.1238
 3686SOL    HW122520   2.686   0.008  16.316 -0.0040 -1.2694 -1.9429
 3686SOL    HW222521   2.741   0.152  16.321  0.5326 -1.2222 -0.1062
 3687SOL     OW22522   1.148   0.942   4.930 -0.1158 -0.0435 -0.1279
 3687SOL    HW122523   1.120   0.990   4.852 -0.6601 -2.3253 -1.3341
 3687SOL    HW222524   1.182   0.865   4.885  0.1852  0.9969 -1.6532
 3688SOL     OW22525   2.964   1.495   6.228 -0.0460 -0.0316  0.2521
 3688SOL    HW122526   2.874   1.463   6.220 -0.1839  0.3163  0.3950
 3688SOL    HW222527   2.973   1.543   6.145  1.6099  1.3327  1.2196
 3689SOL     OW22528   0.969   1.877   8.983 -0.7258 -0.5181 -0.6792
 3689SOL    HW122529   0.884   1.851   8.947  0.1209 -2.1670 -1.4800
 3689SOL    HW222530   0.931   1.896   9.069 -1.2338  0.4542 -1.1258
 3690SOL     OW22531   2.985   0.435   5.316 -0.0179  0.5113 -0.2588
 3690SOL    HW122532   2.998   0.365   5.252  2.7897  0.6490  0.1945
 3690SOL    HW222533   2.889   0.442   5.318  0.1048  1.8081  1.0318
 3691SOL     OW22534   1.815   2.222  13.110  0.1733  0.1102 -0.4139
 3691SOL    HW122535   1.867   2.259  13.039  0.4315  0.1404 -0.2057
 3691SOL    HW222536   1.764   2.154  13.065 -2.8650  1.0457  1.5970
 3692SOL     OW22537   4.336   2.739  17.070  0.0190 -0.2417  0.5334
 3692SOL    HW122538   4.380   2.667  17.115  1.1461  0.3322  0.3541
 3692SOL    HW222539   4.294   2.680  17.007  1.4187  1.6572 -2.1911
 3693SOL     OW22540   3.163   4.552   0.140  0.4789 -0.7301  0.2558
 3693SOL    HW122541   3.104   4.524   0.209  1.3319  2.4183  2.2820
 3693SOL    HW222542   3.187   4.468   0.102 -1.3050 -1.0530 -0.1547
 3694SOL     OW22543   0.322   4.592   7.070  0.0962  0.3022 -0.0501
 3694SOL    HW122544   0.401   4.642   7.094  1.0742 -0.8932 -0.7949
 3694SOL    HW222545   0.361   4.514   7.031  2.2801  1.0673  0.5640
 3695SOL     OW22546   3.090   3.433   0.394 -0.2104  0.4305 -0.6334
 3695SOL    HW122547   3.177   3.419   0.430 -0.1326 -0.7325 -1.2888
 3695SOL    HW222548   3.065   3.511   0.444 -0.5849 -0.1502  0.0871
 3696SOL     OW22549   1.513   1.288   6.187  0.1376  0.3800  0.0600
 3696SOL    HW122550   1.581   1.324   6.243 -1.5852  3.1151  0.4244
 3696SOL    HW222551   1.539   1.196   6.176 -0.1995  0.0996  1.5652
 3697SOL     OW22552   4.280   0.992  11.341 -0.0089  0.2541  0.0401
 3697SOL    HW122553   4.232   1.015  11.420 -0.3345  1.7224 -0.5920
 3697SOL    HW222554   4.357   1.049  11.348 -1.5700  2.2200  0.8876
 3698SOL     OW22555   3.065   2.708   7.670  0.7379 -0.1912 -0.0740
 3698SOL    HW122556   3.033   2.657   7.744  0.6739  1.6487  1.1460
 3698SOL    HW222557   3.158   2.692   7.653  0.6988  0.7937 -1.2171
 3699SOL     OW22558   1.296   0.765   7.562  0.7071  0.5446  0.0122
 3699SOL    HW122559   1.296   0.710   7.483 -1.0633  1.0015 -0.2976
 3699SOL    HW222560   1.349   0.704   7.613  1.7767  0.5761 -1.0545
 3700SOL     OW22561   2.927   1.330   5.176 -0.2406  0.3605 -0.3381
 3700SOL    HW122562   2.921   1.333   5.080  1.7797 -1.0299 -0.5162
 3700SOL    HW222563   2.836   1.318   5.204 -0.2820  1.2825 -0.1008
 3701SOL     OW22564   2.727   2.380  15.915  0.0804  0.4840 -0.3479
 3701SOL    HW122565   2.701   2.464  15.878 -0.4042 -0.4268 -2.1020
 3701SOL    HW222566   2.691   2.404  16.000  1.9634 -0.4838  0.7126
 3702SOL     OW22567   3.575   4.122  11.325 -0.2002 -0.0281  0.9426
 3702SOL    HW122568   3.609   4.086  11.407 -0.7601  0.6660  1.4847
 3702SOL    HW222569   3.650   4.177  11.301 -1.4166  1.4735  0.6213
 3703SOL     OW22570   2.975   4.110  13.358  0.1188  0.1982 -0.1714
 3703SOL    HW122571   2.900   4.083  13.304 -0.3441  0.3793  0.3819
 3703SOL    HW222572   2.930   4.117  13.442  0.6784 -1.6579  0.2791
 3704SOL     OW22573   0.307   2.202   7.164  0.0645 -0.1399 -0.1419
 3704SOL    HW122574   0.329   2.125   7.111  1.2138  1.0003 -1.3186
 3704SOL    HW222575   0.218   2.171   7.181 -0.3429  0.0794 -1.8656
 3705SOL     OW22576   2.497   1.553  17.683 -0.1954  0.3048 -0.1949
 3705SOL    HW122577   2.457   1.517  17.603 -0.8826  2.0413 -0.6514
 3705SOL    HW222578   2.521   1.474   0.038 -0.6706  0.0011 -0.4612
 3706SOL     OW22579   2.041   4.045   3.335 -0.0043  0.0978 -0.9053
 3706SOL    HW122580   2.082   4.022   3.252  0.6705  1.8326 -1.0442
 3706SOL    HW222581   1.949   4.019   3.326  0.0591 -0.6175  0.4165
 3707SOL     OW22582   0.220   1.678  15.603  0.0433 -0.0298 -0.4172
 3707SOL    HW122583   0.145   1.721  15.644  0.0877  0.1971 -0.5728
 3707SOL    HW222584   0.297   1.725  15.636  0.1877 -0.8998  0.4906
 3708SOL     OW22585   1.461   0.629   1.368 -0.3480 -0.3274  0.5259
 3708SOL    HW122586   1.498   0.542   1.379 -0.9035 -0.5777  0.4221
 3708SOL    HW222587   1.474   0.647   1.275 -1.4365 -3.2531 -0.1873
 3709SOL     OW22588   1.908   1.527   3.077  0.6071  0.4265 -0.0974
 3709SOL    HW122589   1.970   1.461   3.047  1.2950  0.9138  0.2602
 3709SOL    HW222590   1.857   1.531   2.996  2.4028  1.6646 -1.1747
 3710SOL     OW22591   1.739   1.933   7.126 -0.0101  0.0902  0.0552
 3710SOL    HW122592   1.718   2.026   7.127  2.6767  0.6818  1.6415
 3710SOL    HW222593   1.662   1.909   7.178 -0.8120  0.9658 -0.7404
 3711SOL     OW22594   1.009   1.960   8.232  0.0460  0.1145 -0.3201
 3711SOL    HW122595   0.979   1.974   8.322  2.6649  1.2753  0.3842
 3711SOL    HW222596   0.977   2.038   8.186  1.4002  0.1136 -1.2948
 3712SOL     OW22597   1.108   3.796  15.306  1.2770  0.2958 -0.0267
 3712SOL    HW122598   1.034   3.806  15.247  1.2975 -1.3118 -0.3293
 3712SOL    HW222599   1.071   3.843  15.381 -0.4199 -1.9976  0.5546
 3713SOL     OW22600   3.630   3.451   2.936 -0.1275  0.2775  0.0204
 3713SOL    HW122601   3.630   3.455   2.841 -1.8158 -0.1229  0.0061
 3713SOL    HW222602   3.673   3.534   2.956  0.3704 -0.2623  1.2154
 3714SOL     OW22603   2.841   4.183   4.805 -0.0117  0.1758 -0.1642
 3714SOL    HW122604   2.745   4.183   4.801  0.0548  2.1397 -2.0041
 3714SOL    HW222605   2.862   4.090   4.807  1.9521  0.6113 -0.8354
 3715SOL     OW22606   3.716   3.453   6.562  0.3197 -0.1781  0.0768
 3715SOL    HW122607   3.652   3.383   6.553  0.0957  0.2048 -1.3251
 3715SOL    HW222608   3.779   3.424   6.628 -1.7347 -1.2420  1.5788
 3716SOL     OW22609   3.145   2.558   3.274  0.7784 -0.2462 -0.5164
 3716SOL    HW122610   3.093   2.490   3.318 -0.3670  0.6244 -0.5427
 3716SOL    HW222611   3.084   2.631   3.277 -1.1274 -1.8825  1.0151
 3717SOL     OW22612   2.009   0.248   8.485  0.1151  0.4286  0.0651
 3717SOL    HW122613   1.959   0.329   8.471 -2.7856 -1.2171  0.8739
 3717SOL    HW222614   2.081   0.268   8.426 -0.1157  0.9995 -0.0256
 3718SOL     OW22615   2.201   2.754   5.854  0.2343 -0.0020  0.5297
 3718SOL    HW122616   2.141   2.684   5.832  0.5673 -0.4397  1.0191
 3718SOL    HW222617   2.269   2.747   5.786  1.2309 -0.6145  1.5955
 3719SOL     OW22618   0.570   0.403  11.863  0.1553 -0.1940  0.1320
 3719SOL    HW122619   0.654   0.357  11.868 -0.0866 -0.2916  3.4960
 3719SOL    HW222620   0.563   0.437  11.952  3.6428  1.0277 -0.0511
 3720SOL     OW22621   0.946   2.567   8.137 -0.3820  0.2934 -0.0095
 3720SOL    HW122622   0.985   2.500   8.193 -0.6786 -1.9833 -2.5141
 3720SOL    HW222623   0.986   2.649   8.166  0.3756 -1.0715  2.8842
 3721SOL     OW22624   2.511   3.264   7.870  0.0769 -0.1729 -0.4826
 3721SOL    HW122625   2.503   3.195   7.803  1.7263 -0.3093 -0.5482
 3721SOL    HW222626   2.549   3.338   7.823  1.8520  0.4772  2.0380
 3722SOL     OW22627   2.804   3.927   3.714  0.2463  0.2522  0.2779
 3722SOL    HW122628   2.726   3.949   3.765 -0.0307  0.2575 -0.1492
 3722SOL    HW222629   2.874   3.913   3.778 -0.1513  0.1943  0.7046
 3723SOL     OW22630   1.467   0.241   5.505 -0.1230  0.7916 -0.2270
 3723SOL    HW122631   1.493   0.285   5.586 -1.0265 -0.7562  0.9074
 3723SOL    HW222632   1.523   0.291   5.445 -0.0147  0.2659 -0.5615
 3724SOL     OW22633   2.296   1.836   6.651 -0.3338 -0.3567 -0.2491
 3724SOL    HW122634   2.229   1.772   6.675  0.5163 -0.2195  2.4629
 3724SOL    HW222635   2.379   1.805   6.687 -0.1656  0.0233 -0.3143
 3725SOL     OW22636   2.011   2.828   0.974  0.0767  0.2621 -0.0769
 3725SOL    HW122637   1.944   2.896   0.967 -0.7604 -0.2689  2.9855
 3725SOL    HW222638   2.079   2.867   0.918  1.3619 -1.0946  0.5653
 3726SOL     OW22639   2.952   0.659   7.338 -0.7638 -0.2671  0.3073
 3726SOL    HW122640   2.890   0.702   7.396  0.4089 -0.3438  1.6354
 3726SOL    HW222641   2.984   0.584   7.388  0.9323 -0.2652 -0.7586
 3727SOL     OW22642   1.881   3.374   8.172 -0.0310  0.1163 -0.1150
 3727SOL    HW122643   1.969   3.409   8.169 -0.3448  0.9343  0.2679
 3727SOL    HW222644   1.833   3.444   8.216 -1.8765 -1.0816 -0.2095
 3728SOL     OW22645   1.414   2.984   8.530  0.4803  0.4237 -0.1301
 3728SOL    HW122646   1.486   3.045   8.516  1.2651 -0.4376  0.2158
 3728SOL    HW222647   1.382   3.006   8.617 -0.3315  2.1143 -0.8486
 3729SOL     OW22648   1.834   2.459   6.247  0.1548 -0.2922  0.1386
 3729SOL    HW122649   1.913   2.502   6.280 -0.2823  1.1032 -0.6211
 3729SOL    HW222650   1.774   2.519   6.292 -1.7624 -2.0217 -0.1046
 3730SOL     OW22651   0.813   3.663   1.892  0.4569 -0.5145  0.2779
 3730SOL    HW122652   0.726   3.656   1.852  0.3718  0.3012  0.3176
 3730SOL    HW222653   0.805   3.748   1.936 -0.3316 -0.8496  0.7736
 3731SOL     OW22654   4.514   2.089   3.223  0.0466  0.2284  0.3950
 3731SOL    HW122655   4.568   2.106   3.300 -1.1520  0.5363  1.1587
 3731SOL    HW222656   4.525   1.994   3.223 -2.0686 -0.0239 -2.6860
 3732SOL     OW22657   4.654   0.913  16.540 -0.4581  0.4163 -0.3918
 3732SOL    HW122658   4.594   0.855  16.587 -0.9446  0.2537 -1.2167
 3732SOL    HW222659   4.618   0.995  16.572 -0.1040  0.5879 -0.4307
 3733SOL     OW22660   4.636   3.810   3.817 -0.3611 -0.3006  0.7594
 3733SOL    HW122661   4.588   3.762   3.750  1.0047  0.9794 -1.1296
 3733SOL    HW222662   4.585   3.805   3.898 -2.7967 -0.6110 -0.7761
 3734SOL     OW22663   2.418   4.281  13.745 -0.3106 -0.2586  0.2355
 3734SOL    HW122664   2.446   4.193  13.771 -1.2981 -0.5367  0.3874
 3734SOL    HW222665   2.324   4.262  13.745 -0.1620 -0.9733  1.1796
 3735SOL     OW22666   1.701   1.443  16.820 -0.3041 -0.3688 -0.0288
 3735SOL    HW122667   1.765   1.435  16.892 -1.2441  0.0905  0.8523
 3735SOL    HW222668   1.748   1.385  16.760  1.0790 -0.0055  0.7016
 3736SOL     OW22669   3.274   2.419   5.534  0.1540 -0.6864 -0.1188
 3736SOL    HW122670   3.252   2.401   5.442  1.6813  2.6753 -1.1454
 3736SOL    HW222671   3.361   2.378   5.536  1.6550  2.3597 -1.9973
 3737SOL     OW22672   0.931   4.356  13.959  0.4388 -0.0992  0.3456
 3737SOL    HW122673   1.000   4.362  14.026 -1.2387  0.1280  2.0514
 3737SOL    HW222674   0.876   4.288  13.998  1.8703 -0.9130  0.9264
 3738SOL     OW22675   2.849   0.542  10.724  0.7692 -0.2411  0.0151
 3738SOL    HW122676   2.889   0.467  10.767  1.3828  0.1286  0.1018
 3738SOL    HW222677   2.801   0.579  10.798 -0.1758 -0.2143 -0.6211
 3739SOL     OW22678   4.018   0.942   0.746  0.8458  0.1287  0.4664
 3739SOL    HW122679   4.007   1.021   0.799  0.4752 -0.2427  0.9392
 3739SOL    HW222680   3.964   0.884   0.800 -1.8287  2.0518 -0.1353
 3740SOL     OW22681   3.693   3.073   9.495  0.8928  0.3005  0.6330
 3740SOL    HW122682   3.750   3.141   9.458  0.9999 -0.1688 -0.0607
 3740SOL    HW222683   3.613   3.123   9.512 -1.0959 -2.4601 -0.4666
 3741SOL     OW22684   2.896   2.128   8.472 -0.3655  0.2653  0.0737
 3741SOL    HW122685   2.981   2.097   8.443 -1.1018  0.4648 -2.2920
 3741SOL    HW222686   2.913   2.163   8.560  0.4073  2.7075 -1.0441
 3742SOL     OW22687   4.618   4.547   7.485  0.4578  0.3997  0.0314
 3742SOL    HW122688   4.703   4.589   7.476  0.4532 -0.1114 -2.3078
 3742SOL    HW222689   4.594   4.582   7.571 -0.8170  2.1110 -1.0268
 3743SOL     OW22690   1.870   4.319   8.880 -0.1334 -0.3360 -0.5909
 3743SOL    HW122691   1.891   4.227   8.889  1.3961 -0.0067 -0.9021
 3743SOL    HW222692   1.928   4.362   8.943 -0.1211 -1.5186  0.2077
 3744SOL     OW22693   4.428   3.812   5.096 -0.1597 -0.2823 -0.4872
 3744SOL    HW122694   4.420   3.812   5.191 -1.1881 -0.4499 -0.5784
 3744SOL    HW222695   4.466   3.724   5.083 -4.5187 -2.1107 -0.7290
 3745SOL     OW22696   0.516   2.844  10.097  0.2931 -0.0603 -0.0440
 3745SOL    HW122697   0.486   2.804  10.015 -0.3371  1.0689 -0.3582
 3745SOL    HW222698   0.607   2.848  10.069 -0.6592  3.8669 -2.6079
 3746SOL     OW22699   1.729   4.318   1.759  0.3203 -0.3601  0.3067
 3746SOL    HW122700   1.695   4.230   1.767 -2.7302  1.0256  2.7413
 3746SOL    HW222701   1.649   4.353   1.721 -0.8117 -2.6520  0.6034
 3747SOL     OW22702   2.119   3.317   8.727  0.1312  0.4249 -0.1341
 3747SOL    HW122703   2.027   3.311   8.751  0.4146  0.3525  0.9139
 3747SOL    HW222704   2.145   3.231   8.694 -0.1518 -0.0407  0.8717
 3748SOL     OW22705   0.883   2.770   9.414  0.1494 -0.3060  0.6692
 3748SOL    HW122706   0.789   2.760   9.432  0.3898 -3.4685  0.1106
 3748SOL    HW222707   0.884   2.715   9.336 -2.1793  1.6484 -0.7753
 3749SOL     OW22708   0.805   4.499  15.913 -0.7614  0.2978 -0.6007
 3749SOL    HW122709   0.807   4.560  15.840  2.2849 -0.4362 -1.1219
 3749SOL    HW222710   0.874   4.535  15.969 -0.3052 -0.1809 -0.8569
 3750SOL     OW22711   1.043   4.181   3.981 -0.3028  0.7116 -0.4296
 3750SOL    HW122712   1.076   4.255   3.931  0.1171 -0.3784 -1.7652
 3750SOL    HW222713   0.947   4.188   3.981 -0.3820 -0.3341 -0.0154
 3751SOL     OW22714   1.011   3.017   7.621  0.5160  0.4708 -0.1332
 3751SOL    HW122715   1.081   2.960   7.652 -0.0329 -0.0696  0.1122
 3751SOL    HW222716   1.001   3.075   7.697  4.1224 -1.3182  1.6619
 3752SOL     OW22717   2.430   2.900   3.839  0.3120 -0.0502  0.5067
 3752SOL    HW122718   2.386   2.978   3.804 -0.6255  0.3133  2.5177
 3752SOL    HW222719   2.415   2.842   3.764 -0.0333  2.5397 -1.4649
 3753SOL     OW22720   1.834   0.747   4.611  0.1465 -0.3104  0.7826
 3753SOL    HW122721   1.908   0.772   4.666 -1.2885  2.1599  1.5765
 3753SOL    HW222722   1.879   0.697   4.543 -0.9595  0.4584 -0.5276
 3754SOL     OW22723   1.279   1.504   9.184  0.0241  0.1365  0.6949
 3754SOL    HW122724   1.268   1.598   9.200  1.0127 -0.2293  3.5721
 3754SOL    HW222725   1.232   1.455   9.252 -1.7185 -0.7717 -1.1756
 3755SOL     OW22726   0.214   3.115   2.368  0.0034 -0.3340 -0.1779
 3755SOL    HW122727   0.219   3.027   2.407 -0.5315  0.7557  2.3416
 3755SOL    HW222728   0.174   3.095   2.283 -0.4502 -0.9818  0.1815
 3756SOL     OW22729   4.490   1.014  17.464  0.7152  0.3878  0.3376
 3756SOL    HW122730   4.475   1.055  17.379 -1.2816 -2.4629 -0.6840
 3756SOL    HW222731   4.531   1.090  17.506 -0.4983  1.2184  0.0481
 3757SOL     OW22732   4.075   1.562   1.918  0.0557 -0.1968 -0.0019
 3757SOL    HW122733   4.000   1.503   1.928  0.5740 -1.1951 -1.7760
 3757SOL    HW222734   4.110   1.563   2.007  0.8782 -0.5947 -0.3128
 3758SOL     OW22735   3.254   2.170  14.602  0.1796  0.5899  0.3363
 3758SOL    HW122736   3.179   2.229  14.602 -0.2046  0.0980 -0.3996
 3758SOL    HW222737   3.220   2.087  14.635 -1.5993  0.6473 -1.4102
 3759SOL     OW22738   0.953   1.411  13.668 -0.2373  0.2186  0.2069
 3759SOL    HW122739   0.968   1.503  13.646  0.0133  0.3756  1.0315
 3759SOL    HW222740   0.910   1.404  13.754 -0.2067  0.2832  0.2270
 3760SOL     OW22741   1.593   0.120   7.337  0.1407 -0.1490  0.2389
 3760SOL    HW122742   1.645   0.188   7.295 -0.2342  0.3950  0.6609
 3760SOL    HW222743   1.535   0.165   7.399  0.3823  0.0282  0.3346
 3761SOL     OW22744   4.196   4.063  12.794  0.1102 -0.6330  0.8007
 3761SOL    HW122745   4.259   4.106  12.851  2.1713 -1.2219 -1.0669
 3761SOL    HW222746   4.190   4.133  12.728 -0.7481 -0.9201  0.5612
 3762SOL     OW22747   0.708   4.543   2.418 -0.1290  0.2508  0.7967
 3762SOL    HW122748   0.745   4.491   2.490 -2.8066  0.6660  2.4963
 3762SOL    HW222749   0.637   4.585   2.467 -0.5876  0.5602 -0.1299
 3763SOL     OW22750   3.500   4.269  13.411  0.2926  0.6017  0.2884
 3763SOL    HW122751   3.555   4.305  13.342  0.4153  1.4418  0.8218
 3763SOL    HW222752   3.413   4.272  13.371  1.2267 -1.0248 -1.8549
 3764SOL     OW22753   4.074   0.194  14.227  0.1152 -0.6184 -0.4550
 3764SOL    HW122754   4.129   0.116  14.233  3.9012  2.1747  0.9422
 3764SOL    HW222755   4.142   0.259  14.240 -1.8233  1.5446 -1.1238
 3765SOL     OW22756   4.055   0.691  12.068 -0.0916 -0.2079 -0.2510
 3765SOL    HW122757   4.011   0.607  12.055 -0.0423 -0.1446 -0.8571
 3765SOL    HW222758   4.134   0.671  12.117  1.2784  1.5228 -1.7318
 3766SOL     OW22759   3.381   1.732  17.329 -0.5846  0.5892  0.6278
 3766SOL    HW122760   3.471   1.701  17.337  0.2080  3.2571  2.0124
 3766SOL    HW222761   3.340   1.662  17.380 -0.6692  0.1584 -0.0391
 3767SOL     OW22762   4.348   1.307   6.617 -0.0623 -0.1238  1.2262
 3767SOL    HW122763   4.333   1.372   6.549  1.1738 -0.9527  0.1500
 3767SOL    HW222764   4.400   1.356   6.680 -2.6892 -0.9133  3.9981
 3768SOL     OW22765   1.322   4.684   4.173 -0.0314  0.5939  0.1558
 3768SOL    HW122766   1.405   4.662   4.215  0.7376  0.1196 -1.5762
 3768SOL    HW222767   1.310   0.054   4.197  2.1960  0.2784  2.4931
 3769SOL     OW22768   0.142   3.000  12.268 -0.0298  0.0071 -0.5846
 3769SOL    HW122769   0.102   3.041  12.192  1.4962  1.2276 -0.7354
 3769SOL    HW222770   0.183   3.074  12.312 -1.1612 -0.2898  0.9944
 3770SOL     OW22771   2.382   4.504   3.436 -0.0366  0.3727  0.3067
 3770SOL    HW122772   2.353   4.573   3.495  2.0443  2.4465 -1.0724
 3770SOL    HW222773   2.352   4.538   3.352 -1.1172 -0.8394  0.2124
 3771SOL     OW22774   2.004   1.202   5.238  0.0066  0.3989  0.1079
 3771SOL    HW122775   2.015   1.111   5.267  0.2430  0.5105  0.3713
 3771SOL    HW222776   1.909   1.202   5.228  0.0179 -0.6571  0.0175
 3772SOL     OW22777   4.028   0.592   7.716 -0.1886 -0.4077  0.4407
 3772SOL    HW122778   4.043   0.636   7.632  0.4625 -0.9000  0.3021
 3772SOL    HW222779   4.082   0.641   7.777 -1.3420  0.7140  0.5645
 3773SOL     OW22780   4.306   0.456   7.333 -0.4887  0.0707 -0.0147
 3773SOL    HW122781   4.315   0.406   7.252  0.5294 -1.5851  1.1253
 3773SOL    HW222782   4.225   0.422   7.372  0.6836  0.0559  2.4328
 3774SOL     OW22783   2.120   4.347   6.422  0.3969  0.1135  0.7153
 3774SOL    HW122784   2.201   4.398   6.420 -0.2506  1.1128  0.1025
 3774SOL    HW222785   2.148   4.273   6.475 -0.2135 -1.6435 -1.4272
 3775SOL     OW22786   3.922   4.124  16.463  0.3936  0.5556  0.7664
 3775SOL    HW122787   3.928   4.051  16.402  2.5602  1.1098  0.3152
 3775SOL    HW222788   4.004   4.167  16.439  0.4062 -0.8523 -1.7118
 3776SOL     OW22789   3.504   3.138  10.302 -0.8788  0.5364 -0.1553
 3776SOL    HW122790   3.486   3.156  10.395  0.7250 -0.1484  0.2866
 3776SOL    HW222791   3.580   3.194  10.290 -0.8115  1.1157  2.8353
 3777SOL     OW22792   2.884   1.795   6.489  0.2505 -0.4083 -0.2534
 3777SOL    HW122793   2.932   1.875   6.465 -0.2674 -0.0644 -0.1341
 3777SOL    HW222794   2.863   1.769   6.399 -1.3891 -2.5615  0.7637
 3778SOL     OW22795   2.579   2.801   7.801 -0.3909 -0.0221 -0.1865
 3778SOL    HW122796   2.654   2.818   7.859  0.0322 -2.5856  0.0256
 3778SOL    HW222797   2.622   2.734   7.748  0.6121  0.4007  0.0753
 3779SOL     OW22798   3.809   0.370   5.493 -0.0439 -0.2289  0.3317
 3779SOL    HW122799   3.819   0.363   5.588  1.6225  3.2938  0.4182
 3779SOL    HW222800   3.856   0.291   5.465 -0.3936 -0.1460 -0.4989
 3780SOL     OW22801   0.810   1.768   2.510 -0.6574  0.3162  0.3529
 3780SOL    HW122802   0.892   1.748   2.556 -0.4220  2.2604  0.8060
 3780SOL    HW222803   0.758   1.688   2.517  1.3582 -1.0271 -0.1068
 3781SOL     OW22804   1.249   1.713   6.473  0.0120 -0.3134 -0.5950
 3781SOL    HW122805   1.270   1.767   6.397 -0.3185  0.5881 -0.0510
 3781SOL    HW222806   1.318   1.646   6.475 -0.5340 -0.7875  2.0196
 3782SOL     OW22807   0.136   2.729   3.616  0.7585 -0.0043  0.4058
 3782SOL    HW122808   0.148   2.824   3.612 -0.6431  0.1577  0.0968
 3782SOL    HW222809   0.122   2.712   3.709  3.7275 -0.3785  0.7814
 3783SOL     OW22810   3.239   1.324   6.049 -0.2919 -0.0634  0.0147
 3783SOL    HW122811   3.280   1.306   6.134  1.2373  0.8336 -0.5253
 3783SOL    HW222812   3.146   1.337   6.067  0.0879  2.4081  0.2440
 3784SOL     OW22813   0.643   0.794  11.539 -0.0116  0.2044  0.5193
 3784SOL    HW122814   0.585   0.757  11.605  1.0564  0.7735  1.7613
 3784SOL    HW222815   0.732   0.767  11.560  0.3614 -0.8472 -2.3253
 3785SOL     OW22816   2.866   2.512  11.777  0.2644 -0.0865 -0.4029
 3785SOL    HW122817   2.929   2.482  11.842  0.8381  0.9220 -0.4832
 3785SOL    HW222818   2.778   2.505  11.815  0.3679  0.5788 -0.0484
 3786SOL     OW22819   1.116   3.978   8.189 -0.0341  0.2028  0.5703
 3786SOL    HW122820   1.203   3.998   8.224  0.6530  1.0127 -1.5824
 3786SOL    HW222821   1.060   3.970   8.266 -1.6460 -0.2195 -0.6400
 3787SOL     OW22822   3.934   4.467   4.646  0.5155  0.5321  0.5419
 3787SOL    HW122823   3.922   4.372   4.643 -0.7578  0.6966  0.8364
 3787SOL    HW222824   3.937   4.491   4.553 -2.5638 -0.0402  0.3048
 3788SOL     OW22825   3.215   4.536   8.879  0.2510  0.6172  0.7638
 3788SOL    HW122826   3.256   4.482   8.946  1.2364  1.6931  1.0260
 3788SOL    HW222827   3.134   4.557   8.925 -1.7410 -2.0351 -1.5076
 3789SOL     OW22828   4.591   3.326   7.068 -0.2388 -0.4766  0.2295
 3789SOL    HW122829   4.529   3.261   7.036 -0.3041 -0.7724  0.9620
 3789SOL    HW222830   4.672   3.299   7.025  0.0230  1.1937 -0.3450
 3790SOL     OW22831   3.843   3.703   8.579  0.1420 -0.0807 -0.0567
 3790SOL    HW122832   3.900   3.630   8.605  0.4372  0.8763  2.0182
 3790SOL    HW222833   3.880   3.770   8.637 -1.6021  1.7177 -1.0535
 3791SOL     OW22834   3.774   1.232   5.318 -0.3560  0.2751  0.0062
 3791SOL    HW122835   3.744   1.308   5.367 -1.0645  0.3916 -0.6111
 3791SOL    HW222836   3.827   1.270   5.248 -0.6679  0.6234 -0.0369
 3792SOL     OW22837   2.068   4.518   3.927 -0.5827 -0.5235 -0.0295
 3792SOL    HW122838   2.025   4.494   3.845  3.2920  1.8789 -2.7552
 3792SOL    HW222839   2.154   4.482   3.902 -0.8669 -2.1724  1.3623
 3793SOL     OW22840   3.843   4.516   8.899 -0.4521 -0.2593  0.1222
 3793SOL    HW122841   3.889   4.492   8.979  1.1877  1.9446 -0.1628
 3793SOL    HW222842   3.782   4.443   8.886 -0.0227 -0.2731 -1.8388
 3794SOL     OW22843   4.705   4.122  14.301  0.6649  0.5257  0.6015
 3794SOL    HW122844   0.047   4.054  14.280 -0.6246 -0.3984 -0.3724
 3794SOL    HW222845   4.703   4.170  14.218  1.6649 -1.2463 -0.4607
 3795SOL     OW22846   4.338   0.691   3.985  0.0299 -0.1222  0.3735
 3795SOL    HW122847   4.253   0.731   4.005 -0.9211 -1.3545 -1.1631
 3795SOL    HW222848   4.332   0.610   4.037 -0.0520  0.0511  0.6345
 3796SOL     OW22849   3.928   2.089   1.872  0.9150 -0.0760  0.1547
 3796SOL    HW122850   3.875   2.108   1.949 -0.8796 -1.1688 -0.7947
 3796SOL    HW222851   3.910   1.997   1.852 -0.6470  0.7225 -2.0896
 3797SOL     OW22852   2.890   3.659   6.182  0.1800  0.5406 -0.0044
 3797SOL    HW122853   2.926   3.730   6.129 -0.9750  0.0075 -1.4916
 3797SOL    HW222854   2.958   3.593   6.179  1.7073  2.1879 -1.3885
 3798SOL     OW22855   0.396   4.416   2.672 -0.0384 -0.3271  0.1859
 3798SOL    HW122856   0.454   4.352   2.632  0.0165 -0.9308  1.2509
 3798SOL    HW222857   0.438   4.417   2.758 -0.1281  0.3980  0.2218
 3799SOL     OW22858   0.586   1.965   7.168 -0.4016 -0.5249 -0.8778
 3799SOL    HW122859   0.631   2.001   7.091 -0.9619  1.4278 -0.2743
 3799SOL    HW222860   0.655   1.906   7.199 -0.4996 -1.8952 -3.2197
 3800SOL     OW22861   3.892   0.878  11.174 -0.0892 -0.0606  0.2716
 3800SOL    HW122862   3.836   0.809  11.211  0.0990 -0.1887  0.3195
 3800SOL    HW222863   3.977   0.839  11.195  0.0114  0.2376  0.4148
 3801SOL     OW22864   1.496   3.598   3.597  0.1999  0.3273 -0.4998
 3801SOL    HW122865   1.513   3.526   3.657 -0.6164 -0.0678 -0.7514
 3801SOL    HW222866   1.428   3.642   3.647  2.0909  2.3800  0.2563
 3802SOL     OW22867   3.397   4.553  13.677  0.4434  0.2631  0.3593
 3802SOL    HW122868   3.337   4.490  13.637 -1.1762  2.5297 -0.7632
 3802SOL    HW222869   3.470   4.494  13.697  1.3738  1.6328  1.0206
 3803SOL     OW22870   2.933   3.170  13.782  0.0303  0.8331 -0.2158
 3803SOL    HW122871   2.911   3.184  13.874 -1.3283 -1.7763 -0.1385
 3803SOL    HW222872   2.882   3.241  13.743  2.0890  1.1792 -2.2884
 3804SOL     OW22873   4.625   2.065   5.996 -0.1532 -0.3112 -0.0338
 3804SOL    HW122874   4.562   2.115   6.047 -0.4958 -1.3427  0.5531
 3804SOL    HW222875   4.644   2.125   5.924 -2.2558  0.6566  0.2157
 3805SOL     OW22876   4.256   1.833   8.560  0.0142 -0.6234  0.2912
 3805SOL    HW122877   4.180   1.776   8.564  0.2482 -0.9317  0.3133
 3805SOL    HW222878   4.218   1.921   8.557 -1.0453 -1.0638  0.9286
 3806SOL     OW22879   1.630   2.960   5.640  0.3971 -0.4461  0.5755
 3806SOL    HW122880   1.584   3.040   5.664  0.6681 -0.0144 -0.3379
 3806SOL    HW222881   1.662   2.980   5.552 -1.0360  0.0160  0.1518
 3807SOL     OW22882   0.884   4.280   7.186 -0.0811  0.1346 -0.4898
 3807SOL    HW122883   0.931   4.198   7.200 -0.3675 -0.1419 -1.1102
 3807SOL    HW222884   0.839   4.281   7.270 -0.8017  0.1169 -0.8776
 3808SOL     OW22885   2.444   0.407   5.851 -0.6284 -0.3343 -0.0211
 3808SOL    HW122886   2.461   0.422   5.944  1.1588  0.7652 -0.5218
 3808SOL    HW222887   2.368   0.465   5.841  0.4707  0.9729 -0.6988
 3809SOL     OW22888   4.556   0.880   4.493 -0.1068 -0.3081  0.1578
 3809SOL    HW122889   4.503   0.939   4.439 -0.2869 -0.8866 -0.2862
 3809SOL    HW222890   4.497   0.805   4.493 -1.3309  0.6674  1.2264
 3810SOL     OW22891   0.760   2.499   2.103  0.3837  0.1039 -0.3258
 3810SOL    HW122892   0.725   2.420   2.063  0.3472  0.8567 -1.7724
 3810SOL    HW222893   0.794   2.541   2.024 -1.5627  2.6308  0.1665
 3811SOL     OW22894   4.481   1.080   3.003  0.1947 -0.6374  0.5729
 3811SOL    HW122895   4.527   1.164   3.000 -1.2732  0.1161 -0.4511
 3811SOL    HW222896   4.412   1.099   3.067  1.0384  0.2157  1.2268
 3812SOL     OW22897   0.899   2.154   9.422 -0.0466 -0.3174 -0.1292
 3812SOL    HW122898   0.870   2.141   9.512 -0.4475  2.2143  0.1166
 3812SOL    HW222899   0.875   2.246   9.415  0.0983 -0.1349  1.7206
 3813SOL     OW22900   3.531   0.409   3.324  0.6097  0.0691  0.4811
 3813SOL    HW122901   3.586   0.444   3.253 -0.5821  1.5765  0.3100
 3813SOL    HW222902   3.471   0.362   3.266  1.3030 -2.1385  1.5493
 3814SOL     OW22903   0.136   2.764   7.458  0.1771 -0.1906 -0.5966
 3814SOL    HW122904   0.185   2.761   7.376 -0.1385 -0.5996 -0.7661
 3814SOL    HW222905   0.068   2.702   7.436 -0.1232  0.2144 -0.8054
 3815SOL     OW22906   2.403   4.508  13.183  0.0680 -0.1048  0.5442
 3815SOL    HW122907   2.316   4.522  13.220  0.2634  0.0096  0.9650
 3815SOL    HW222908   2.427   4.598  13.164 -1.4770  0.7468  2.5918
 3816SOL     OW22909   4.488   2.123  15.134 -0.0600 -0.0977 -0.0124
 3816SOL    HW122910   4.543   2.158  15.063 -0.3395 -2.7071 -1.5153
 3816SOL    HW222911   4.407   2.112  15.084  1.1945 -1.9861 -1.6656
 3817SOL     OW22912   0.328   3.081   7.412 -0.2870  0.1724  0.2487
 3817SOL    HW122913   0.250   3.058   7.360 -1.4438  0.4715  1.8512
 3817SOL    HW222914   0.379   3.142   7.358  0.3420  0.3082  1.0038
 3818SOL     OW22915   1.609   0.437   3.665  0.1475  0.4544  0.1734
 3818SOL    HW122916   1.576   0.465   3.579  0.1903 -0.6597 -0.2126
 3818SOL    HW222917   1.675   0.371   3.640 -1.0096 -1.4959  2.2642
 3819SOL     OW22918   0.199   3.598  17.504  0.0467  0.0290  0.5015
 3819SOL    HW122919   0.207   3.593  17.599  1.5084 -0.2198  0.3719
 3819SOL    HW222920   0.290   3.586  17.477 -0.7803 -2.0979 -1.3460
 3820SOL     OW22921   0.517   0.590   6.662  0.3233  0.2598 -0.6699
 3820SOL    HW122922   0.612   0.592   6.656  0.4498 -1.4337  0.7266
 3820SOL    HW222923   0.501   0.619   6.752 -0.8897  1.2699 -1.2043
 3821SOL     OW22924   3.051   0.759   1.161 -0.2173  0.5822  0.2196
 3821SOL    HW122925   3.035   0.852   1.178 -1.9082  0.6660 -1.7589
 3821SOL    HW222926   3.135   0.751   1.116  0.1534  0.1401  1.0010
 3822SOL     OW22927   3.467   3.212   4.320  0.3394 -0.1846 -0.5339
 3822SOL    HW122928   3.508   3.127   4.334 -1.8902 -1.1873 -0.2286
 3822SOL    HW222929   3.442   3.205   4.228 -0.7375 -0.8444 -0.1834
 3823SOL     OW22930   2.997   2.292   4.317  0.0928 -0.6040  0.3430
 3823SOL    HW122931   2.932   2.362   4.305  2.2801  1.4946  0.7916
 3823SOL    HW222932   3.001   2.281   4.412  3.0786 -0.1507  0.2672
 3824SOL     OW22933   2.612   2.104   5.678 -0.1979  0.0256 -0.3717
 3824SOL    HW122934   2.562   2.173   5.634 -1.0744  0.0140  0.6022
 3824SOL    HW222935   2.541   2.067   5.730 -0.7916  1.0534 -0.4524
 3825SOL     OW22936   2.141   4.145   7.164 -0.3543 -0.9156 -0.1532
 3825SOL    HW122937   2.183   4.141   7.250  0.8241 -2.2583 -0.7807
 3825SOL    HW222938   2.058   4.178   7.197 -0.1632 -1.3884  0.7879
 3826SOL     OW22939   4.519   3.871   6.492 -0.1434  0.0376  0.1665
 3826SOL    HW122940   4.459   3.921   6.547  1.4046  0.8888  1.0839
 3826SOL    HW222941   4.490   3.898   6.405 -1.4564 -0.0566  0.5838
 3827SOL     OW22942   0.889   2.145   2.589  0.1918 -0.6000 -0.1985
 3827SOL    HW122943   0.895   2.220   2.530 -0.1428  0.6273  1.2966
 3827SOL    HW222944   0.809   2.102   2.561  0.7629 -0.6124 -1.8094
 3828SOL     OW22945   0.569   2.025   3.238  0.0208 -0.2573 -0.2309
 3828SOL    HW122946   0.654   1.991   3.211 -0.2733 -0.1412 -1.3305
 3828SOL    HW222947   0.516   2.027   3.158  1.2686  1.1788 -1.0031
 3829SOL     OW22948   1.483   4.313  14.586 -0.4274  0.1592  0.2753
 3829SOL    HW122949   1.398   4.355  14.569 -0.2522  0.9975  1.4597
 3829SOL    HW222950   1.534   4.392  14.566 -3.4576  2.0667 -0.0499
 3830SOL     OW22951   0.724   3.628   7.702  0.8862  0.0819 -0.0803
 3830SOL    HW122952   0.670   3.565   7.655  0.0894 -1.7850  3.3338
 3830SOL    HW222953   0.658   3.690   7.733  1.1423 -0.7837  2.2409
 3831SOL     OW22954   3.847   2.659   6.816 -0.1057 -0.2016  0.1534
 3831SOL    HW122955   3.843   2.683   6.723 -2.7957 -0.9368  0.0830
 3831SOL    HW222956   3.809   2.734   6.862  1.6129  0.0973  1.0941
 3832SOL     OW22957   2.269   3.893   7.660 -0.1827  0.2597 -0.3429
 3832SOL    HW122958   2.278   3.798   7.658  0.5714  0.2735  2.5147
 3832SOL    HW222959   2.175   3.901   7.645 -0.4999  0.7229  1.7863
 3833SOL     OW22960   2.459   2.331   8.931 -0.2836 -0.4513  0.3153
 3833SOL    HW122961   2.484   2.422   8.916 -0.1984 -0.2859  1.4939
 3833SOL    HW222962   2.396   2.314   8.861  0.1400  0.6885 -0.3320
 3834SOL     OW22963   4.101   1.701   2.639  0.8079  0.1020 -0.1224
 3834SOL    HW122964   4.029   1.733   2.584 -0.2925  0.3328  1.4332
 3834SOL    HW222965   4.093   1.607   2.619  1.0582  0.0567 -0.0007
 3835SOL     OW22966   2.830   1.310   8.409  0.1923 -0.2226 -0.2068
 3835SOL    HW122967   2.909   1.318   8.356 -0.7903 -0.2417 -1.6729
 3835SOL    HW222968   2.784   1.394   8.407 -1.5259 -1.1568  0.3286
 3836SOL     OW22969   0.152   2.954   0.657 -0.0593 -0.3993  0.7550
 3836SOL    HW122970   0.080   3.005   0.693 -0.5734  0.7875 -1.9007
 3836SOL    HW222971   0.134   2.862   0.673  0.7679 -0.4477  1.3944
 3837SOL     OW22972   4.439   1.431   8.455 -0.1195  0.2924 -0.1077
 3837SOL    HW122973   4.457   1.456   8.364  1.0751 -1.1597 -0.2627
 3837SOL    HW222974   4.527   1.411   8.486 -0.8612  0.8784  2.3688
 3838SOL     OW22975   0.540   4.414   2.911  0.0658  0.4580  0.3344
 3838SOL    HW122976   0.450   4.415   2.941 -0.1835 -2.5411 -0.3029
 3838SOL    HW222977   0.582   4.351   2.970 -2.2674 -1.5600 -0.2032
 3839SOL     OW22978   2.803   4.553   4.084  0.3227  0.2590 -0.3500
 3839SOL    HW122979   2.766   4.473   4.121 -0.1259 -0.0066 -1.3634
 3839SOL    HW222980   2.721   4.600   4.070 -0.8083 -0.9854  2.1479
 3840SOL     OW22981   1.259   1.885  12.399 -0.0749 -0.2852 -0.5137
 3840SOL    HW122982   1.330   1.828  12.370  0.4057  0.7752 -1.4172
 3840SOL    HW222983   1.193   1.886  12.329 -2.1197 -1.7950  1.3960
 3841SOL     OW22984   1.243   4.573  14.835  0.4237  0.1136 -0.0683
 3841SOL    HW122985   1.321   4.590  14.782  1.1214 -1.3463  0.4936
 3841SOL    HW222986   1.284   4.598  14.918 -2.6226 -1.2510  1.8519
 3842SOL     OW22987   1.114   2.392   9.070  0.3080 -0.2993 -0.5918
 3842SOL    HW122988   1.058   2.321   9.038  0.6537 -1.0847  0.5768
 3842SOL    HW222989   1.071   2.417   9.151 -0.8001  0.7866 -1.5176
 3843SOL     OW22990   2.778   3.892   3.347  0.3889  0.1429 -0.2006
 3843SOL    HW122991   2.865   3.925   3.323 -0.1703  1.4763 -0.3469
 3843SOL    HW222992   2.776   3.813   3.293 -1.2909  0.3887 -0.4916
 3844SOL     OW22993   3.165   2.628   3.598 -0.1813 -0.0905 -0.3428
 3844SOL    HW122994   3.245   2.575   3.596  1.0960  1.9016 -2.7304
 3844SOL    HW222995   3.122   2.594   3.676  0.4445 -0.7268 -0.2691
 3845SOL     OW22996   1.149   4.089   1.796  0.2728 -0.2337 -0.3947
 3845SOL    HW122997   1.184   4.081   1.708  0.5567  0.9652 -0.3824
 3845SOL    HW222998   1.065   4.131   1.779  0.1012 -0.3365  0.1920
 3846SOL     OW22999   1.054   3.334  15.872  0.2468  0.0472  0.1662
 3846SOL    HW123000   1.079   3.401  15.936 -0.9530  0.3103  0.3788
 3846SOL    HW223001   1.001   3.282  15.933  1.3792 -0.6880  0.5242
 3847SOL     OW23002   1.222   0.794   2.468  0.3460 -0.1049 -0.1631
 3847SOL    HW123003   1.262   0.710   2.446  0.9353  0.5434 -1.5841
 3847SOL    HW223004   1.187   0.774   2.555 -0.1768 -0.5554 -0.4768
 3848SOL     OW23005   2.131   4.516  14.496  0.0377 -0.2526 -0.6501
 3848SOL    HW123006   2.156   4.538  14.406 -0.0580  2.2063 -0.0724
 3848SOL    HW223007   2.164   4.427  14.485  2.4513  0.4541  0.9301
 3849SOL     OW23008   1.580   1.394  15.949 -0.2888 -0.0183  0.3283
 3849SOL    HW123009   1.593   1.488  15.962 -2.2092  0.2860 -0.0331
 3849SOL    HW223010   1.550   1.401  15.858 -0.3583  1.9056  0.4885
 3850SOL     OW23011   4.716   1.018   1.299  0.2498 -0.7863  0.0366
 3850SOL    HW123012   4.688   1.062   1.218  0.9474 -1.6685 -0.6904
 3850SOL    HW223013   4.637   0.965   1.306  1.1541 -2.2339 -0.8128
 3851SOL     OW23014   2.618   1.521  10.928 -0.6344 -0.7458 -0.3289
 3851SOL    HW123015   2.536   1.570  10.927 -0.7454 -0.9202  0.5606
 3851SOL    HW223016   2.613   1.469  11.008  0.2131 -0.6042 -0.1888
 3852SOL     OW23017   0.924   0.067   7.456 -0.5809 -0.2786 -0.1432
 3852SOL    HW123018   0.980   0.048   7.531 -0.6420 -0.7830 -0.2215
 3852SOL    HW223019   0.902   4.698   7.436 -0.5675 -0.1074 -0.9717
 3853SOL     OW23020   3.558   3.422  12.321 -0.3026  0.4559 -0.4080
 3853SOL    HW123021   3.475   3.434  12.275  0.6698  1.1363 -1.9710
 3853SOL    HW223022   3.629   3.430  12.258  1.5325 -1.2173  1.4421
 3854SOL     OW23023   4.332   1.588   5.289 -0.0757 -0.3785  0.2982
 3854SOL    HW123024   4.281   1.520   5.335 -0.4980 -0.1667  0.1415
 3854SOL    HW223025   4.323   1.563   5.197 -1.7608  0.0148  0.3511
 3855SOL     OW23026   0.199   0.624  10.110 -0.1994  0.7438  0.0122
 3855SOL    HW123027   0.246   0.556  10.159  0.6020  1.1921 -0.1338
 3855SOL    HW223028   0.136   0.645  10.179 -1.7133  0.4454 -1.3051
 3856SOL     OW23029   3.628   1.587   4.190  0.1072 -0.0101  0.1591
 3856SOL    HW123030   3.711   1.543   4.171  1.3574  1.7487  1.5665
 3856SOL    HW223031   3.626   1.636   4.107  1.2748  2.0661  1.3730
 3857SOL     OW23032   0.930   0.490  12.791 -0.4724 -0.0986  0.4754
 3857SOL    HW123033   0.927   0.420  12.855 -0.2068 -1.4276 -0.9625
 3857SOL    HW223034   0.966   0.436  12.720  0.7789  0.1241  0.9310
 3858SOL     OW23035   4.508   2.469   8.929  0.4938 -0.3937 -0.3328
 3858SOL    HW123036   4.426   2.438   8.967  1.5916 -2.0490  0.6332
 3858SOL    HW223037   4.539   2.532   8.993 -0.6767  0.5521 -0.6986
 3859SOL     OW23038   2.233   1.965   5.582  0.5007  0.4828  0.2447
 3859SOL    HW123039   2.317   1.932   5.551 -0.8910 -0.5803 -2.4379
 3859SOL    HW223040   2.204   1.897   5.643 -1.3461 -0.3532 -1.5710
 3860SOL     OW23041   1.659   4.614  16.872  0.4211  0.2427 -0.4084
 3860SOL    HW123042   1.725   4.664  16.824  1.6709 -2.0456 -1.0603
 3860SOL    HW223043   1.581   4.657  16.838  0.7139  0.5189 -0.7347
 3861SOL     OW23044   1.698   0.567   6.006  0.2175  0.0974 -0.3951
 3861SOL    HW123045   1.686   0.516   6.085 -0.7877  2.9313  1.2807
 3861SOL    HW223046   1.712   0.499   5.940 -0.5820 -0.0645 -0.4067
 3862SOL     OW23047   0.192   3.731  12.887  0.2479 -0.3799 -0.3208
 3862SOL    HW123048   0.211   3.694  12.973 -1.3716  1.1321  0.6747
 3862SOL    HW223049   0.276   3.714  12.844  1.2084 -0.7955  1.7170
 3863SOL     OW23050   2.238   2.059  13.206  0.7709  0.5088 -0.0338
 3863SOL    HW123051   2.153   2.098  13.227  1.3380  2.8166 -2.0307
 3863SOL    HW223052   2.302   2.086  13.272  1.5932 -0.5617 -0.3941
 3864SOL     OW23053   2.163   0.510   4.603 -0.0907 -0.2866 -0.1251
 3864SOL    HW123054   2.202   0.581   4.552 -1.4155 -0.2502 -1.0808
 3864SOL    HW223055   2.234   0.500   4.666 -2.3626 -1.7388  2.2331
 3865SOL     OW23056   0.311   2.371   3.998 -0.0133 -0.1692  0.2821
 3865SOL    HW123057   0.245   2.359   4.066  0.8412  0.8947  1.3069
 3865SOL    HW223058   0.290   2.455   3.957  1.6763 -0.1755 -0.6015
 3866SOL     OW23059   0.769   0.643   4.261  0.4159 -0.4764 -0.0864
 3866SOL    HW123060   0.725   0.718   4.221  0.7825 -0.3569 -0.2705
 3866SOL    HW223061   0.841   0.622   4.201  0.2565  0.9353 -0.7702
 3867SOL     OW23062   3.676   1.154   7.348 -0.3036 -0.5041  0.3436
 3867SOL    HW123063   3.699   1.102   7.272  0.0519 -1.3214  1.0087
 3867SOL    HW223064   3.582   1.162   7.329 -0.6691 -0.9859  1.8803
 3868SOL     OW23065   0.765   0.274   7.499 -0.3753 -0.3684  0.6486
 3868SOL    HW123066   0.818   0.285   7.579  2.2882  2.7961 -1.5527
 3868SOL    HW223067   0.832   0.228   7.448 -0.3988 -0.4884  0.7253
 3869SOL     OW23068   3.230   2.796   3.861  0.1543 -0.2777 -0.4016
 3869SOL    HW123069   3.314   2.795   3.815  0.6574 -0.6676  0.5181
 3869SOL    HW223070   3.195   2.708   3.848  1.8136 -0.8377 -1.0258
 3870SOL     OW23071   3.372   1.221   4.123  0.2011  0.3381 -0.5393
 3870SOL    HW123072   3.456   1.201   4.163 -1.2036  1.2033  2.8623
 3870SOL    HW223073   3.319   1.143   4.136  0.5462  0.3548  0.8991
 3871SOL     OW23074   4.568   3.428   6.094  0.2255 -0.8692  0.5918
 3871SOL    HW123075   4.651   3.468   6.120 -1.0564  2.0017  0.1710
 3871SOL    HW223076   4.567   3.432   5.999  1.2263 -1.3690  0.5596
 3872SOL     OW23077   1.483   3.526  10.621  0.1687 -0.1794  0.0040
 3872SOL    HW123078   1.498   3.436  10.650 -0.2573  0.2356  1.5216
 3872SOL    HW223079   1.440   3.516  10.536  0.6914 -0.2451 -0.2528
 3873SOL     OW23080   4.317   3.847  10.295 -0.0448  0.5257 -0.2486
 3873SOL    HW123081   4.279   3.760  10.283  0.6738  0.1295  0.2728
 3873SOL    HW223082   4.382   3.856  10.225 -3.5134 -0.4211 -3.5579
 3874SOL     OW23083   1.760   0.301   5.848  0.1191 -0.0700  0.6329
 3874SOL    HW123084   1.768   0.212   5.815 -1.2706  0.1773 -0.4059
 3874SOL    HW223085   1.839   0.300   5.902 -1.0968 -0.5919  2.4130
 3875SOL     OW23086   2.352   4.192  16.036  0.2800  0.1999 -0.5392
 3875SOL    HW123087   2.377   4.258  16.101 -1.0680 -0.3729  0.5707
 3875SOL    HW223088   2.376   4.232  15.953 -0.2489  2.0177  0.1756
 3876SOL     OW23089   0.336   2.294  15.968 -0.4039 -0.2487 -0.5667
 3876SOL    HW123090   0.310   2.318  15.879 -1.1914 -1.3047 -0.6268
 3876SOL    HW223091   0.351   2.382  16.002  1.6520 -1.3398  1.3063
 3877SOL     OW23092   3.681   4.394   7.705 -0.3916 -0.3137  0.5393
 3877SOL    HW123093   3.647   4.390   7.795  0.6071  0.2192  0.9448
 3877SOL    HW223094   3.600   4.409   7.656  1.3750  2.2306 -1.5720
 3878SOL     OW23095   1.316   1.857   3.559 -0.1182 -0.4565  0.0303
 3878SOL    HW123096   1.369   1.902   3.625 -0.3820  0.2732 -0.2572
 3878SOL    HW223097   1.266   1.932   3.529 -1.1063 -1.0238  0.2715
 3879SOL     OW23098   3.465   1.500   3.368 -0.2855 -0.0445  0.0781
 3879SOL    HW123099   3.518   1.517   3.290  0.7486 -2.5881  0.2229
 3879SOL    HW223100   3.532   1.477   3.432 -1.0130 -0.0005  0.8564
 3880SOL     OW23101   2.472   3.170  12.057 -0.2778 -0.4382  0.5278
 3880SOL    HW123102   2.475   3.095  11.998 -0.1297  1.9102 -2.4286
 3880SOL    HW223103   2.433   3.125  12.132  0.4241 -1.7695  0.0925
 3881SOL     OW23104   3.533   3.865   8.784  0.4093 -0.3372  0.4656
 3881SOL    HW123105   3.568   3.776   8.784 -0.9633 -0.8795  2.3083
 3881SOL    HW223106   3.537   3.890   8.692 -1.1213  0.8442  0.7148
 3882SOL     OW23107   1.315   4.191   8.847 -0.0360 -0.4643  0.4016
 3882SOL    HW123108   1.254   4.169   8.917  0.0291  0.3188  0.7053
 3882SOL    HW223109   1.263   4.189   8.766 -2.3274 -0.5268  1.8621
 3883SOL     OW23110   1.490   1.028  15.842 -0.4269 -0.8270 -0.1009
 3883SOL    HW123111   1.566   1.018  15.900  0.0221  0.6236 -0.4307
 3883SOL    HW223112   1.484   0.941  15.803  1.7154 -1.9968  2.1439
 3884SOL     OW23113   4.137   4.688   4.545 -0.1827 -0.0515  0.4470
 3884SOL    HW123114   4.096   4.635   4.476  0.8047 -0.3187  0.0745
 3884SOL    HW223115   4.228   4.658   4.550 -0.3631 -0.3114  2.3535
 3885SOL     OW23116   1.246   1.981   1.149  0.2577 -0.2207  0.5250
 3885SOL    HW123117   1.282   1.897   1.118 -3.2701 -1.1618 -1.0327
 3885SOL    HW223118   1.300   1.995   1.226 -1.9156 -0.6283  2.1224
 3886SOL     OW23119   0.438   4.671   9.582  0.3802  0.1405  0.0829
 3886SOL    HW123120   0.529   4.651   9.607  0.9522  0.7109 -1.5463
 3886SOL    HW223121   0.444   0.022   9.522  1.6501 -1.5317 -1.8430
 3887SOL     OW23122   1.033   3.317   6.280 -0.0256 -0.3253 -0.6030
 3887SOL    HW123123   1.080   3.338   6.360  2.4824 -2.0615 -1.6287
 3887SOL    HW223124   1.048   3.399   6.233  0.3530  0.8162  1.5372
 3888SOL     OW23125   2.605   4.299  17.260  0.0465  0.0393  0.0568
 3888SOL    HW123126   2.611   4.225  17.321 -0.4732  0.6814  0.8895
 3888SOL    HW223127   2.621   4.366  17.326 -0.4136  2.9236 -2.7755
 3889SOL     OW23128   3.078   0.493   4.919  0.2767  0.2026 -0.0849
 3889SOL    HW123129   2.986   0.472   4.936  0.4587 -0.4216  0.1478
 3889SOL    HW223130   3.121   0.408   4.913 -0.1974 -0.0647  0.2398
 3890SOL     OW23131   0.371   2.537  16.063 -0.0164  0.0696  0.4604
 3890SOL    HW123132   0.331   2.597  16.126 -0.5651 -0.9385  1.0782
 3890SOL    HW223133   0.458   2.576  16.055  0.0289  0.1795  1.4317
 3891SOL     OW23134   4.163   0.771   2.826 -0.1563 -0.6570  0.0326
 3891SOL    HW123135   4.231   0.818   2.874 -0.0674 -0.4850 -0.2587
 3891SOL    HW223136   4.184   0.784   2.733  0.0059 -0.3114  0.1201
 3892SOL     OW23137   3.747   0.564  14.297 -0.1402  0.2890 -0.3052
 3892SOL    HW123138   3.696   0.636  14.333 -1.6012 -0.6472 -0.4751
 3892SOL    HW223139   3.808   0.551  14.369 -2.3291  0.8978  1.6502
 3893SOL     OW23140   0.424   0.224   2.565  0.2364 -0.1727 -0.3083
 3893SOL    HW123141   0.457   0.272   2.640 -0.7321 -0.7205  0.4664
 3893SOL    HW223142   0.399   0.141   2.605 -2.0381  1.0524  0.7870
 3894SOL     OW23143   3.905   3.364  12.336 -0.3133 -0.2533  0.2735
 3894SOL    HW123144   3.862   3.281  12.318  0.3766 -0.1109 -2.0302
 3894SOL    HW223145   3.966   3.348  12.407  1.0347 -1.7283 -1.2185
 3895SOL     OW23146   1.351   1.184  13.869  0.0710  0.4960  0.1687
 3895SOL    HW123147   1.281   1.194  13.805 -0.4004 -0.7272  0.4856
 3895SOL    HW223148   1.308   1.231  13.941 -0.5782  0.4774 -0.2129
 3896SOL     OW23149   0.950   0.313   7.724  0.4550 -0.0334  0.3093
 3896SOL    HW123150   1.038   0.280   7.707  0.9425 -0.7188  4.1779
 3896SOL    HW223151   0.928   0.257   7.798  1.3613 -1.3955 -0.4691
 3897SOL     OW23152   3.484   1.010   2.051  0.0782  0.0616 -0.1189
 3897SOL    HW123153   3.451   0.986   1.964  0.8349 -0.7543 -0.1713
 3897SOL    HW223154   3.442   1.095   2.067 -0.8359  0.0322 -2.4121
 3898SOL     OW23155   2.965   1.079  15.360 -0.4797  0.0786 -0.7049
 3898SOL    HW123156   2.911   1.140  15.410  0.9582  0.2688  0.6044
 3898SOL    HW223157   2.975   1.009  15.425 -1.0481 -1.2548 -2.0447
 3899SOL     OW23158   2.352   0.871   9.908 -0.3072  0.4510 -0.4637
 3899SOL    HW123159   2.387   0.905   9.990 -1.3174 -0.6861  0.4546
 3899SOL    HW223160   2.260   0.898   9.908 -0.6740 -0.7630 -1.1749
 3900SOL     OW23161   1.189   2.168   0.605  0.0686  0.3149 -0.0933
 3900SOL    HW123162   1.198   2.118   0.686 -0.8930 -0.9938 -0.7830
 3900SOL    HW223163   1.208   2.106   0.535  0.0605  0.3481 -0.1251
 3901SOL     OW23164   1.258   4.190  11.843  0.0556  0.4737  0.1352
 3901SOL    HW123165   1.309   4.121  11.800  1.5939  1.0662  1.0183
 3901SOL    HW223166   1.193   4.212  11.776  3.0495  0.6856 -2.7216
 3902SOL     OW23167   0.766   1.709   7.108  0.1769  0.6523 -0.0016
 3902SOL    HW123168   0.679   1.677   7.085  0.4488 -0.0674 -0.0288
 3902SOL    HW223169   0.789   1.748   7.024 -1.7351  0.0271 -0.8172
 3903SOL     OW23170   1.578   2.818  13.026  0.6984 -0.7069 -0.0058
 3903SOL    HW123171   1.628   2.805  13.106  0.5925 -0.8871  0.0310
 3903SOL    HW223172   1.486   2.808  13.051 -0.1590  0.1561 -2.7774
 3904SOL     OW23173   4.623   3.122  11.590 -0.0987  0.1092  0.5122
 3904SOL    HW123174   4.556   3.110  11.522 -0.2887  1.6800  0.4199
 3904SOL    HW223175   4.576   3.177  11.653 -0.8588 -2.3024  2.0792
 3905SOL     OW23176   2.044   0.868   0.069 -0.0791  0.1387 -0.2118
 3905SOL    HW123177   1.993   0.944   0.099  0.3613  0.0656  0.7440
 3905SOL    HW223178   2.136   0.889   0.083 -0.8878  3.1398  0.6022
 3906SOL     OW23179   1.345   4.327   5.589 -0.3238 -0.2873 -0.4306
 3906SOL    HW123180   1.386   4.375   5.517 -0.0492  2.0694  1.3015
 3906SOL    HW223181   1.341   4.400   5.651  4.6473 -2.1021  2.0617
 3907SOL     OW23182   2.152   2.365  15.131  0.2160  0.5064  1.1874
 3907SOL    HW123183   2.219   2.411  15.079  1.7893 -2.1989  0.8390
 3907SOL    HW223184   2.092   2.440  15.138  0.8872  1.1274  0.3321
 3908SOL     OW23185   0.341   4.593   6.494  0.2699 -0.3693 -0.5709
 3908SOL    HW123186   0.258   4.551   6.472 -1.8814  2.9159  1.3652
 3908SOL    HW223187   0.408   4.535   6.457  2.1721  2.5604 -1.7692
 3909SOL     OW23188   1.841   4.505   8.266 -0.6638  0.1313  0.1012
 3909SOL    HW123189   1.816   4.478   8.354  2.7059 -0.1903  0.9704
 3909SOL    HW223190   1.909   4.570   8.285  0.7456  0.0136 -4.3709
 3910SOL     OW23191   3.089   3.807   3.870  0.3422 -0.1269 -0.2497
 3910SOL    HW123192   3.058   3.784   3.958  0.9078  3.4322  0.8766
 3910SOL    HW223193   3.160   3.865   3.897  0.7286 -0.6274 -0.1912
 3911SOL     OW23194   3.738   2.471   7.475 -0.1129 -0.6532  0.0631
 3911SOL    HW123195   3.776   2.526   7.543 -0.1008  0.3815 -0.7917
 3911SOL    HW223196   3.764   2.384   7.506  1.5510  0.0991  0.8110
 3912SOL     OW23197   2.518   1.711   3.037 -0.4916 -0.0171  0.1718
 3912SOL    HW123198   2.601   1.671   3.011  1.3481  2.3176  2.4447
 3912SOL    HW223199   2.486   1.757   2.960  1.3503 -1.8825 -1.7162
 3913SOL     OW23200   1.043   2.494   3.163 -0.3267 -0.1948 -0.5454
 3913SOL    HW123201   1.049   2.590   3.163  1.7247 -0.3164  0.1640
 3913SOL    HW223202   1.125   2.472   3.118  0.1017  0.4633 -0.1024
 3914SOL     OW23203   3.964   4.354   3.107  0.1639  0.0259  0.2582
 3914SOL    HW123204   3.878   4.390   3.086 -0.2004  0.1575  1.9621
 3914SOL    HW223205   4.018   4.433   3.099 -1.8703  1.3230 -0.8240
 3915SOL     OW23206   1.088   2.011  15.266  0.1685  0.0408  0.5601
 3915SOL    HW123207   1.092   1.917  15.277  2.1620 -0.0767 -1.0684
 3915SOL    HW223208   1.177   2.020  15.231 -0.4709  0.0923 -1.0804
 3916SOL     OW23209   1.095   0.860   8.216  0.3627 -0.2530 -0.8668
 3916SOL    HW123210   1.170   0.893   8.166 -0.0158 -0.8749 -1.8303
 3916SOL    HW223211   1.040   0.805   8.161 -2.1619  0.7655  0.6781
 3917SOL     OW23212   0.444   1.751   8.041  0.4430 -0.0742  0.1843
 3917SOL    HW123213   0.472   1.662   8.018 -1.2639 -0.4266 -0.5602
 3917SOL    HW223214   0.525   1.777   8.083  0.1571  1.4584 -0.2114
 3918SOL     OW23215   4.307   1.550  17.671  0.6813  0.5723 -0.2083
 3918SOL    HW123216   4.398   1.573  17.651  1.5250 -1.8950  0.8380
 3918SOL    HW223217   4.297   1.567   0.074  1.1570  1.7412 -0.3571
 3919SOL     OW23218   0.479   2.261   1.018 -0.1911 -0.2555  0.3832
 3919SOL    HW123219   0.457   2.277   1.110  0.7105  0.6396  0.4479
 3919SOL    HW223220   0.488   2.167   1.010  2.3274 -0.1026  1.3948
 3920SOL     OW23221   2.412   2.334   9.286 -0.7460 -0.3778  0.0704
 3920SOL    HW123222   2.351   2.261   9.273 -0.5303 -0.3517 -1.0581
 3920SOL    HW223223   2.472   2.285   9.343 -1.3358 -1.2668 -0.0711
 3921SOL     OW23224   4.050   0.549   8.395 -0.3679 -0.2070  0.0677
 3921SOL    HW123225   4.001   0.479   8.439  2.3466 -2.3558 -0.3403
 3921SOL    HW223226   4.099   0.501   8.329  0.6415 -0.5061  1.0347
 3922SOL     OW23227   0.859   1.995   6.581 -0.1676  0.2495 -0.0015
 3922SOL    HW123228   0.923   2.041   6.527  1.5891 -2.5205 -0.2856
 3922SOL    HW223229   0.909   1.962   6.656 -0.3657 -3.3969 -1.4460
 3923SOL     OW23230   3.737   3.254   5.617 -0.2125 -0.7926 -0.5413
 3923SOL    HW123231   3.651   3.288   5.642 -0.8654 -1.4658 -1.8688
 3923SOL    HW223232   3.797   3.264   5.691 -1.1668 -1.2535  0.2993
 3924SOL     OW23233   1.449   2.427   6.947  0.4428  0.1132 -0.1086
 3924SOL    HW123234   1.458   2.506   6.893 -1.4735 -0.5071 -1.3374
 3924SOL    HW223235   1.541   2.404   6.962  0.2775 -1.3899 -1.4822
 3925SOL     OW23236   2.671   0.725  15.542  0.1318 -0.3014  0.0596
 3925SOL    HW123237   2.739   0.747  15.479 -1.0909  0.6192 -0.9297
 3925SOL    HW223238   2.626   0.647  15.510 -0.5529 -0.2081  0.7980
 3926SOL     OW23239   4.530   1.121   0.156 -0.3754 -0.6429 -0.6570
 3926SOL    HW123240   4.519   1.028   0.178 -0.3540 -0.2624  0.9384
 3926SOL    HW223241   4.440   1.154   0.165 -0.5046 -1.9221  2.8912
 3927SOL     OW23242   1.637   1.451   5.428  0.2458 -0.3192  0.3005
 3927SOL    HW123243   1.594   1.423   5.347 -2.1426 -0.1594  1.5228
 3927SOL    HW223244   1.591   1.527   5.463  0.1840 -0.8074  1.2627
 3928SOL     OW23245   1.096   2.484   3.791 -0.0160  0.1383 -0.1511
 3928SOL    HW123246   1.128   2.426   3.721 -0.2926  0.1803 -0.3140
 3928SOL    HW223247   1.166   2.469   3.854  0.0431 -1.2847 -0.5482
 3929SOL     OW23248   4.343   0.747   7.307  0.3265  0.0252  0.0384
 3929SOL    HW123249   4.372   0.657   7.291  1.1165  0.3646 -0.4215
 3929SOL    HW223250   4.255   0.736   7.345  0.0857 -0.1239 -0.5526
 3930SOL     OW23251   1.505   2.217   5.396 -0.0229  0.3943 -0.0321
 3930SOL    HW123252   1.508   2.222   5.492 -2.0004 -0.7374  0.0863
 3930SOL    HW223253   1.592   2.191   5.366  0.5922  1.7460  0.5509
 3931SOL     OW23254   2.173   0.830  11.335 -0.3505  0.1703  0.0779
 3931SOL    HW123255   2.159   0.735  11.342 -1.4579  0.4288  1.2912
 3931SOL    HW223256   2.092   0.860  11.294 -0.4948 -1.0150 -0.5144
 3932SOL     OW23257   2.524   0.035   7.233  0.1825  0.0616  0.2885
 3932SOL    HW123258   2.473   0.065   7.158 -0.7798  2.4210  1.8640
 3932SOL    HW223259   2.485   0.080   7.309 -1.1593 -0.7465  0.0849
 3933SOL     OW23260   0.463   3.045   8.170 -0.2829  0.1983  0.6536
 3933SOL    HW123261   0.492   2.986   8.100 -1.6821  1.3989 -0.9546
 3933SOL    HW223262   0.551   3.069   8.197 -0.4086  0.6918  0.6215
 3934SOL     OW23263   0.595   1.498   1.070  0.4497 -0.0568 -0.2799
 3934SOL    HW123264   0.638   1.514   0.985 -1.0409  2.8425 -0.5061
 3934SOL    HW223265   0.556   1.412   1.054 -0.2001 -0.2625  2.4996
 3935SOL     OW23266   0.370   0.716   6.465  0.7698 -0.3582  0.0181
 3935SOL    HW123267   0.427   0.685   6.535  0.0611  2.1602  1.6666
 3935SOL    HW223268   0.378   0.646   6.399  1.9234  0.1516 -0.3865
 3936SOL     OW23269   3.967   0.515   2.117  0.0397 -0.0391 -0.1850
 3936SOL    HW123270   4.043   0.516   2.175 -0.0092 -1.7681 -0.0846
 3936SOL    HW223271   3.993   0.432   2.077 -0.7859 -0.9728  1.2085
 3937SOL     OW23272   2.814   1.823   6.004 -0.2038  0.0108  0.1907
 3937SOL    HW123273   2.735   1.787   5.964 -0.6645  0.5880  0.5817
 3937SOL    HW223274   2.814   1.906   5.954 -1.8505 -0.9659 -1.4650
 3938SOL     OW23275   0.154   1.001   8.886  0.1373  0.1561  0.1642
 3938SOL    HW123276   0.112   1.048   8.958 -0.6870 -1.8895  1.0090
 3938SOL    HW223277   0.147   0.909   8.912 -0.1215  0.6170  1.7704
 3939SOL     OW23278   2.424   2.055   8.990 -0.0107  1.0127  0.3608
 3939SOL    HW123279   2.435   2.149   9.003 -2.5818  1.1771  1.4767
 3939SOL    HW223280   2.383   2.056   8.903  0.6201  1.6353  0.0697
 3940SOL     OW23281   0.114   1.095  17.422  0.4427 -0.6689 -0.2282
 3940SOL    HW123282   0.188   1.054  17.467  0.8197  1.7686  1.3718
 3940SOL    HW223283   0.150   1.113  17.334  0.3960  0.7457  0.0527
 3941SOL     OW23284   0.267   3.232   5.526 -0.4500  0.4144 -0.5764
 3941SOL    HW123285   0.224   3.177   5.460 -2.0599  2.0183 -0.8600
 3941SOL    HW223286   0.215   3.213   5.603  0.7796  0.5805  0.2976
 3942SOL     OW23287   0.048   4.203   4.914  0.4936  0.2385  0.0521
 3942SOL    HW123288   0.041   4.232   5.005  0.8099  0.7094 -0.0767
 3942SOL    HW223289   0.143   4.212   4.913  0.5536 -0.5171 -1.0610
 3943SOL     OW23290   3.922   2.360   7.848  0.3608  0.4150 -0.5001
 3943SOL    HW123291   3.973   2.337   7.926  0.3552  2.9311  0.2386
 3943SOL    HW223292   3.936   2.278   7.800 -0.4561 -0.5039  0.8434
 3944SOL     OW23293   2.223   3.340  11.239  0.1762  0.0707 -0.0028
 3944SOL    HW123294   2.196   3.335  11.331  2.0823  0.5217  0.5818
 3944SOL    HW223295   2.156   3.392  11.195 -0.2323 -0.9948 -0.6423
 3945SOL     OW23296   3.108   1.488   4.854  0.9920  0.5419 -0.2173
 3945SOL    HW123297   3.053   1.547   4.905  0.3045  1.6254 -2.2083
 3945SOL    HW223298   3.066   1.405   4.878 -1.1215  1.8768  0.7016
 3946SOL     OW23299   0.422   1.048   1.928 -0.5293 -0.1284  0.2745
 3946SOL    HW123300   0.411   1.130   1.975  0.1789  1.4825 -2.3952
 3946SOL    HW223301   0.466   1.077   1.849 -1.1835  2.3749  0.8108
 3947SOL     OW23302   1.100   1.781  13.160  0.5351 -0.5112  0.6691
 3947SOL    HW123303   1.020   1.728  13.161  0.1493  0.0468 -1.1793
 3947SOL    HW223304   1.091   1.829  13.078  0.0914  0.3162  1.1936
 3948SOL     OW23305   3.444   2.396   1.628  0.3173  0.1622 -0.1284
 3948SOL    HW123306   3.367   2.400   1.572  1.8257 -0.6518 -2.2389
 3948SOL    HW223307   3.442   2.302   1.647 -0.9362 -0.0460 -1.3337
 3949SOL     OW23308   3.438   4.710   2.347 -0.0821  0.1493  0.5361
 3949SOL    HW123309   3.473   0.030   2.268  0.6765 -0.0562  0.7639
 3949SOL    HW223310   3.388   4.648   2.294 -1.5854  0.3762  1.6989
 3950SOL     OW23311   4.316   1.558   4.264 -0.2834 -0.0204 -0.6546
 3950SOL    HW123312   4.266   1.543   4.344  0.2122  0.9250 -0.1731
 3950SOL    HW223313   4.402   1.517   4.275  0.3383  1.4010 -0.2453
 3951SOL     OW23314   1.170   0.449   7.551 -0.2115 -0.0239  0.0092
 3951SOL    HW123315   1.237   0.444   7.483  0.1164  1.3403  0.2199
 3951SOL    HW223316   1.197   0.381   7.612 -1.7136 -1.3601 -0.8218
 3952SOL     OW23317   1.823   0.021   6.582 -0.3400 -0.2754 -0.1167
 3952SOL    HW123318   1.772   4.697   6.649  0.6510 -2.0831 -0.5978
 3952SOL    HW223319   1.765   0.094   6.563 -0.0963 -0.0535 -0.0035
 3953SOL     OW23320   1.129   3.988   2.324  0.7338  0.0898 -0.1494
 3953SOL    HW123321   1.139   4.020   2.235  1.3360 -0.2854 -0.2182
 3953SOL    HW223322   1.106   3.900   2.296  0.1790 -0.3716  1.7101
 3954SOL     OW23323   1.728   0.110  16.213  0.4485  0.4999  0.2067
 3954SOL    HW123324   1.791   0.150  16.153  0.6537  1.2589  0.9214
 3954SOL    HW223325   1.665   0.075  16.150  1.5277 -0.1361 -0.5064
 3955SOL     OW23326   0.673   0.850  14.231 -0.7445  0.1720 -0.4750
 3955SOL    HW123327   0.644   0.916  14.294  1.3678 -0.1312  0.7859
 3955SOL    HW223328   0.707   0.777  14.282  0.9111  1.2915  0.0145
 3956SOL     OW23329   4.363   2.896   3.965 -0.0036 -0.6201 -0.0414
 3956SOL    HW123330   4.451   2.928   3.945 -1.0557  0.7859 -2.3744
 3956SOL    HW223331   4.329   2.846   3.891  0.0370 -0.2355 -0.3194
 3957SOL     OW23332   3.271   0.188   3.280 -0.0534  0.3502 -0.0354
 3957SOL    HW123333   3.280   0.282   3.263 -2.1956  0.7003  0.7480
 3957SOL    HW223334   3.212   0.195   3.356 -0.2240 -1.7454  0.0197
 3958SOL     OW23335   2.345   3.982   2.687  0.4319  0.0899 -0.0369
 3958SOL    HW123336   2.383   3.980   2.599  0.9723 -1.0380  0.2133
 3958SOL    HW223337   2.274   4.043   2.670  0.8382  0.5062 -0.2307
 3959SOL     OW23338   2.353   1.414   7.956  0.2130 -0.4209  0.4051
 3959SOL    HW123339   2.325   1.485   7.899  0.1922  0.9636  2.1131
 3959SOL    HW223340   2.301   1.346   7.913 -0.7224 -0.1080  1.0213
 3960SOL     OW23341   1.189   0.278   2.551 -1.0124 -0.3653  0.7105
 3960SOL    HW123342   1.166   0.269   2.644 -2.5410  0.1514  0.3808
 3960SOL    HW223343   1.146   0.200   2.515 -0.1950 -0.6481  0.3499
 3961SOL     OW23344   3.261   1.649   6.280 -0.1237  0.0669 -0.7077
 3961SOL    HW123345   3.223   1.734   6.303 -0.2345 -0.2746  0.3868
 3961SOL    HW223346   3.184   1.595   6.299  0.4680 -1.4260 -2.4593
 3962SOL     OW23347   3.188   0.665   2.255  0.4365 -0.0048 -0.3440
 3962SOL    HW123348   3.160   0.617   2.333 -1.1468  1.7332  0.1766
 3962SOL    HW223349   3.250   0.723   2.300 -0.3094  0.1509  0.4885
 3963SOL     OW23350   4.718   0.061   5.484 -0.7081 -0.1628  0.5211
 3963SOL    HW123351   4.695   0.064   5.392 -1.1958 -1.2518  0.6055
 3963SOL    HW223352   0.084   0.024   5.490  0.2803  1.8445 -1.7857
 3964SOL     OW23353   0.943   3.130   9.179  0.5180  0.0537 -0.0024
 3964SOL    HW123354   0.949   3.075   9.258 -1.6313 -2.0312 -1.2920
 3964SOL    HW223355   0.953   3.219   9.211 -0.1736  0.2897 -0.4280
 3965SOL     OW23356   2.035   0.635   4.077 -0.1264 -0.1813  0.2568
 3965SOL    HW123357   1.943   0.637   4.103  0.2489 -1.5527  1.6427
 3965SOL    HW223358   2.046   0.549   4.037 -1.4690  0.1549 -0.8109
 3966SOL     OW23359   0.759   0.230   3.970 -0.2119 -0.1668  0.4605
 3966SOL    HW123360   0.687   0.261   4.025 -1.7542 -0.8374 -1.1834
 3966SOL    HW223361   0.694   0.196   3.909 -0.1254 -2.0303  1.4019
 3967SOL     OW23362   4.123   2.664   6.888 -0.2444 -0.3184  0.7812
 3967SOL    HW123363   4.148   2.676   6.980  2.1726 -1.1940  0.2499
 3967SOL    HW223364   4.069   2.586   6.897 -0.4558 -0.2186  0.3919
 3968SOL     OW23365   2.639   4.721   9.020 -0.1076 -0.2013 -0.3209
 3968SOL    HW123366   2.680   4.646   9.064  0.0186 -0.5164 -0.9749
 3968SOL    HW223367   2.574   4.670   8.972  0.1726 -1.3409  0.5149
 3969SOL     OW23368   1.251   3.057   9.102 -0.3523  0.2267 -0.2924
 3969SOL    HW123369   1.229   3.146   9.129  1.8067  0.2166  1.4689
 3969SOL    HW223370   1.204   2.998   9.162 -1.2332 -0.0098 -1.2071
 3970SOL     OW23371   0.732   0.438  10.503  0.2652 -0.6913  0.1958
 3970SOL    HW123372   0.672   0.447  10.429  0.5490 -0.1340  0.0344
 3970SOL    HW223373   0.672   0.405  10.570 -0.2904  0.4219  0.2398
 3971SOL     OW23374   3.408   1.101   7.974  0.3689 -0.0951 -0.1745
 3971SOL    HW123375   3.315   1.085   7.958  0.0221  0.8333  0.8624
 3971SOL    HW223376   3.437   1.011   7.988 -1.2705 -0.1412  2.9715
 3972SOL     OW23377   1.670   3.823   4.949 -0.0995  0.9610 -0.7116
 3972SOL    HW123378   1.619   3.857   4.876 -0.9648 -0.0351 -0.5748
 3972SOL    HW223379   1.641   3.892   5.009  2.6288  2.2441 -0.9058
 3973SOL     OW23380   4.051   2.150   7.685 -0.0757  0.3995 -0.4740
 3973SOL    HW123381   4.036   2.057   7.703  2.3304  0.8401  3.7501
 3973SOL    HW223382   4.145   2.144   7.665 -0.0410  0.2962 -0.2843
 3974SOL     OW23383   3.817   0.652   6.493 -0.5014  0.5363  0.1626
 3974SOL    HW123384   3.790   0.741   6.516 -0.9863  0.7754 -1.3292
 3974SOL    HW223385   3.909   0.651   6.465 -0.6175  0.4483 -0.2229
 3975SOL     OW23386   4.040   3.703   8.180 -0.5658  0.0685 -0.4561
 3975SOL    HW123387   4.121   3.722   8.132  0.3616 -1.3497  0.5509
 3975SOL    HW223388   4.005   3.631   8.128 -3.2765  0.4140  0.8901
 3976SOL     OW23389   1.453   4.562   2.493  0.6245  0.5456 -0.3498
 3976SOL    HW123390   1.509   4.535   2.566  1.0203  1.7019 -0.2186
 3976SOL    HW223391   1.466   4.482   2.441  1.2186  1.0600 -1.0022
 3977SOL     OW23392   1.744   1.387   5.716  0.0261  0.2564  0.0427
 3977SOL    HW123393   1.765   1.365   5.625  0.3026  2.6752 -0.4891
 3977SOL    HW223394   1.658   1.428   5.708  1.2145  2.5527 -1.0914
 3978SOL     OW23395   2.871   3.011   2.516 -0.0118 -0.0887 -0.3042
 3978SOL    HW123396   2.961   3.016   2.482  0.0742  2.8104  0.3253
 3978SOL    HW223397   2.846   2.921   2.496  0.6868 -0.5221  0.7714
 3979SOL     OW23398   1.761   0.415  16.982  0.5908 -0.4788 -0.5598
 3979SOL    HW123399   1.820   0.341  16.965  0.2039 -1.3445  1.9571
 3979SOL    HW223400   1.770   0.406  17.077 -0.8854  0.0231 -0.3804
 3980SOL     OW23401   3.896   1.278   6.784 -0.3178  0.2536  0.0021
 3980SOL    HW123402   3.874   1.297   6.875 -0.8292 -1.2142  0.1881
 3980SOL    HW223403   3.964   1.338   6.754  0.1686 -0.3957 -0.1970
 3981SOL     OW23404   2.518   3.297   1.540  0.2719 -0.0336 -0.0496
 3981SOL    HW123405   2.426   3.272   1.529 -0.6053  1.7676  2.9157
 3981SOL    HW223406   2.551   3.242   1.611  0.1787 -0.0361 -0.0085
 3982SOL     OW23407   1.853   2.313  11.701  0.2667 -0.7250  0.0671
 3982SOL    HW123408   1.847   2.253  11.627  1.5485 -0.9075  0.1118
 3982SOL    HW223409   1.913   2.274  11.763  0.7973 -0.4489 -0.2736
 3983SOL     OW23410   3.521   0.370  17.416 -0.0838 -1.0182  0.5179
 3983SOL    HW123411   3.501   0.452  17.372  0.9056 -0.5627  0.9281
 3983SOL    HW223412   3.516   0.411  17.503 -1.2285  1.4165 -0.6945
 3984SOL     OW23413   3.130   3.760  17.646 -0.3136 -0.3224  0.7371
 3984SOL    HW123414   3.140   3.696   0.026 -2.8434 -1.9845 -0.4330
 3984SOL    HW223415   3.111   3.703  17.572  3.5994  0.1035 -0.6157
 3985SOL     OW23416   3.648   4.622   6.763  0.2010 -0.6780 -0.1874
 3985SOL    HW123417   3.652   4.694   6.827 -1.6419 -2.1844  1.6213
 3985SOL    HW223418   3.727   4.627   6.710  0.9904  1.9242  1.2558
 3986SOL     OW23419   1.298   0.446   7.008  0.2940 -0.0201 -0.0909
 3986SOL    HW123420   1.219   0.497   7.022  0.4304 -0.0583  0.7850
 3986SOL    HW223421   1.282   0.365   7.057 -2.0486  1.4879  1.5978
 3987SOL     OW23422   1.585   3.895   3.758 -0.5503  0.2216  0.5193
 3987SOL    HW123423   1.509   3.844   3.788  1.6399 -3.1443  0.3831
 3987SOL    HW223424   1.547   3.982   3.759 -3.7248 -1.1631 -0.1074
 3988SOL     OW23425   2.222   4.348   0.733 -0.0075 -0.4650  0.7634
 3988SOL    HW123426   2.181   4.262   0.731 -0.0884 -0.3962 -0.6522
 3988SOL    HW223427   2.152   4.408   0.708  0.2957 -0.2229  0.4881
 3989SOL     OW23428   0.878   4.521   7.411 -0.1736 -0.2883 -0.3308
 3989SOL    HW123429   0.899   4.445   7.465  0.5867  1.6056  2.0049
 3989SOL    HW223430   0.783   4.525   7.414 -0.1701 -0.4634  0.0132
 3990SOL     OW23431   0.585   4.042   1.419  0.6279  0.0431  0.1405
 3990SOL    HW123432   0.497   4.005   1.430  1.1144 -1.7625 -2.1543
 3990SOL    HW223433   0.621   3.969   1.369 -1.3969 -0.5507 -0.4620
 3991SOL     OW23434   3.125   1.447  10.241 -0.7139  0.1385 -0.0198
 3991SOL    HW123435   3.139   1.509  10.312 -0.6990 -0.0127  0.1108
 3991SOL    HW223436   3.081   1.503  10.177 -1.5293  1.1854  1.4543
 3992SOL     OW23437   1.025   1.490   6.251  0.0904 -0.5141  0.4642
 3992SOL    HW123438   1.018   1.397   6.230 -0.9142 -0.8699  2.3799
 3992SOL    HW223439   1.119   1.489   6.235 -0.2667  0.6608 -1.7971
 3993SOL     OW23440   3.603   3.228   8.093 -0.5268  0.1973  0.6599
 3993SOL    HW123441   3.639   3.272   8.169 -0.6765  0.8246  0.3692
 3993SOL    HW223442   3.515   3.211   8.125  0.0870 -1.9791  1.1681
 3994SOL     OW23443   1.690   2.336   0.061 -0.1735 -0.0159  0.0397
 3994SOL    HW123444   1.731   2.323  17.666  0.0122  0.1914  0.0947
 3994SOL    HW223445   1.609   2.285   0.056 -0.8881  1.2753 -1.5547
 3995SOL     OW23446   4.472   1.091  10.592  0.1494  0.1213  0.3054
 3995SOL    HW123447   4.550   1.145  10.588  2.0296 -2.6607 -0.3325
 3995SOL    HW223448   4.489   1.012  10.541 -0.3188  1.2560 -1.6286
 3996SOL     OW23449   0.825   0.598   6.626 -0.1756  0.5875 -0.1160
 3996SOL    HW123450   0.819   0.532   6.556 -1.0701  0.8774 -0.3114
 3996SOL    HW223451   0.853   0.537   6.695  0.1248  0.2784 -0.5075
 3997SOL     OW23452   1.030   0.404   1.788 -0.5195  0.2555 -0.1281
 3997SOL    HW123453   1.031   0.468   1.717 -0.1041 -0.1560 -0.4926
 3997SOL    HW223454   1.122   0.379   1.789 -0.2117  1.3036 -1.5277
 3998SOL     OW23455   0.957   2.825   6.965 -0.0919 -0.2763 -0.1921
 3998SOL    HW123456   0.928   2.811   7.055  0.9699  1.1871  0.3866
 3998SOL    HW223457   1.025   2.759   6.954  1.6680  1.6547 -1.0918
 3999SOL     OW23458   2.235   0.004   5.742 -0.4706  0.1687  0.5171
 3999SOL    HW123459   2.146   4.709   5.710 -1.3544  0.4161  2.8444
 3999SOL    HW223460   2.238   0.099   5.728  1.1879 -0.0272 -0.4582
 4000SOL     OW23461   0.977   1.299  15.350  0.1285  0.0817 -0.1913
 4000SOL    HW123462   0.951   1.217  15.391 -0.8237  0.9549  0.9513
 4000SOL    HW223463   0.895   1.346  15.363 -0.2567 -0.7210  0.2716
 4001SOL     OW23464   0.661   2.404   0.608 -0.0346  0.1452 -0.5041
 4001SOL    HW123465   0.643   2.457   0.686  0.2832  0.0201 -0.3449
 4001SOL    HW223466   0.570   2.389   0.581  0.3496  1.9254 -2.7762
 4002SOL     OW23467   4.164   2.977  12.096 -0.5296  0.2033  0.1707
 4002SOL    HW123468   4.121   2.936  12.021  0.1350 -0.3532  0.0991
 4002SOL    HW223469   4.134   2.920  12.166 -1.0180  0.7516  0.4121
 4003SOL     OW23470   3.591   2.166  11.791 -0.3765 -0.1931  0.0023
 4003SOL    HW123471   3.532   2.221  11.843  0.8865 -0.4245  1.6882
 4003SOL    HW223472   3.631   2.102  11.850 -2.9004 -1.5588  0.2341
 4004SOL     OW23473   0.315   2.596   4.316  0.1832 -0.5064  0.2849
 4004SOL    HW123474   0.263   2.544   4.378 -0.3251  0.0138  0.3020
 4004SOL    HW223475   0.398   2.603   4.363 -0.4239 -1.8005  1.5418
 4005SOL     OW23476   0.502   1.642   4.553 -0.4019 -0.3962 -0.3581
 4005SOL    HW123477   0.422   1.683   4.519  0.9237  0.9553 -1.8574
 4005SOL    HW223478   0.526   1.593   4.475  2.0394 -0.5000  0.4822
 4006SOL     OW23479   3.705   3.155   1.643  0.2545 -0.2313 -0.1483
 4006SOL    HW123480   3.684   3.065   1.670 -3.7578  0.8508  0.3941
 4006SOL    HW223481   3.760   3.175   1.719  2.4522  1.3492 -2.1666
 4007SOL     OW23482   0.572   0.473   7.627  0.5629 -0.0281 -0.1623
 4007SOL    HW123483   0.635   0.412   7.591 -0.0391 -0.5374 -0.3493
 4007SOL    HW223484   0.615   0.553   7.594 -0.7221 -0.3034 -2.4739
 4008SOL     OW23485   0.309   3.119  13.809  0.0865 -0.0997  0.4517
 4008SOL    HW123486   0.323   3.165  13.891 -2.2769 -0.2293  0.9088
 4008SOL    HW223487   0.356   3.180  13.752 -0.9983  0.4500  0.1420
 4009SOL     OW23488   3.791   3.170   5.890  0.7038 -0.4153  0.1562
 4009SOL    HW123489   3.827   3.081   5.890  1.0688 -0.2689 -0.0427
 4009SOL    HW223490   3.870   3.212   5.924  0.6656 -0.7073  0.6027
 4010SOL     OW23491   3.216   1.119   3.182 -0.0592 -0.5463  0.1931
 4010SOL    HW123492   3.155   1.192   3.194 -0.8876 -0.8583 -2.0531
 4010SOL    HW223493   3.227   1.136   3.088  0.8834 -2.8103 -0.1032
 4011SOL     OW23494   0.317   1.413   5.096 -0.1267  0.6116  0.0703
 4011SOL    HW123495   0.401   1.371   5.115  0.5025  2.0777  0.5537
 4011SOL    HW223496   0.338   1.505   5.112 -0.5162  0.8653 -0.9015
 4012SOL     OW23497   0.345   3.193  10.035  0.3075  0.0699 -0.2014
 4012SOL    HW123498   0.326   3.246  10.113 -0.8111 -2.1284  1.0215
 4012SOL    HW223499   0.439   3.180  10.030  0.0076 -2.0862 -0.1555
 4013SOL     OW23500   3.331   2.006  14.374  0.0771 -0.3828  0.8275
 4013SOL    HW123501   3.324   2.079  14.436 -1.0061 -0.2776  0.5683
 4013SOL    HW223502   3.261   1.951  14.407 -0.5498 -1.4253 -2.2601
 4014SOL     OW23503   0.379   1.550   6.537 -0.2068 -0.0603 -0.6812
 4014SOL    HW123504   0.298   1.578   6.495 -0.8362  1.4197  1.4597
 4014SOL    HW223505   0.343   1.482   6.594  0.7859 -1.2785 -1.5403
 4015SOL     OW23506   3.734   4.129   7.044  1.0391 -0.3391 -0.0727
 4015SOL    HW123507   3.824   4.097   7.035  0.9360 -0.8619  0.7094
 4015SOL    HW223508   3.753   4.223   7.042 -0.2309 -0.0537  1.1125
 4016SOL     OW23509   0.790   4.722   1.224  0.3655  0.0642  0.0186
 4016SOL    HW123510   0.702   0.023   1.193  0.9229  1.8028 -0.2651
 4016SOL    HW223511   0.825   0.089   1.231 -0.0065  0.0213  2.3695
 4017SOL     OW23512   4.471   0.213   9.957  0.0358 -0.0780  0.0568
 4017SOL    HW123513   4.464   0.255  10.043 -2.3493 -0.2650 -0.0363
 4017SOL    HW223514   4.460   0.121   9.984  0.0730  0.2046  1.0276
 4018SOL     OW23515   2.314   4.519   6.437 -0.1367 -0.3272 -0.2131
 4018SOL    HW123516   2.366   4.549   6.512  0.4702 -1.2948 -0.2347
 4018SOL    HW223517   2.277   4.601   6.405  1.0870 -0.5499 -2.2789
 4019SOL     OW23518   1.259   2.927   2.458  0.0647 -0.1925 -0.4092
 4019SOL    HW123519   1.329   2.979   2.498 -0.1506 -0.7082  0.6348
 4019SOL    HW223520   1.303   2.859   2.407  0.8334 -0.8478  1.1156
 4020SOL     OW23521   3.560   1.501   6.922 -0.1927  0.3570  0.0775
 4020SOL    HW123522   3.617   1.442   6.972 -0.3125 -0.6989 -1.0391
 4020SOL    HW223523   3.511   1.540   6.995  3.4427  1.3023  1.9706
 4021SOL     OW23524   3.212   3.508   8.281 -0.0087 -0.0691 -0.2196
 4021SOL    HW123525   3.257   3.427   8.307  0.3086  0.4348  0.7605
 4021SOL    HW223526   3.167   3.487   8.199  0.4268  3.1752 -1.2800
 4022SOL     OW23527   0.104   2.387   1.051  0.1679 -0.5645  0.5558
 4022SOL    HW123528   0.140   2.358   0.967 -1.6235 -0.6392 -0.1851
 4022SOL    HW223529   0.038   2.451   1.026 -0.0832 -1.2520 -0.5311
 4023SOL     OW23530   3.601   2.626   5.583 -0.7495 -0.1371 -0.6152
 4023SOL    HW123531   3.516   2.640   5.626 -0.1961  2.3692 -0.3446
 4023SOL    HW223532   3.638   2.568   5.649  2.5953  0.4719 -1.9964
 4024SOL     OW23533   2.035   0.692   6.067  0.0261 -1.0095  0.5617
 4024SOL    HW123534   1.996   0.645   6.141 -1.4290 -0.7089  0.0000
 4024SOL    HW223535   1.995   0.654   5.989  1.0569  2.7177 -1.8200
 4025SOL     OW23536   0.042   1.853   7.651  0.0017  0.3148  0.6103
 4025SOL    HW123537   0.001   1.770   7.677 -0.6673  0.7183  0.8626
 4025SOL    HW223538   0.104   1.824   7.584 -2.3271 -2.9342 -0.1595
 4026SOL     OW23539   0.572   3.877   7.790  0.2336  0.1360 -0.1232
 4026SOL    HW123540   0.503   3.931   7.751 -0.5433  0.2444  1.4171
 4026SOL    HW223541   0.652   3.928   7.777  0.5063 -0.6339 -1.4882
 4027SOL     OW23542   4.697   1.051   5.683 -0.0940  0.2675  0.1829
 4027SOL    HW123543   4.633   1.021   5.620 -0.0359 -1.2268  0.8438
 4027SOL    HW223544   0.036   0.980   5.702  1.3924  1.9571  1.7794
 4028SOL     OW23545   2.331   4.439   3.868  0.3731  0.4430  0.2845
 4028SOL    HW123546   2.334   4.379   3.793  0.2069  1.6879 -0.7094
 4028SOL    HW223547   2.406   4.493   3.847 -0.3353  1.1675 -0.3644
 4029SOL     OW23548   2.755   3.268   5.274  0.6966 -0.4804 -0.6261
 4029SOL    HW123549   2.796   3.320   5.205 -0.2251  0.6741 -0.3077
 4029SOL    HW223550   2.832   3.233   5.318  0.9695 -0.7621 -1.3152
 4030SOL     OW23551   2.347   4.402  10.551  0.1683 -0.4405 -0.1861
 4030SOL    HW123552   2.284   4.466  10.517  0.3420  0.5298  1.3134
 4030SOL    HW223553   2.424   4.457  10.562 -0.6887  0.4971  1.1179
 4031SOL     OW23554   2.891   3.380  10.903 -0.3788 -0.0372 -0.2553
 4031SOL    HW123555   2.877   3.296  10.859  1.6400 -1.2143  1.3837
 4031SOL    HW223556   2.895   3.357  10.996 -3.0859  0.9864  0.1184
 4032SOL     OW23557   0.776   1.819   3.926  0.0283 -0.2636 -0.0497
 4032SOL    HW123558   0.691   1.819   3.883 -0.3061  3.2264  0.6078
 4032SOL    HW223559   0.824   1.750   3.881 -1.9338 -0.2936 -2.0884
 4033SOL     OW23560   1.575   3.668  14.458 -0.2021 -0.1142 -0.2334
 4033SOL    HW123561   1.550   3.758  14.436  0.2824 -0.7751 -3.4381
 4033SOL    HW223562   1.593   3.672  14.552 -2.7402 -0.0221  0.2367
 4034SOL     OW23563   0.370   2.366   8.019 -0.0408  0.2033  0.4440
 4034SOL    HW123564   0.393   2.457   8.036  1.8952  0.1720 -1.8657
 4034SOL    HW223565   0.461   2.342   8.000  0.3531  2.9245 -1.1116
 4035SOL     OW23566   1.015   4.644   0.397  0.1421  0.4785 -0.0078
 4035SOL    HW123567   1.093   4.622   0.346  0.7714 -0.3284  1.3070
 4035SOL    HW223568   1.045   4.667   0.485 -0.1233  4.3987 -0.9345
 4036SOL     OW23569   0.353   2.831   6.600  0.2158 -0.0244 -0.0629
 4036SOL    HW123570   0.306   2.767   6.546 -0.7295 -0.0905  0.8397
 4036SOL    HW223571   0.414   2.859   6.531 -0.0048  1.2277  0.2448
 4037SOL     OW23572   3.611   1.920   2.515 -0.4789  0.5346  0.1909
 4037SOL    HW123573   3.552   1.886   2.448  1.9609 -2.8985 -0.1962
 4037SOL    HW223574   3.637   1.999   2.468 -0.8205  0.7625  0.3834
 4038SOL     OW23575   2.989   3.738   2.578  0.3887  0.1260 -0.7618
 4038SOL    HW123576   3.063   3.682   2.556 -0.4593 -1.8151  1.3141
 4038SOL    HW223577   3.002   3.807   2.514  0.0090  0.4442 -0.4961
 4039SOL     OW23578   1.314   4.313   3.156 -0.1796 -0.2926 -0.0071
 4039SOL    HW123579   1.324   4.234   3.209 -0.6136 -1.0112 -0.9957
 4039SOL    HW223580   1.358   4.381   3.208  1.6116 -0.9952 -0.5978
 4040SOL     OW23581   4.040   1.293   4.762 -0.2038  0.3659 -0.1342
 4040SOL    HW123582   4.103   1.365   4.753 -0.3655  0.7568  1.8752
 4040SOL    HW223583   3.969   1.340   4.806 -1.1784 -0.7233 -0.5649
 4041SOL     OW23584   4.412   0.144   6.577  0.3704 -0.4804  0.1826
 4041SOL    HW123585   4.387   0.125   6.667 -3.6959 -1.3283 -1.1172
 4041SOL    HW223586   4.502   0.172   6.587  0.1544 -0.3971  1.8165
 4042SOL     OW23587   3.829   2.225  16.201 -0.4359  0.4930 -0.0691
 4042SOL    HW123588   3.751   2.217  16.256  0.6902 -1.1658  1.3220
 4042SOL    HW223589   3.787   2.220  16.115  0.5922  1.5531 -0.6373
 4043SOL     OW23590   2.552   3.193   3.421  0.0251 -0.2659 -0.1408
 4043SOL    HW123591   2.598   3.145   3.352  1.5063 -0.0725  0.7248
 4043SOL    HW223592   2.608   3.267   3.442 -0.8050 -0.0152  1.1441
 4044SOL     OW23593   1.839   3.883   6.025 -0.2716 -0.1681 -0.0503
 4044SOL    HW123594   1.867   3.917   6.110 -0.1026  0.1128 -0.2166
 4044SOL    HW223595   1.886   3.942   5.965 -3.8512  0.0023 -2.7156
 4045SOL     OW23596   3.258   1.643  10.444 -0.2610  0.3757  0.0785
 4045SOL    HW123597   3.328   1.698  10.407  2.2470 -3.0607 -0.2079
 4045SOL    HW223598   3.184   1.703  10.443  0.2290  0.9703 -1.0797
 4046SOL     OW23599   1.640   4.349   1.394  0.7629  0.0037 -0.6244
 4046SOL    HW123600   1.645   4.293   1.472 -3.0566  1.0332  0.3630
 4046SOL    HW223601   1.672   4.284   1.333  0.2802  1.2977 -2.2603
 4047SOL     OW23602   1.192   1.435   5.944  0.0077  0.0177  0.7739
 4047SOL    HW123603   1.219   1.344   5.940  1.5692  0.4600  1.1703
 4047SOL    HW223604   1.278   1.475   5.960  0.2848 -0.6069  0.8230
 4048SOL     OW23605   0.379   1.817  11.742 -0.1318 -0.3076 -0.5872
 4048SOL    HW123606   0.310   1.868  11.700 -0.5986  1.4040  2.2857
 4048SOL    HW223607   0.447   1.824  11.675  1.2027 -1.3984  0.6561
 4049SOL     OW23608   0.047   3.089   3.857 -0.6603  0.0088 -0.3271
 4049SOL    HW123609   0.096   3.171   3.865 -0.7839 -0.1372  1.8927
 4049SOL    HW223610   4.681   3.122   3.844 -0.2193  0.6057 -1.7940
 4050SOL     OW23611   3.552   0.077   1.459  0.1640 -0.0076  0.3293
 4050SOL    HW123612   3.642   0.048   1.472  0.5744  1.0118 -0.2391
 4050SOL    HW223613   3.509   0.025   1.527  0.4660  0.6483  1.0185
 4051SOL     OW23614   0.529   0.054   1.170  0.4398 -0.4549 -0.5063
 4051SOL    HW123615   0.548   0.145   1.149  3.2085 -0.3240  2.6510
 4051SOL    HW223616   0.456   0.059   1.231  0.7085  0.4918 -0.2657
 4052SOL     OW23617   2.997   1.217   9.767 -0.1030  0.4273  0.2184
 4052SOL    HW123618   2.945   1.146   9.806  3.4368 -0.4517  3.3759
 4052SOL    HW223619   2.930   1.284   9.781 -1.3112 -0.5604 -0.7562
 4053SOL     OW23620   4.491   3.306  12.385 -0.5832  0.6177  0.6903
 4053SOL    HW123621   4.524   3.368  12.449  1.4535  0.2397 -0.0097
 4053SOL    HW223622   4.481   3.353  12.303 -0.5861  2.0514  1.5238
 4054SOL     OW23623   4.070   3.056   2.792 -0.0978  0.2871 -0.3600
 4054SOL    HW123624   4.060   3.051   2.697 -0.0742 -1.5536 -0.2635
 4054SOL    HW223625   4.128   2.980   2.799  0.1293  0.4011 -1.0054
 4055SOL     OW23626   2.079   0.852   9.807  0.1324 -0.3639  0.3320
 4055SOL    HW123627   2.071   0.794   9.731  1.5485 -1.1740  0.7934
 4055SOL    HW223628   1.999   0.828   9.853  0.0646  0.6004  0.7068
 4056SOL     OW23629   1.692   1.303   8.396  0.0401 -0.3628  0.2517
 4056SOL    HW123630   1.707   1.248   8.473 -1.1857 -0.0008  0.7531
 4056SOL    HW223631   1.601   1.329   8.411 -0.8597 -4.1597  1.3352
 4057SOL     OW23632   1.731   2.447   6.987 -0.5114  0.5990  0.0180
 4057SOL    HW123633   1.747   2.422   7.078 -1.4273  0.0960  0.0302
 4057SOL    HW223634   1.766   2.536   6.978  3.4529 -1.0428 -0.7463
 4058SOL     OW23635   0.758   2.570  13.198 -0.1057  0.5251 -0.0908
 4058SOL    HW123636   0.700   2.644  13.178 -0.4290 -0.0236 -1.1985
 4058SOL    HW223637   0.818   2.600  13.266 -1.4444 -1.7115  2.0780
 4059SOL     OW23638   3.819   1.026   8.687  0.3011 -0.3212  0.0944
 4059SOL    HW123639   3.737   1.039   8.640  2.3048  2.3298 -2.7062
 4059SOL    HW223640   3.857   0.956   8.633 -2.2238 -0.8905 -0.9139
 4060SOL     OW23641   1.909   2.000   3.909 -0.0062  0.5496 -0.6312
 4060SOL    HW123642   1.955   2.076   3.875 -1.7048  1.6670 -0.4266
 4060SOL    HW223643   1.981   1.962   3.959 -0.6954  1.2810  0.9158
 4061SOL     OW23644   1.279   2.106   3.455  0.1450  0.1465  0.1873
 4061SOL    HW123645   1.227   2.122   3.376 -0.4447 -1.2565  0.2888
 4061SOL    HW223646   1.358   2.159   3.443  0.1179  0.0301 -0.5062
 4062SOL     OW23647   2.534   1.408   0.648  0.7255 -0.3190 -0.6370
 4062SOL    HW123648   2.463   1.424   0.586  1.1153 -1.8916 -1.4935
 4062SOL    HW223649   2.489   1.416   0.732  0.3981  0.2141 -0.8618
 4063SOL     OW23650   3.656   0.299   1.963  0.3422 -0.1178  0.4306
 4063SOL    HW123651   3.727   0.362   1.974  1.3778 -0.9696 -1.2306
 4063SOL    HW223652   3.663   0.273   1.871  1.7280 -1.8576  1.0231
 4064SOL     OW23653   3.615   0.684   1.497  0.3825  0.1158  0.5050
 4064SOL    HW123654   3.664   0.639   1.566  0.0668  0.4819  0.9695
 4064SOL    HW223655   3.646   0.773   1.513 -2.1642  1.2218 -0.7459
 4065SOL     OW23656   1.480   1.792  13.130 -0.7430  0.1183  0.0364
 4065SOL    HW123657   1.540   1.837  13.189  0.7147 -1.4347 -0.2693
 4065SOL    HW223658   1.544   1.751  13.072 -1.7469  0.0660 -1.0248
 4066SOL     OW23659   1.289   2.194   7.007 -0.5798 -0.0525 -1.0912
 4066SOL    HW123660   1.340   2.270   6.978  1.1282 -0.4550  0.8833
 4066SOL    HW223661   1.205   2.239   7.021 -1.1362 -1.4702  0.1332
 4067SOL     OW23662   3.407   4.174   3.461 -0.2343  0.1615  0.6332
 4067SOL    HW123663   3.384   4.117   3.534  1.3285 -0.9231  0.2890
 4067SOL    HW223664   3.371   4.127   3.386  1.2507 -0.6480  0.4168
 4068SOL     OW23665   2.950   0.797   4.399  0.2874 -0.5867  0.1525
 4068SOL    HW123666   2.959   0.808   4.304  0.4474 -0.3951  0.1893
 4068SOL    HW223667   2.865   0.753   4.399  0.6483 -1.2841  0.2264
 4069SOL     OW23668   0.718   1.755   6.122  1.1697 -0.0430  0.3781
 4069SOL    HW123669   0.681   1.730   6.207 -1.3612  2.0525 -0.0915
 4069SOL    HW223670   0.737   1.847   6.140 -0.4886  0.1428  1.1838
 4070SOL     OW23671   2.642   1.011   2.929 -0.6814 -0.6238 -0.2636
 4070SOL    HW123672   2.564   1.021   2.984  0.2865 -0.8437  1.1569
 4070SOL    HW223673   2.637   1.087   2.871 -0.9006 -0.7257 -0.3773
 4071SOL     OW23674   0.863   4.625   8.072  0.4016 -0.8225  0.1739
 4071SOL    HW123675   0.924   4.635   8.145  0.3239 -0.4657  0.1886
 4071SOL    HW223676   0.807   4.702   8.084  2.8479  1.0616 -0.4969
 4072SOL     OW23677   1.009   3.483   8.858  0.2499  0.8939  0.1031
 4072SOL    HW123678   0.941   3.532   8.812  0.3669  1.9387  1.0395
 4072SOL    HW223679   0.964   3.413   8.905  0.5722 -0.8747 -2.2077
 4073SOL     OW23680   3.735   4.419   6.383 -0.3309 -0.2945  0.4620
 4073SOL    HW123681   3.738   4.515   6.375  0.5436 -0.3011  0.6127
 4073SOL    HW223682   3.675   4.410   6.456 -0.5967 -3.9647 -0.2302
 4074SOL     OW23683   3.618   2.636   5.072  0.3327  0.5959  0.5915
 4074SOL    HW123684   3.523   2.624   5.079  0.3330  0.8203  0.9905
 4074SOL    HW223685   3.637   2.623   4.979  0.0301 -0.6103  0.7028
 4075SOL     OW23686   3.264   2.370   7.569 -0.3255  0.4176 -0.0585
 4075SOL    HW123687   3.248   2.443   7.509  0.4388  0.3995 -0.2867
 4075SOL    HW223688   3.296   2.305   7.507  1.1380  1.4736 -0.4012
 4076SOL     OW23689   0.526   2.560   4.769  0.0783  0.5037  0.0190
 4076SOL    HW123690   0.552   2.468   4.783  0.9705  0.5873 -1.0862
 4076SOL    HW223691   0.572   2.606   4.840 -1.8228  0.7341  1.0820
 4077SOL     OW23692   4.364   4.053   4.960 -1.0005  0.3977 -0.2641
 4077SOL    HW123693   4.406   4.014   4.884 -1.2973  0.4567 -0.4605
 4077SOL    HW223694   4.373   3.978   5.018  1.0123  2.3992  2.0124
 4078SOL     OW23695   1.983   0.915   6.436 -0.5252  0.1528 -0.0198
 4078SOL    HW123696   1.990   1.010   6.439  1.6141  0.0082 -0.3175
 4078SOL    HW223697   2.071   0.885   6.462 -1.1180 -1.7053 -0.1596
 4079SOL     OW23698   1.731   1.610   3.599 -0.2802 -0.4290  0.7154
 4079SOL    HW123699   1.687   1.692   3.621 -1.2594 -0.6777 -0.3726
 4079SOL    HW223700   1.719   1.568   3.685  3.3078  0.3630  1.6119
 4080SOL     OW23701   0.024   0.515  11.278  0.9442  0.6102  0.0628
 4080SOL    HW123702   4.685   0.442  11.272  3.7650 -1.6829 -1.4335
 4080SOL    HW223703   4.692   0.567  11.336 -0.6798 -0.2992 -0.6492
 4081SOL     OW23704   3.881   0.916  15.780  0.7117  0.2842 -0.1894
 4081SOL    HW123705   3.843   0.895  15.866  1.3559 -1.4322 -0.3301
 4081SOL    HW223706   3.809   0.917  15.717 -0.4566  1.4191  1.1456
 4082SOL     OW23707   4.036   2.727   8.661  0.1854  0.0210 -0.0804
 4082SOL    HW123708   4.084   2.795   8.614 -0.3922  2.8888  3.5072
 4082SOL    HW223709   3.989   2.768   8.733 -2.3014 -0.6135 -1.3370
 4083SOL     OW23710   2.695   2.527   3.428  0.2774 -0.7333 -0.2759
 4083SOL    HW123711   2.602   2.506   3.431 -0.0338  0.5035 -1.2171
 4083SOL    HW223712   2.709   2.576   3.509  0.3419 -1.7330  0.3292
 4084SOL     OW23713   2.511   2.838   4.352  0.0968 -0.2917 -0.3360
 4084SOL    HW123714   2.434   2.807   4.398  1.4130 -2.4106  0.4639
 4084SOL    HW223715   2.502   2.780   4.276 -0.0986 -1.9970  0.9777
 4085SOL     OW23716   0.795   1.213  17.367 -0.6119  0.5331 -0.4279
 4085SOL    HW123717   0.876   1.226  17.319 -0.0061  0.7685  0.6703
 4085SOL    HW223718   0.797   1.117  17.369  1.2094  0.5568 -1.2963
 4086SOL     OW23719   0.100   3.793   4.374 -0.1064 -0.4198 -0.2428
 4086SOL    HW123720   0.165   3.848   4.417 -0.1006 -0.7074  0.1156
 4086SOL    HW223721   0.069   3.750   4.454 -4.5031 -0.7351 -2.0950
 4087SOL     OW23722   2.717   2.350   9.049 -0.3049  0.1557 -0.1872
 4087SOL    HW123723   2.630   2.314   9.029 -0.8248  1.2376  0.1652
 4087SOL    HW223724   2.743   2.273   9.100 -2.0342 -0.8563 -0.8399
 4088SOL     OW23725   4.503   4.525   2.744 -0.1000  0.3995 -0.2199
 4088SOL    HW123726   4.429   4.578   2.771 -1.5817 -1.1714 -1.1671
 4088SOL    HW223727   4.537   4.587   2.679 -1.0419  0.9423 -0.1875
 4089SOL     OW23728   1.124   3.625  10.293  0.4572  0.0614  0.5766
 4089SOL    HW123729   1.113   3.665  10.207 -1.1953  2.5401  1.9184
 4089SOL    HW223730   1.033   3.628  10.324  0.1666 -2.1971 -0.0424
 4090SOL     OW23731   3.579   4.532   1.249 -0.2849  0.3628  0.2168
 4090SOL    HW123732   3.484   4.532   1.241 -0.1708 -1.0035 -1.2401
 4090SOL    HW223733   3.588   4.509   1.341  1.8032 -1.5953 -0.4616
 4091SOL     OW23734   4.420   1.852  14.982  0.1595 -0.0285  0.6962
 4091SOL    HW123735   4.446   1.868  15.073  0.1737 -3.3078  1.2722
 4091SOL    HW223736   4.468   1.911  14.924  1.7597 -0.5354  1.4888
 4092SOL     OW23737   2.306   1.150   5.091  0.0419  0.3479 -0.1291
 4092SOL    HW123738   2.268   1.153   5.003 -0.6842  2.8515  0.2538
 4092SOL    HW223739   2.233   1.178   5.146 -1.6546  0.6293 -2.5034
 4093SOL     OW23740   1.382   0.310  11.902  0.1632  0.1159 -0.7103
 4093SOL    HW123741   1.309   0.259  11.938  0.2153 -0.5079 -1.5045
 4093SOL    HW223742   1.453   0.259  11.941 -1.1891 -2.2955 -1.4331
 4094SOL     OW23743   3.073   3.864   6.639 -0.2708 -0.0111  0.1430
 4094SOL    HW123744   3.052   3.818   6.559 -1.8538 -0.7489  0.9792
 4094SOL    HW223745   3.135   3.812   6.690 -1.4433 -0.9523  0.5968
 4095SOL     OW23746   4.323   0.489   9.134 -0.1131  0.3512  0.1097
 4095SOL    HW123747   4.284   0.405   9.157 -3.7101  1.8143 -0.6723
 4095SOL    HW223748   4.416   0.466   9.134 -0.1134  0.3483  1.6223
 4096SOL     OW23749   3.136   0.424   0.417  0.5673  0.1574  0.2861
 4096SOL    HW123750   3.142   0.330   0.436  0.3135  0.0404 -0.2180
 4096SOL    HW223751   3.080   0.444   0.491  0.4873  0.0667  0.2504
 4097SOL     OW23752   1.541   3.870   7.106 -0.1736  0.1613  0.0961
 4097SOL    HW123753   1.495   3.791   7.135  0.3617 -0.7617 -1.5651
 4097SOL    HW223754   1.602   3.827   7.046  0.1537  1.5131 -0.5140
 4098SOL     OW23755   2.154   4.126   7.445  0.1850  0.3144 -0.3327
 4098SOL    HW123756   2.128   4.179   7.521  1.2083 -1.7511  1.4675
 4098SOL    HW223757   2.096   4.054   7.469  1.2662 -0.3650  0.2613
 4099SOL     OW23758   1.085   0.402   8.619  0.3717  0.1754  0.2376
 4099SOL    HW123759   1.096   0.313   8.586 -0.2729  1.1839 -2.7090
 4099SOL    HW223760   1.177   0.424   8.605  1.2833 -2.3307  2.2962
 4100SOL     OW23761   2.572   1.698   7.350  0.2460 -0.4502  0.0645
 4100SOL    HW123762   2.532   1.758   7.412  0.3390 -1.9293  1.5546
 4100SOL    HW223763   2.635   1.650   7.404  0.8858  1.7709  1.3151
 4101SOL     OW23764   1.642   3.445   8.045  0.0827  0.2357 -0.7638
 4101SOL    HW123765   1.601   3.369   8.003  1.3002 -0.8232 -0.0329
 4101SOL    HW223766   1.583   3.453   8.119 -1.1237  1.4852 -1.8577
 4102SOL     OW23767   2.951   0.282   1.784 -0.0928 -0.5977 -0.0780
 4102SOL    HW123768   3.025   0.241   1.829  0.2675  0.5744  0.3673
 4102SOL    HW223769   2.900   0.206   1.754  1.4678 -1.4384 -0.5839
 4103SOL     OW23770   2.059   2.487  15.779 -0.0175  0.5119  0.1523
 4103SOL    HW123771   2.154   2.473  15.780 -0.1101 -0.0027  1.6748
 4103SOL    HW223772   2.062   2.570  15.731  0.7926 -1.0598 -2.5415
 4104SOL     OW23773   3.679   0.669   2.804 -0.5097 -0.5150 -0.1260
 4104SOL    HW123774   3.645   0.608   2.870 -0.2097  0.3517  0.8378
 4104SOL    HW223775   3.596   0.676   2.757  1.0025 -0.6617 -2.7999
 4105SOL     OW23776   2.271   1.736  13.506 -0.1332 -0.3379 -0.3390
 4105SOL    HW123777   2.236   1.682  13.435  0.1496 -2.0986  0.8567
 4105SOL    HW223778   2.208   1.713  13.575  0.3385  1.6771  0.7362
 4106SOL     OW23779   0.653   4.307   3.123  0.0762 -0.9401 -0.4226
 4106SOL    HW123780   0.745   4.330   3.134 -0.2388  0.0652  0.0512
 4106SOL    HW223781   0.655   4.212   3.136  0.9184 -0.7887  0.5733
 4107SOL     OW23782   0.452   3.576   6.626 -0.5763 -0.1902  0.8847
 4107SOL    HW123783   0.504   3.518   6.569 -1.3106  0.2051 -0.1826
 4107SOL    HW223784   0.362   3.574   6.593 -0.2724 -1.5359  0.1180
 4108SOL     OW23785   3.702   0.827  12.823  0.3112 -0.0886 -0.1130
 4108SOL    HW123786   3.724   0.765  12.892  2.1122  0.1456 -0.4900
 4108SOL    HW223787   3.607   0.828  12.837  0.4609 -2.6638  1.0752
 4109SOL     OW23788   0.682   3.837  15.030  0.0122  0.4095 -0.0290
 4109SOL    HW123789   0.712   3.905  14.970  2.3411 -0.1569  0.4943
 4109SOL    HW223790   0.589   3.834  15.005 -0.8821  1.6718  3.1596
 4110SOL     OW23791   4.291   1.360  16.902  0.2347  0.7766  0.5039
 4110SOL    HW123792   4.374   1.337  16.860 -0.5559  0.1756 -0.7228
 4110SOL    HW223793   4.320   1.426  16.965 -0.6878  0.4881  1.2286
 4111SOL     OW23794   3.629   2.490  12.458 -0.0845 -0.2652  0.4748
 4111SOL    HW123795   3.660   2.548  12.528 -2.7369 -0.4750  1.8103
 4111SOL    HW223796   3.672   2.536  12.386  2.0703 -1.7605  0.7874
 4112SOL     OW23797   1.012   4.129   5.422 -0.0107  0.0301 -0.2222
 4112SOL    HW123798   0.917   4.141   5.431 -0.2330 -0.4278 -1.9401
 4112SOL    HW223799   1.041   4.184   5.494  0.7010 -0.3234 -0.2445
 4113SOL     OW23800   0.241   1.304   6.634  0.9392 -0.3194  0.4449
 4113SOL    HW123801   0.223   1.232   6.575 -0.7407  0.2298  0.2879
 4113SOL    HW223802   0.329   1.283   6.667  1.5170 -1.5454 -1.9081
 4114SOL     OW23803   2.171   2.689   5.576  0.2111 -0.4007 -0.2252
 4114SOL    HW123804   2.221   2.765   5.547  0.5654 -0.4179  0.3372
 4114SOL    HW223805   2.098   2.733   5.620  0.1657 -1.1979  0.4996
 4115SOL     OW23806   0.127   4.146  14.836  0.0465 -0.0406  0.5491
 4115SOL    HW123807   0.037   4.125  14.864 -0.3748 -0.2467 -0.9328
 4115SOL    HW223808   0.162   4.186  14.915  2.1632 -0.7547 -0.0244
 4116SOL     OW23809   0.387   1.490   3.358  0.0163  0.0475  0.3664
 4116SOL    HW123810   0.345   1.489   3.272 -0.9149 -0.3581  0.8208
 4116SOL    HW223811   0.465   1.435   3.359  0.1298  0.2133  1.3923
 4117SOL     OW23812   0.822   0.712   5.901  0.6503  0.4515  0.1865
 4117SOL    HW123813   0.820   0.801   5.934 -0.4740  0.4169  0.2035
 4117SOL    HW223814   0.897   0.714   5.841  1.0018 -0.0077  0.6128
 4118SOL     OW23815   1.079   1.202  16.140 -0.1430  0.7458  0.4212
 4118SOL    HW123816   1.145   1.193  16.071  0.2533  1.2109  0.7423
 4118SOL    HW223817   1.012   1.136  16.122  1.4665 -1.2433  1.7277
 4119SOL     OW23818   0.223   3.334   4.227 -0.1073  0.1715  0.5684
 4119SOL    HW123819   0.228   3.314   4.133  0.6153 -0.3311  0.7178
 4119SOL    HW223820   0.164   3.410   4.225 -0.0682  0.1495 -1.2075
 4120SOL     OW23821   2.207   4.715   0.508 -0.4181 -0.2001 -0.2610
 4120SOL    HW123822   2.143   4.653   0.545  0.0917 -0.8078 -0.4019
 4120SOL    HW223823   2.271   4.646   0.491  0.2182  0.4141 -0.3457
 4121SOL     OW23824   2.068   2.429   4.581  0.1175 -0.1865 -0.7408
 4121SOL    HW123825   1.994   2.489   4.585 -0.2489 -0.6996  0.0868
 4121SOL    HW223826   2.061   2.388   4.667  1.6830  0.7611 -0.1450
 4122SOL     OW23827   4.272   3.654   3.823 -1.1342  0.2564  0.6357
 4122SOL    HW123828   4.252   3.560   3.825 -2.6925  0.6261  2.0393
 4122SOL    HW223829   4.255   3.668   3.729 -2.0901 -1.4063  0.5451
 4123SOL     OW23830   1.487   4.050   1.484  0.8670  0.4370 -0.2976
 4123SOL    HW123831   1.547   3.980   1.457 -0.7949 -1.5022  0.9943
 4123SOL    HW223832   1.485   4.090   1.398  0.6615  0.2177 -0.3953
 4124SOL     OW23833   0.630   3.556   3.549 -0.1188  0.1285 -0.4486
 4124SOL    HW123834   0.545   3.529   3.515 -0.5674 -0.2837  1.0054
 4124SOL    HW223835   0.681   3.476   3.538 -0.3397 -0.0940  0.1714
 4125SOL     OW23836   2.589   2.718   8.749 -0.2865 -0.5641 -0.4013
 4125SOL    HW123837   2.519   2.702   8.812  1.9277 -3.4586  1.3041
 4125SOL    HW223838   2.639   2.785   8.796 -0.3274 -0.7849 -0.0429
 4126SOL     OW23839   0.551   1.494  13.814 -0.3416  0.0992 -0.3993
 4126SOL    HW123840   0.467   1.497  13.767 -0.2820 -0.5406 -0.5477
 4126SOL    HW223841   0.527   1.549  13.889 -0.7617 -1.9928  0.9933
 4127SOL     OW23842   0.594   1.572  13.194 -0.0161  0.4119 -0.3770
 4127SOL    HW123843   0.505   1.605  13.207  0.0965  0.1200  1.0941
 4127SOL    HW223844   0.608   1.528  13.278 -2.0944 -1.8003 -1.2063
 4128SOL     OW23845   0.606   3.949  15.479  0.4668 -0.1490  0.4516
 4128SOL    HW123846   0.641   4.010  15.544 -1.1729  0.7570  0.4934
 4128SOL    HW223847   0.656   3.978  15.402 -0.7375  1.8577  0.4156
 4129SOL     OW23848   1.274   1.391   2.389  0.6871  0.0386  0.5981
 4129SOL    HW123849   1.307   1.441   2.314 -1.8672 -0.7201 -1.0471
 4129SOL    HW223850   1.190   1.436   2.394 -0.2837 -1.7948  0.4766
 4130SOL     OW23851   0.738   1.174  10.310 -0.6799 -0.3169  0.3102
 4130SOL    HW123852   0.697   1.096  10.271 -0.4990 -0.3706  0.2258
 4130SOL    HW223853   0.813   1.141  10.358  0.2839 -1.4625 -1.9777
 4131SOL     OW23854   0.680   3.910  16.922 -0.0199  0.2892  0.2264
 4131SOL    HW123855   0.676   3.863  17.006 -2.6895  1.0597  0.5213
 4131SOL    HW223856   0.655   4.000  16.943 -0.9779 -0.1477  0.9481
 4132SOL     OW23857   2.665   3.748   3.548  0.0740 -0.1286 -0.6118
 4132SOL    HW123858   2.701   3.797   3.474  0.4668  0.8614  0.2304
 4132SOL    HW223859   2.695   3.808   3.616 -2.9448 -0.2753  0.8201
 4133SOL     OW23860   1.930   1.055   8.412 -0.2989 -0.2002 -0.3852
 4133SOL    HW123861   1.977   1.138   8.418  0.2624 -0.4381 -1.6093
 4133SOL    HW223862   2.004   0.994   8.408  0.4558  0.7060 -0.1699
 4134SOL     OW23863   3.202   1.601  11.131  0.3046  0.8620  0.6347
 4134SOL    HW123864   3.286   1.629  11.167  0.4950  0.3501  0.5842
 4134SOL    HW223865   3.156   1.684  11.142 -0.8212  0.4202 -0.7912
 4135SOL     OW23866   3.011   3.111   9.031  0.1751  0.9196 -0.5489
 4135SOL    HW123867   2.925   3.133   8.997 -0.5704 -0.5146  0.4073
 4135SOL    HW223868   3.069   3.170   8.983  1.5034 -0.5939 -0.8273
 4136SOL     OW23869   4.157   0.000  10.359  0.4659  0.5401 -0.0655
 4136SOL    HW123870   4.067   0.017  10.331  0.3113  0.0346  0.1236
 4136SOL    HW223871   4.167   0.062  10.432  0.4902  0.5908 -0.1117
 4137SOL     OW23872   2.377   1.915   5.175 -0.4486 -0.1662 -0.1124
 4137SOL    HW123873   2.327   1.834   5.183 -1.1659  0.0404 -2.3491
 4137SOL    HW223874   2.434   1.901   5.250  0.4887  2.1876 -0.3819
 4138SOL     OW23875   3.338   3.603   2.890 -0.0897  0.0727  0.0091
 4138SOL    HW123876   3.292   3.669   2.839 -0.8735  1.4787  2.5312
 4138SOL    HW223877   3.428   3.635   2.886  0.0942 -0.4686 -0.1143
 4139SOL     OW23878   2.630   1.486   9.500  0.2050 -0.5917 -0.0026
 4139SOL    HW123879   2.674   1.495   9.416  3.1103 -0.3776  1.5299
 4139SOL    HW223880   2.687   1.420   9.540  0.9670 -0.2488 -0.5196
 4140SOL     OW23881   0.718   4.305   6.211 -0.2925 -0.1317 -0.5192
 4140SOL    HW123882   0.701   4.215   6.182 -2.5822 -0.5819  2.3089
 4140SOL    HW223883   0.628   4.332   6.224  0.3523  1.2851  1.0384
 4141SOL     OW23884   2.289   3.352  11.969 -0.1758 -0.5216 -0.1952
 4141SOL    HW123885   2.333   3.350  11.884 -1.8740  0.0806 -1.0664
 4141SOL    HW223886   2.345   3.295  12.022 -0.5012  0.4771  1.2353
 4142SOL     OW23887   1.530   2.685   4.365  0.4686 -0.1982  0.1777
 4142SOL    HW123888   1.478   2.627   4.421 -2.1235  1.9977 -0.0237
 4142SOL    HW223889   1.542   2.755   4.430  0.7742 -0.7686  0.7430
 4143SOL     OW23890   1.019   1.264   3.011 -0.1825 -0.0856 -0.1122
 4143SOL    HW123891   0.931   1.225   3.013  0.3841 -1.3165  0.3669
 4143SOL    HW223892   1.077   1.195   2.980 -1.8475 -1.3823 -0.3598
 4144SOL     OW23893   1.231   1.309   7.099  0.4201  0.4618 -0.3112
 4144SOL    HW123894   1.255   1.357   7.178  0.6155  2.1200 -1.3793
 4144SOL    HW223895   1.305   1.323   7.039 -0.4489 -1.6344 -1.8683
 4145SOL     OW23896   2.843   1.941   5.665 -1.0865 -0.1720 -0.2714
 4145SOL    HW123897   2.861   1.847   5.669 -4.9296 -0.8231  2.3874
 4145SOL    HW223898   2.758   1.953   5.709 -0.8367  0.2212  0.0994
 4146SOL     OW23899   1.309   2.254   6.390  0.1407  0.1784  0.0807
 4146SOL    HW123900   1.359   2.255   6.472 -2.0360 -0.9570  1.4054
 4146SOL    HW223901   1.248   2.185   6.417  0.9561  0.3179  2.2986
 4147SOL     OW23902   4.036   3.263  14.267  0.0023 -0.0067 -0.2666
 4147SOL    HW123903   4.101   3.197  14.241  0.2289 -0.3575  1.2019
 4147SOL    HW223904   3.966   3.237  14.207  1.9018  0.7390 -2.8494
 4148SOL     OW23905   4.539   1.913   4.386 -0.1556  1.0791 -0.0435
 4148SOL    HW123906   4.609   1.973   4.411 -0.7596  1.8860 -0.2496
 4148SOL    HW223907   4.503   1.884   4.469  1.5626  0.6071  0.5332
 4149SOL     OW23908   0.849   1.296   7.536 -0.1509  0.0096  0.0328
 4149SOL    HW123909   0.930   1.247   7.520 -0.5233  0.1731 -2.3420
 4149SOL    HW223910   0.844   1.323   7.444 -3.4720 -1.9909 -0.3887
 4150SOL     OW23911   1.783   4.196   3.903  0.4110  0.0301 -0.4457
 4150SOL    HW123912   1.725   4.272   3.915 -0.0206 -0.4355  0.3761
 4150SOL    HW223913   1.870   4.232   3.890  0.2861  0.0202 -1.3060
 4151SOL     OW23914   2.845   4.006   7.324  0.1454 -0.0098  0.1030
 4151SOL    HW123915   2.761   4.007   7.278  0.3087  1.0812 -0.1809
 4151SOL    HW223916   2.829   4.064   7.399  0.0389  0.5016 -0.3126
 4152SOL     OW23917   2.512   0.986   5.050 -0.2894  0.0951 -0.3257
 4152SOL    HW123918   2.434   1.041   5.058  0.3409  1.0370 -0.6708
 4152SOL    HW223919   2.565   0.992   5.130  0.7670 -1.3807 -0.9310
 4153SOL     OW23920   4.408   0.391   7.058 -0.4871  0.4854  0.5077
 4153SOL    HW123921   4.460   0.343   6.994 -1.9704  0.4878 -0.6950
 4153SOL    HW223922   4.410   0.477   7.015  0.7355  0.3601  0.3112
 4154SOL     OW23923   0.982   3.700   2.939 -0.8175  0.1554 -0.0223
 4154SOL    HW123924   0.934   3.775   2.974 -0.6338 -0.4932  1.6098
 4154SOL    HW223925   0.971   3.722   2.846 -1.0658  1.6045  0.3492
 4155SOL     OW23926   3.639   1.133   0.699  0.0749  0.2456  0.5421
 4155SOL    HW123927   3.686   1.108   0.619  0.8459  0.8241  0.8118
 4155SOL    HW223928   3.707   1.172   0.755  1.6934 -0.7297 -0.7477
 4156SOL     OW23929   4.484   0.003  15.656 -0.7563  0.4267  0.0174
 4156SOL    HW123930   4.538   0.072  15.692 -0.2233  0.6756 -1.2500
 4156SOL    HW223931   4.411   0.060  15.634 -0.7505  1.2201  2.1482
 4157SOL     OW23932   4.278   1.474   5.031  0.4757 -0.1701  0.0987
 4157SOL    HW123933   4.278   1.380   5.013  1.3695 -0.6758  2.7492
 4157SOL    HW223934   4.265   1.506   4.941  0.4308 -1.5012 -0.3775
 4158SOL     OW23935   0.144   2.861   3.130  0.1857 -1.2792  0.1762
 4158SOL    HW123936   0.151   2.791   3.065 -5.5682 -3.1366  1.5612
 4158SOL    HW223937   0.166   2.813   3.209 -1.4388 -1.6689  0.3928
 4159SOL     OW23938   1.202   3.802   3.241 -0.5268 -0.1641  0.1742
 4159SOL    HW123939   1.131   3.849   3.198 -0.6839  0.1827  0.8066
 4159SOL    HW223940   1.155   3.757   3.312 -0.7312 -2.3650 -1.3363
 4160SOL     OW23941   4.168   2.131   6.855  0.6356 -0.5760 -0.1192
 4160SOL    HW123942   4.246   2.105   6.905  0.1699 -0.1404  0.8278
 4160SOL    HW223943   4.203   2.132   6.766  1.1915  0.8672  0.1058
 4161SOL     OW23944   0.970   0.764   8.583 -0.5251 -0.5281 -0.0321
 4161SOL    HW123945   0.964   0.725   8.670 -0.2581 -0.6731 -0.0765
 4161SOL    HW223946   0.896   0.824   8.581 -0.7364 -0.8486 -2.5187
 4162SOL     OW23947   3.060   1.642   7.479 -0.0254 -0.2380 -0.7457
 4162SOL    HW123948   3.039   1.650   7.386 -4.0382 -1.1505  0.0507
 4162SOL    HW223949   2.976   1.647   7.524  0.5024 -0.8394  0.3022
 4163SOL     OW23950   3.410   2.661  10.030  0.1228  0.4601  0.2505
 4163SOL    HW123951   3.410   2.579   9.981 -1.2301  1.3205 -1.1826
 4163SOL    HW223952   3.331   2.675  10.082  0.6413  1.6020  0.7484
 4164SOL     OW23953   0.690   0.722   4.839  0.5480 -0.1457  0.4578
 4164SOL    HW123954   0.727   0.740   4.752  1.3453  0.5747  0.9374
 4164SOL    HW223955   0.596   0.718   4.820  0.6896  0.0579 -0.2988
 4165SOL     OW23956   3.926   4.031   5.762  0.2682 -0.2683 -0.1359
 4165SOL    HW123957   3.967   4.064   5.682 -1.4938 -1.0993 -1.3743
 4165SOL    HW223958   3.879   4.106   5.799 -0.1053 -2.4418  3.8106
 4166SOL     OW23959   2.708   0.111   4.278  0.6521  0.0520 -0.6911
 4166SOL    HW123960   2.802   0.126   4.289  0.3101  1.6376  0.0625
 4166SOL    HW223961   2.679   0.105   4.369 -2.2114 -3.0509 -1.8062
 4167SOL     OW23962   4.656   3.597   9.944 -0.8536 -0.1096  0.2297
 4167SOL    HW123963   4.598   3.569  10.015 -1.4700 -1.2589 -0.7253
 4167SOL    HW223964   0.007   3.536   9.953 -0.5981 -0.0438 -1.4425
 4168SOL     OW23965   2.056   1.921   8.912  0.4279  0.2479 -0.8626
 4168SOL    HW123966   2.025   1.975   8.839  0.0328 -0.6849 -1.3928
 4168SOL    HW223967   2.142   1.959   8.928  0.2183  1.2964 -2.1769
 4169SOL     OW23968   2.594   0.256  10.825  0.0577  0.8504 -0.2291
 4169SOL    HW123969   2.595   0.287  10.735 -0.7869 -1.5097 -1.0466
 4169SOL    HW223970   2.673   0.285  10.870 -0.0453  1.9326 -0.7498
 4170SOL     OW23971   0.944   1.513   4.166 -0.0520  0.2564 -0.7855
 4170SOL    HW123972   0.923   1.606   4.176  1.4859  0.4063  1.0365
 4170SOL    HW223973   1.038   1.524   4.160  0.2124 -1.9367 -0.6152
 4171SOL     OW23974   2.604   1.201   4.314  0.3604  0.0323 -0.3944
 4171SOL    HW123975   2.673   1.205   4.248  1.0941  2.3034  0.5154
 4171SOL    HW223976   2.519   1.207   4.270  0.4164  1.2515 -0.3265
 4172SOL     OW23977   2.861   3.934  13.173 -0.5318 -0.1101  0.8842
 4172SOL    HW123978   2.825   3.852  13.140 -1.2342  0.4375  0.2846
 4172SOL    HW223979   2.857   3.981  13.089 -1.0961 -0.8805  0.4715
 4173SOL     OW23980   0.355   0.414   8.094  0.1488 -0.3755 -0.2136
 4173SOL    HW123981   0.312   0.402   8.009  1.4562 -0.4941 -0.8640
 4173SOL    HW223982   0.322   0.339   8.142 -1.0293  0.9194  0.9895
 4174SOL     OW23983   1.383   0.585   5.052  0.3462 -0.0087 -0.2233
 4174SOL    HW123984   1.310   0.592   4.991  1.2468  0.6544 -1.2169
 4174SOL    HW223985   1.342   0.545   5.129  0.4066  0.1323 -0.1174
 4175SOL     OW23986   0.146   1.610  16.343 -0.0994 -0.2736 -0.6731
 4175SOL    HW123987   0.124   1.700  16.366  1.8043  0.0287 -0.0385
 4175SOL    HW223988   0.219   1.637  16.287  1.0405 -0.3437  0.7857
 4176SOL     OW23989   3.761   0.658   3.885 -0.4764 -0.4359 -0.4075
 4176SOL    HW123990   3.680   0.703   3.862 -1.8075 -2.2752  0.7408
 4176SOL    HW223991   3.794   0.719   3.951 -0.3462 -0.1934 -0.6941
 4177SOL     OW23992   3.327   3.654   3.239 -0.1535 -0.0499 -0.6573
 4177SOL    HW123993   3.419   3.677   3.250 -0.7004  0.8732  1.8239
 4177SOL    HW223994   3.295   3.740   3.212  1.0910  1.3769  2.4378
 4178SOL     OW23995   0.528   0.364   0.011  0.0407 -0.2912  0.4103
 4178SOL    HW123996   0.536   0.371  17.607 -1.3814  2.9773  0.5363
 4178SOL    HW223997   0.591   0.296   0.035  1.0241  0.6820  0.5769
 4179SOL     OW23998   3.214   2.140   5.684 -0.1834 -0.0918  0.0261
 4179SOL    HW123999   3.225   2.046   5.670  1.6831  0.2465 -0.8851
 4179SOL    HW224000   3.152   2.159   5.614 -1.0624 -0.0294  0.8261
 4180SOL     OW24001   2.925   4.288   9.695  0.1358 -0.1700 -0.6437
 4180SOL    HW124002   2.926   4.332   9.610  0.6039 -0.2670 -0.6902
 4180SOL    HW224003   2.894   4.362   9.747 -1.1656 -1.0361 -0.2002
 4181SOL     OW24004   0.896   1.953   9.212 -0.0530 -0.5085 -0.1575
 4181SOL    HW124005   0.805   1.974   9.233  0.7805  1.6652  1.3426
 4181SOL    HW224006   0.940   2.027   9.253 -1.4434  0.1814  0.0847
 4182SOL     OW24007   3.543   4.270   8.286  0.1015  0.0711  0.5531
 4182SOL    HW124008   3.547   4.250   8.192  0.2318 -4.6375  1.5766
 4182SOL    HW224009   3.556   4.364   8.279  1.4217 -0.0598  1.3306
 4183SOL     OW24010   3.804   3.329   2.007 -0.3886  1.0114 -0.6656
 4183SOL    HW124011   3.848   3.298   1.928  0.4448  0.4107  0.0489
 4183SOL    HW224012   3.833   3.274   2.079 -1.1238  2.5562  0.8081
 4184SOL     OW24013   3.169   3.325   8.889  0.4258  0.1130  0.3120
 4184SOL    HW124014   3.242   3.300   8.944 -0.3746 -3.0100 -0.0688
 4184SOL    HW224015   3.210   3.329   8.802  0.0501 -1.3968  0.0787
 4185SOL     OW24016   1.653   1.840   6.042  0.1978  0.1418  0.1723
 4185SOL    HW124017   1.584   1.903   6.019  1.8233  2.9932  3.1707
 4185SOL    HW224018   1.606   1.758   6.056 -1.8018  1.9214  4.0184
 4186SOL     OW24019   2.932   4.274   1.110  0.4395 -0.0661  0.1309
 4186SOL    HW124020   2.998   4.268   1.041  0.5713 -0.6154  0.3090
 4186SOL    HW224021   2.888   4.189   1.103 -1.0891  0.6423  1.1840
 4187SOL     OW24022   0.379   3.996   7.375  0.6243  0.4562 -0.6538
 4187SOL    HW124023   0.369   3.905   7.406  0.4954  0.9217  0.6574
 4187SOL    HW224024   0.290   4.031   7.374  0.6960  0.6566  0.6907
 4188SOL     OW24025   2.405   2.701  15.422  0.7934  0.2039 -0.0925
 4188SOL    HW124026   2.442   2.663  15.343 -0.9675  0.8982 -1.2390
 4188SOL    HW224027   2.438   2.638  15.487  0.6706 -0.1177 -0.3430
 4189SOL     OW24028   3.756   4.511   3.474 -0.2205 -0.5443 -0.6863
 4189SOL    HW124029   3.705   4.532   3.396  0.5575 -1.7610 -1.5384
 4189SOL    HW224030   3.713   4.434   3.511 -0.9420  0.9755  1.5642
 4190SOL     OW24031   1.817   0.909  15.342  0.0925  0.0320 -0.0422
 4190SOL    HW124032   1.754   0.914  15.270  0.3002 -1.3120 -0.3144
 4190SOL    HW224033   1.864   0.993  15.341 -1.0820  0.6531 -2.6600
 4191SOL     OW24034   4.050   0.979   4.583  0.5358  0.1721 -0.3688
 4191SOL    HW124035   4.138   1.007   4.559  0.5614 -0.5584 -1.1684
 4191SOL    HW224036   4.048   0.895   4.537  1.5680 -0.2852  0.4322
 4192SOL     OW24037   0.556   3.200   7.872 -0.2895 -0.3692 -0.7854
 4192SOL    HW124038   0.542   3.235   7.784  1.8832 -0.5828 -1.1959
 4192SOL    HW224039   0.541   3.105   7.866 -1.4786 -0.1360 -1.5429
 4193SOL     OW24040   0.346   2.767  10.416 -0.2927 -0.3466 -0.6837
 4193SOL    HW124041   0.423   2.721  10.450  0.7200  1.3595 -0.6653
 4193SOL    HW224042   0.287   2.692  10.417 -1.9073  0.9798  2.3304
 4194SOL     OW24043   0.200   2.065  12.620 -0.3598 -0.4158 -0.3000
 4194SOL    HW124044   0.149   2.014  12.683 -2.3808  1.1066 -0.6645
 4194SOL    HW224045   0.131   2.081  12.555  1.1764 -0.7977 -1.9912
 4195SOL     OW24046   0.347   2.686   1.850 -0.1367 -0.4460 -0.3156
 4195SOL    HW124047   0.353   2.614   1.914 -0.2383  1.1249  1.4708
 4195SOL    HW224048   0.353   2.759   1.912  0.8341 -0.8795  0.1027
 4196SOL     OW24049   2.470   2.037  11.127 -0.3386 -0.0941  0.1658
 4196SOL    HW124050   2.482   1.943  11.142 -1.3033 -0.1034  0.8967
 4196SOL    HW224051   2.564   2.056  11.126 -0.1292 -1.0494  2.4341
 4197SOL     OW24052   1.490   4.026  14.335 -0.4091 -0.4914  0.5957
 4197SOL    HW124053   1.477   4.100  14.276  1.7197  0.4396  1.3043
 4197SOL    HW224054   1.569   4.054  14.380 -0.0267 -0.1855 -0.2758
 4198SOL     OW24055   2.470   4.323   1.446 -0.1030  0.2173 -0.0380
 4198SOL    HW124056   2.385   4.323   1.491  0.4332 -0.4477  0.9593
 4198SOL    HW224057   2.501   4.413   1.455  0.9331 -0.2971  1.5269
 4199SOL     OW24058   4.157   2.668  12.514  0.0307  0.2452 -0.5241
 4199SOL    HW124059   4.072   2.667  12.556 -0.6094 -1.5356 -1.8671
 4199SOL    HW224060   4.194   2.753  12.539 -0.0650  0.1557 -0.0870
 4200SOL     OW24061   3.397   2.660  15.531 -1.1434  0.1169 -0.4167
 4200SOL    HW124062   3.403   2.700  15.444 -0.6246 -0.6085 -0.7135
 4200SOL    HW224063   3.423   2.575  15.496  2.8485  1.5918 -1.0538
 4201SOL     OW24064   3.487   0.369  11.394  0.1309 -0.4089  0.5306
 4201SOL    HW124065   3.510   0.373  11.486  1.7184 -2.4489  0.2053
 4201SOL    HW224066   3.479   0.463  11.374 -0.3248 -0.6697 -0.5327
 4202SOL     OW24067   0.866   1.067   1.616  0.2560 -0.4074 -0.3959
 4202SOL    HW124068   0.890   1.128   1.686 -1.9122  0.2369 -0.2197
 4202SOL    HW224069   0.810   1.118   1.558 -1.6143  0.0901  1.8730
 4203SOL     OW24070   3.740   2.041   6.169  0.4474  0.2532 -0.4023
 4203SOL    HW124071   3.694   2.052   6.252  1.3255  0.0519  0.1106
 4203SOL    HW224072   3.667   2.061   6.110  0.0432 -1.6561 -0.5288
 4204SOL     OW24073   3.110   2.405  16.806  0.0043  0.4359  0.8164
 4204SOL    HW124074   3.180   2.409  16.871 -1.2222 -0.6644  2.1954
 4204SOL    HW224075   3.070   2.492  16.804  1.8299  1.2696  0.5643
 4205SOL     OW24076   2.941   1.442   3.515 -0.0534 -0.3187 -0.1315
 4205SOL    HW124077   2.924   1.355   3.479 -1.9938  0.4840 -1.0751
 4205SOL    HW224078   2.962   1.414   3.605 -0.6511  0.1343  0.1518
 4206SOL     OW24079   3.122   0.097   1.964  0.1382  0.5354  0.4114
 4206SOL    HW124080   3.196   0.054   1.922 -1.3767 -1.3308 -0.3518
 4206SOL    HW224081   3.167   0.172   2.002 -1.9053  1.4754  0.9762
 4207SOL     OW24082   4.242   0.352  11.079 -0.2891  0.0655 -0.2862
 4207SOL    HW124083   4.293   0.424  11.117  0.9905 -2.0588  2.0519
 4207SOL    HW224084   4.235   0.291  11.152  0.4561 -0.2508 -0.4724
 4208SOL     OW24085   2.630   3.983   0.203  0.4970  0.1925  0.1449
 4208SOL    HW124086   2.666   4.059   0.157  0.5485 -0.8526 -1.5737
 4208SOL    HW224087   2.658   3.926   0.131  2.2339  0.5378  0.5646
 4209SOL     OW24088   3.660   3.290   7.357  0.3965  0.5140 -0.4580
 4209SOL    HW124089   3.615   3.363   7.400  0.9672  0.1561  0.7327
 4209SOL    HW224090   3.676   3.239   7.436 -1.8901 -0.6326 -0.7192
 4210SOL     OW24091   0.779   2.492  12.325 -0.3385  0.2511  0.3947
 4210SOL    HW124092   0.851   2.522  12.380  0.1348  0.2567 -0.2381
 4210SOL    HW224093   0.725   2.438  12.383 -2.2428  1.7491  0.0159
 4211SOL     OW24094   2.236   0.663   2.392  0.3560 -0.2843 -0.2788
 4211SOL    HW124095   2.223   0.674   2.298  1.8056  0.4998 -0.3899
 4211SOL    HW224096   2.237   0.568   2.404  3.1503  0.0096  1.7243
 4212SOL     OW24097   0.193   3.372  10.218  0.7200  0.4978 -0.3197
 4212SOL    HW124098   0.171   3.458  10.254  1.0330 -0.1581  1.4007
 4212SOL    HW224099   0.174   3.322  10.297  1.0354 -0.0347 -0.5872
 4213SOL     OW24100   3.059   0.778   3.534  0.4067 -0.0456 -0.3209
 4213SOL    HW124101   2.964   0.775   3.523  0.5901  0.0967 -1.9937
 4213SOL    HW224102   3.096   0.787   3.446 -0.6026 -0.4330 -0.7851
 4214SOL     OW24103   0.969   0.493  10.669  0.0416 -0.4152 -0.4016
 4214SOL    HW124104   0.883   0.505  10.629 -0.2240  0.2059  0.3666
 4214SOL    HW224105   0.942   0.421  10.727 -1.0332  0.0780 -0.2920
 4215SOL     OW24106   2.506   2.814  16.674 -0.1799 -0.1139 -0.2822
 4215SOL    HW124107   2.588   2.847  16.709  0.3404  0.8774 -2.4275
 4215SOL    HW224108   2.483   2.889  16.618 -0.6178 -0.4972 -0.6127
 4216SOL     OW24109   3.970   0.699   9.081  0.0502  0.0020 -0.1393
 4216SOL    HW124110   3.920   0.757   9.024  0.2469 -1.1270 -1.4683
 4216SOL    HW224111   3.997   0.753   9.155 -1.2115 -0.1675  0.4281
 4217SOL     OW24112   4.585   1.881   0.991  0.9136 -0.2773 -0.2944
 4217SOL    HW124113   4.499   1.904   0.957  1.0768 -0.2130 -0.6710
 4217SOL    HW224114   4.606   1.971   1.016 -0.5544  0.3428 -1.2967
 4218SOL     OW24115   1.694   0.013   3.159  0.4982  0.5589 -0.1553
 4218SOL    HW124116   1.655   4.707   3.076 -0.3701 -0.0446  0.4570
 4218SOL    HW224117   1.766   0.070   3.132  2.6009 -1.2583  1.6219
 4219SOL     OW24118   1.769   3.363   8.992  0.2157  0.3584 -0.3280
 4219SOL    HW124119   1.750   3.296   9.057  1.6041 -2.2751 -2.6113
 4219SOL    HW224120   1.689   3.414   9.006  2.0440  2.4085  2.6246
 4220SOL     OW24121   3.395   1.099   2.451  0.4048  0.3185  0.0652
 4220SOL    HW124122   3.490   1.110   2.455  0.4384 -0.1658  0.6299
 4220SOL    HW224123   3.375   1.192   2.440  1.5785  0.7485  1.6302
 4221SOL     OW24124   1.290   2.215  16.758 -0.0490  0.1421  0.0712
 4221SOL    HW124125   1.380   2.191  16.779 -0.8843  0.6731  4.2720
 4221SOL    HW224126   1.283   2.305  16.792  0.0327  0.1954 -0.0528
 4222SOL     OW24127   1.479   4.605   4.579 -0.1676 -0.4781 -0.1993
 4222SOL    HW124128   1.402   4.595   4.522 -0.4136  0.2434  0.0035
 4222SOL    HW224129   1.537   4.634   4.509  0.8143 -0.0827  0.7855
 4223SOL     OW24130   1.980   0.266  16.725  0.2037 -0.4583 -0.2449
 4223SOL    HW124131   2.022   0.336  16.775  1.3105 -1.1347 -0.2175
 4223SOL    HW224132   1.999   0.290  16.634 -0.0304  3.1039  0.6465
 4224SOL     OW24133   2.925   4.255   8.907 -0.5694  0.0950  0.0318
 4224SOL    HW124134   2.866   4.184   8.883 -1.4360  0.1738  1.9237
 4224SOL    HW224135   3.010   4.215   8.891 -1.5689 -1.2903 -1.8052
 4225SOL     OW24136   3.601   1.814   7.200  0.2915  0.1620 -0.1116
 4225SOL    HW124137   3.599   1.909   7.210 -0.5542  0.0643  0.6405
 4225SOL    HW224138   3.692   1.786   7.192  0.0336 -1.6407  3.0833
 4226SOL     OW24139   3.504   0.299   6.084  0.1163  0.1712  0.7956
 4226SOL    HW124140   3.584   0.321   6.132  0.6878 -0.6003  0.1866
 4226SOL    HW224141   3.480   0.213   6.120 -0.3861 -0.2887 -0.6283
 4227SOL     OW24142   0.653   0.076   1.936  0.5318  0.6789  0.1415
 4227SOL    HW124143   0.647   0.074   2.032  0.2527  2.7821  0.1758
 4227SOL    HW224144   0.720   0.143   1.922  1.5190 -0.4551 -0.5722
 4228SOL     OW24145   0.795   3.466  17.678 -0.3405  0.1027 -1.0276
 4228SOL    HW124146   0.778   3.375   0.013  2.3550  0.0979  0.6547
 4228SOL    HW224147   0.853   3.457  17.601  2.0838  0.2625  0.7818
 4229SOL     OW24148   1.976   0.498   3.451 -0.2331  0.0374 -0.2661
 4229SOL    HW124149   2.031   0.544   3.516  0.3353 -1.1427  0.0874
 4229SOL    HW224150   1.931   0.570   3.407 -2.2436 -1.4967 -0.6835
 4230SOL     OW24151   0.735   3.866   5.464 -0.5179  0.6587  0.2973
 4230SOL    HW124152   0.716   3.819   5.545 -2.3876 -0.5901 -0.8691
 4230SOL    HW224153   0.651   3.905   5.438  0.5153  1.4775 -1.7837
 4231SOL     OW24154   3.578   0.105  10.288 -0.2737 -0.7713 -0.1828
 4231SOL    HW124155   3.604   0.162  10.216  1.5532 -1.9916 -0.4608
 4231SOL    HW224156   3.652   0.111  10.348 -1.5019 -1.6209  1.4406
 4232SOL     OW24157   4.289   4.313   9.080 -0.7371 -0.4745  0.5580
 4232SOL    HW124158   4.332   4.341   9.162  3.3518 -0.3957 -1.5982
 4232SOL    HW224159   4.358   4.344   9.021 -1.3674 -1.9884 -0.9461
 4233SOL     OW24160   2.403   1.706  15.317 -0.0743  0.1319  0.5843
 4233SOL    HW124161   2.391   1.648  15.242  0.2428 -0.3480  0.9010
 4233SOL    HW224162   2.362   1.787  15.288 -0.0826  0.4247  1.4158
 4234SOL     OW24163   4.490   4.128   9.325  0.8276  0.0630 -0.2426
 4234SOL    HW124164   4.521   4.179   9.400  0.8256  0.6497 -0.6438
 4234SOL    HW224165   4.397   4.123   9.346  1.0265 -0.4108  0.5290
 4235SOL     OW24166   4.592   1.191  16.611  0.0260  0.6389  0.3265
 4235SOL    HW124167   4.551   1.274  16.637  3.1901  2.0916  0.7003
 4235SOL    HW224168   4.685   1.216  16.613 -0.3726  2.1880 -0.1128
 4236SOL     OW24169   1.183   4.208   7.367  0.3952 -0.3391 -0.3124
 4236SOL    HW124170   1.187   4.290   7.417  1.5779 -0.8613  0.4493
 4236SOL    HW224171   1.178   4.148   7.441  1.1519 -1.1897 -0.9536
 4237SOL     OW24172   2.221   3.486   7.301  0.1843  0.6446  1.0059
 4237SOL    HW124173   2.167   3.418   7.342 -1.9724  2.4649  1.1841
 4237SOL    HW224174   2.168   3.565   7.312 -1.1195 -0.1151  0.1536
 4238SOL     OW24175   4.432   0.545  11.153  0.2366  0.2602  0.3744
 4238SOL    HW124176   4.438   0.640  11.141 -0.6379  0.2306 -0.3051
 4238SOL    HW224177   4.461   0.541  11.244 -1.1454  0.4414  0.8331
 4239SOL     OW24178   3.582   1.587   3.092 -0.6616 -0.3299 -0.3306
 4239SOL    HW124179   3.633   1.664   3.116 -0.2750 -1.5197  2.5711
 4239SOL    HW224180   3.657   1.530   3.075  0.9209  1.7039 -0.1724
 4240SOL     OW24181   1.385   2.217   0.997  0.2222 -0.0491  0.2363
 4240SOL    HW124182   1.457   2.242   1.055  1.4745  3.3129 -2.7410
 4240SOL    HW224183   1.341   2.147   1.045  0.0308 -0.3043 -0.3173
 4241SOL     OW24184   2.484   1.418  15.733  0.2698  0.1446  0.0714
 4241SOL    HW124185   2.400   1.383  15.764 -0.0121  0.4309 -0.3696
 4241SOL    HW224186   2.466   1.411  15.639  1.6904  0.6120 -0.2247
 4242SOL     OW24187   2.953   3.461   7.278 -0.0176 -0.6930  0.1316
 4242SOL    HW124188   3.046   3.469   7.298 -0.2014 -0.6671  0.9921
 4242SOL    HW224189   2.944   3.447   7.184  3.1883 -0.8739 -0.1610
 4243SOL     OW24190   3.276   4.593   4.059  0.4141 -0.1320  0.6975
 4243SOL    HW124191   3.363   4.587   4.098  0.3977 -1.1749  0.5633
 4243SOL    HW224192   3.242   4.505   4.078  2.7706 -1.5713 -1.7454
 4244SOL     OW24193   1.524   0.802   2.099 -0.0540  0.3266 -0.0556
 4244SOL    HW124194   1.490   0.718   2.130 -3.0980  0.5770 -2.7055
 4244SOL    HW224195   1.519   0.856   2.178  1.6425  0.2660  0.0900
 4245SOL     OW24196   3.872   4.267  14.893  0.4968 -0.2778  0.5209
 4245SOL    HW124197   3.946   4.292  14.950  0.5673 -1.5997  1.0163
 4245SOL    HW224198   3.804   4.244  14.956 -0.3109  0.2767 -0.1411
 4246SOL     OW24199   0.425   4.228  17.019 -0.0313 -0.5052  0.7641
 4246SOL    HW124200   0.424   4.166  17.092 -0.6292  0.2474  1.3931
 4246SOL    HW224201   0.517   4.232  16.993 -0.2627  2.0144  0.2899
 4247SOL     OW24202   1.092   0.653   2.711  0.4627 -0.3377  0.1969
 4247SOL    HW124203   1.112   0.692   2.796  0.7339 -1.0571  0.4596
 4247SOL    HW224204   1.026   0.711   2.672  0.5743  0.5754  1.3418
 4248SOL     OW24205   1.295   1.057   4.199 -0.1449  0.2838 -0.5416
 4248SOL    HW124206   1.329   0.976   4.161 -0.2887  0.5441 -1.2150
 4248SOL    HW224207   1.348   1.119   4.150  1.9783 -1.9483 -1.0520
 4249SOL     OW24208   4.360   2.667   3.458  0.1960  0.6913  0.2268
 4249SOL    HW124209   4.356   2.575   3.486 -0.4152  0.3321 -1.0709
 4249SOL    HW224210   4.376   2.663   3.364  1.3104 -4.6189  0.6481
 4250SOL     OW24211   0.095   1.271   5.111 -0.1485  0.3988 -0.2019
 4250SOL    HW124212   0.136   1.194   5.073  0.5236  0.2609  0.7902
 4250SOL    HW224213   0.165   1.334   5.092 -0.2515  0.7416  0.5532
 4251SOL     OW24214   0.531   3.740   4.461  0.2846  0.1259 -0.6728
 4251SOL    HW124215   0.613   3.694   4.441 -0.2268 -0.5188 -1.2897
 4251SOL    HW224216   0.504   3.769   4.375 -0.8068 -0.5476 -0.5605
 4252SOL     OW24217   4.687   1.689  15.238  0.5882 -0.1085  0.2633
 4252SOL    HW124218   4.619   1.752  15.213 -0.2275 -1.6478 -1.4244
 4252SOL    HW224219   4.644   1.604  15.227  2.3058 -1.0568  0.9813
 4253SOL     OW24220   0.860   0.489   0.267  0.0585  0.6186 -0.5023
 4253SOL    HW124221   0.808   0.513   0.343 -1.7279  0.5169 -1.7088
 4253SOL    HW224222   0.826   0.553   0.204  0.3658 -1.4918 -2.8389
 4254SOL     OW24223   1.730   4.356   7.703  0.0519 -0.3903 -0.6210
 4254SOL    HW124224   1.771   4.409   7.771 -2.2226  1.0593 -0.3749
 4254SOL    HW224225   1.772   4.399   7.628 -0.7927  1.6740  0.0983
 4255SOL     OW24226   1.773   0.831   3.555 -0.4996  0.1949 -0.0534
 4255SOL    HW124227   1.770   0.816   3.650  1.5185  0.1346 -0.0036
 4255SOL    HW224228   1.828   0.761   3.520 -1.2833 -0.2880 -0.3102
 4256SOL     OW24229   2.546   3.801   9.165  0.2074 -0.2146 -0.1863
 4256SOL    HW124230   2.560   3.895   9.175 -2.0094  0.3108 -2.0655
 4256SOL    HW224231   2.593   3.783   9.083 -0.1484  0.4727 -0.5401
 4257SOL     OW24232   0.244   3.052  17.680 -0.1324 -0.2628 -0.3543
 4257SOL    HW124233   0.265   3.073  17.589  0.4632  2.7213  0.4718
 4257SOL    HW224234   0.199   3.132   0.016 -0.4449 -0.5201 -0.1105
 4258SOL     OW24235   1.696   3.363   1.936  0.3217  0.1599 -0.1993
 4258SOL    HW124236   1.776   3.314   1.955 -0.9462 -1.6281  0.5387
 4258SOL    HW224237   1.691   3.404   2.023  3.6924  1.5785 -0.6618
 4259SOL     OW24238   2.395   3.289  10.425  0.7223  0.1157  0.2179
 4259SOL    HW124239   2.317   3.238  10.401 -2.1065  3.2370  2.6340
 4259SOL    HW224240   2.459   3.224  10.398  0.4552 -0.7924  1.7965
 4260SOL     OW24241   4.105   0.676   3.687 -0.1141  0.3326 -0.4815
 4260SOL    HW124242   4.107   0.758   3.736 -1.5308  0.2748 -0.3186
 4260SOL    HW224243   4.052   0.617   3.741  0.9822  0.1808  0.4043
 4261SOL     OW24244   0.057   4.566   3.913 -0.2853  0.3194  0.2250
 4261SOL    HW124245   0.062   4.625   3.838 -0.2504 -3.0101 -2.3643
 4261SOL    HW224246   0.057   4.477   3.878 -0.1797  0.2357  0.4380
 4262SOL     OW24247   4.230   0.050   9.410  0.0915 -0.6366  0.3697
 4262SOL    HW124248   4.225   0.044   9.506 -0.6639 -0.8378  0.3173
 4262SOL    HW224249   4.285   0.127   9.396 -0.5026 -0.1926  0.4936
 4263SOL     OW24250   0.137   4.577  14.417 -0.1459  0.2008  0.6749
 4263SOL    HW124251   0.150   4.543  14.505 -0.1183 -2.9949 -0.5731
 4263SOL    HW224252   0.222   4.612  14.389  0.2238 -1.9487 -0.8677
 4264SOL     OW24253   1.677   0.894   4.233  0.1665 -0.1018 -0.1297
 4264SOL    HW124254   1.670   0.919   4.325 -1.1946 -1.4554  0.1225
 4264SOL    HW224255   1.726   0.966   4.192  2.7986 -1.6518  0.2396
 4265SOL     OW24256   2.965   4.721   7.181 -0.1204 -0.0311  0.4910
 4265SOL    HW124257   2.952   4.706   7.275 -1.5876 -0.8528  0.1491
 4265SOL    HW224258   3.034   4.655   7.173 -0.4699 -0.3325 -0.0145
 4266SOL     OW24259   3.212   1.907  10.212 -0.1525 -0.3917 -0.1518
 4266SOL    HW124260   3.263   1.958  10.149  1.3295  0.8024  2.0278
 4266SOL    HW224261   3.284   1.872  10.264  1.2542  0.9253 -1.2413
 4267SOL     OW24262   2.219   1.240   9.041 -0.0530 -0.0750 -0.0152
 4267SOL    HW124263   2.206   1.162   9.096  1.3347 -1.0727 -1.1061
 4267SOL    HW224264   2.214   1.195   8.957  1.4079 -0.6754  0.2160
 4268SOL     OW24265   2.551   0.073   1.340 -0.2619 -0.0068  0.2209
 4268SOL    HW124266   2.486   0.091   1.408  1.0189  0.1968  1.3871
 4268SOL    HW224267   2.498   0.061   1.261 -1.1563  0.2439  0.7764
 4269SOL     OW24268   3.154   0.639   9.718  0.1543  0.5442  0.3697
 4269SOL    HW124269   3.059   0.638   9.709  0.2440 -1.7197 -0.4760
 4269SOL    HW224270   3.151   0.561   9.774 -0.5573 -1.9405 -3.1410
 4270SOL     OW24271   0.602   3.737   6.779  0.1420 -0.4300 -0.2717
 4270SOL    HW124272   0.550   3.668   6.737  1.6509  0.2271 -3.2464
 4270SOL    HW224273   0.601   3.699   6.867 -0.9073  0.7605  0.2271
 4271SOL     OW24274   3.652   2.264   9.062 -0.1809  0.1034  0.3118
 4271SOL    HW124275   3.629   2.305   9.145  0.4279 -0.3802  0.7169
 4271SOL    HW224276   3.619   2.177   9.084 -0.6972  0.2741  0.2050
 4272SOL     OW24277   3.624   1.121  15.894  0.6237  0.1512  0.3692
 4272SOL    HW124278   3.590   1.132  15.983  0.6630 -3.3051  0.7954
 4272SOL    HW224279   3.717   1.114  15.917  0.5397  0.4532  0.8148
 4273SOL     OW24280   4.500   0.384  14.703 -0.0416  0.0868  0.2167
 4273SOL    HW124281   4.566   0.452  14.714  1.4444 -1.4046  0.6638
 4273SOL    HW224282   4.543   0.308  14.744 -0.1481  0.7662  1.5737
 4274SOL     OW24283   4.011   2.317   9.107  0.4131  0.1303  0.1792
 4274SOL    HW124284   3.929   2.277   9.134  0.3489 -0.6423 -1.1692
 4274SOL    HW224285   4.065   2.295   9.183 -0.7269 -0.0599  0.9381
 4275SOL     OW24286   4.413   1.741   7.495 -0.0694 -0.4067 -0.2034
 4275SOL    HW124287   4.457   1.724   7.579  0.2188 -1.4272 -0.5559
 4275SOL    HW224288   4.410   1.652   7.459 -1.0519 -1.4899  2.5095
 4276SOL     OW24289   1.908   3.696   4.823 -0.5830  0.2662  0.1495
 4276SOL    HW124290   1.855   3.752   4.880 -0.3734  2.2245 -1.5579
 4276SOL    HW224291   1.983   3.679   4.880 -2.1414 -0.8949  1.8325
 4277SOL     OW24292   4.241   4.619   8.081 -0.3057 -0.2011 -0.3411
 4277SOL    HW124293   4.160   4.587   8.120  1.2857  0.1843  3.2927
 4277SOL    HW224294   4.263   4.694   8.137 -0.8396  1.0209 -1.7732
 4278SOL     OW24295   2.286   3.119   3.523  0.3074 -0.1176  0.2400
 4278SOL    HW124296   2.288   3.128   3.618 -0.3649  1.4258  0.1138
 4278SOL    HW224297   2.356   3.180   3.498  0.2508 -0.8627 -1.7712
 4279SOL     OW24298   1.793   2.498  15.176  0.2767  0.1215 -0.1340
 4279SOL    HW124299   1.858   2.565  15.152 -0.5007  1.7747  2.4030
 4279SOL    HW224300   1.739   2.554  15.232 -3.2820 -1.4363 -1.9896
 4280SOL     OW24301   0.364   0.875   7.480 -0.0302 -0.3376 -0.0289
 4280SOL    HW124302   0.421   0.881   7.403 -0.7976 -1.1108 -0.6490
 4280SOL    HW224303   0.423   0.879   7.556 -0.0241 -2.5422  0.0755
 4281SOL     OW24304   2.592   3.809   4.276 -0.1548 -0.7332  0.2720
 4281SOL    HW124305   2.532   3.829   4.204  0.3671 -1.1445 -0.2842
 4281SOL    HW224306   2.559   3.721   4.295 -0.3722 -0.9178 -0.9541
 4282SOL     OW24307   2.039   1.643  10.915  0.4074  0.3208 -0.3668
 4282SOL    HW124308   2.008   1.553  10.911 -0.0132  0.5096 -1.1954
 4282SOL    HW224309   2.047   1.673  10.825  4.0663  0.9696  0.1440
 4283SOL     OW24310   0.353   1.964   9.276 -0.3724  0.1398  0.3315
 4283SOL    HW124311   0.278   1.926   9.230 -2.2611  1.2324  2.5552
 4283SOL    HW224312   0.354   1.914   9.358  0.8369 -3.3605 -1.7978
 4284SOL     OW24313   1.464   4.210   7.737  0.3650  0.3489 -0.0619
 4284SOL    HW124314   1.469   4.190   7.831  0.6449 -0.3293 -0.2208
 4284SOL    HW224315   1.532   4.275   7.723 -0.8913  1.3629 -1.4029
 4285SOL     OW24316   0.801   3.906   2.566  0.0406 -0.1968  0.0253
 4285SOL    HW124317   0.830   3.981   2.618  0.6844 -1.2944  1.2617
 4285SOL    HW224318   0.842   3.933   2.483 -0.4690  0.2385 -0.0876
 4286SOL     OW24319   2.224   4.218   5.802  0.1003 -0.1857 -0.4851
 4286SOL    HW124320   2.207   4.262   5.885  4.2953  1.5112 -0.5565
 4286SOL    HW224321   2.315   4.191   5.809  0.2564 -0.1105 -2.0979
 4287SOL     OW24322   3.044   4.477   7.835  0.6502 -0.6830 -0.0226
 4287SOL    HW124323   2.998   4.561   7.842  1.6744 -0.0000 -1.3064
 4287SOL    HW224324   3.137   4.501   7.828  0.1600  1.1056 -0.5516
 4288SOL     OW24325   3.419   1.584   9.101 -0.3037  0.9276  0.3066
 4288SOL    HW124326   3.410   1.488   9.102 -2.6434  1.1144 -1.6394
 4288SOL    HW224327   3.412   1.602   9.195  0.0967 -1.2844  0.7816
 4289SOL     OW24328   1.950   0.569  14.601 -0.2817 -0.1901 -0.4315
 4289SOL    HW124329   1.864   0.554  14.641 -1.7671  1.8687 -2.8239
 4289SOL    HW224330   1.968   0.660  14.624 -0.1609 -0.6154  1.1304
 4290SOL     OW24331   4.429   0.036   4.600 -0.1118 -0.0285  0.1634
 4290SOL    HW124332   4.444   4.666   4.617 -0.4374 -0.2261 -0.5891
 4290SOL    HW224333   4.518   0.071   4.601 -0.0525 -0.1020 -1.2716
 4291SOL     OW24334   4.415   1.873  17.353 -0.6413 -0.4124 -0.1894
 4291SOL    HW124335   4.390   1.837  17.268  3.9451 -0.1382 -1.6276
 4291SOL    HW224336   4.463   1.808  17.404 -0.1826 -0.0307 -0.1313
 4292SOL     OW24337   3.557   3.584   1.408  0.1961  1.0760 -0.1202
 4292SOL    HW124338   3.576   3.503   1.362  0.3158  0.7783  0.4574
 4292SOL    HW224339   3.608   3.643   1.353  0.6698  0.2314 -0.5826
 4293SOL     OW24340   2.085   3.838   4.535  0.3402  0.1706 -0.1838
 4293SOL    HW124341   1.999   3.812   4.570  0.7039 -1.3199 -0.4031
 4293SOL    HW224342   2.058   3.920   4.493  0.8199  0.5094  0.1684
 4294SOL     OW24343   2.445   0.894   5.765 -0.7130  0.2583 -0.0366
 4294SOL    HW124344   2.401   0.915   5.848 -2.4768 -0.1093 -0.8772
 4294SOL    HW224345   2.468   0.982   5.736  0.1513  0.4719  1.2810
 4295SOL     OW24346   2.326   3.999   0.154  1.1213 -0.1927  0.0314
 4295SOL    HW124347   2.380   3.921   0.163 -0.9974 -1.5785  0.7125
 4295SOL    HW224348   2.391   4.063   0.184  0.1433  0.2912  1.0951
 4296SOL     OW24349   3.429   0.320   1.459 -0.9605  0.5821 -0.2162
 4296SOL    HW124350   3.352   0.262   1.457  1.9497 -3.3088  1.3837
 4296SOL    HW224351   3.499   0.255   1.456 -2.8430 -1.5458  1.5782
 4297SOL     OW24352   0.107   0.013   7.436 -0.0210  0.4791 -0.2661
 4297SOL    HW124353   0.077   0.104   7.442  1.2885  0.8037  1.6043
 4297SOL    HW224354   0.129   0.008   7.529  1.4132  0.6859 -0.5869
 4298SOL     OW24355   3.879   0.211   7.048  0.0812 -0.4226 -0.5822
 4298SOL    HW124356   3.973   0.208   7.067  0.4644  0.3018 -2.3350
 4298SOL    HW224357   3.878   0.195   6.954  2.6433  0.3688 -0.7362
 4299SOL     OW24358   3.011   1.321   3.246  0.7513 -0.4353  0.1509
 4299SOL    HW124359   2.929   1.356   3.210  1.6675 -0.4159 -1.9566
 4299SOL    HW224360   3.076   1.384   3.215 -0.6030  0.1505 -1.4674
 4300SOL     OW24361   0.775   3.835   6.558  0.0122  0.0345 -0.0952
 4300SOL    HW124362   0.721   3.798   6.628  0.0813 -0.4844 -0.3112
 4300SOL    HW224363   0.738   3.922   6.545  1.7743  0.7886 -0.0244
 4301SOL     OW24364   0.513   4.485  17.683  0.2915 -0.2340  0.1269
 4301SOL    HW124365   0.431   4.531  17.672  1.9459  2.5973 -0.3104
 4301SOL    HW224366   0.491   4.394   0.013 -0.5005 -0.2073 -0.6073
 4302SOL     OW24367   1.333   1.641   8.199 -0.5766  0.1423  0.3141
 4302SOL    HW124368   1.285   1.724   8.193 -1.0634 -0.1252  0.6273
 4302SOL    HW224369   1.282   1.590   8.136 -0.1739  0.3677 -0.2034
 4303SOL     OW24370   4.480   0.719  11.648  0.2875  0.2230  0.7029
 4303SOL    HW124371   4.476   0.672  11.731 -2.3716  0.6912  0.8445
 4303SOL    HW224372   4.387   0.742  11.642  0.3900  0.1375 -1.3188
 4304SOL     OW24373   0.162   2.942  14.369 -0.4437 -0.5288  0.0726
 4304SOL    HW124374   0.069   2.965  14.374 -0.4158  0.3381 -3.4429
 4304SOL    HW224375   0.183   2.914  14.458  1.2253 -0.2419 -0.2383
 4305SOL     OW24376   2.911   3.623  14.792  0.1021 -0.0448  0.4186
 4305SOL    HW124377   3.003   3.606  14.812  0.5585  1.7037 -0.2151
 4305SOL    HW224378   2.883   3.657  14.877  1.0759  0.7795  0.4118
 4306SOL     OW24379   3.065   3.892  12.111  0.0853  0.0762  0.4110
 4306SOL    HW124380   2.972   3.866  12.108  0.3114 -0.6899  0.0256
 4306SOL    HW224381   3.069   3.984  12.135 -0.4171 -0.1041  1.1867
 4307SOL     OW24382   0.544   1.727   6.342 -0.1172  0.3290  0.1602
 4307SOL    HW124383   0.582   1.790   6.404  2.6358  0.2011 -1.3985
 4307SOL    HW224384   0.486   1.673   6.396  0.7125 -2.6303 -1.8925
 4308SOL     OW24385   4.127   2.338  12.983  0.2325  0.0891 -0.3533
 4308SOL    HW124386   4.146   2.288  13.063  0.2419  0.4421 -0.1335
 4308SOL    HW224387   4.032   2.331  12.979  0.1329  0.9959  0.4076
 4309SOL     OW24388   1.150   3.590   1.994  0.3922  0.1272  0.1332
 4309SOL    HW124389   1.115   3.648   1.926 -2.5498 -0.8147  0.8542
 4309SOL    HW224390   1.113   3.620   2.077  1.4849  1.7429  0.0397
 4310SOL     OW24391   2.754   0.581   4.363 -0.0108 -0.0994 -0.0496
 4310SOL    HW124392   2.815   0.508   4.366  1.6997  1.2695 -1.3961
 4310SOL    HW224393   2.724   0.569   4.273 -0.1311 -2.6349  0.3253
 4311SOL     OW24394   2.844   0.936   0.680 -0.1497  0.0489 -0.0310
 4311SOL    HW124395   2.823   0.862   0.624 -1.9258 -1.2251  2.3426
 4311SOL    HW224396   2.793   1.007   0.642 -0.1892 -1.2891 -2.4466
 4312SOL     OW24397   1.964   3.140   0.050  0.1364  0.2421  0.1293
 4312SOL    HW124398   2.020   3.176  17.672 -0.6612  0.6762 -0.3017
 4312SOL    HW224399   1.914   3.221   0.059 -0.9337 -0.5337  1.1308
 4313SOL     OW24400   2.767   3.838  13.427  0.2444  0.1319 -0.5951
 4313SOL    HW124401   2.821   3.872  13.355  0.8516 -0.3710 -0.3767
 4313SOL    HW224402   2.743   3.921  13.469  1.7789  0.3606 -0.1727
 4314SOL     OW24403   2.617   1.921   3.295 -0.5916  0.1350 -0.0771
 4314SOL    HW124404   2.523   1.906   3.289 -0.6600  0.2424  0.7730
 4314SOL    HW224405   2.611   2.015   3.278  0.2120  0.3908  1.0063
 4315SOL     OW24406   1.674   3.679   6.359 -0.1770  0.5169  0.6930
 4315SOL    HW124407   1.658   3.759   6.308  0.5342 -1.0903 -2.0323
 4315SOL    HW224408   1.625   3.613   6.311  0.6704  0.0214  0.4927
 4316SOL     OW24409   2.147   4.215   8.606  0.6068 -0.3246 -0.1921
 4316SOL    HW124410   2.201   4.153   8.654  0.3944 -0.7505 -0.5066
 4316SOL    HW224411   2.105   4.162   8.538 -0.3081 -0.7700  0.7258
 4317SOL     OW24412   2.114   1.979  16.892  0.7863  0.1857  0.3235
 4317SOL    HW124413   2.164   1.986  16.811 -0.4599  2.0079 -0.2852
 4317SOL    HW224414   2.061   2.055  16.869 -0.4454 -1.4482 -2.2287
 4318SOL     OW24415   1.024   2.588  16.796 -0.1017  0.1158 -0.5182
 4318SOL    HW124416   1.030   2.502  16.753  3.0465 -0.1458  0.4324
 4318SOL    HW224417   1.116   2.601  16.821 -0.4223  3.4489 -1.1905
 4319SOL     OW24418   1.575   0.068  14.186 -0.2297 -0.5542  0.1523
 4319SOL    HW124419   1.612   4.713  14.142  4.0079  0.8258  1.3139
 4319SOL    HW224420   1.657   0.115  14.170  0.2922 -0.7938  2.1016
 4320SOL     OW24421   3.554   2.801   6.592  0.0407  0.2820  0.1175
 4320SOL    HW124422   3.543   2.706   6.582  1.4340  0.1901 -0.5971
 4320SOL    HW224423   3.641   2.813   6.553  0.3245  1.0288  0.9753
 4321SOL     OW24424   4.465   1.128   9.271 -0.1145 -0.4964  0.1301
 4321SOL    HW124425   4.508   1.129   9.356 -0.4984 -2.3116  0.3540
 4321SOL    HW224426   4.381   1.169   9.292 -0.7781 -1.5183 -0.4718
 4322SOL     OW24427   2.388   0.605  15.932 -0.4569 -0.4120  0.9898
 4322SOL    HW124428   2.351   0.645  15.852  0.0502 -1.5123  0.2080
 4322SOL    HW224429   2.364   0.677  15.991 -0.9308 -0.5914  1.0220
 4323SOL     OW24430   2.263   3.696  15.464  0.3766 -0.2317 -0.1371
 4323SOL    HW124431   2.248   3.637  15.390 -0.8180  0.4197 -0.4065
 4323SOL    HW224432   2.289   3.771  15.410  1.9377 -2.1762 -2.0908
 4324SOL     OW24433   1.413   2.765   3.166 -0.2258  0.1700  0.1359
 4324SOL    HW124434   1.418   2.757   3.071 -1.4253 -1.0777  0.1793
 4324SOL    HW224435   1.506   2.757   3.187 -0.0113  0.8562 -0.5402
 4325SOL     OW24436   0.657   4.511   5.321  0.2330  0.0145  0.2586
 4325SOL    HW124437   0.674   4.603   5.342 -1.2880  0.7247 -1.5550
 4325SOL    HW224438   0.709   4.503   5.241  0.8948 -0.1211  0.6994
 4326SOL     OW24439   1.268   1.816  16.808  0.2625 -0.0247  0.1724
 4326SOL    HW124440   1.346   1.787  16.760 -0.3399 -0.2115 -0.6888
 4326SOL    HW224441   1.209   1.744  16.785 -1.8840  1.5972  0.6808
 4327SOL     OW24442   1.056   0.041   2.428  0.3265 -0.0486  0.7728
 4327SOL    HW124443   1.121   0.042   2.498  0.0598  0.6454  1.0166
 4327SOL    HW224444   0.983   4.708   2.453 -0.1918  1.5993  2.9549
 4328SOL     OW24445   0.220   2.642   1.420 -0.5862  0.1098  0.0737
 4328SOL    HW124446   0.263   2.725   1.399  2.4681 -1.8675 -1.4319
 4328SOL    HW224447   0.258   2.582   1.356 -1.1948  1.2802 -1.3904
 4329SOL     OW24448   4.665   2.377   3.224 -0.4183  0.3626  0.4248
 4329SOL    HW124449   4.637   2.375   3.315 -2.5050  2.4658 -0.1485
 4329SOL    HW224450   0.034   2.404   3.232  0.3931 -1.4183 -2.5634
 4330SOL     OW24451   0.544   4.313  14.521  0.8086 -0.4035 -0.0514
 4330SOL    HW124452   0.567   4.284  14.433  2.6654 -2.6180  1.1625
 4330SOL    HW224453   0.615   4.375  14.535  1.9311 -1.9377  1.0448
 4331SOL     OW24454   3.914   0.812   6.807 -0.2351  0.0714  0.2231
 4331SOL    HW124455   3.909   0.717   6.818  1.9561 -0.0140  0.3995
 4331SOL    HW224456   3.885   0.837   6.895  1.4541  0.2412  0.7195
 4332SOL     OW24457   4.035   1.310   7.429 -0.1386 -0.0692 -0.4560
 4332SOL    HW124458   4.112   1.266   7.463 -1.2974 -1.2790  0.6215
 4332SOL    HW224459   4.013   1.364   7.505  0.0299 -0.7478  0.0688
 4333SOL     OW24460   0.682   2.904   1.707  0.3821  0.5678 -0.2828
 4333SOL    HW124461   0.730   2.907   1.790 -1.3985  2.0049  0.6988
 4333SOL    HW224462   0.702   2.990   1.669  2.0236  0.2248 -0.1859
 4334SOL     OW24463   0.536   4.279  13.986  0.0420  0.2031  0.0621
 4334SOL    HW124464   0.487   4.302  14.065 -1.1512 -0.7017 -0.4062
 4334SOL    HW224465   0.510   4.189  13.969 -0.1810  0.3172 -0.2070
 4335SOL     OW24466   4.657   3.924   7.602  0.1980 -0.1880 -0.0465
 4335SOL    HW124467   4.628   4.005   7.645  0.9149 -0.3994  0.8424
 4335SOL    HW224468   4.657   3.947   7.509  0.4621 -2.1357 -0.5165
 4336SOL     OW24469   1.385   3.705   4.804 -0.3706  0.3471  0.4487
 4336SOL    HW124470   1.427   3.781   4.764 -0.2222 -0.1644 -0.3755
 4336SOL    HW224471   1.326   3.674   4.735  1.0535  0.3899 -0.7893
 4337SOL     OW24472   1.154   0.268   2.821 -0.3418  0.4334  0.5139
 4337SOL    HW124473   1.244   0.249   2.847  0.2948  0.5566 -1.5944
 4337SOL    HW224474   1.118   0.179   2.830  3.8860 -1.1239  2.0590
 4338SOL     OW24475   4.717   2.767   7.730  0.0595 -0.0025  0.1183
 4338SOL    HW124476   0.052   2.774   7.654  1.9082  0.7425  1.5596
 4338SOL    HW224477   0.001   2.858   7.760 -0.6245  0.5989 -1.5940
 4339SOL     OW24478   1.879   4.591   4.974  1.4741 -0.0284  0.4260
 4339SOL    HW124479   1.951   4.628   5.024  0.7079  0.1863  1.3897
 4339SOL    HW224480   1.886   4.627   4.886  0.3387  0.0496  0.3633
 4340SOL     OW24481   1.576   3.500  16.916  0.5502 -0.4855 -0.4964
 4340SOL    HW124482   1.624   3.564  16.968 -2.4611 -1.0234  2.9596
 4340SOL    HW224483   1.609   3.417  16.951  0.4487 -0.9447 -1.5075
 4341SOL     OW24484   3.999   0.112   3.964  0.3780  0.1791 -0.7137
 4341SOL    HW124485   4.072   0.103   3.902  0.2998  0.7468 -0.8885
 4341SOL    HW224486   3.936   0.163   3.913 -1.3830  0.8467  2.1713
 4342SOL     OW24487   3.426   1.429   5.100  0.8308  0.6249  0.0407
 4342SOL    HW124488   3.398   1.469   5.182  2.7470  0.3738  0.8378
 4342SOL    HW224489   3.503   1.482   5.079 -0.4326  2.1931 -0.5859
 4343SOL     OW24490   0.230   2.950   9.616  0.1006  0.2209  0.0753
 4343SOL    HW124491   0.166   2.889   9.579  0.2106 -0.8518  1.6647
 4343SOL    HW224492   0.290   2.962   9.543  2.5172  1.9385  2.3594
 4344SOL     OW24493   1.475   4.380   7.308  0.3835 -0.3415 -0.5678
 4344SOL    HW124494   1.488   4.335   7.224 -1.1100  1.5218 -1.7764
 4344SOL    HW224495   1.456   4.307   7.367 -0.8130  1.3145  1.0826
 4345SOL     OW24496   3.723   3.520   7.675  0.8995  0.2659 -0.3359
 4345SOL    HW124497   3.648   3.484   7.628  2.3298 -1.7466 -1.0894
 4345SOL    HW224498   3.698   3.504   7.766  0.4800  1.2517 -0.2867
 4346SOL     OW24499   3.648   1.584   5.019  0.5709  0.0138 -0.6380
 4346SOL    HW124500   3.685   1.671   5.030  2.0962 -0.5727 -1.0934
 4346SOL    HW224501   3.727   1.537   4.992  2.6019  2.2304  1.4769
 4347SOL     OW24502   4.120   2.181   9.546 -0.3415 -0.0760  0.2118
 4347SOL    HW124503   4.033   2.191   9.586 -0.1095  0.8141  0.5106
 4347SOL    HW224504   4.145   2.092   9.568  2.3760 -0.1722 -3.2419
 4348SOL     OW24505   3.822   3.130   9.034 -0.0180  0.0373  0.3687
 4348SOL    HW124506   3.906   3.089   9.055 -0.9588 -1.5952  0.8615
 4348SOL    HW224507   3.762   3.092   9.098 -0.1730 -0.5395 -0.1228
 4349SOL     OW24508   2.922   0.978   7.434  0.0426  0.4662  0.1971
 4349SOL    HW124509   2.868   0.900   7.444 -1.3566  1.2382 -1.2299
 4349SOL    HW224510   2.874   1.048   7.479 -0.5319  0.2796 -0.1286
 4350SOL     OW24511   1.445   4.283   3.651 -0.3476 -0.0527  0.3233
 4350SOL    HW124512   1.513   4.283   3.584  0.4793  3.4082  1.1592
 4350SOL    HW224513   1.368   4.331   3.622  0.2724  2.4344  2.8052
 4351SOL     OW24514   0.260   1.788   3.670 -0.4489  0.1363  0.0814
 4351SOL    HW124515   0.248   1.775   3.576 -2.4662  1.7838  0.1276
 4351SOL    HW224516   0.168   1.790   3.695 -0.8571 -2.4228 -1.1976
 4352SOL     OW24517   2.048   3.857   3.832  0.1743 -0.2606 -0.0750
 4352SOL    HW124518   2.070   3.927   3.770  1.2437  0.9601  1.6875
 4352SOL    HW224519   2.092   3.782   3.792  3.3671  1.0050  1.0536
 4353SOL     OW24520   3.978   1.769   8.153  0.3460 -0.4379  0.5350
 4353SOL    HW124521   4.070   1.748   8.137  0.1876 -0.3199 -0.4991
 4353SOL    HW224522   3.931   1.689   8.131 -1.0972  0.2643  1.0909
 4354SOL     OW24523   1.854   1.191   8.967  0.7229  0.0564  0.2947
 4354SOL    HW124524   1.862   1.256   9.036 -0.8900  0.0884  0.4510
 4354SOL    HW224525   1.767   1.221   8.939  0.3673 -1.7798 -0.5828
 4355SOL     OW24526   1.836   0.168  15.014  0.2844  0.2890 -0.5489
 4355SOL    HW124527   1.760   0.204  15.061  0.0223 -2.3225  1.0548
 4355SOL    HW224528   1.886   0.137  15.090 -2.4642 -0.9626  0.7720
 4356SOL     OW24529   0.766   3.236  17.247 -0.4974  0.7195  0.6036
 4356SOL    HW124530   0.825   3.165  17.220  0.4507  1.2136  1.3687
 4356SOL    HW224531   0.691   3.231  17.188 -0.9170 -1.7249  1.3386
 4357SOL     OW24532   4.527   3.037  10.777  0.1819  0.3836 -0.2964
 4357SOL    HW124533   4.578   2.965  10.816  2.6167  0.5397 -3.1644
 4357SOL    HW224534   4.595   3.102  10.759  0.0690  0.8588  0.9811
 4358SOL     OW24535   4.325   2.745   0.313 -0.0070 -0.0564 -0.3875
 4358SOL    HW124536   4.273   2.791   0.379  0.4751  1.1798 -0.8722
 4358SOL    HW224537   4.289   2.657   0.321 -1.4427  0.6489  0.7610
 4359SOL     OW24538   1.576   4.316  13.908  0.1471 -0.4891  0.1157
 4359SOL    HW124539   1.644   4.304  13.842  2.6291  0.0483  2.6119
 4359SOL    HW224540   1.499   4.266  13.878  0.9023 -0.5582 -1.7357
 4360SOL     OW24541   4.694   0.908   2.980 -0.4472 -0.5692 -0.0981
 4360SOL    HW124542   0.032   0.914   2.906  0.2227  2.0037  0.6724
 4360SOL    HW224543   4.621   0.961   2.949  0.1724  1.2909  1.6517
 4361SOL     OW24544   2.868   2.459   7.102  0.0935  0.2942 -0.2007
 4361SOL    HW124545   2.776   2.433   7.097 -0.4979  1.9399  2.6960
 4361SOL    HW224546   2.894   2.399   7.172  0.5929 -1.4912 -1.8816
 4362SOL     OW24547   4.336   2.475  12.507 -0.2801 -1.6247  0.5615
 4362SOL    HW124548   4.287   2.554  12.483  1.5384 -0.9727 -0.9921
 4362SOL    HW224549   4.421   2.517  12.520 -1.4463  0.3965  1.5778
 4363SOL     OW24550   3.261   0.491   2.497  0.2831  0.4956 -0.5996
 4363SOL    HW124551   3.327   0.554   2.528 -0.7383  1.9930 -1.4225
 4363SOL    HW224552   3.207   0.489   2.575  0.6021  3.8115 -0.2887
 4364SOL     OW24553   0.932   1.772   3.200  0.2640 -0.7550  0.5289
 4364SOL    HW124554   1.014   1.761   3.153 -0.7095  2.0447 -1.8749
 4364SOL    HW224555   0.890   1.841   3.148 -0.8847 -2.1208 -0.3216
 4365SOL     OW24556   2.618   0.269   8.515 -0.2809  0.0034 -0.2640
 4365SOL    HW124557   2.707   0.252   8.546 -0.6592  2.5946  2.2738
 4365SOL    HW224558   2.584   0.331   8.580  2.1480  1.4327 -0.3784
 4366SOL     OW24559   1.257   0.505   2.430  0.2921  0.2883  0.3886
 4366SOL    HW124560   1.254   0.424   2.480 -0.8188 -1.1462 -1.9976
 4366SOL    HW224561   1.169   0.496   2.392  0.0623  0.7300  0.8025
 4367SOL     OW24562   3.815   4.103  14.474  0.0888 -0.1422 -0.3736
 4367SOL    HW124563   3.804   4.193  14.504  2.6979 -0.6021  1.9646
 4367SOL    HW224564   3.911   4.093  14.477  0.0112 -0.5948  0.3741
 4368SOL     OW24565   0.230   0.266   4.472  0.1561 -0.2551 -0.1484
 4368SOL    HW124566   0.315   0.225   4.490 -0.5423 -1.3654  0.6388
 4368SOL    HW224567   0.213   0.230   4.385  1.4676 -0.6592 -0.2476
 4369SOL     OW24568   0.197   4.015   8.489  0.2056  0.3300 -0.3249
 4369SOL    HW124569   0.222   3.949   8.424 -1.0278 -0.4920  0.0537
 4369SOL    HW224570   0.119   4.048   8.446  0.1294  0.8904  0.2392
 4370SOL     OW24571   2.808   0.777   2.187 -0.1736  0.4836 -0.5675
 4370SOL    HW124572   2.743   0.712   2.217 -2.0630  3.1870  1.2058
 4370SOL    HW224573   2.885   0.722   2.203 -0.2268  0.8300  0.9255
 4371SOL     OW24574   4.628   0.047  15.915  0.1106  0.1738 -0.3076
 4371SOL    HW124575   4.641   0.085  15.828 -2.9126 -2.3207 -1.8641
 4371SOL    HW224576   4.537   0.020  15.923  0.6845 -1.3779  1.0813
 4372SOL     OW24577   2.753   0.053  10.670  0.1506  0.2605 -0.3912
 4372SOL    HW124578   2.680   0.111  10.692 -0.0256 -0.2816  0.4523
 4372SOL    HW224579   2.790   0.045  10.757  0.1655  1.8709 -0.2632
 4373SOL     OW24580   3.053   3.463   4.412  0.1981  0.3673 -0.1751
 4373SOL    HW124581   3.074   3.383   4.363 -0.1631 -0.6681  1.3831
 4373SOL    HW224582   3.021   3.438   4.498 -0.6606  0.4328 -0.4814
 4374SOL     OW24583   2.304   0.221   6.678 -0.1369  0.2307  0.0230
 4374SOL    HW124584   2.356   0.142   6.669 -0.1564  0.3005 -0.6855
 4374SOL    HW224585   2.215   0.187   6.674  0.3654 -0.7830 -2.3260
 4375SOL     OW24586   3.865   2.565   7.702  0.5447  0.6340 -0.6566
 4375SOL    HW124587   3.883   2.486   7.752  2.0814  0.7550 -1.0266
 4375SOL    HW224588   3.920   2.617   7.761 -1.5887  0.5173  1.4474
 4376SOL     OW24589   0.393   2.475   6.344 -0.0068  0.0382 -0.1841
 4376SOL    HW124590   0.482   2.504   6.366  0.4879 -0.8403 -0.9494
 4376SOL    HW224591   0.386   2.395   6.396 -0.5741 -0.3205 -0.8091
 4377SOL     OW24592   0.770   2.413   3.150  0.2764 -0.0323 -0.4004
 4377SOL    HW124593   0.852   2.461   3.159  1.4725 -2.3309  0.8848
 4377SOL    HW224594   0.721   2.434   3.229  2.0023  0.3570  0.5530
 4378SOL     OW24595   1.268   3.144   5.780 -0.0960 -0.1308 -0.6410
 4378SOL    HW124596   1.358   3.175   5.775  0.0942 -0.7299 -0.8824
 4378SOL    HW224597   1.227   3.180   5.701 -0.4749  2.5678  0.7838
 4379SOL     OW24598   3.219   2.460  13.283  0.0266 -0.2453  0.2518
 4379SOL    HW124599   3.215   2.526  13.214  0.2841  0.5324  0.9920
 4379SOL    HW224600   3.305   2.472  13.323 -0.7509 -0.4181  1.9476
 4380SOL     OW24601   3.774   2.120   5.114  0.5081  0.4009 -0.1221
 4380SOL    HW124602   3.726   2.139   5.194 -0.2138  0.4211 -0.5630
 4380SOL    HW224603   3.849   2.179   5.122  2.1331 -1.6197 -0.3986
 4381SOL     OW24604   2.037   2.456   2.972 -0.2058 -0.0352  0.0938
 4381SOL    HW124605   2.097   2.408   2.914 -0.8459 -1.5421  0.6808
 4381SOL    HW224606   1.958   2.455   2.918 -0.0128 -1.2693 -0.1630
 4382SOL     OW24607   2.787   1.430   3.161 -0.2927  0.2808  0.2556
 4382SOL    HW124608   2.772   1.484   3.084 -2.0245  0.6394  0.8610
 4382SOL    HW224609   2.728   1.469   3.225 -2.5545 -0.8261 -1.1612
 4383SOL     OW24610   0.318   2.973  16.431  0.2190 -0.6460  0.0456
 4383SOL    HW124611   0.248   2.916  16.464  0.0854 -0.5438 -0.0603
 4383SOL    HW224612   0.400   2.925  16.428 -0.3667 -1.6447 -0.0578
 4384SOL     OW24613   4.466   1.177   1.398  0.6163 -0.6306 -0.2755
 4384SOL    HW124614   4.456   1.238   1.325  0.4517 -0.9915 -0.5563
 4384SOL    HW224615   4.557   1.156   1.376 -0.2628 -2.9471 -1.7637
 4385SOL     OW24616   2.191   2.557   2.459  0.6321 -0.1296 -0.3117
 4385SOL    HW124617   2.207   2.505   2.380  1.0576  1.2506 -1.1339
 4385SOL    HW224618   2.161   2.634   2.410 -2.5042 -0.9309  0.3623
 4386SOL     OW24619   3.570   2.467   3.525 -0.0852  0.5529  0.8163
 4386SOL    HW124620   3.536   2.495   3.440 -0.4587 -0.1453  0.7374
 4386SOL    HW224621   3.592   2.378   3.497  1.5083  1.4709 -0.8753
 4387SOL     OW24622   4.360   4.006   0.663  0.0543  0.3768  0.3884
 4387SOL    HW124623   4.394   4.028   0.750 -0.9258  2.4182  0.2599
 4387SOL    HW224624   4.291   3.946   0.692 -0.3499  0.5177 -0.2742
 4388SOL     OW24625   3.276   3.534   7.526 -0.1303  0.0340 -0.2369
 4388SOL    HW124626   3.189   3.509   7.557  0.5444 -1.0651  0.7863
 4388SOL    HW224627   3.264   3.514   7.434  0.2253  0.9179 -0.4771
 4389SOL     OW24628   2.757   0.449   2.126 -0.2907 -0.3543 -0.4622
 4389SOL    HW124629   2.715   0.519   2.075  1.3846  0.4172 -0.7796
 4389SOL    HW224630   2.769   0.498   2.207  0.0515  1.9225 -1.8865
 4390SOL     OW24631   3.923   1.744   4.354  0.3875  0.0013 -0.1409
 4390SOL    HW124632   3.828   1.740   4.371  0.3480  0.0647 -0.3456
 4390SOL    HW224633   3.951   1.804   4.423  0.5116  1.1110 -1.1657
 4391SOL     OW24634   0.503   2.194   5.593 -0.3299  0.2834 -0.0970
 4391SOL    HW124635   0.484   2.107   5.630  0.2456  0.7035  1.1873
 4391SOL    HW224636   0.491   2.240   5.676 -0.0661 -0.7008  0.4930
 4392SOL     OW24637   3.933   2.361   2.374 -0.2372  0.3009 -0.0552
 4392SOL    HW124638   3.946   2.283   2.321  0.8725  0.3099  0.1908
 4392SOL    HW224639   4.019   2.403   2.365  0.5182 -1.3629 -0.7631
 4393SOL     OW24640   0.261   4.357   9.577 -0.1969 -0.4727 -0.4638
 4393SOL    HW124641   0.343   4.363   9.527 -0.0928 -0.5606 -0.3057
 4393SOL    HW224642   0.293   4.322   9.660 -0.4189 -0.5475 -0.4108
 4394SOL     OW24643   1.081   1.199   3.506 -0.4055 -0.3527 -0.5576
 4394SOL    HW124644   1.097   1.233   3.418  1.9903 -3.1355 -1.1899
 4394SOL    HW224645   1.049   1.112   3.484 -1.8259  1.0539 -4.0036
 4395SOL     OW24646   2.041   1.365   4.851  0.0861  0.0878  0.0074
 4395SOL    HW124647   1.990   1.351   4.931 -0.1911 -1.0342 -0.3678
 4395SOL    HW224648   2.014   1.444   4.804  0.3322 -0.0659 -0.3948
 4396SOL     OW24649   4.412   1.913   5.691  0.0561  0.5547  0.4123
 4396SOL    HW124650   4.425   1.861   5.612 -1.7597 -1.4538  1.4495
 4396SOL    HW224651   4.406   2.004   5.661 -0.4904  0.5088  0.3742
 4397SOL     OW24652   2.688   2.638   8.069  0.2869  0.3103 -0.2872
 4397SOL    HW124653   2.729   2.707   8.018 -1.0731 -1.0414 -3.1670
 4397SOL    HW224654   2.631   2.688   8.128 -1.3166 -2.8670  0.8783
 4398SOL     OW24655   2.728   0.366   3.454  0.1721 -0.0090  0.1410
 4398SOL    HW124656   2.704   0.410   3.373  0.7264 -4.1976 -2.2974
 4398SOL    HW224657   2.643   0.331   3.482 -0.6946  0.3029 -2.0832
 4399SOL     OW24658   0.252   1.282   2.675 -0.4087 -0.6847  0.1154
 4399SOL    HW124659   0.285   1.341   2.743  0.9944  0.2980 -1.4156
 4399SOL    HW224660   0.325   1.253   2.621 -0.5479  0.1909 -0.5461
 4400SOL     OW24661   2.986   0.414   7.481  0.8929 -0.4264  0.0403
 4400SOL    HW124662   3.006   0.416   7.575 -0.8228 -3.7319  0.4540
 4400SOL    HW224663   3.035   0.338   7.451  0.0823 -1.5550  1.5872
 4401SOL     OW24664   4.687   3.426   1.728  0.2070  0.1799  0.4540
 4401SOL    HW124665   4.631   3.350   1.717  0.1735 -0.1831  3.2829
 4401SOL    HW224666   0.051   3.387   1.740  0.1767 -0.0015  0.0839
 4402SOL     OW24667   4.069   0.466  12.543  0.6097 -0.1990  0.1905
 4402SOL    HW124668   4.074   0.534  12.477  0.2362 -2.0226 -1.7206
 4402SOL    HW224669   4.158   0.432  12.537 -0.3541 -2.5450 -0.6993
 4403SOL     OW24670   1.993   4.404   3.706  0.0216  0.0587  0.1866
 4403SOL    HW124671   2.016   4.386   3.615 -0.6618  0.6590 -0.1079
 4403SOL    HW224672   1.903   4.438   3.704  0.0691  0.2192  0.7099
 4404SOL     OW24673   4.351   2.808   2.618 -0.3160  1.0640  0.9248
 4404SOL    HW124674   4.430   2.755   2.632  0.3760  1.3865 -1.7935
 4404SOL    HW224675   4.370   2.828   2.526 -2.8372  0.8309  0.3496
 4405SOL     OW24676   3.782   0.456  13.123  0.3838 -0.0791 -0.2641
 4405SOL    HW124677   3.843   0.424  13.189  0.6286 -1.1764 -1.0264
 4405SOL    HW224678   3.773   0.548  13.150 -0.7183 -0.1905 -0.2435
 4406SOL     OW24679   3.506   3.266  12.070  0.6290  0.1870  0.0576
 4406SOL    HW124680   3.473   3.344  12.026  2.7862  0.4563 -1.0913
 4406SOL    HW224681   3.588   3.288  12.115  1.3566  0.5231 -1.4457
 4407SOL     OW24682   1.679   3.962   0.069 -0.3148 -0.0932  0.2570
 4407SOL    HW124683   1.647   3.888   0.018  0.1775 -2.3969  3.2829
 4407SOL    HW224684   1.770   3.943   0.049 -0.1477 -0.7741  1.6603
 4408SOL     OW24685   2.671   0.166   3.088 -0.6778 -0.1339  0.4673
 4408SOL    HW124686   2.645   0.092   3.143  1.2410 -1.0808  0.1108
 4408SOL    HW224687   2.719   0.220   3.150  1.3166 -1.3504  0.0005
 4409SOL     OW24688   1.533   4.594   8.514 -0.3865 -0.0662  0.3703
 4409SOL    HW124689   1.587   4.630   8.585  0.1096  0.4175 -0.2631
 4409SOL    HW224690   1.447   4.620   8.546 -0.6097 -0.8449  0.3940
 4410SOL     OW24691   0.171   0.812  13.049  0.2576 -0.3965  0.2168
 4410SOL    HW124692   0.256   0.767  13.051 -0.4825 -1.8443 -0.6456
 4410SOL    HW224693   0.185   0.875  12.978 -1.5184 -0.1336  0.1115
 4411SOL     OW24694   3.353   1.476   4.664 -0.0660  0.0394 -0.2061
 4411SOL    HW124695   3.339   1.445   4.754  1.2409  1.4747  0.5005
 4411SOL    HW224696   3.354   1.400   4.607  0.7798  0.0882 -0.2594
 4412SOL     OW24697   3.131   2.500   4.160 -0.0181 -0.2273 -0.1696
 4412SOL    HW124698   3.211   2.543   4.190 -1.7310  2.7126  0.2001
 4412SOL    HW224699   3.065   2.554   4.203 -0.6282 -1.7916  0.8491
 4413SOL     OW24700   1.558   2.707   7.107 -0.6897  0.3314  0.1666
 4413SOL    HW124701   1.650   2.731   7.098 -0.9635  1.4652  0.2592
 4413SOL    HW224702   1.533   2.771   7.040 -0.7973 -1.7483 -1.7501
 4414SOL     OW24703   3.050   3.202  16.002 -0.0410 -0.1322 -0.1827
 4414SOL    HW124704   3.105   3.235  16.073 -0.6093  1.5581 -0.5303
 4414SOL    HW224705   3.107   3.160  15.937 -0.0969  1.6317 -1.3650
 4415SOL     OW24706   4.504   0.634  10.286 -0.5577  0.1350  0.2983
 4415SOL    HW124707   4.458   0.715  10.308  0.3925  0.2693  1.8326
 4415SOL    HW224708   4.595   0.653  10.310 -0.9034  0.5856  1.2505
 4416SOL     OW24709   4.032   4.197  17.388  0.3118  0.4956 -0.5429
 4416SOL    HW124710   4.084   4.191  17.469  0.4545 -0.6804 -0.7190
 4416SOL    HW224711   4.012   4.290  17.395 -0.4773  0.2202  1.1309
 4417SOL     OW24712   2.938   3.079   4.573  0.2913  0.3259  0.3826
 4417SOL    HW124713   3.010   3.029   4.534  0.2995 -0.7641  1.8307
 4417SOL    HW224714   2.871   3.020   4.539  1.9536 -0.6021 -1.2946
 4418SOL     OW24715   0.751   0.719  14.474  0.0642  0.5056  0.6724
 4418SOL    HW124716   0.840   0.690  14.495 -0.4087 -0.5557  1.2620
 4418SOL    HW224717   0.728   0.748  14.562  1.2739 -0.2423  1.2510
 4419SOL     OW24718   2.283   3.464   3.483  0.0574  0.5735 -0.0406
 4419SOL    HW124719   2.249   3.448   3.395  0.7868 -1.2484  0.0065
 4419SOL    HW224720   2.370   3.486   3.448 -0.4107 -1.0694 -2.2500
 4420SOL     OW24721   1.406   0.024   1.567  0.1614 -0.1751  0.4558
 4420SOL    HW124722   1.459   0.026   1.487 -0.8430 -2.7879 -0.2773
 4420SOL    HW224723   1.323   4.717   1.528 -0.5367  1.8321  0.4579
 4421SOL     OW24724   1.458   0.664   8.806 -0.4727 -0.1961 -0.4497
 4421SOL    HW124725   1.431   0.585   8.759  3.9513  0.2040 -3.5811
 4421SOL    HW224726   1.410   0.663   8.889 -0.1394 -1.6660 -0.2841
 4422SOL     OW24727   0.957   3.196   7.821  0.3051  0.7602  0.3629
 4422SOL    HW124728   0.914   3.118   7.856 -0.8407  0.7912 -1.0053
 4422SOL    HW224729   1.019   3.223   7.889  0.2150 -0.1219  0.7971
 4423SOL     OW24730   4.385   2.993  17.206 -0.0526 -0.1716  0.5177
 4423SOL    HW124731   4.421   3.047  17.136  0.6446 -0.5308  0.5928
 4423SOL    HW224732   4.333   2.929  17.158  0.8056  0.8672 -1.8330
 4424SOL     OW24733   1.878   1.056  15.649  0.4393  0.5128 -0.0693
 4424SOL    HW124734   1.904   1.067  15.558  0.2775 -0.5402 -0.2484
 4424SOL    HW224735   1.784   1.069  15.639 -0.0169 -1.8380  1.0935
 4425SOL     OW24736   0.478   1.681   6.786 -0.1081  0.4835 -0.2401
 4425SOL    HW124737   0.532   1.755   6.760  3.9873 -2.0103  1.1022
 4425SOL    HW224738   0.476   1.628   6.706 -0.7236 -0.3253  0.3064
 4426SOL     OW24739   4.557   1.050   3.846  0.5058  0.6547 -0.2675
 4426SOL    HW124740   4.495   1.068   3.917 -0.1370 -1.4206 -0.3010
 4426SOL    HW224741   4.570   1.144   3.832  0.9044  0.4780 -1.0657
 4427SOL     OW24742   1.971   2.765   9.103  0.2603  0.3522 -0.3729
 4427SOL    HW124743   2.003   2.679   9.132  1.8926  1.4429  1.0591
 4427SOL    HW224744   2.019   2.831   9.153  0.4696 -0.0448 -0.0495
 4428SOL     OW24745   2.762   4.677   2.367  0.2403  0.3379 -0.3424
 4428SOL    HW124746   2.839   0.007   2.346  0.5621 -0.8786 -2.1297
 4428SOL    HW224747   2.791   4.663   2.457  0.2456  0.5984 -0.3039
 4429SOL     OW24748   4.265   2.775   5.753 -0.0825 -0.2782  0.8060
 4429SOL    HW124749   4.225   2.813   5.832 -0.4042 -0.0102  0.5146
 4429SOL    HW224750   4.199   2.719   5.713  1.7554 -0.6687 -1.6594
 4430SOL     OW24751   2.310   2.807   2.143  0.0714 -0.9468  0.4152
 4430SOL    HW124752   2.393   2.855   2.140 -0.5396  0.0975 -0.0207
 4430SOL    HW224753   2.303   2.776   2.052  0.2778  0.5185 -0.1115
 4431SOL     OW24754   2.614   1.910   1.930 -0.2773 -0.3129 -0.0950
 4431SOL    HW124755   2.546   1.935   1.868  0.0068 -1.9814 -1.0693
 4431SOL    HW224756   2.569   1.837   1.973  0.9641 -1.5608 -0.9561
 4432SOL     OW24757   4.481   2.239   5.670  0.2141  0.3392 -0.2769
 4432SOL    HW124758   4.467   2.272   5.759  2.1482 -0.8364  0.4471
 4432SOL    HW224759   4.573   2.215   5.682 -0.0885 -0.8424 -0.3788
 4433SOL     OW24760   0.150   4.441   1.648  0.3950 -0.4684  0.2226
 4433SOL    HW124761   0.159   4.528   1.609 -1.2370 -0.7033 -0.6701
 4433SOL    HW224762   0.119   4.382   1.579 -1.0629 -1.7560  1.9855
 4434SOL     OW24763   1.249   0.334   4.781  0.6467 -0.3084 -0.2748
 4434SOL    HW124764   1.217   0.278   4.852 -1.4694  1.0212 -0.1866
 4434SOL    HW224765   1.177   0.397   4.781 -0.0214 -1.0669 -0.6600
 4435SOL     OW24766   2.536   4.236   2.084  0.1220 -0.0641  0.0892
 4435SOL    HW124767   2.554   4.323   2.050 -1.4118  0.0967 -0.2916
 4435SOL    HW224768   2.517   4.182   2.007 -0.8486  1.0199 -0.4264
 4436SOL     OW24769   1.756   0.764   3.832  0.4572  0.1333  0.0901
 4436SOL    HW124770   1.665   0.794   3.827  0.6862  0.1483 -3.4339
 4436SOL    HW224771   1.733   0.681   3.873  0.8815 -0.0222  0.0152
 4437SOL     OW24772   1.684   0.016  12.242 -0.5607  0.5290 -0.4834
 4437SOL    HW124773   1.722   4.679  12.307 -1.6849 -0.2478 -0.5402
 4437SOL    HW224774   1.703   0.104  12.276  2.7690 -0.0064 -0.9491
 4438SOL     OW24775   2.907   0.310   3.249  0.1884  0.4374  0.5238
 4438SOL    HW124776   2.853   0.304   3.327  0.3660  0.8375  0.6767
 4438SOL    HW224777   2.855   0.358   3.184  3.2339  2.9660 -0.0469
 4439SOL     OW24778   2.858   0.844  15.078  0.3272  0.0265 -0.1138
 4439SOL    HW124779   2.862   0.937  15.101 -0.8541 -0.1354  0.7669
 4439SOL    HW224780   2.793   0.832  15.008 -0.7029 -0.6767  0.9675
 4440SOL     OW24781   4.455   2.862   5.027  0.0194 -0.7136  0.4220
 4440SOL    HW124782   4.470   2.775   4.991  1.5455 -1.1117  2.0097
 4440SOL    HW224783   4.492   2.854   5.115 -0.0696 -1.3480  0.4003
 4441SOL     OW24784   4.613   4.311   9.953 -0.0399  0.0731 -0.0783
 4441SOL    HW124785   4.537   4.302   9.895  0.9173 -0.8660 -1.2085
 4441SOL    HW224786   4.575   4.376  10.011 -0.7741  2.1634 -2.9203
 4442SOL     OW24787   3.808   3.463  14.045  0.5059  0.3532 -0.0516
 4442SOL    HW124788   3.807   3.371  14.070 -0.1344  0.4500  0.2809
 4442SOL    HW224789   3.759   3.500  14.119 -0.0714 -0.6545  0.0780
 4443SOL     OW24790   3.644   4.340   1.904 -0.1234  0.2388 -0.3453
 4443SOL    HW124791   3.649   4.418   1.959 -0.4306  0.0542 -0.0558
 4443SOL    HW224792   3.579   4.293   1.957 -0.8164  0.1690 -1.2620
 4444SOL     OW24793   3.870   0.896  12.371 -0.3820  0.5249  0.3010
 4444SOL    HW124794   3.861   0.883  12.465 -1.2124 -0.6573  0.0495
 4444SOL    HW224795   3.780   0.910  12.343  0.0249  4.3125  0.8654
 4445SOL     OW24796   4.003   3.886   3.911 -0.1487 -0.1054  0.4816
 4445SOL    HW124797   4.075   3.938   3.946  1.0811 -0.2122 -1.8584
 4445SOL    HW224798   4.029   3.871   3.819 -0.5822  0.6443  0.2382
 4446SOL     OW24799   3.452   3.614   2.014  0.1141  0.1141 -0.6865
 4446SOL    HW124800   3.387   3.568   1.962  0.4983 -1.9081  0.5990
 4446SOL    HW224801   3.518   3.545   2.021 -0.9521 -0.7483  0.7293
 4447SOL     OW24802   1.276   2.439   8.081 -0.2032 -0.2713 -0.7664
 4447SOL    HW124803   1.281   2.463   8.174  1.8133  1.8345 -1.4274
 4447SOL    HW224804   1.346   2.490   8.041  0.0403  0.8153  1.0450
 4448SOL     OW24805   2.871   0.812  16.965 -0.1939  0.7488 -0.1300
 4448SOL    HW124806   2.940   0.789  17.027 -0.5794  2.0436  0.7942
 4448SOL    HW224807   2.843   0.899  16.994 -0.2401  0.8610 -0.5103
 4449SOL     OW24808   0.828   2.226   0.828 -0.2387 -0.7726  0.1056
 4449SOL    HW124809   0.788   2.313   0.838  0.7903 -0.0930 -1.7910
 4449SOL    HW224810   0.754   2.174   0.860 -0.9167  1.8742  2.9229
 4450SOL     OW24811   2.572   1.526   4.491  0.0250 -0.3231 -0.0322
 4450SOL    HW124812   2.634   1.598   4.477 -1.5311  0.5789 -2.3429
 4450SOL    HW224813   2.492   1.559   4.449 -0.5051  0.1339  1.3411
 4451SOL     OW24814   1.530   3.042   9.845 -0.1672 -0.4307  0.1993
 4451SOL    HW124815   1.518   3.135   9.826  0.7902 -0.0538  1.4711
 4451SOL    HW224816   1.580   3.051   9.926  2.1952  1.6575 -1.4960
 4452SOL     OW24817   2.856   4.149   0.576 -0.1663  0.6136  0.6712
 4452SOL    HW124818   2.865   4.221   0.513 -0.9544 -0.6763 -0.9133
 4452SOL    HW224819   2.856   4.076   0.514 -0.9688  0.2908  1.0519
 4453SOL     OW24820   3.486   0.306  11.952 -0.0281  0.2420  0.3883
 4453SOL    HW124821   3.399   0.338  11.974 -1.0559 -2.5536  0.4597
 4453SOL    HW224822   3.521   0.309  12.042 -1.1703  1.0405  0.8039
 4454SOL     OW24823   2.449   2.212   0.224 -0.2790  0.0699 -0.1211
 4454SOL    HW124824   2.361   2.242   0.245 -1.0465 -1.0884 -1.7126
 4454SOL    HW224825   2.470   2.285   0.166 -1.1601 -1.0476 -1.8339
 4455SOL     OW24826   3.949   1.458   3.586  0.0191  0.2261 -0.0860
 4455SOL    HW124827   3.959   1.365   3.606 -1.6597  0.2126  0.7684
 4455SOL    HW224828   4.026   1.497   3.627  0.4827  2.4286 -3.0702
 4456SOL     OW24829   4.051   1.560  17.582 -0.1427 -0.3178  0.3013
 4456SOL    HW124830   4.146   1.554  17.594 -0.0683 -2.1646 -1.3148
 4456SOL    HW224831   4.020   1.635  17.633  2.2818  0.8041  0.1413
 4457SOL     OW24832   0.613   2.197   8.242  0.0580 -0.2068 -0.1215
 4457SOL    HW124833   0.561   2.270   8.274  1.9059  1.9894 -2.0703
 4457SOL    HW224834   0.555   2.168   8.171  0.1571 -1.7898  0.4286
 4458SOL     OW24835   0.129   0.940  13.293  0.1818 -0.8618 -0.3970
 4458SOL    HW124836   0.139   0.939  13.198 -2.7085 -0.2197 -0.7249
 4458SOL    HW224837   0.110   0.847  13.304  0.3099 -0.6001  2.1053
 4459SOL     OW24838   3.358   2.727   7.003 -0.1488  0.2012 -0.2328
 4459SOL    HW124839   3.329   2.657   7.062 -0.0599  0.7268  0.4448
 4459SOL    HW224840   3.452   2.727   7.021  0.2049 -1.9383 -2.1282
 4460SOL     OW24841   0.636   0.329   7.258 -0.4734  0.1466  0.2823
 4460SOL    HW124842   0.578   0.393   7.216  0.6292 -0.1556 -1.7421
 4460SOL    HW224843   0.672   0.382   7.329 -1.0499 -1.9413  2.1136
 4461SOL     OW24844   0.320   4.360   1.834  0.1077  0.2554  0.2237
 4461SOL    HW124845   0.238   4.379   1.789 -0.1561 -1.0814  0.1314
 4461SOL    HW224846   0.377   4.337   1.760 -0.0774  1.5631 -0.3193
 4462SOL     OW24847   1.136   3.289   9.711  0.8108 -0.0814  0.0074
 4462SOL    HW124848   1.076   3.325   9.646  1.2690  0.2824 -0.2181
 4462SOL    HW224849   1.154   3.199   9.685 -0.3266  0.7958 -3.8620
 4463SOL     OW24850   0.083   4.563   2.839 -0.1879  0.0974  0.3062
 4463SOL    HW124851   0.059   4.597   2.752 -1.3520  0.0679  0.6220
 4463SOL    HW224852   0.085   4.643   2.892  3.5653  1.3333 -1.6642
 4464SOL     OW24853   2.873   4.203   4.055 -0.1737 -0.3169  0.1399
 4464SOL    HW124854   2.819   4.230   4.129 -0.4421  1.3724 -0.6862
 4464SOL    HW224855   2.812   4.200   3.982  0.0270 -0.4007 -0.0244
 4465SOL     OW24856   0.535   3.962   4.631  0.1643 -0.0709  0.2613
 4465SOL    HW124857   0.542   3.872   4.599  3.0788 -0.1761  1.1692
 4465SOL    HW224858   0.491   3.948   4.715  1.3117  0.8503  1.0102
 4466SOL     OW24859   3.136   0.271   1.104  0.0429 -0.0908  0.1055
 4466SOL    HW124860   3.130   0.365   1.085 -2.4296 -0.4040 -0.6431
 4466SOL    HW224861   3.045   0.244   1.094  0.5685 -1.2507 -1.4497
 4467SOL     OW24862   4.646   0.825   5.903  0.4391  0.3863 -0.3381
 4467SOL    HW124863   4.646   0.729   5.907 -1.7395  0.4718  2.1747
 4467SOL    HW224864   4.694   0.831   5.821 -0.9788  0.8850 -1.1110
 4468SOL     OW24865   3.760   2.480   5.243 -0.3458  0.4038 -0.1428
 4468SOL    HW124866   3.794   2.437   5.164 -0.2998  0.3461 -0.0917
 4468SOL    HW224867   3.701   2.540   5.197 -0.5354  0.2275 -0.1287
 4469SOL     OW24868   4.620   0.003   6.384 -0.3956 -0.7538 -0.3079
 4469SOL    HW124869   4.586   4.635   6.388 -0.4566 -0.7787 -1.3903
 4469SOL    HW224870   4.534   0.037   6.360 -0.7790 -0.8143  0.9727
 4470SOL     OW24871   0.200   3.313   9.602 -0.1118  0.6234 -0.4858
 4470SOL    HW124872   0.248   3.333   9.682 -1.0589  0.1302  0.2120
 4470SOL    HW224873   0.235   3.230   9.572  0.5684  1.4202 -1.8917
 4471SOL     OW24874   0.779   1.398   6.826  0.4483  0.0240 -0.3664
 4471SOL    HW124875   0.837   1.322   6.830  0.9312  0.3436 -1.2278
 4471SOL    HW224876   0.798   1.437   6.911 -0.5849 -2.1002  0.8203
 4472SOL     OW24877   2.255   1.627   4.595  0.3425  0.1663 -0.0143
 4472SOL    HW124878   2.244   1.685   4.520  2.4940 -1.1109 -1.3014
 4472SOL    HW224879   2.165   1.627   4.629  0.7964  0.6873  1.1996
 4473SOL     OW24880   1.603   2.932   7.379 -0.2276  0.6198 -0.1683
 4473SOL    HW124881   1.677   2.927   7.318 -0.8953 -0.0704 -0.9347
 4473SOL    HW224882   1.532   2.963   7.323 -1.9539 -0.1170  1.6460
 4474SOL     OW24883   0.808   1.835   6.863 -0.0886  0.0505 -0.4749
 4474SOL    HW124884   0.786   1.778   6.789  0.2628 -1.2426  0.4338
 4474SOL    HW224885   0.902   1.841   6.845  0.7326 -2.0530  3.2102
 4475SOL     OW24886   0.100   1.324  15.674  0.2026  0.1437  0.2755
 4475SOL    HW124887   0.059   1.372  15.746 -0.6736  0.4348 -0.4213
 4475SOL    HW224888   0.026   1.325  15.614  1.3120 -1.9429 -1.1645
 4476SOL     OW24889   3.584   2.500   7.113  0.2857 -0.0928 -0.3913
 4476SOL    HW124890   3.666   2.478   7.069  1.0850  1.9006  0.1423
 4476SOL    HW224891   3.529   2.435   7.069 -3.2107 -0.3523  4.4488
 4477SOL     OW24892   2.744   1.342   8.015 -0.6709  0.3622 -0.1962
 4477SOL    HW124893   2.679   1.411   8.006  0.4225  1.4083 -0.0999
 4477SOL    HW224894   2.789   1.387   8.086 -0.5665 -1.8266  1.1305
 4478SOL     OW24895   1.655   4.103   6.633  0.1313  0.4416 -0.3846
 4478SOL    HW124896   1.646   4.188   6.591 -0.4123 -0.0240 -1.1978
 4478SOL    HW224897   1.578   4.059   6.598 -0.0571  0.2425  0.2737
 4479SOL     OW24898   2.249   3.572   2.207  0.0581  0.4337  0.2077
 4479SOL    HW124899   2.275   3.482   2.186  0.2646  1.2073 -2.9157
 4479SOL    HW224900   2.208   3.606   2.128  0.7780  1.0065  0.0840
 4480SOL     OW24901   1.221   4.367   7.118 -0.1927 -0.3916 -0.8024
 4480SOL    HW124902   1.232   4.325   7.203  0.2272  0.5572 -0.3838
 4480SOL    HW224903   1.206   4.294   7.058 -1.8541  0.5290 -1.4956
 4481SOL     OW24904   4.464   4.585   9.484  0.7616 -0.5648 -0.0999
 4481SOL    HW124905   4.526   4.656   9.500  0.1236 -0.5622  2.3998
 4481SOL    HW224906   4.395   4.595   9.550  0.3950 -0.9156 -0.4281
 4482SOL     OW24907   2.653   3.462   1.953 -0.4147  0.5597 -0.1831
 4482SOL    HW124908   2.600   3.521   2.007 -1.2050 -0.5617  0.2674
 4482SOL    HW224909   2.634   3.492   1.864 -0.2665 -2.4388 -1.2187
 4483SOL     OW24910   1.002   2.708   3.554  0.5362 -0.0279 -0.3967
 4483SOL    HW124911   1.032   2.632   3.504  0.1651 -2.0686  2.4296
 4483SOL    HW224912   0.993   2.675   3.643  0.6222 -0.8482 -0.6919
 4484SOL     OW24913   4.249   2.459   6.088 -0.2847  0.6195 -0.3614
 4484SOL    HW124914   4.182   2.527   6.097 -2.2789 -1.5368  1.3101
 4484SOL    HW224915   4.193   2.390   6.054 -0.3186  0.2466  0.4375
 4485SOL     OW24916   1.538   2.480  12.503  0.0388 -0.2955  0.2913
 4485SOL    HW124917   1.447   2.510  12.504 -0.0429 -0.6262  2.0988
 4485SOL    HW224918   1.564   2.483  12.595 -1.7998 -0.1236  0.8097
 4486SOL     OW24919   4.486   4.275   6.658  0.6950  0.2052  0.3472
 4486SOL    HW124920   4.451   4.188   6.678  1.3943 -0.2667 -0.4901
 4486SOL    HW224921   4.478   4.317   6.743 -1.2426  1.8602 -0.6395
 4487SOL     OW24922   3.634   2.634  10.179 -0.1356 -0.4175  0.7084
 4487SOL    HW124923   3.681   2.579  10.117  0.0422 -1.0329  1.3919
 4487SOL    HW224924   3.555   2.643  10.126 -0.3840  1.5294  1.3823
 4488SOL     OW24925   3.438   2.466   2.558 -0.0428 -0.0364 -0.2799
 4488SOL    HW124926   3.526   2.462   2.519 -1.4475  1.5685 -3.6157
 4488SOL    HW224927   3.452   2.412   2.636  1.9088 -0.5742 -0.9947
 4489SOL     OW24928   1.651   2.798  11.536 -0.5600 -0.4412  0.6784
 4489SOL    HW124929   1.641   2.705  11.516  5.1654 -0.1165 -3.5742
 4489SOL    HW224930   1.717   2.797  11.605  0.3756 -1.4327 -0.2351
 4490SOL     OW24931   0.185   2.894   2.587  0.1087  0.4498  0.0367
 4490SOL    HW124932   0.142   2.832   2.646  1.4386 -0.7195 -0.2395
 4490SOL    HW224933   0.204   2.963   2.651  1.5459 -0.3906  0.5090
 4491SOL     OW24934   0.899   3.285  16.264  0.1988  0.5241  0.0654
 4491SOL    HW124935   0.992   3.274  16.284  0.3519  1.2926 -0.2072
 4491SOL    HW224936   0.878   3.357  16.324  0.9671  1.0416 -0.2785
 4492SOL     OW24937   4.506   0.269   8.119  0.2994  0.2003  0.1240
 4492SOL    HW124938   4.557   0.350   8.112 -1.2549  1.3077  1.6853
 4492SOL    HW224939   4.416   0.301   8.125  0.0462 -0.5859  0.5404
 4493SOL     OW24940   2.910   3.986   4.474 -0.3139 -0.0930  0.4398
 4493SOL    HW124941   2.815   3.998   4.463 -0.3261 -0.4316  0.1752
 4493SOL    HW224942   2.939   3.976   4.384 -0.5021 -1.3513  0.5125
 4494SOL     OW24943   2.952   3.288   0.186 -0.3199  0.2362  0.0386
 4494SOL    HW124944   2.976   3.344   0.260 -1.5328 -0.5348  1.0067
 4494SOL    HW224945   2.863   3.262   0.209 -0.5705  1.7437  0.7996
 4495SOL     OW24946   4.234   2.370  14.528 -0.1514  0.2947  0.0298
 4495SOL    HW124947   4.259   2.298  14.586  1.2996 -0.4910 -1.5545
 4495SOL    HW224948   4.140   2.354  14.529  0.1463 -1.6004 -2.2632
 4496SOL     OW24949   1.167   3.779   8.627  0.1669  0.4599  0.1599
 4496SOL    HW124950   1.191   3.690   8.652 -0.3403  0.4278  0.5263
 4496SOL    HW224951   1.174   3.766   8.532  1.9501 -1.9990  0.6144
 4497SOL     OW24952   4.280   2.975   4.855  0.0768  0.1390 -0.4784
 4497SOL    HW124953   4.230   3.032   4.913 -0.3324 -2.1342  1.4401
 4497SOL    HW224954   4.341   2.942   4.922 -0.5771 -0.7449 -0.3067
 4498SOL     OW24955   0.275   0.038   2.013  0.3011 -0.6377 -0.1134
 4498SOL    HW124956   0.347   0.068   2.068 -0.8551  0.3928  0.8396
 4498SOL    HW224957   0.287   4.666   2.016  0.1443 -0.6746 -0.7713
 4499SOL     OW24958   2.735   4.498   9.132 -0.6620 -0.5015 -0.1121
 4499SOL    HW124959   2.715   4.434   9.200  1.2736  1.6650  2.4775
 4499SOL    HW224960   2.824   4.529   9.148 -0.9898  2.0970 -3.3944
 4500SOL     OW24961   2.095   0.553   7.795 -0.2480 -0.5153 -0.5538
 4500SOL    HW124962   2.159   0.612   7.755  2.3797 -2.3223  0.9732
 4500SOL    HW224963   2.107   0.479   7.736 -0.0096 -1.9840  1.3464
 4501SOL     OW24964   0.304   2.518   1.651 -0.3897  0.6879 -0.1904
 4501SOL    HW124965   0.303   2.580   1.724  2.2534 -0.6862  1.0098
 4501SOL    HW224966   0.258   2.553   1.575  0.2304  1.8238 -0.0526
 4502SOL     OW24967   3.775   2.825   3.291 -0.0602 -0.0123  0.2006
 4502SOL    HW124968   3.807   2.816   3.202  1.8394 -2.2160  1.1046
 4502SOL    HW224969   3.813   2.907   3.324 -0.2162  0.2816 -0.3461
 4503SOL     OW24970   2.597   3.908   5.183 -0.4010 -0.5132  0.2554
 4503SOL    HW124971   2.676   3.886   5.134 -0.2368 -2.9221  1.6388
 4503SOL    HW224972   2.542   3.915   5.105  0.1144  0.7703  0.0044
 4504SOL     OW24973   2.138   3.416   3.256 -0.4433 -0.1021  0.6101
 4504SOL    HW124974   2.066   3.471   3.225 -0.8203 -0.2791  1.1791
 4504SOL    HW224975   2.124   3.331   3.213  0.8154  1.3044 -2.6009
 4505SOL     OW24976   0.903   2.205   4.757  0.5816 -0.3151 -0.0834
 4505SOL    HW124977   0.882   2.179   4.667 -0.4599  1.5449 -0.3854
 4505SOL    HW224978   0.981   2.150   4.765  1.3467  0.3167 -2.9406
 4506SOL     OW24979   2.809   3.694  13.030  0.0646 -0.1648  0.6128
 4506SOL    HW124980   2.880   3.696  12.966  3.4163  2.7795  4.4188
 4506SOL    HW224981   2.828   3.614  13.080  0.7327 -0.8544 -0.7350
 4507SOL     OW24982   0.234   3.238  12.366  0.5462  0.5431 -0.0606
 4507SOL    HW124983   0.186   3.320  12.356 -1.3822 -0.5555  0.0497
 4507SOL    HW224984   0.268   3.245  12.455  0.1155  0.3721  0.1190
 4508SOL     OW24985   4.465   0.723   0.969 -0.9363  0.3339  0.2522
 4508SOL    HW124986   4.386   0.740   0.918 -1.7983 -2.7277  0.5265
 4508SOL    HW224987   4.492   0.814   0.979 -1.7630  0.4438  1.4330
 4509SOL     OW24988   4.029   0.518   2.896 -0.5398  0.0770  0.1093
 4509SOL    HW124989   4.021   0.556   2.983  0.2615  1.6128 -0.4948
 4509SOL    HW224990   4.090   0.580   2.856 -0.9849 -0.2008 -1.0018
 4510SOL     OW24991   1.608   4.646   8.754  0.5822  0.4472 -0.4760
 4510SOL    HW124992   1.546   4.666   8.824 -0.9249 -2.6427 -0.9562
 4510SOL    HW224993   1.634   4.560   8.786 -0.1318  0.0009 -1.0928
 4511SOL     OW24994   4.476   4.186  12.087  0.1260  0.1831  0.2054
 4511SOL    HW124995   4.514   4.128  12.154 -0.4609  0.1811  0.5424
 4511SOL    HW224996   4.458   4.119  12.021  0.7325  1.7515 -1.5487
 4512SOL     OW24997   1.137   3.603   3.936  0.0712  0.0564  0.0480
 4512SOL    HW124998   1.208   3.541   3.951  0.0698 -0.0849 -0.5393
 4512SOL    HW224999   1.086   3.579   3.859 -0.4967  0.6400  0.2411
 4513SOL     OW25000   0.303   0.283  11.585 -0.0999 -0.3626 -0.1076
 4513SOL    HW125001   0.221   0.332  11.594 -1.2220 -2.0774 -0.9575
 4513SOL    HW225002   0.311   0.275  11.490  0.3419  3.5363 -0.3857
 4514SOL     OW25003   4.444   2.183  16.657 -0.1268  0.5100 -0.3162
 4514SOL    HW125004   4.475   2.199  16.568 -1.4301 -4.1317 -1.6033
 4514SOL    HW225005   4.505   2.114  16.684  0.9509  1.4880 -0.2681
 4515SOL     OW25006   1.744   2.382   5.246  0.0703 -0.0478  0.4292
 4515SOL    HW125007   1.746   2.427   5.330 -1.6450  0.5623  0.1345
 4515SOL    HW225008   1.827   2.413   5.210 -1.9080  1.6619 -2.7130
 4516SOL     OW25009   1.870   4.596   5.898 -0.3576 -0.5854  0.1918
 4516SOL    HW125010   1.896   4.529   5.835 -2.6177 -1.2363 -0.0337
 4516SOL    HW225011   1.949   4.616   5.949 -0.7585  0.0785  0.5490
 4517SOL     OW25012   4.426   2.805  17.397 -0.0511  0.2758  0.0656
 4517SOL    HW125013   4.372   2.848  17.330  2.6650  1.3306 -1.4573
 4517SOL    HW225014   4.463   2.886  17.433  0.4111  0.2909 -0.4308
 4518SOL     OW25015   2.470   4.374  16.184 -0.2506  0.3526 -0.0146
 4518SOL    HW125016   2.509   4.360  16.270 -2.7200  0.5398  1.1321
 4518SOL    HW225017   2.547   4.407  16.137  0.5883 -0.6474  0.6622
 4519SOL     OW25018   4.456   1.675   3.619  0.8694  0.5930 -0.5734
 4519SOL    HW125019   4.392   1.743   3.638 -1.5636 -1.5246 -1.0999
 4519SOL    HW225020   4.423   1.639   3.537 -1.9237  0.3109  0.6695
 4520SOL     OW25021   0.479   3.715   2.328  0.0831  0.7183 -0.3358
 4520SOL    HW125022   0.559   3.720   2.276  2.1439  0.2377  2.7679
 4520SOL    HW225023   0.514   3.726   2.416 -1.5378  0.2483  0.3654
 4521SOL     OW25024   3.954   4.314  12.546  0.2103 -0.0624  0.6105
 4521SOL    HW125025   3.879   4.266  12.580  0.4493  1.2778  3.0552
 4521SOL    HW225026   3.928   4.316  12.454  0.9172  0.6797  0.4204
 4522SOL     OW25027   1.232   3.083  10.427  0.1878 -0.3464 -0.0626
 4522SOL    HW125028   1.198   3.003  10.467 -3.1086 -0.4867 -3.0997
 4522SOL    HW225029   1.326   3.070  10.436  0.5051  1.5003 -0.8759
 4523SOL     OW25030   4.202   2.593   7.738  0.3121  0.3738  0.4423
 4523SOL    HW125031   4.187   2.669   7.681 -0.0586  0.3336  0.4872
 4523SOL    HW225032   4.179   2.525   7.675 -1.5553  0.8006  0.6716
 4524SOL     OW25033   1.316   0.947   8.057 -0.4590 -0.2954  0.5856
 4524SOL    HW125034   1.396   0.921   8.103  0.8829 -0.3933 -1.8511
 4524SOL    HW225035   1.327   1.042   8.053 -1.1580 -0.2707 -0.9248
 4525SOL     OW25036   1.762   4.151   1.257 -0.1607 -0.4524 -0.1296
 4525SOL    HW125037   1.731   4.079   1.202  1.3513  0.2297 -1.8832
 4525SOL    HW225038   1.823   4.108   1.317 -2.2988  0.0162  2.4151
 4526SOL     OW25039   1.572   2.614   2.756  0.7183  0.1953 -0.7334
 4526SOL    HW125040   1.656   2.586   2.721  0.9561  1.6902 -1.3505
 4526SOL    HW225041   1.601   2.644   2.842  0.6066 -0.3279 -0.5095
 4527SOL     OW25042   0.856   0.272   4.880  0.2820  1.0028  0.1747
 4527SOL    HW125043   0.889   0.311   4.799  0.9568 -0.7514 -0.3790
 4527SOL    HW225044   0.928   0.245   4.936 -0.2738 -1.2730 -0.2083
 4528SOL     OW25045   3.168   4.143   6.397  0.3436 -0.1455  0.5109
 4528SOL    HW125046   3.093   4.161   6.341  1.3022 -0.7148 -0.9412
 4528SOL    HW225047   3.186   4.056   6.363 -0.5226 -0.2464  0.2927
 4529SOL     OW25048   1.286   2.694   6.078  0.3142 -0.3737  0.6430
 4529SOL    HW125049   1.226   2.713   6.150  1.3866  0.8854  1.2111
 4529SOL    HW225050   1.368   2.727   6.115  1.0677 -0.4451 -0.9337
 4530SOL     OW25051   3.255   3.806   8.785  0.2344 -0.2896 -0.3089
 4530SOL    HW125052   3.268   3.828   8.877 -0.1928  0.3478 -0.4061
 4530SOL    HW225053   3.346   3.810   8.756  0.4601  2.7040  0.8273
 4531SOL     OW25054   2.555   3.870   2.817  0.4901  0.0761 -0.1650
 4531SOL    HW125055   2.486   3.918   2.771 -0.6575 -1.9588 -0.5770
 4531SOL    HW225056   2.620   3.854   2.748 -1.1631  0.6876 -1.8764
 4532SOL     OW25057   1.193   3.608   6.960  0.2904  0.4108 -0.3811
 4532SOL    HW125058   1.245   3.586   6.883 -0.3291 -1.8846 -0.1218
 4532SOL    HW225059   1.154   3.522   6.972 -0.2535  0.5857 -0.8903
 4533SOL     OW25060   0.750   2.786   8.142 -0.4114  0.3336 -0.1554
 4533SOL    HW125061   0.829   2.733   8.150 -1.8457 -1.6566  1.0039
 4533SOL    HW225062   0.695   2.754   8.214 -0.6467  0.7476 -0.1570
 4534SOL     OW25063   2.295   1.909  15.171 -0.1247  0.5892 -0.2840
 4534SOL    HW125064   2.355   1.965  15.122 -0.0343  2.4671  1.9375
 4534SOL    HW225065   2.213   1.956  15.155 -0.3201  0.7467  1.0981
 4535SOL     OW25066   2.553   4.580   2.236 -0.3713 -0.1819  0.2645
 4535SOL    HW125067   2.584   4.544   2.153  0.9387 -0.1400  0.7308
 4535SOL    HW225068   2.632   4.623   2.269 -0.3300 -0.4079  0.4614
 4536SOL     OW25069   0.338   3.292   8.140  0.2653 -0.3199 -0.1542
 4536SOL    HW125070   0.295   3.311   8.057  1.3175 -0.3585 -0.7105
 4536SOL    HW225071   0.371   3.203   8.131  1.2029  0.1171 -1.1019
 4537SOL     OW25072   3.519   1.416   9.606  0.0315 -0.3451  0.0621
 4537SOL    HW125073   3.523   1.354   9.533  2.3596 -0.3108  0.1709
 4537SOL    HW225074   3.563   1.362   9.671 -0.1476 -0.8930 -0.2778
 4538SOL     OW25075   1.112   2.698   5.615 -0.1887  0.2624 -0.8500
 4538SOL    HW125076   1.066   2.676   5.534  3.0569  1.5738 -3.0107
 4538SOL    HW225077   1.054   2.765   5.650  0.7447  0.3449  0.5498
 4539SOL     OW25078   1.394   3.302   9.848 -0.6378 -0.0003  0.0898
 4539SOL    HW125079   1.346   3.323   9.928 -1.8044 -2.1812 -0.0418
 4539SOL    HW225080   1.315   3.288   9.795 -0.6451 -3.2465  0.9738
 4540SOL     OW25081   2.532   1.572   7.117  0.3793 -0.0621 -0.0461
 4540SOL    HW125082   2.452   1.518   7.121  0.3236  0.0206 -0.0488
 4540SOL    HW225083   2.532   1.601   7.208 -1.9992  0.7376 -0.3034
 4541SOL     OW25084   2.241   2.696   3.023 -0.1008 -0.0773 -0.2254
 4541SOL    HW125085   2.190   2.629   2.977 -1.0685 -0.5267  1.5143
 4541SOL    HW225086   2.322   2.645   3.017 -0.3994 -0.5133 -0.5270
 4542SOL     OW25087   0.897   4.417   3.162 -0.3050  0.3968  0.3971
 4542SOL    HW125088   0.957   4.354   3.122 -1.8668 -1.8988  1.6797
 4542SOL    HW225089   0.960   4.482   3.193  0.4046  0.4045 -1.0535
 4543SOL     OW25090   0.264   4.005   3.264  0.4249 -0.0973  0.5992
 4543SOL    HW125091   0.225   3.925   3.229  0.2913  0.2035  0.0602
 4543SOL    HW225092   0.309   3.965   3.338  1.7306  0.0349 -0.1312
 4544SOL     OW25093   4.583   3.012   2.473 -0.5036 -0.3912  0.2532
 4544SOL    HW125094   4.543   2.937   2.430  0.5386 -1.7068  1.5658
 4544SOL    HW225095   4.604   3.070   2.400  0.5904 -2.1108 -0.8035
 4545SOL     OW25096   0.197   1.513   9.721 -0.0174 -0.2844 -0.2458
 4545SOL    HW125097   0.182   1.607   9.721 -2.1063 -0.6194  0.9838
 4545SOL    HW225098   0.226   1.497   9.631  0.4784  0.2285 -0.1735
 4546SOL     OW25099   3.966   1.011   3.394 -0.4099 -0.0717 -0.4637
 4546SOL    HW125100   3.880   1.050   3.378 -0.3344  0.0442 -0.5841
 4546SOL    HW225101   4.016   1.038   3.317 -2.6507  1.1822 -1.4855
 4547SOL     OW25102   2.343   3.498   2.649 -0.4064 -0.3721  0.2979
 4547SOL    HW125103   2.261   3.450   2.662 -0.9727  1.4669  3.4880
 4547SOL    HW225104   2.312   3.588   2.637 -3.5600 -1.5328 -0.4062
 4548SOL     OW25105   2.291   3.042   6.633 -0.6758  0.4771  0.3846
 4548SOL    HW125106   2.303   3.088   6.549  0.0339  1.1843  0.8694
 4548SOL    HW225107   2.374   2.995   6.645 -0.8370  0.7384  2.4176
 4549SOL     OW25108   4.037   3.054   0.862 -0.2548  0.3535 -0.3705
 4549SOL    HW125109   4.086   3.135   0.871 -0.4650  0.4776 -0.3312
 4549SOL    HW225110   4.068   2.998   0.933  1.0788  1.8932  0.2552
 4550SOL     OW25111   0.707   1.726   9.463 -0.1627 -0.1951  0.3689
 4550SOL    HW125112   0.770   1.764   9.524  1.1475 -0.0633 -1.0834
 4550SOL    HW225113   0.640   1.714   9.530  0.4647 -1.7970  0.7051
 4551SOL     OW25114   1.546   1.115  12.905 -0.5765  0.1191  0.4755
 4551SOL    HW125115   1.524   1.089  12.995 -0.7449  2.7129  1.1946
 4551SOL    HW225116   1.516   1.206  12.915 -0.0392  0.4234 -0.7825
 4552SOL     OW25117   2.512   4.634   8.147  0.2299 -0.2371  0.3815
 4552SOL    HW125118   2.477   4.561   8.199  0.8516  0.2188  1.4390
 4552SOL    HW225119   2.585   4.601   8.095 -0.5605 -0.1969 -0.7484
 4553SOL     OW25120   1.162   3.734   8.377  1.3419 -0.1930 -0.6012
 4553SOL    HW125121   1.193   3.712   8.289  1.7098  0.0119 -0.5191
 4553SOL    HW225122   1.073   3.699   8.375  0.3489  2.2549  0.5017
 4554SOL     OW25123   4.406   1.610   2.675  0.6756 -0.0416  0.2660
 4554SOL    HW125124   4.343   1.651   2.734 -0.7861  1.0144 -2.0238
 4554SOL    HW225125   4.475   1.585   2.736 -0.6105 -0.5197  1.5077
 4555SOL     OW25126   0.006   3.430   2.548 -0.2779  0.1447  0.3367
 4555SOL    HW125127   4.686   3.500   2.598  0.0603 -0.4886  1.5282
 4555SOL    HW225128   0.089   3.421   2.596  0.5590 -0.1982 -1.1683
 4556SOL     OW25129   1.609   1.278  17.396  0.4436  0.6359 -0.1837
 4556SOL    HW125130   1.657   1.344  17.345 -1.3597  2.1983  0.1770
 4556SOL    HW225131   1.638   1.291  17.486 -0.1065 -2.0958  0.3900
 4557SOL     OW25132   1.808   4.254   5.195  0.2124 -0.6560 -0.9654
 4557SOL    HW125133   1.792   4.160   5.189 -0.9572 -0.5551  0.7978
 4557SOL    HW225134   1.782   4.284   5.108 -2.2073 -1.2672 -0.4624
 4558SOL     OW25135   1.140   0.156   4.946 -0.3278 -0.3782  0.4144
 4558SOL    HW125136   1.089   0.087   4.903 -2.0428  1.3324 -0.2727
 4558SOL    HW225137   1.200   0.100   4.994  0.3916 -1.5827 -1.8700
 4559SOL     OW25138   3.009   1.092   5.273  1.1052 -0.5526 -0.4208
 4559SOL    HW125139   2.994   1.175   5.228 -0.0945  0.2149  1.3880
 4559SOL    HW225140   3.086   1.057   5.228  1.5368 -0.9605  0.6387
 4560SOL     OW25141   1.800   2.334   4.982 -0.4305 -0.3628  0.3526
 4560SOL    HW125142   1.764   2.306   5.066  0.0812 -1.0549  0.3477
 4560SOL    HW225143   1.816   2.428   4.985 -2.5123  0.0321 -1.3990
 4561SOL     OW25144   2.003   1.799   8.480 -0.2715 -0.2959  0.5933
 4561SOL    HW125145   2.084   1.845   8.502 -0.3262 -0.2349  0.6665
 4561SOL    HW225146   1.934   1.861   8.503 -1.9165 -1.4505 -1.1946
 4562SOL     OW25147   0.619   2.687   2.275 -0.4003  0.3594 -0.1891
 4562SOL    HW125148   0.677   2.631   2.223  0.5682 -0.5658  1.9148
 4562SOL    HW225149   0.683   2.757   2.284  1.0475 -1.0248  0.1410
 4563SOL     OW25150   4.660   2.626   5.601 -0.2066  0.3274 -0.3461
 4563SOL    HW125151   4.658   2.685   5.526  0.3825  1.2003  0.3204
 4563SOL    HW225152   4.685   2.548   5.552 -0.5420  1.3222 -2.0878
 4564SOL     OW25153   0.121   0.308  10.624 -0.7200 -0.5665  0.2984
 4564SOL    HW125154   0.113   0.218  10.593 -0.3921  0.3465 -2.4301
 4564SOL    HW225155   0.048   0.318  10.684 -1.2416 -1.1748 -0.2375
 4565SOL     OW25156   3.145   2.389   6.302  0.3286 -0.0766  0.2198
 4565SOL    HW125157   3.226   2.370   6.351 -0.3989 -1.7170  0.7898
 4565SOL    HW225158   3.136   2.474   6.345 -0.6728  0.3162 -0.7819
 4566SOL     OW25159   1.345   3.871  14.132 -0.2899  0.1704  0.3177
 4566SOL    HW125160   1.361   3.868  14.038 -0.6394  1.5849  0.2113
 4566SOL    HW225161   1.431   3.872  14.174  0.1840  1.0133 -0.6883
 4567SOL     OW25162   0.601   1.556   1.331 -0.2484  0.0248 -0.3540
 4567SOL    HW125163   0.605   1.537   1.237  3.2014 -2.2110  0.2539
 4567SOL    HW225164   0.510   1.544   1.359 -0.4057  4.2178  0.8969
 4568SOL     OW25165   0.158   3.690   8.040 -0.1904 -0.1557  0.6413
 4568SOL    HW125166   0.245   3.695   8.000 -0.3923  0.0143  0.2230
 4568SOL    HW225167   0.103   3.748   7.987 -0.8992 -0.7580  0.7242
 4569SOL     OW25168   0.591   3.414   1.754  0.1511 -0.3197 -0.0393
 4569SOL    HW125169   0.636   3.442   1.674  3.1844 -3.7777  0.4448
 4569SOL    HW225170   0.558   3.499   1.784 -0.6022  0.4945 -3.1985
 4570SOL     OW25171   0.201   2.394   6.633  0.2562 -0.4963 -0.6714
 4570SOL    HW125172   0.171   2.475   6.591 -3.1477 -1.4433 -0.1045
 4570SOL    HW225173   0.168   2.411   6.722  0.0722  0.5682 -0.9410
 4571SOL     OW25174   0.393   1.108   5.537 -0.0947 -0.1962  0.2027
 4571SOL    HW125175   0.305   1.144   5.548  0.0355  1.0776 -3.0284
 4571SOL    HW225176   0.438   1.151   5.610 -1.4996 -0.4493  1.2145
 4572SOL     OW25177   3.031   4.240   7.477  0.0736  0.0015 -0.6088
 4572SOL    HW125178   3.009   4.225   7.569  1.1782  0.1544 -0.3204
 4572SOL    HW225179   2.978   4.318   7.459 -0.4081 -0.2023 -0.0767
 4573SOL     OW25180   2.664   4.463  13.295 -0.5027  0.4975  0.4286
 4573SOL    HW125181   2.569   4.464  13.286 -0.2816 -1.3021 -1.9279
 4573SOL    HW225182   2.681   4.449  13.388 -1.3085  2.1062  0.8111
 4574SOL     OW25183   0.078   1.295   6.207  0.1318  0.3618 -0.0665
 4574SOL    HW125184   0.004   1.247   6.245  1.1005  1.2135  2.8827
 4574SOL    HW225185   0.152   1.259   6.256 -0.1643 -1.3548 -0.8806
 4575SOL     OW25186   1.048   2.073  16.997 -0.0639  0.9202 -0.5439
 4575SOL    HW125187   0.993   1.995  16.982 -0.5520  0.6520  2.5287
 4575SOL    HW225188   0.982   2.134  16.965 -1.7409 -0.2926  0.5814
 4576SOL     OW25189   0.558   4.026   5.812 -0.1166  0.2016  0.3237
 4576SOL    HW125190   0.559   3.947   5.866 -0.8625 -1.0209 -1.4916
 4576SOL    HW225191   0.621   4.077   5.865 -0.6411  1.0016  0.1804
 4577SOL     OW25192   3.528   3.367  11.208  0.2184  0.2456 -0.1941
 4577SOL    HW125193   3.557   3.288  11.254  0.0920 -0.7588 -1.8514
 4577SOL    HW225194   3.504   3.323  11.126 -0.9245 -0.0014  0.2807
 4578SOL     OW25195   1.705   0.851   6.393  0.3062  0.2630 -0.2238
 4578SOL    HW125196   1.713   0.756   6.385  0.5405  0.4064 -1.6843
 4578SOL    HW225197   1.799   0.868   6.391  0.6950 -1.7061  1.2682
 4579SOL     OW25198   3.725   1.697   8.535 -0.0589  0.7581  0.2026
 4579SOL    HW125199   3.737   1.682   8.629  0.7381  2.0311  0.3022
 4579SOL    HW225200   3.802   1.750   8.514 -1.1809  1.1445 -2.9566
 4580SOL     OW25201   2.000   2.119  14.739  0.0353 -0.4253 -0.6207
 4580SOL    HW125202   1.951   2.076  14.669 -1.6272 -0.4683  0.5756
 4580SOL    HW225203   2.068   2.151  14.680 -0.1411 -0.9945 -1.1344
 4581SOL     OW25204   1.433   4.086   1.869 -0.2365  0.3406 -0.1746
 4581SOL    HW125205   1.519   4.097   1.830  0.1716  0.5351  0.7721
 4581SOL    HW225206   1.380   4.106   1.792 -0.5866 -1.6956 -0.4771
 4582SOL     OW25207   4.162   2.838   7.571  0.3539  0.3413  0.7343
 4582SOL    HW125208   4.108   2.826   7.493  1.3790  1.1904 -0.1080
 4582SOL    HW225209   4.138   2.927   7.597  0.7115  1.1484 -1.6355
 4583SOL     OW25210   2.983   4.604   9.169 -0.8899 -0.0542 -0.1168
 4583SOL    HW125211   3.033   4.660   9.228 -2.5674  1.4356 -0.1164
 4583SOL    HW225212   2.985   4.668   9.098  0.0921  0.7056  0.5971
 4584SOL     OW25213   1.855   2.524   3.216 -0.5482  0.3744  0.1521
 4584SOL    HW125214   1.864   2.434   3.246 -1.0003  0.2134 -0.1874
 4584SOL    HW225215   1.869   2.501   3.124 -1.7394 -2.6396  0.7233
 4585SOL     OW25216   4.400   2.717   9.671 -0.2414  0.1417 -0.5349
 4585SOL    HW125217   4.335   2.720   9.602 -0.5180  2.9169 -0.1643
 4585SOL    HW225218   4.382   2.804   9.708  1.5547 -0.3536  1.5349
 4586SOL     OW25219   2.096   4.321   7.953 -0.1018  0.7072 -0.1621
 4586SOL    HW125220   2.074   4.414   7.943 -2.1779  0.0258 -1.9585
 4586SOL    HW225221   2.149   4.321   8.032 -2.8817 -2.6512  1.7002
 4587SOL     OW25222   1.686   0.764   2.826 -0.1930 -0.4784  0.0700
 4587SOL    HW125223   1.663   0.857   2.817 -0.4323 -0.7914 -2.7498
 4587SOL    HW225224   1.599   0.730   2.803  0.9777 -2.5283 -1.3154
 4588SOL     OW25225   3.357   2.003   3.242  0.5245 -0.2759 -0.6978
 4588SOL    HW125226   3.300   2.075   3.271  1.6513  0.9100 -1.4234
 4588SOL    HW225227   3.348   2.014   3.147 -1.4531 -0.5586 -0.5513
 4589SOL     OW25228   3.750   0.736   9.756  0.3268 -0.0084 -0.4338
 4589SOL    HW125229   3.731   0.802   9.689 -0.2645 -0.8047 -1.0473
 4589SOL    HW225230   3.683   0.751   9.823 -1.9597 -0.6630 -2.5656
 4590SOL     OW25231   4.323   0.874   4.304 -0.5065 -0.3641 -0.2167
 4590SOL    HW125232   4.306   0.798   4.360 -0.7647 -0.2336 -0.1137
 4590SOL    HW225233   4.236   0.886   4.266 -1.4466  0.5506  2.1970
 4591SOL     OW25234   0.049   0.072   8.965 -0.4879  0.7733  0.1635
 4591SOL    HW125235   0.121   0.046   9.022 -1.3468  0.2907  1.0206
 4591SOL    HW225236   4.696   0.044   9.017  0.1985 -0.5227  0.4361
 4592SOL     OW25237   3.819   0.326   2.492  0.0026  0.7297 -0.0276
 4592SOL    HW125238   3.887   0.267   2.526 -0.0731  0.0514 -1.0679
 4592SOL    HW225239   3.809   0.297   2.402  1.6239 -0.1038  0.0548
 4593SOL     OW25240   2.143   1.145   7.081 -0.6138  0.0028  0.4717
 4593SOL    HW125241   2.151   1.058   7.120 -1.7744  0.3332  1.4433
 4593SOL    HW225242   2.192   1.193   7.147 -0.3161  0.3160  0.0221
 4594SOL     OW25243   0.710   4.679   0.034 -1.2848 -0.4740 -0.1475
 4594SOL    HW125244   0.782   4.616   0.022  0.8582  2.1051 -0.8739
 4594SOL    HW225245   0.636   4.619   0.042 -0.1167 -1.9496 -0.2975
 4595SOL     OW25246   3.927   0.061  10.715  0.2741  0.4820 -0.0489
 4595SOL    HW125247   3.952   0.090  10.803  0.5570 -0.7082  0.2664
 4595SOL    HW225248   4.016   0.042  10.687 -0.6048 -0.6065 -2.1328
 4596SOL     OW25249   1.533   2.443   2.398 -0.6674  0.6175  0.1636
 4596SOL    HW125250   1.590   2.476   2.329  1.7581 -4.6125 -0.3614
 4596SOL    HW225251   1.595   2.395   2.454 -0.9590  0.4006  0.3004
 4597SOL     OW25252   3.299   2.140   1.434 -0.0373  0.6514  0.1186
 4597SOL    HW125253   3.385   2.164   1.400  0.3224  2.6337  2.3973
 4597SOL    HW225254   3.315   2.121   1.526 -0.1953  0.2134  0.0560
 4598SOL     OW25255   2.907   3.037   4.127  0.2971 -0.4623 -0.2204
 4598SOL    HW125256   2.969   2.975   4.088  0.3666 -1.9926  2.3588
 4598SOL    HW225257   2.869   2.977   4.190 -0.2423  0.0789 -0.0341
 4599SOL     OW25258   1.228   4.139  10.164  0.2344 -0.0799  0.4712
 4599SOL    HW125259   1.319   4.164  10.148  0.4194 -1.6658 -0.9196
 4599SOL    HW225260   1.213   4.089  10.083  0.2576 -1.6456  1.4425
 4600SOL     OW25261   4.464   0.133  10.401  0.0352  0.2784 -0.0443
 4600SOL    HW125262   4.508   0.217  10.415  0.1276  0.7350 -3.0492
 4600SOL    HW225263   4.373   0.161  10.403  0.1377  0.5048  1.1995
 4601SOL     OW25264   3.465   0.678   5.007  0.2750 -0.0925  0.0658
 4601SOL    HW125265   3.491   0.685   5.099 -2.6745 -2.4215  1.0598
 4601SOL    HW225266   3.398   0.747   5.008 -0.1309 -0.5288  3.5126
 4602SOL     OW25267   3.896   4.140   8.844 -0.6330  0.2104  0.2144
 4602SOL    HW125268   3.863   4.067   8.895 -0.0885 -0.2420 -0.0859
 4602SOL    HW225269   3.986   4.157   8.874 -0.3715  0.2482 -0.5985
 4603SOL     OW25270   2.875   2.370   6.202  0.5338  0.8118  0.4892
 4603SOL    HW125271   2.963   2.395   6.227 -0.1643  1.0222  2.7933
 4603SOL    HW225272   2.857   2.284   6.240  0.3088  0.0086 -1.4521
 4604SOL     OW25273   4.230   0.277  10.441  0.1935 -0.5778  0.0911
 4604SOL    HW125274   4.180   0.310  10.366  0.5313  1.8640  0.9602
 4604SOL    HW225275   4.183   0.319  10.512 -1.6321  0.5037 -1.7692
 4605SOL     OW25276   4.204   0.208   5.545  0.4175  0.0768  0.0766
 4605SOL    HW125277   4.218   0.173   5.457  0.8257  1.2136 -0.3205
 4605SOL    HW225278   4.122   0.163   5.567 -0.7513  1.9786 -0.4215
 4606SOL     OW25279   1.147   0.783  10.790  0.1075  0.3300  0.5396
 4606SOL    HW125280   1.144   0.749  10.879  0.3170  1.1551  0.8598
 4606SOL    HW225281   1.093   0.859  10.808 -1.1180 -0.9859  2.3753
 4607SOL     OW25282   3.393   3.002   3.317 -0.1344 -0.0114 -0.0611
 4607SOL    HW125283   3.460   2.942   3.352 -1.2692 -0.8303  0.7200
 4607SOL    HW225284   3.315   2.948   3.328 -0.0513 -0.0717  0.2600
 4608SOL     OW25285   0.023   2.108   2.756  0.0234 -0.2108  0.2942
 4608SOL    HW125286   4.687   2.162   2.809 -3.3864 -1.1793 -2.4696
 4608SOL    HW225287   0.083   2.165   2.708 -0.7604  0.2054 -0.1730
 4609SOL     OW25288   3.344   1.333   6.299  0.4063 -0.2666  0.1850
 4609SOL    HW125289   3.430   1.306   6.329  1.0018  0.3972 -0.9243
 4609SOL    HW225290   3.296   1.327   6.381  2.3506 -0.4944  1.3001
 4610SOL     OW25291   0.420   0.396   6.922 -0.5829  0.6808 -0.6750
 4610SOL    HW125292   0.452   0.440   7.001  1.1442 -1.8716  0.0413
 4610SOL    HW225293   0.352   0.457   6.894 -0.8062  0.9977  0.5208
 4611SOL     OW25294   2.705   1.004   3.739 -0.1950  0.2569 -0.2516
 4611SOL    HW125295   2.752   0.964   3.812 -0.0330  2.6445  0.9338
 4611SOL    HW225296   2.711   1.099   3.747  0.8377  0.0808  1.0025
 4612SOL     OW25297   4.244   3.084  15.377  0.0299  0.2244  0.6462
 4612SOL    HW125298   4.223   2.997  15.410  1.1075  0.2032  1.2688
 4612SOL    HW225299   4.338   3.091  15.394 -0.2482  2.9646  1.1168
 4613SOL     OW25300   2.790   4.159   0.100 -0.4392 -0.0625 -0.0536
 4613SOL    HW125301   2.798   4.235   0.043  2.2410  0.2093  0.6580
 4613SOL    HW225302   2.868   4.111   0.073 -1.2391 -1.3772 -0.0224
 4614SOL     OW25303   4.380   1.101   4.064  0.8082  0.3674  0.4805
 4614SOL    HW125304   4.432   1.080   4.142  1.5226 -0.2100 -0.1518
 4614SOL    HW225305   4.296   1.111   4.109  1.2589  2.0270  0.9430
 4615SOL     OW25306   1.144   2.136   7.655 -0.1557 -0.3361  0.5689
 4615SOL    HW125307   1.191   2.112   7.734  0.0310  0.3107  0.6572
 4615SOL    HW225308   1.061   2.096   7.681  0.7359 -2.0511  0.7893
 4616SOL     OW25309   3.496   0.483   0.009  0.0363  0.0863  0.4368
 4616SOL    HW125310   3.532   0.571  17.689  1.4368 -0.4685  0.5841
 4616SOL    HW225311   3.550   0.460   0.084  1.4581  1.6650 -0.1209
 4617SOL     OW25312   2.291   0.959  14.120  0.0061 -0.1178 -0.4337
 4617SOL    HW125313   2.348   0.931  14.049 -0.7043  1.4018 -1.5925
 4617SOL    HW225314   2.216   0.992  14.070  0.4880  0.0823 -1.0145
 4618SOL     OW25315   1.497   0.120  15.283  0.4360 -0.3566  0.5691
 4618SOL    HW125316   1.550   0.199  15.273 -1.4642  0.8348 -0.1741
 4618SOL    HW225317   1.489   0.102  15.189 -1.4826  0.0213  0.6584
 4619SOL     OW25318   3.547   4.095   7.259  0.1664 -0.1463  0.2082
 4619SOL    HW125319   3.601   4.083   7.182 -1.0980 -3.4484 -0.1610
 4619SOL    HW225320   3.501   4.173   7.228  0.5216  0.1902  0.5339
 4620SOL     OW25321   2.935   0.399   8.797 -0.3397 -0.4307  0.0219
 4620SOL    HW125322   2.934   0.467   8.729 -1.9449  0.0280  0.5106
 4620SOL    HW225323   2.899   0.437   8.878  2.6558  0.6970  0.8179
 4621SOL     OW25324   0.389   1.955   2.466 -0.0581  0.6543  0.7224
 4621SOL    HW125325   0.466   1.988   2.512  1.3179  0.6936 -1.6028
 4621SOL    HW225326   0.435   1.905   2.399 -0.6973  1.0835 -0.0285
 4622SOL     OW25327   3.949   2.179   3.159 -0.1471 -0.2244 -0.3651
 4622SOL    HW125328   3.878   2.217   3.108 -0.7891  0.2054  0.8268
 4622SOL    HW225329   4.024   2.237   3.147  0.9044 -1.1509  1.6374
 4623SOL     OW25330   0.443   0.151   3.543 -0.4050  0.0543 -0.0595
 4623SOL    HW125331   0.449   0.062   3.508 -0.1062  0.3794 -0.8470
 4623SOL    HW225332   0.511   0.204   3.500 -1.5346  1.1420 -0.5245
 4624SOL     OW25333   0.824   1.126   7.040 -0.2480 -0.5975  0.0769
 4624SOL    HW125334   0.730   1.106   7.037 -0.9698  2.5249  1.4254
 4624SOL    HW225335   0.848   1.130   6.947 -0.7862 -1.9526 -0.1168
 4625SOL     OW25336   0.122   2.484   7.182  0.4729  0.0152 -0.2319
 4625SOL    HW125337   0.193   2.495   7.245  0.8234  2.7883 -1.0981
 4625SOL    HW225338   0.047   2.516   7.233 -0.7077 -0.5363 -1.6111
 4626SOL     OW25339   2.307   0.641   6.590  1.0704 -0.3552  0.1374
 4626SOL    HW125340   2.350   0.557   6.576  1.4454 -0.4278  1.7318
 4626SOL    HW225341   2.301   0.638   6.686 -1.7397  1.9257  0.0428
 4627SOL     OW25342   2.317   1.745   2.702  0.4197  0.2465  0.8289
 4627SOL    HW125343   2.342   1.697   2.623  1.1358  2.0442 -0.0437
 4627SOL    HW225344   2.401   1.790   2.714  0.4426  0.0906  1.2669
 4628SOL     OW25345   4.350   1.555   5.729 -0.6096 -0.4628 -0.0664
 4628SOL    HW125346   4.430   1.597   5.696 -0.8647  0.5817  0.6161
 4628SOL    HW225347   4.375   1.526   5.817 -0.2969  0.0757  0.0285
 4629SOL     OW25348   0.560   4.385   6.781 -0.5115  0.4006 -0.2025
 4629SOL    HW125349   0.616   4.462   6.777  1.2825 -0.9594 -1.3440
 4629SOL    HW225350   0.618   4.317   6.746 -0.6960 -1.2984  2.7228
 4630SOL     OW25351   2.731   3.458   6.810  1.0921 -0.1669  0.1303
 4630SOL    HW125352   2.784   3.533   6.839  0.7642  1.0782 -2.5099
 4630SOL    HW225353   2.658   3.493   6.760  1.2115 -0.6779 -0.4043
 4631SOL     OW25354   1.956   3.121  11.092  0.0853  0.1609  0.4251
 4631SOL    HW125355   1.944   3.088  11.181 -0.1602  2.0428  1.0987
 4631SOL    HW225356   2.052   3.114  11.092  0.1511  1.1471 -2.2517
 4632SOL     OW25357   2.100   0.090   3.927 -0.3463  0.2630  0.1497
 4632SOL    HW125358   2.064   0.001   3.932 -0.0349  0.2159  1.6186
 4632SOL    HW225359   2.049   0.113   3.849 -0.3848 -1.6232 -0.3904
 4633SOL     OW25360   3.102   3.226   3.659  0.6055  0.0965 -0.4946
 4633SOL    HW125361   3.056   3.202   3.578 -3.3374  3.0341  0.9333
 4633SOL    HW225362   3.188   3.244   3.621 -0.0154  1.3582 -1.3118
 4634SOL     OW25363   2.062   0.561   7.272 -0.0695 -0.0369  0.6292
 4634SOL    HW125364   2.038   0.476   7.308  1.3757 -0.3967  0.7568
 4634SOL    HW225365   2.154   0.560   7.300  0.0433  0.5700  0.2754
 4635SOL     OW25366   3.640   3.615  11.055 -0.1103 -0.3676  0.8156
 4635SOL    HW125367   3.584   3.553  11.102  0.0364  0.1630  1.6797
 4635SOL    HW225368   3.594   3.698  11.068  2.9866  1.3220  0.8478
 4636SOL     OW25369   0.527   2.956   6.417 -0.1274 -0.2586  0.2339
 4636SOL    HW125370   0.500   3.036   6.373  1.6955 -0.4922 -1.2961
 4636SOL    HW225371   0.606   2.937   6.367 -0.0829  0.1303  0.1632
 4637SOL     OW25372   2.273   2.942   7.973  0.1050  0.0253 -0.2556
 4637SOL    HW125373   2.257   2.989   7.891 -1.4630 -0.5604 -0.2769
 4637SOL    HW225374   2.329   3.000   8.025  0.2509  0.9272 -1.4117
 4638SOL     OW25375   3.018   0.204   5.146 -0.8422  0.6544  0.3775
 4638SOL    HW125376   3.104   0.210   5.105 -1.3663 -2.0185 -1.0818
 4638SOL    HW225377   2.990   0.119   5.114  0.6240 -0.0230  0.8868
 4639SOL     OW25378   2.442   4.190  12.342  0.4671 -0.3057  0.2735
 4639SOL    HW125379   2.504   4.125  12.375  0.8896 -0.1911 -0.2948
 4639SOL    HW225380   2.502   4.261  12.320 -1.8127  1.3408 -0.6721
 4640SOL     OW25381   2.661   2.693  13.298  0.3384  0.2061  0.0625
 4640SOL    HW125382   2.605   2.651  13.233 -0.1733 -0.9172  1.2371
 4640SOL    HW225383   2.639   2.784  13.282  0.1410  0.1364 -0.0527
 4641SOL     OW25384   1.767   3.743   1.116 -0.4193  0.0547 -0.2239
 4641SOL    HW125385   1.798   3.683   1.047 -2.0283 -0.5313 -0.4351
 4641SOL    HW225386   1.827   3.737   1.190 -0.9402 -0.7484  0.1417
 4642SOL     OW25387   3.972   1.900   4.573  0.4156  0.9399  0.1569
 4642SOL    HW125388   3.978   1.995   4.582 -0.6119  1.1919 -1.7861
 4642SOL    HW225389   3.881   1.890   4.602  0.2059  0.6811 -0.5917
 4643SOL     OW25390   0.945   4.445   7.884  0.3165 -0.4230 -0.4277
 4643SOL    HW125391   0.908   4.507   7.946 -0.2106 -1.9122  0.7530
 4643SOL    HW225392   1.007   4.403   7.944 -1.1513 -2.9502 -0.6601
 4644SOL     OW25393   0.917   4.022  12.344 -0.0355 -0.2226  0.0859
 4644SOL    HW125394   0.890   4.031  12.435 -1.8644 -1.8871 -0.3039
 4644SOL    HW225395   0.836   3.979  12.318 -1.5231  1.7013  1.6172
 4645SOL     OW25396   0.820   4.213  15.837 -0.2706 -0.0781  0.8815
 4645SOL    HW125397   0.854   4.164  15.911  0.1784  0.4278  1.0041
 4645SOL    HW225398   0.791   4.291  15.885  0.2390  0.4945  0.2499
 4646SOL     OW25399   4.553   0.596   5.064  0.4990  0.0665  0.5062
 4646SOL    HW125400   4.621   0.532   5.084  0.0240 -0.1376  1.4290
 4646SOL    HW225401   4.585   0.671   5.113  0.6998  0.8493 -0.8316
 4647SOL     OW25402   1.465   4.506  15.091  0.0845 -0.4120  0.3392
 4647SOL    HW125403   1.503   4.477  15.009 -0.6174  2.8013 -1.1335
 4647SOL    HW225404   1.456   4.601  15.078 -0.7321 -0.4930  0.2971
 4648SOL     OW25405   0.279   4.090  10.019  0.1201 -0.2678 -1.2683
 4648SOL    HW125406   0.284   4.181  10.050 -0.6598 -0.8852  0.6177
 4648SOL    HW225407   0.304   4.036  10.093 -0.1126  2.3213  0.7187
 4649SOL     OW25408   3.296   0.313   1.991  0.0387 -0.1887 -0.1025
 4649SOL    HW125409   3.336   0.388   2.035  1.4204  0.2736 -2.1160
 4649SOL    HW225410   3.301   0.329   1.897 -1.2354 -1.1658 -0.3309
 4650SOL     OW25411   2.308   2.009   3.638  0.0881 -0.5297 -0.2310
 4650SOL    HW125412   2.241   2.072   3.667  0.1715 -1.5856  2.2749
 4650SOL    HW225413   2.260   1.952   3.579  0.2652  0.7722 -1.6239
 4651SOL     OW25414   4.402   0.498   8.279  0.2626  0.2294  0.2259
 4651SOL    HW125415   4.481   0.458   8.314  1.2559  1.8030 -0.2275
 4651SOL    HW225416   4.339   0.459   8.341  1.8252 -1.6886  0.5958
 4652SOL     OW25417   4.344   0.639   8.778 -0.2296  0.1147 -0.1601
 4652SOL    HW125418   4.409   0.675   8.837 -0.6389 -0.8600  0.8908
 4652SOL    HW225419   4.274   0.608   8.836 -0.0866 -1.4333 -0.8193
 4653SOL     OW25420   0.406   0.831  11.941  0.0105  0.4295 -0.2178
 4653SOL    HW125421   0.436   0.906  11.992  2.3625  0.5102 -1.7478
 4653SOL    HW225422   0.313   0.848  11.958 -0.6214  0.0816 -3.3886
 4654SOL     OW25423   0.334   3.652   4.662 -0.3679 -0.0693  0.1665
 4654SOL    HW125424   0.284   3.601   4.598  0.0956  0.1276 -0.3543
 4654SOL    HW225425   0.407   3.680   4.606  0.2000  0.1522  1.0166
 4655SOL     OW25426   4.352   1.841   1.217 -0.1295 -0.1810  1.2166
 4655SOL    HW125427   4.378   1.771   1.157 -1.7102  0.0637  0.2503
 4655SOL    HW225428   4.259   1.856   1.200 -0.6649 -3.2464  1.4707
 4656SOL     OW25429   2.006   0.106   1.844 -0.1337  0.0192  0.3360
 4656SOL    HW125430   2.012   0.160   1.765 -2.2952 -1.5317 -0.8913
 4656SOL    HW225431   1.997   0.019   1.806  1.6540  0.5094 -1.2031
 4657SOL     OW25432   1.229   0.882   2.845 -0.2130 -0.7610  0.1156
 4657SOL    HW125433   1.302   0.904   2.787 -0.2612  2.3989  1.2644
 4657SOL    HW225434   1.181   0.965   2.843  1.5725  0.2680 -0.0311
 4658SOL     OW25435   3.827   2.211   7.542  0.4494  0.0117 -0.6107
 4658SOL    HW125436   3.788   2.225   7.629 -1.4159  0.5603 -1.5290
 4658SOL    HW225437   3.919   2.214   7.566  0.7500  2.1839 -2.0475
 4659SOL     OW25438   2.845   3.676   6.917  0.1839  0.0627 -0.5567
 4659SOL    HW125439   2.896   3.755   6.932  0.1931  0.2762 -1.7345
 4659SOL    HW225440   2.756   3.707   6.929  0.2470  0.7082 -1.8118
 4660SOL     OW25441   1.251   0.401   2.075  0.2394  0.3409 -0.0746
 4660SOL    HW125442   1.258   0.362   1.988 -4.4257 -2.9114  0.9896
 4660SOL    HW225443   1.253   0.329   2.138  0.2453 -0.0968 -0.5753
 4661SOL     OW25444   3.938   1.164   3.642  0.6714 -0.1777 -0.3172
 4661SOL    HW125445   3.927   1.109   3.719  0.3969 -0.6506 -0.6891
 4661SOL    HW225446   3.911   1.110   3.567 -3.7232  2.4380 -0.6329
 4662SOL     OW25447   0.151   1.370  16.480  0.3188 -0.5044  0.6131
 4662SOL    HW125448   0.156   1.458  16.443 -1.2537  0.4409  2.6572
 4662SOL    HW225449   0.190   1.387  16.566  1.2242 -0.3135  0.1618
 4663SOL     OW25450   4.335   1.047   4.841  0.2435 -0.1558  0.1402
 4663SOL    HW125451   4.280   0.970   4.833  0.4548 -0.2780 -0.1255
 4663SOL    HW225452   4.414   1.006   4.876  1.8524  4.2730  1.7709
 4664SOL     OW25453   1.186   3.586   4.637  0.2776  0.0537 -0.1607
 4664SOL    HW125454   1.178   3.555   4.547  0.5291 -0.1657 -0.1061
 4664SOL    HW225455   1.119   3.536   4.683 -0.3350  0.3014 -0.7828
 4665SOL     OW25456   3.940   1.815  16.276 -0.1008  0.3131  1.1530
 4665SOL    HW125457   4.020   1.762  16.275  0.1545  0.6968  0.4602
 4665SOL    HW225458   3.907   1.805  16.365 -0.7475 -1.7801  0.6776
 4666SOL     OW25459   3.120   1.832   4.542  0.1303  0.0557 -0.6181
 4666SOL    HW125460   3.167   1.855   4.462  0.1523  1.2638 -0.2553
 4666SOL    HW225461   3.177   1.879   4.602  0.6463 -1.1198 -0.1791
 4667SOL     OW25462   3.407   4.062   6.125 -0.0271 -0.0974 -0.4623
 4667SOL    HW125463   3.390   3.993   6.190 -4.3193  0.6139 -0.8309
 4667SOL    HW225464   3.471   4.016   6.071 -0.2678 -1.5147  0.4557
 4668SOL     OW25465   0.874   4.224   3.551 -0.3154  0.0040  0.3197
 4668SOL    HW125466   0.879   4.305   3.501 -2.5779  0.8730  1.5036
 4668SOL    HW225467   0.856   4.255   3.639 -3.8943  2.1083 -1.1572
 4669SOL     OW25468   2.477   4.474   7.536  0.4522 -0.1395  0.4218
 4669SOL    HW125469   2.449   4.383   7.526  2.4037 -0.8111  1.2142
 4669SOL    HW225470   2.503   4.485   7.444 -0.4246 -0.0329  0.1801
 4670SOL     OW25471   0.376   3.289   4.440  0.1632  0.3817  0.2770
 4670SOL    HW125472   0.359   3.377   4.474 -0.7786  0.5514 -0.6365
 4670SOL    HW225473   0.323   3.305   4.361  1.7347 -2.9830 -1.4641
 4671SOL     OW25474   0.626   2.413  13.398 -0.5888  0.4411 -1.2133
 4671SOL    HW125475   0.619   2.484  13.334  0.4849  0.5496 -1.2196
 4671SOL    HW225476   0.714   2.380  13.381 -0.4893  0.2115 -0.2925
 4672SOL     OW25477   3.643   2.248   4.673  0.8317 -0.2422  0.3725
 4672SOL    HW125478   3.612   2.310   4.739  3.1492 -0.0569  1.2843
 4672SOL    HW225479   3.689   2.184   4.727  0.3190 -1.4436 -0.6123
 4673SOL     OW25480   3.654   2.201   8.222 -0.1892  0.3073  0.0476
 4673SOL    HW125481   3.590   2.154   8.276  1.4989 -0.9746  0.9301
 4673SOL    HW225482   3.671   2.260   8.295 -0.0319 -0.3164  0.5118
 4674SOL     OW25483   3.702   3.481  14.311 -0.1393  0.1375 -0.3335
 4674SOL    HW125484   3.607   3.470  14.317 -0.1131  0.5615  0.9319
 4674SOL    HW225485   3.711   3.567  14.270  2.1455  0.7986  1.5808
 4675SOL     OW25486   2.947   1.978   4.788 -0.0985  0.2395  0.2122
 4675SOL    HW125487   2.920   1.964   4.879  0.7777  2.5982  0.8314
 4675SOL    HW225488   2.870   1.943   4.744 -1.9014 -0.3662  3.8501
 4676SOL     OW25489   4.599   1.721  15.663 -0.5761  0.9410  0.2076
 4676SOL    HW125490   4.580   1.805  15.624 -0.3331  0.4998 -0.8608
 4676SOL    HW225491   4.607   1.657  15.592 -1.8721  1.7619 -0.6511
 4677SOL     OW25492   2.760   1.516   0.402 -0.0679  0.5741 -0.3856
 4677SOL    HW125493   2.779   1.483   0.490 -1.1615  0.9421 -0.0076
 4677SOL    HW225494   2.665   1.523   0.415 -0.0323  1.0876 -0.3996
 4678SOL     OW25495   2.718   3.124  15.166 -0.1136  0.6043  0.1755
 4678SOL    HW125496   2.641   3.139  15.222  0.1024 -0.5705  0.7931
 4678SOL    HW225497   2.735   3.214  15.142  0.0891 -0.5854 -4.0594
 4679SOL     OW25498   1.245   3.665  16.295 -0.0665 -0.2498  0.0665
 4679SOL    HW125499   1.234   3.693  16.386  0.2613 -0.9173  0.3156
 4679SOL    HW225500   1.211   3.742  16.250  1.3969  1.3484  1.7048
 4680SOL     OW25501   4.597   2.518   0.996 -0.2907 -0.6794  0.1480
 4680SOL    HW125502   4.589   2.602   1.042 -0.5105 -1.9209  2.3753
 4680SOL    HW225503   4.589   2.553   0.907 -0.0993 -0.1861  0.3198
 4681SOL     OW25504   2.796   4.296  16.638 -0.6599 -0.2263  0.0656
 4681SOL    HW125505   2.729   4.235  16.669  0.4623 -1.8721 -0.7436
 4681SOL    HW225506   2.796   4.357  16.712 -0.3680  1.1243 -1.0630
 4682SOL     OW25507   2.747   3.245   3.675  0.3844  0.2058 -0.2237
 4682SOL    HW125508   2.788   3.241   3.761  0.4806  0.4894 -0.2543
 4682SOL    HW225509   2.705   3.331   3.680 -0.6033 -0.1767 -1.7597
 4683SOL     OW25510   4.261   3.377   6.566 -0.1382 -0.1705  0.1327
 4683SOL    HW125511   4.345   3.366   6.611  1.3608 -0.9118 -2.8114
 4683SOL    HW225512   4.205   3.353   6.639  2.0180  1.0531  2.2029
 4684SOL     OW25513   3.424   2.202  14.902 -0.8475  0.3533 -0.0254
 4684SOL    HW125514   3.350   2.260  14.918 -0.3621  0.9994 -0.1288
 4684SOL    HW225515   3.481   2.235  14.971  0.9331 -1.6152 -0.5468
 4685SOL     OW25516   1.186   4.351   7.993  0.2601 -0.6980 -0.0979
 4685SOL    HW125517   1.235   4.378   8.071  0.7219  0.9567 -0.9508
 4685SOL    HW225518   1.192   4.433   7.945 -0.3016  0.2648  1.4550
 4686SOL     OW25519   3.831   4.465   2.297  0.5959 -0.2410  0.2639
 4686SOL    HW125520   3.920   4.493   2.274 -0.0263 -0.5459 -2.5514
 4686SOL    HW225521   3.850   4.375   2.323 -0.8384 -0.6437 -0.0610
 4687SOL     OW25522   1.804   1.848   6.255 -0.1716  0.2953 -0.3486
 4687SOL    HW125523   1.784   1.820   6.166 -1.1129 -1.9675  0.5786
 4687SOL    HW225524   1.734   1.913   6.270 -2.7661 -2.3591 -0.9103
 4688SOL     OW25525   3.935   3.037  13.499 -0.0901 -0.1922  0.1336
 4688SOL    HW125526   3.958   3.062  13.409  1.0791 -2.3701 -0.1722
 4688SOL    HW225527   3.840   3.053  13.498  0.1133  0.9240 -0.9732
 4689SOL     OW25528   1.252   1.417   4.643 -0.2607  0.3072 -0.2072
 4689SOL    HW125529   1.211   1.360   4.578  0.5884 -2.2101  1.4483
 4689SOL    HW225530   1.329   1.458   4.602  0.5070 -0.3587  0.5715
 4690SOL     OW25531   1.400   4.147   1.226 -0.1677  0.2074 -0.3315
 4690SOL    HW125532   1.356   4.222   1.266 -1.0226  0.4767 -1.7747
 4690SOL    HW225533   1.336   4.092   1.182 -2.6802  3.4238 -0.7310
 4691SOL     OW25534   0.351   1.472   4.781  0.2620 -0.1710 -0.0229
 4691SOL    HW125535   0.309   1.481   4.866  0.5073  3.5720 -0.3172
 4691SOL    HW225536   0.441   1.491   4.809  0.2924  2.3411 -1.8597
 4692SOL     OW25537   4.156   1.761   2.910  0.3703  0.0070  0.3152
 4692SOL    HW125538   4.091   1.824   2.941  0.7772  2.1030 -3.0870
 4692SOL    HW225539   4.120   1.734   2.825  0.1107 -2.4701  1.2210
 4693SOL     OW25540   1.147   2.633   6.304 -0.1343  0.0892  0.4741
 4693SOL    HW125541   1.092   2.618   6.382  0.9429  1.2910  1.4788
 4693SOL    HW225542   1.116   2.551   6.268  0.4444  0.4415 -0.7999
 4694SOL     OW25543   3.375   0.894   6.242 -0.0274 -0.3736 -0.0158
 4694SOL    HW125544   3.438   0.962   6.217  1.2365 -1.0164  1.3993
 4694SOL    HW225545   3.416   0.866   6.324 -0.4679  2.0894  1.0534
 4695SOL     OW25546   4.490   2.165   1.586 -0.2150 -0.7594  0.2038
 4695SOL    HW125547   4.428   2.193   1.518 -0.3393  1.4008  1.2095
 4695SOL    HW225548   4.488   2.069   1.582  0.7853 -0.7094 -1.5386
 4696SOL     OW25549   1.241   4.381   1.572 -0.4528  0.2295  0.6972
 4696SOL    HW125550   1.218   4.423   1.489  0.5597  0.5666  0.5869
 4696SOL    HW225551   1.214   4.289   1.562 -0.6200  0.5356 -1.6348
 4697SOL     OW25552   4.046   2.053  16.205  0.0925  0.1410 -0.1237
 4697SOL    HW125553   3.976   2.119  16.215  0.6122  0.7731 -0.6234
 4697SOL    HW225554   4.010   1.965  16.196  2.3820 -0.6458 -1.4218
 4698SOL     OW25555   0.402   1.453   8.253  0.0121 -0.4357  0.1014
 4698SOL    HW125556   0.434   1.540   8.272 -1.4130 -0.0836  0.8594
 4698SOL    HW225557   0.398   1.408   8.337  2.0977  0.3337  0.5881
 4699SOL     OW25558   1.223   4.222   6.355 -0.2500  0.0956 -0.3053
 4699SOL    HW125559   1.237   4.160   6.284 -1.3398 -0.0286 -0.4097
 4699SOL    HW225560   1.131   4.209   6.376  0.1952 -0.3454  1.3791
 4700SOL     OW25561   0.572   2.411   7.524  0.2361  0.6190 -0.1212
 4700SOL    HW125562   0.529   2.430   7.440  3.4679  0.2769 -1.8696
 4700SOL    HW225563   0.555   2.490   7.575 -2.9845 -0.7455  0.9310
 4701SOL     OW25564   3.895   0.659   8.188  0.6526  0.5596 -0.0641
 4701SOL    HW125565   3.941   0.611   8.257  1.9976  1.2912 -0.4341
 4701SOL    HW225566   3.845   0.594   8.140  0.1826  0.3017  0.7654
 4702SOL     OW25567   0.023   4.009   6.274  0.1665  0.0443 -0.0388
 4702SOL    HW125568   0.071   4.025   6.355  0.1342 -3.1394  0.6041
 4702SOL    HW225569   4.661   3.979   6.308 -0.1893  0.3882 -0.6157
 4703SOL     OW25570   2.660   4.035   9.176 -0.2251 -0.1143  0.0474
 4703SOL    HW125571   2.609   4.067   9.251  0.5833  1.3741 -0.0486
 4703SOL    HW225572   2.745   4.026   9.219 -0.3888  3.5090  1.1224
 4704SOL     OW25573   3.443   1.970   5.515 -0.0178 -0.3958 -0.3011
 4704SOL    HW125574   3.407   2.015   5.439 -0.9853  0.7688  0.8346
 4704SOL    HW225575   3.505   2.024   5.564  0.5954 -1.2225 -0.1685
 4705SOL     OW25576   1.025   2.426   1.760 -0.3439  0.4235  0.9118
 4705SOL    HW125577   1.119   2.412   1.750 -0.3083  1.1677  0.1794
 4705SOL    HW225578   1.002   2.363   1.827  1.6189 -1.4880 -0.2253
 4706SOL     OW25579   0.653   3.453   2.678 -0.0887 -0.4092 -0.1949
 4706SOL    HW125580   0.594   3.495   2.616 -0.0453  1.3137  0.9136
 4706SOL    HW225581   0.735   3.498   2.655 -1.3089  2.5813  1.2666
 4707SOL     OW25582   2.005   4.444  11.007  0.2891 -0.0882 -0.3739
 4707SOL    HW125583   1.924   4.397  10.988  1.2391 -0.7724 -2.7452
 4707SOL    HW225584   1.996   4.494  10.926 -0.1580 -1.1822 -0.9953
 4708SOL     OW25585   0.599   1.678   3.180 -0.0010  0.2710 -0.1882
 4708SOL    HW125586   0.689   1.700   3.202 -1.2627  2.8252  2.4823
 4708SOL    HW225587   0.611   1.587   3.155  0.5178  0.4274 -0.5207
 4709SOL     OW25588   3.851   2.909   5.650  0.0531  0.0060  0.1355
 4709SOL    HW125589   3.872   2.935   5.739  0.7040  0.2053 -0.0788
 4709SOL    HW225590   3.796   2.831   5.665  0.4986 -0.6589 -1.7378
 4710SOL     OW25591   1.076   3.546   3.679  0.2179 -0.2926  0.0753
 4710SOL    HW125592   1.079   3.630   3.632  2.8013  0.3560  1.3870
 4710SOL    HW225593   1.121   3.483   3.622  0.1125 -0.6062  0.3405
 4711SOL     OW25594   2.716   0.025   3.365  0.1268 -0.2511  0.5735
 4711SOL    HW125595   2.762   4.681   3.312  0.7905  2.3559 -2.0914
 4711SOL    HW225596   2.792   0.067   3.405 -0.2219  1.1717 -0.2628
 4712SOL     OW25597   4.435   1.306   1.118 -0.6196  0.1203  0.5799
 4712SOL    HW125598   4.439   1.385   1.063  0.6878  0.0671  0.5813
 4712SOL    HW225599   4.393   1.250   1.053 -1.0866  0.3416  0.6882
 4713SOL     OW25600   0.005   0.463   4.478  0.1884  0.1193  0.1032
 4713SOL    HW125601   0.094   0.429   4.467 -1.2247 -2.7468 -2.6047
 4713SOL    HW225602   4.709   0.470   4.384 -0.5774  0.7487  0.3034
 4714SOL     OW25603   1.782   1.740   8.046  0.2029 -0.3237  0.9186
 4714SOL    HW125604   1.849   1.703   8.103 -2.5793 -3.2492  2.3136
 4714SOL    HW225605   1.831   1.776   7.973  2.5247  0.5323  2.9204
 4715SOL     OW25606   3.893   1.702   6.140  0.5457 -0.4910  0.0608
 4715SOL    HW125607   3.810   1.721   6.098  0.7008  2.1504  0.9223
 4715SOL    HW225608   3.946   1.697   6.061 -1.3247 -1.9489 -1.0754
 4716SOL     OW25609   1.071   1.067   7.150  0.0208 -0.3537 -0.0044
 4716SOL    HW125610   0.987   1.079   7.105  1.3322 -2.2489 -2.9737
 4716SOL    HW225611   1.115   1.149   7.129 -1.9187  0.3564 -1.3711
 4717SOL     OW25612   2.588   0.656   4.581  0.1095 -0.2021 -0.1695
 4717SOL    HW125613   2.646   0.628   4.510  1.5932 -0.8346  1.2913
 4717SOL    HW225614   2.648   0.677   4.653  1.1601 -0.0199 -1.1063
 4718SOL     OW25615   4.078   4.292  16.091 -0.7190 -0.4329  0.2704
 4718SOL    HW125616   3.985   4.276  16.104 -0.3053 -0.8457  2.7446
 4718SOL    HW225617   4.109   4.242  16.167 -0.7746 -0.0436  0.5492
 4719SOL     OW25618   1.635   0.329  15.141 -0.0583 -0.4701 -0.2272
 4719SOL    HW125619   1.675   0.405  15.184 -0.8778 -0.4843  0.5612
 4719SOL    HW225620   1.553   0.374  15.117  1.2224  0.0792 -3.6127
 4720SOL     OW25621   2.417   4.673   5.943  0.1586 -0.3751  0.1310
 4720SOL    HW125622   2.458   0.030   5.910  0.7095 -0.6084  0.2656
 4720SOL    HW225623   2.350   4.666   5.875 -0.5000  0.8991  0.6540
 4721SOL     OW25624   4.167   0.499   5.445 -0.9360 -0.2283 -0.6202
 4721SOL    HW125625   4.176   0.420   5.499  1.2464  0.4995  0.0744
 4721SOL    HW225626   4.104   0.471   5.378 -0.3576  0.0741 -1.2840
 4722SOL     OW25627   0.328   1.111   4.302  0.5855  0.2622  0.0106
 4722SOL    HW125628   0.406   1.147   4.344 -0.4687  2.0445  0.4641
 4722SOL    HW225629   0.359   1.036   4.253 -0.9704  0.7511 -1.7193
 4723SOL     OW25630   2.362   3.419   1.082  0.5292 -0.1825 -0.0859
 4723SOL    HW125631   2.450   3.449   1.106  0.2344 -0.7127  1.5907
 4723SOL    HW225632   2.326   3.391   1.165 -1.7948 -0.0156 -1.0524
 4724SOL     OW25633   1.642   3.854   7.444  0.6755 -0.3098 -0.0886
 4724SOL    HW125634   1.581   3.926   7.461  0.9603 -0.1990  0.4664
 4724SOL    HW225635   1.657   3.838   7.537 -1.4063 -1.1089  0.1167
 4725SOL     OW25636   1.217   3.872   4.048 -0.4393 -0.2667 -0.4602
 4725SOL    HW125637   1.218   3.917   3.964  1.6224 -0.6680 -0.6483
 4725SOL    HW225638   1.215   3.784   4.010 -3.0268 -0.5540  0.3253
 4726SOL     OW25639   1.485   2.758   1.089 -1.1991 -0.0638  0.2041
 4726SOL    HW125640   1.551   2.736   1.155 -0.2903 -2.5155 -1.5457
 4726SOL    HW225641   1.546   2.750   1.015 -3.2975  1.1937 -1.6350
 4727SOL     OW25642   3.380   0.249   8.933 -0.1035  0.1667 -0.0851
 4727SOL    HW125643   3.329   0.320   8.973 -1.5933 -0.2825 -1.1961
 4727SOL    HW225644   3.305   0.194   8.914  0.6883 -0.0281 -2.5731
 4728SOL     OW25645   3.853   0.309  12.411 -0.3537 -0.0923 -0.1463
 4728SOL    HW125646   3.936   0.343  12.443 -1.1995  1.5410  0.3538
 4728SOL    HW225647   3.817   0.388  12.369 -0.3100 -0.0885 -0.1759
 4729SOL     OW25648   3.269   0.251   8.617 -0.4128 -0.1357  0.2425
 4729SOL    HW125649   3.227   0.196   8.551  1.5421 -1.4122  0.0333
 4729SOL    HW225650   3.227   0.216   8.696  0.4360 -0.6144  0.4818
 4730SOL     OW25651   1.561   4.026   4.122  0.2894 -0.0327 -0.6552
 4730SOL    HW125652   1.580   4.032   4.029  0.4693  0.9328 -0.5510
 4730SOL    HW225653   1.486   4.086   4.122  0.0369 -0.3448 -0.6997
 4731SOL     OW25654   1.634   1.965   4.907 -0.0162  0.5659  0.7999
 4731SOL    HW125655   1.554   1.934   4.864 -1.2640  2.4695  1.7056
 4731SOL    HW225656   1.627   2.055   4.874 -0.8919  0.4764  0.7491
 4732SOL     OW25657   0.141   0.974   7.339 -0.4155  0.3269  0.2795
 4732SOL    HW125658   0.189   1.057   7.337  1.1743 -0.6243 -0.5444
 4732SOL    HW225659   0.211   0.911   7.357  0.6436  1.6233  0.6978
 4733SOL     OW25660   4.420   1.185   6.129  0.1789 -0.5987  0.1494
 4733SOL    HW125661   4.458   1.127   6.064  0.9820  0.6806 -0.5034
 4733SOL    HW225662   4.332   1.194   6.091 -0.5071  3.2847  2.6459
 4734SOL     OW25663   1.137   0.229  10.605  0.9520  0.5302  0.4322
 4734SOL    HW125664   1.154   0.300  10.544 -2.8827  0.1552 -1.0560
 4734SOL    HW225665   1.207   0.247  10.668 -0.8676 -1.2879  3.0346
 4735SOL     OW25666   1.338   1.225   8.084 -0.1246 -0.1226 -0.6140
 4735SOL    HW125667   1.294   1.227   8.169  0.9635  0.2303 -0.0583
 4735SOL    HW225668   1.387   1.307   8.086 -2.9437  1.5271  1.6424
 4736SOL     OW25669   0.408   0.628   7.804 -0.1670 -0.3134 -0.2484
 4736SOL    HW125670   0.457   0.696   7.759  0.4099 -0.1037  0.6812
 4736SOL    HW225671   0.418   0.552   7.747  0.8870  1.4033 -2.3044
 4737SOL     OW25672   2.957   1.046   8.380 -0.5201  0.3767 -0.0399
 4737SOL    HW125673   2.955   1.067   8.286 -0.5007  2.3982  0.4021
 4737SOL    HW225674   2.881   1.096   8.410 -0.4955  2.7836 -4.0021
 4738SOL     OW25675   0.500   3.992   6.787 -0.0844 -0.2458  0.5487
 4738SOL    HW125676   0.557   3.920   6.814  2.1303  1.6525  0.8618
 4738SOL    HW225677   0.472   4.026   6.871  3.1900  0.4566  1.3350
 4739SOL     OW25678   3.336   2.681   0.275 -0.1771 -0.1289  0.0183
 4739SOL    HW125679   3.242   2.661   0.277 -0.2964  0.6429  1.5834
 4739SOL    HW225680   3.319   2.774   0.291 -2.8634 -0.6008  0.0411
 4740SOL     OW25681   1.680   1.859   9.296  0.3964 -0.0873  0.1271
 4740SOL    HW125682   1.642   1.937   9.337 -0.0498  0.0424 -0.5300
 4740SOL    HW225683   1.603   1.801   9.297  1.4782 -1.5442 -1.8885
 4741SOL     OW25684   2.301   3.124   3.793  0.0818 -0.2257 -0.1574
 4741SOL    HW125685   2.354   3.204   3.795 -1.7872  1.0240  0.8197
 4741SOL    HW225686   2.252   3.144   3.873  0.5051 -0.1154  0.0761
 4742SOL     OW25687   3.648   1.263   4.522  0.4734 -0.3317 -0.4364
 4742SOL    HW125688   3.643   1.354   4.553 -1.5351 -0.0333 -1.6665
 4742SOL    HW225689   3.733   1.240   4.559  0.8870 -3.2283 -3.1851
 4743SOL     OW25690   0.886   2.200  14.057 -0.7133  0.2988  0.1255
 4743SOL    HW125691   0.975   2.194  14.093  0.2622 -0.1649 -2.3438
 4743SOL    HW225692   0.873   2.293  14.037  0.8556  0.3834 -0.4789
 4744SOL     OW25693   4.449   2.429   9.251 -0.1230  0.4402  0.2243
 4744SOL    HW125694   4.487   2.343   9.266 -0.8485  0.0780  0.0007
 4744SOL    HW225695   4.522   2.474   9.208 -0.3284  0.7692  0.2197
 4745SOL     OW25696   3.583   4.147  10.990 -0.8700 -0.0660  0.0455
 4745SOL    HW125697   3.655   4.208  11.006  0.6909 -1.5024 -1.5315
 4745SOL    HW225698   3.637   4.068  10.982 -0.3578  0.2042  0.7887
 4746SOL     OW25699   0.165   4.674   3.443 -0.3815 -0.0898  0.1075
 4746SOL    HW125700   0.109   4.620   3.387 -0.8633  1.0247 -0.4823
 4746SOL    HW225701   0.243   4.665   3.388  1.2021  0.7447  2.2401
 4747SOL     OW25702   0.673   2.798   6.757 -0.2773 -0.2675 -0.2504
 4747SOL    HW125703   0.769   2.798   6.746  0.0442  0.2702  2.7252
 4747SOL    HW225704   0.658   2.739   6.830  1.4773  1.0996  1.2328
 4748SOL     OW25705   0.048   4.609  10.012 -0.2964 -0.6571 -0.4582
 4748SOL    HW125706   0.007   4.607   9.926 -0.9686  0.2426 -0.1541
 4748SOL    HW225707   4.697   4.639  10.067  0.9363  0.9980  0.2678
 4749SOL     OW25708   3.076   0.894   9.431  0.1665 -0.1432  0.3774
 4749SOL    HW125709   3.108   0.937   9.352  2.3541 -1.1898  0.6757
 4749SOL    HW225710   3.103   0.956   9.499 -0.0097  1.3480 -0.9348
 4750SOL     OW25711   3.594   0.365   4.703 -0.6755  0.0459 -0.3471
 4750SOL    HW125712   3.531   0.401   4.765 -0.0190 -0.5919  0.6949
 4750SOL    HW225713   3.603   0.274   4.730 -1.8047  0.1782  0.4488
 4751SOL     OW25714   2.367   3.354  15.083  0.7134 -0.7233  0.6549
 4751SOL    HW125715   2.280   3.316  15.092  0.8629 -1.3254 -0.5269
 4751SOL    HW225716   2.363   3.388  14.994 -1.3744 -1.4507  0.4799
 4752SOL     OW25717   3.521   1.909   9.729 -0.2389  0.9561 -0.2086
 4752SOL    HW125718   3.495   1.824   9.763  1.5757  1.3848  2.1746
 4752SOL    HW225719   3.433   1.945   9.711 -0.6672 -0.5389 -1.0791
 4753SOL     OW25720   2.643   2.742   4.790  0.3916  0.8806  0.0952
 4753SOL    HW125721   2.590   2.816   4.761  0.1456  0.9947  0.8203
 4753SOL    HW225722   2.618   2.742   4.882  0.0108  0.2400 -0.0054
 4754SOL     OW25723   0.302   4.358   9.242 -0.1553 -0.4761 -0.3732
 4754SOL    HW125724   0.342   4.424   9.186  0.5307 -1.2745 -0.8167
 4754SOL    HW225725   0.366   4.358   9.313  0.3063  0.9073 -0.8086
 4755SOL     OW25726   3.514   3.966  14.820 -0.5820 -0.2733 -0.6525
 4755SOL    HW125727   3.608   3.984  14.819 -1.2241  3.1468  1.8250
 4755SOL    HW225728   3.515   3.881  14.776 -0.5178 -0.9836  0.7164
 4756SOL     OW25729   3.140   4.454  13.104  0.2153  0.0710  0.8251
 4756SOL    HW125730   3.222   4.495  13.131 -0.0538 -0.3547  2.3154
 4756SOL    HW225731   3.135   4.385  13.171  0.5769 -1.1938 -0.4389
 4757SOL     OW25732   2.077   0.979   3.534  0.2136  0.4191  0.3034
 4757SOL    HW125733   2.143   0.973   3.604 -1.7826 -0.9654  2.0644
 4757SOL    HW225734   2.113   1.040   3.470 -0.4918  1.1913  0.6444
 4758SOL     OW25735   1.503   0.167   0.055 -0.3922  0.1497 -0.1311
 4758SOL    HW125736   1.535   0.235  17.686  1.9789 -1.0390 -0.2301
 4758SOL    HW225737   1.501   0.086   0.004 -0.0824  0.0153  0.0689
 4759SOL     OW25738   3.932   1.410   7.660 -0.6279 -0.1416 -0.2693
 4759SOL    HW125739   3.884   1.486   7.627 -0.9817 -0.3763 -0.3036
 4759SOL    HW225740   3.877   1.372   7.729  1.0136  0.0270  1.1235
 4760SOL     OW25741   3.916   3.733  15.910 -0.5550 -0.1168 -0.3555
 4760SOL    HW125742   3.897   3.750  15.817 -1.5707  1.6563  0.1839
 4760SOL    HW225743   4.001   3.688  15.912 -0.6435 -0.2635  0.0538
 4761SOL     OW25744   1.522   4.255   1.006 -0.0068  0.3329 -0.5005
 4761SOL    HW125745   1.607   4.239   1.049 -0.4856 -1.0047 -0.0614
 4761SOL    HW225746   1.463   4.205   1.062  0.2571  1.6679  0.9638
 4762SOL     OW25747   2.983   2.187   4.569  0.0105  0.3676  0.1134
 4762SOL    HW125748   3.060   2.132   4.559  0.5252  1.0878  0.0919
 4762SOL    HW225749   2.961   2.173   4.661 -1.0621  3.5646  0.3405
 4763SOL     OW25750   1.075   1.343   8.361  0.5026  0.6574  0.6828
 4763SOL    HW125751   1.087   1.322   8.268 -1.0193  0.2697  0.5781
 4763SOL    HW225752   1.160   1.309   8.389 -0.0490 -1.0399  0.2862
 4764SOL     OW25753   1.455   4.197   2.117  0.0236  0.2301  0.9228
 4764SOL    HW125754   1.439   4.107   2.145  2.3792 -1.2590 -2.4882
 4764SOL    HW225755   1.450   4.185   2.022 -2.1421 -1.1468  1.2253
 4765SOL     OW25756   1.296   4.174   6.747  0.1403  0.3988  0.8693
 4765SOL    HW125757   1.257   4.261   6.757  0.4895  0.5492  0.9409
 4765SOL    HW225758   1.316   4.145   6.836  0.2525 -4.0940 -0.6112
 4766SOL     OW25759   2.458   2.098   4.976 -0.7278  0.0566 -0.8908
 4766SOL    HW125760   2.547   2.069   4.996 -0.5596 -0.4805 -2.4493
 4766SOL    HW225761   2.414   2.045   5.043  0.5378  0.1904  0.0448
 4767SOL     OW25762   2.176   4.312  10.740  0.0173  0.4845 -0.2175
 4767SOL    HW125763   2.229   4.370  10.685 -1.1428  1.0499 -0.7350
 4767SOL    HW225764   2.104   4.296  10.679 -0.6632 -1.9711  1.2531
 4768SOL     OW25765   4.052   3.104   2.533 -0.0175  0.2727  0.1870
 4768SOL    HW125766   4.031   3.069   2.447  2.0639  0.0867 -0.2551
 4768SOL    HW225767   4.145   3.126   2.525 -0.0070  0.0626 -0.2735
 4769SOL     OW25768   2.052   4.584   5.585 -0.4266 -0.1328 -0.1321
 4769SOL    HW125769   1.958   4.564   5.580 -0.3956 -0.1741 -0.5693
 4769SOL    HW225770   2.090   4.496   5.585  1.7744  0.8100 -0.8986
 4770SOL     OW25771   1.752   1.814   2.785  0.5431  0.6419  0.1072
 4770SOL    HW125772   1.748   1.727   2.746  0.1749  0.7586 -0.1169
 4770SOL    HW225773   1.845   1.832   2.779  0.5294  0.8601  0.5267
 4771SOL     OW25774   3.416   2.391   8.433  0.0490  0.2151  0.6434
 4771SOL    HW125775   3.507   2.362   8.435 -0.6189 -1.8718  0.4652
 4771SOL    HW225776   3.436   2.470   8.484 -1.6422  0.8098  0.3990
 4772SOL     OW25777   0.823   3.201   0.100  0.6725 -0.3058 -0.4932
 4772SOL    HW125778   0.786   3.117   0.071 -0.9360  0.1446  0.2597
 4772SOL    HW225779   0.895   3.176   0.157  2.4860  3.3676 -1.1931
 4773SOL     OW25780   2.666   3.213   6.619  0.1070 -0.1172  0.3793
 4773SOL    HW125781   2.596   3.260   6.664 -1.6539 -1.1685 -1.2934
 4773SOL    HW225782   2.711   3.180   6.697  1.2559  1.1146  0.2490
 4774SOL     OW25783   2.779   0.974   5.993 -0.3065 -0.3186 -0.1275
 4774SOL    HW125784   2.868   0.944   6.010  0.2493  1.1598 -0.4450
 4774SOL    HW225785   2.734   0.977   6.077 -1.4746 -0.6305 -0.7425
 4775SOL     OW25786   0.806   3.325   3.394  0.3907 -0.2630 -0.3063
 4775SOL    HW125787   0.897   3.297   3.382  0.0155 -1.7642  0.3861
 4775SOL    HW225788   0.766   3.240   3.407 -1.4627  0.3288 -2.1365
 4776SOL     OW25789   3.280   3.598   2.249  0.4163  0.0231 -0.3501
 4776SOL    HW125790   3.283   3.605   2.154  0.5973 -1.1422 -0.4375
 4776SOL    HW225791   3.217   3.667   2.269  1.8242  1.6209 -1.4894
 4777SOL     OW25792   4.133   3.617  13.012 -0.4982  1.4322 -0.6924
 4777SOL    HW125793   4.181   3.583  12.937  3.1891  0.6994  2.0227
 4777SOL    HW225794   4.206   3.613  13.073 -1.2012 -2.4303 -0.1369
 4778SOL     OW25795   1.049   3.960  15.516  0.2552 -0.4910  0.1658
 4778SOL    HW125796   0.992   3.936  15.589  1.0456 -2.8770  0.0141
 4778SOL    HW225797   1.138   3.954  15.551  0.5618 -1.0742 -0.6969
 4779SOL     OW25798   0.918   3.460  17.450  0.2681 -0.6673  0.4540
 4779SOL    HW125799   0.915   3.383  17.394  0.6970  0.9124 -1.7203
 4779SOL    HW225800   0.912   3.528  17.384 -0.5717  0.0605  1.2766
 4780SOL     OW25801   3.165   0.903   3.950 -0.3669 -0.0317 -0.2636
 4780SOL    HW125802   3.221   0.948   4.014 -1.9005  1.5191 -0.0198
 4780SOL    HW225803   3.232   0.846   3.912 -1.9285 -1.8259 -0.3084
 4781SOL     OW25804   2.670   3.652   5.848  0.0386 -0.0892 -0.1380
 4781SOL    HW125805   2.706   3.741   5.852 -0.4178  0.0359  1.1277
 4781SOL    HW225806   2.730   3.617   5.782  1.4279  0.5641  0.7876
 4782SOL     OW25807   0.870   0.637  15.064  0.2195 -0.5068 -0.4782
 4782SOL    HW125808   0.901   0.567  15.007  0.2574 -1.2636  0.4765
 4782SOL    HW225809   0.816   0.595  15.131 -1.7322  0.4514 -1.4633
 4783SOL     OW25810   4.086   2.402  13.362  0.1359  0.1346 -0.1599
 4783SOL    HW125811   4.137   2.483  13.359  2.2165 -1.1318  0.6811
 4783SOL    HW225812   4.019   2.428  13.426  0.0791 -3.1602  1.1671
 4784SOL     OW25813   1.723   3.694   3.129  0.7908  0.0341  0.2383
 4784SOL    HW125814   1.644   3.641   3.141 -0.2652  1.1681 -1.5564
 4784SOL    HW225815   1.788   3.625   3.128  1.3209  0.5234  0.7509
 4785SOL     OW25816   1.123   4.116   4.485 -0.4755  0.2601  0.1671
 4785SOL    HW125817   1.106   4.110   4.391 -0.3189 -0.0145  0.1551
 4785SOL    HW225818   1.046   4.165   4.512  0.3121 -0.0573  3.0610
 4786SOL     OW25819   0.742   4.524  11.382  0.1541  0.3857 -0.6227
 4786SOL    HW125820   0.655   4.562  11.369  0.9451  2.7599  0.8636
 4786SOL    HW225821   0.710   4.453  11.437 -1.7589  2.1581  0.6051
 4787SOL     OW25822   1.333   2.046   6.603  0.4195 -0.6954 -0.2039
 4787SOL    HW125823   1.391   1.970   6.607 -0.1498 -1.0838  0.5391
 4787SOL    HW225824   1.396   2.116   6.589 -0.4159 -0.5304 -3.1662
 4788SOL     OW25825   4.302   3.616  11.728  0.3839  0.3063 -0.5362
 4788SOL    HW125826   4.378   3.558  11.734 -0.1951 -0.3423  0.3974
 4788SOL    HW225827   4.225   3.561  11.714  0.2700  0.3109  0.0777
 4789SOL     OW25828   4.229   2.663   9.437 -0.0962 -0.6718  0.3991
 4789SOL    HW125829   4.207   2.753   9.412  0.3921 -0.8100 -0.5127
 4789SOL    HW225830   4.211   2.610   9.360 -3.0915  2.0623 -0.7916
 4790SOL     OW25831   0.411   3.989  17.134 -0.2448  0.2166  0.2091
 4790SOL    HW125832   0.463   3.910  17.142 -1.8539 -0.9397 -0.7731
 4790SOL    HW225833   0.376   3.992  17.223 -0.7876  0.5888 -0.0122
 4791SOL     OW25834   1.410   4.393  11.916  0.2616  0.1993 -0.1650
 4791SOL    HW125835   1.365   4.316  11.882 -2.0896  1.4680  0.0112
 4791SOL    HW225836   1.353   4.464  11.884 -0.6188 -0.8694 -0.9738
 4792SOL     OW25837   3.341   1.313   9.110 -0.3680 -0.2947  0.3403
 4792SOL    HW125838   3.371   1.268   9.189  1.8186 -1.2092 -1.0214
 4792SOL    HW225839   3.251   1.331   9.136 -0.4168 -2.9092  2.0028
 4793SOL     OW25840   1.209   4.173  16.181 -0.2937  0.0554 -0.1457
 4793SOL    HW125841   1.218   4.101  16.119  0.6555 -0.7513  0.9163
 4793SOL    HW225842   1.285   4.167  16.239  0.0254 -1.9878 -0.7696
 4794SOL     OW25843   3.652   1.679   7.695  0.0514 -0.1299  0.2765
 4794SOL    HW125844   3.727   1.684   7.636 -0.2535  0.3006 -0.0816
 4794SOL    HW225845   3.690   1.621   7.760  0.0379 -0.7461 -0.2667
 4795SOL     OW25846   2.317   2.018  10.696  0.5381  0.5797 -0.5638
 4795SOL    HW125847   2.259   1.970  10.637  0.2932  1.5776 -1.1375
 4795SOL    HW225848   2.285   2.107  10.681 -1.0184 -0.0718 -1.1136
 4796SOL     OW25849   4.591   0.096  12.145  0.3359 -0.3504  0.0090
 4796SOL    HW125850   4.585   0.179  12.192  1.8364  0.3457 -1.0105
 4796SOL    HW225851   4.572   0.022  12.202  2.8830  0.3054  1.7134
 4797SOL     OW25852   1.043   1.132   7.427  0.4104  0.2689  0.1618
 4797SOL    HW125853   1.076   1.221   7.425 -1.1884  0.8427 -0.5265
 4797SOL    HW225854   1.054   1.106   7.335  3.2642 -0.4075  0.6990
 4798SOL     OW25855   0.851   2.599   5.458 -0.3625  0.4936 -0.8300
 4798SOL    HW125856   0.782   2.591   5.523  1.2787  2.6153  1.1288
 4798SOL    HW225857   0.828   2.524   5.402  0.6686 -0.0724 -0.5014
 4799SOL     OW25858   3.165   4.141   2.118  0.3522  0.2219 -0.2522
 4799SOL    HW125859   3.240   4.185   2.161  0.1207 -0.1016  0.4846
 4799SOL    HW225860   3.177   4.054   2.156  1.1936  0.1078 -0.7894
 4800SOL     OW25861   3.764   3.253  14.732 -0.0730 -0.2638  0.1887
 4800SOL    HW125862   3.818   3.280  14.658  0.2752 -0.9055  0.2125
 4800SOL    HW225863   3.782   3.159  14.738 -3.2723 -0.6305  4.3135
 4801SOL     OW25864   0.609   2.216   1.949 -0.6495 -0.1613  0.0038
 4801SOL    HW125865   0.534   2.254   1.903  0.8276 -0.6059 -2.7612
 4801SOL    HW225866   0.578   2.160   2.020  0.4745  0.0055  0.6150
 4802SOL     OW25867   3.133   4.012   5.332  0.5449  0.0915  0.3105
 4802SOL    HW125868   3.190   3.953   5.383 -0.9287 -2.0867 -0.5767
 4802SOL    HW225869   3.196   4.050   5.270 -0.2475 -0.2098 -0.6704
 4803SOL     OW25870   2.491   3.065   5.753  0.0446 -0.4746 -0.4561
 4803SOL    HW125871   2.498   2.987   5.698 -1.1287 -1.1548  0.3547
 4803SOL    HW225872   2.525   3.029   5.834 -0.2589  1.2000  0.4137
 4804SOL     OW25873   1.496   1.342  16.222  0.1651  0.0436 -0.3237
 4804SOL    HW125874   1.548   1.373  16.148  0.1067 -0.5193 -0.5984
 4804SOL    HW225875   1.421   1.401  16.229 -0.1113 -0.2963 -0.4460
 4805SOL     OW25876   2.658   0.239  16.059 -0.2387  0.0598 -0.2447
 4805SOL    HW125877   2.655   0.195  16.144 -0.3547  1.3723  0.4315
 4805SOL    HW225878   2.737   0.197  16.024 -0.8895 -1.9261  0.6886
 4806SOL     OW25879   0.765   2.887   2.703 -0.3709  0.5212  0.0962
 4806SOL    HW125880   0.742   2.933   2.784 -0.2371 -0.5828  0.7540
 4806SOL    HW225881   0.860   2.895   2.714 -0.2254  0.1474 -0.8414
 4807SOL     OW25882   0.503   4.375   4.974 -0.1402 -0.2614 -0.3787
 4807SOL    HW125883   0.512   4.462   5.013 -0.0818 -0.6659  0.5049
 4807SOL    HW225884   0.588   4.340   4.948  0.1818  0.7328 -0.6593
 4808SOL     OW25885   0.398   1.349  13.291  0.1305  0.3346  0.5558
 4808SOL    HW125886   0.385   1.427  13.237 -0.5861 -0.2980 -0.1877
 4808SOL    HW225887   0.461   1.371  13.359  0.4875 -1.8252  0.9316
 4809SOL     OW25888   2.979   1.262   4.662 -0.4080 -0.7147  0.0588
 4809SOL    HW125889   2.894   1.290   4.629  0.3194  1.9544  0.4585
 4809SOL    HW225890   2.997   1.188   4.604 -2.8126 -1.3983  0.2082
 4810SOL     OW25891   0.185   2.522  10.419  0.1596 -0.3695  0.0929
 4810SOL    HW125892   0.128   2.449  10.440 -0.6317  0.8328  2.1515
 4810SOL    HW225893   0.193   2.518  10.324 -3.1141 -2.7457 -0.0436
 4811SOL     OW25894   3.989   4.628   6.636  0.1988 -0.1258 -0.5672
 4811SOL    HW125895   4.043   4.644   6.559  4.1223 -1.5023  1.8642
 4811SOL    HW225896   3.911   4.673   6.605  0.2866 -0.8049 -1.7419
 4812SOL     OW25897   3.299   0.715  17.635 -0.2878 -0.6084 -0.8065
 4812SOL    HW125898   3.391   0.719  17.661 -1.0596 -0.5473  1.9240
 4812SOL    HW225899   3.284   0.620  17.638 -0.6803 -0.5572 -1.1224
 4813SOL     OW25900   1.865   4.298  14.559 -0.2494 -0.3279  0.1309
 4813SOL    HW125901   1.831   4.296  14.470 -1.8653 -1.0852  0.7791
 4813SOL    HW225902   1.941   4.346  14.525  0.6093 -2.6757 -1.2794
 4814SOL     OW25903   2.734   3.271  17.267 -0.2599 -0.4874  0.0322
 4814SOL    HW125904   2.782   3.190  17.251 -0.1849 -0.6383  1.0237
 4814SOL    HW225905   2.646   3.240  17.245 -0.2662 -0.4366 -0.0146
 4815SOL     OW25906   3.175   2.190   3.324  0.1308 -0.2915  0.4555
 4815SOL    HW125907   3.173   2.201   3.419  1.3141 -0.2945  0.4782
 4815SOL    HW225908   3.096   2.235   3.293  0.4459  0.1516  0.3027
 4816SOL     OW25909   3.170   0.118   6.382 -0.2563  0.0993  0.0263
 4816SOL    HW125910   3.240   0.182   6.392 -0.0507 -0.3898  1.6886
 4816SOL    HW225911   3.209   0.039   6.420 -2.9427 -0.2123  2.1214
 4817SOL     OW25912   0.745   3.848   6.019 -0.2064 -0.5064  0.0042
 4817SOL    HW125913   0.809   3.818   6.083 -0.6740  2.4914  1.8745
 4817SOL    HW225914   0.745   3.943   6.035  0.9917 -0.6061  0.6240
 4818SOL     OW25915   1.307   3.437   2.672 -0.9189  0.1194  0.2438
 4818SOL    HW125916   1.373   3.496   2.639 -2.5128  1.5216 -0.4412
 4818SOL    HW225917   1.333   3.353   2.633 -3.5996 -0.3645 -0.5102
 4819SOL     OW25918   0.328   2.707  15.086  0.2370 -0.0673  0.1495
 4819SOL    HW125919   0.412   2.666  15.069  0.6442 -0.8158  3.9384
 4819SOL    HW225920   0.354   2.796  15.110 -0.4171  0.2067 -0.1537
 4820SOL     OW25921   4.566   2.198   2.921 -1.0230 -0.5924 -0.0880
 4820SOL    HW125922   4.473   2.220   2.909 -1.3957 -1.1243  1.8285
 4820SOL    HW225923   4.559   2.152   3.004  1.0255 -0.0439  0.3880
 4821SOL     OW25924   3.181   1.023  13.266 -0.6313 -0.3135  0.5913
 4821SOL    HW125925   3.135   0.960  13.321  1.4890 -2.8015 -0.5256
 4821SOL    HW225926   3.111   1.087  13.252 -0.4021  0.2966  2.1621
 4822SOL     OW25927   2.181   2.012   7.150 -0.0932  0.4837 -0.3753
 4822SOL    HW125928   2.245   2.021   7.079  0.6090 -0.1673  0.1763
 4822SOL    HW225929   2.201   1.925   7.185 -0.4048  1.4833  2.2413
 4823SOL     OW25930   1.572   4.651   5.872  0.2678 -0.8496 -0.5550
 4823SOL    HW125931   1.563   4.719   5.939 -0.6203 -1.0097 -0.5165
 4823SOL    HW225932   1.666   4.632   5.873  0.6934  1.2569  1.7809
 4824SOL     OW25933   1.481   2.630   7.520  0.2305  0.0537  0.5927
 4824SOL    HW125934   1.461   2.587   7.436 -0.4276 -0.2434  0.8984
 4824SOL    HW225935   1.471   2.722   7.496  1.2935  0.1930  0.6831
 4825SOL     OW25936   1.954   2.946   0.232 -0.3012  0.7564  0.5203
 4825SOL    HW125937   1.930   3.028   0.190  2.5787  1.2331 -0.1947
 4825SOL    HW225938   2.010   2.916   0.161 -1.9206 -1.2665  0.1037
 4826SOL     OW25939   1.137   2.018   6.426 -0.6390  0.4638 -0.3667
 4826SOL    HW125940   1.203   2.015   6.496 -0.0382  1.4741 -0.8897
 4826SOL    HW225941   1.164   1.953   6.361 -1.1356  0.5252 -0.6311
 4827SOL     OW25942   4.166   3.595  15.977 -0.1371  0.0738 -0.1923
 4827SOL    HW125943   4.195   3.510  15.946  0.5595 -0.3027  1.4937
 4827SOL    HW225944   4.250   3.634  16.000 -0.4215  0.2581  0.5487
 4828SOL     OW25945   3.109   1.221   2.567 -0.1186  0.2454  0.0320
 4828SOL    HW125946   3.127   1.273   2.646  0.8001 -1.5217  0.9708
 4828SOL    HW225947   3.189   1.242   2.520 -1.8332  0.3839 -2.8046
 4829SOL     OW25948   0.214   0.123   2.417 -0.0640  0.2046  0.0134
 4829SOL    HW125949   0.280   0.190   2.431 -0.5145  1.2020 -2.7243
 4829SOL    HW225950   0.148   0.178   2.375 -1.4319 -0.2911  1.5146
 4830SOL     OW25951   2.424   0.767   8.846  0.5235 -0.6429 -0.6050
 4830SOL    HW125952   2.511   0.778   8.883  0.2329  1.5200 -0.6067
 4830SOL    HW225953   2.380   0.793   8.927 -0.1567 -3.0567 -0.1970
 4831SOL     OW25954   4.081   0.057   3.375  0.0724 -0.3916  0.0865
 4831SOL    HW125955   4.117   4.696   3.345  0.6641 -0.6721  1.5693
 4831SOL    HW225956   4.053   0.031   3.463  0.6851 -0.2876  0.3115
 4832SOL     OW25957   4.144   1.869  15.013 -0.1351  0.6618 -0.2910
 4832SOL    HW125958   4.238   1.867  14.996 -0.1393  0.4845 -0.2923
 4832SOL    HW225959   4.146   1.884  15.107  1.1925  0.4019 -0.2803
 4833SOL     OW25960   4.062   0.506   6.178 -0.0933  0.8210  0.0114
 4833SOL    HW125961   4.139   0.477   6.130 -0.8061 -1.9020  0.5048
 4833SOL    HW225962   4.008   0.547   6.110  2.0328 -0.2910 -2.2924
 4834SOL     OW25963   4.189   2.198   1.891 -0.4830  0.2533  0.5210
 4834SOL    HW125964   4.116   2.136   1.890 -1.0814  0.9897 -1.4207
 4834SOL    HW225965   4.141   2.279   1.905  0.1858  0.0071  4.0618
 4835SOL     OW25966   2.330   3.878   8.343  0.1081 -0.1437 -0.1273
 4835SOL    HW125967   2.300   3.791   8.320 -1.4464 -0.4756  3.0884
 4835SOL    HW225968   2.251   3.919   8.381 -0.4814 -0.6891 -0.7677
 4836SOL     OW25969   1.023   3.420   8.545 -0.0941 -0.2377  0.3502
 4836SOL    HW125970   0.999   3.497   8.597  2.7302  0.8899 -0.0391
 4836SOL    HW225971   0.957   3.358   8.578 -0.2075  0.2534  1.0532
 4837SOL     OW25972   1.980   2.118   1.207 -0.1587 -0.4123  0.3833
 4837SOL    HW125973   1.990   2.098   1.114 -1.2311 -0.3948  0.2647
 4837SOL    HW225974   2.041   2.052   1.241  0.5706  1.0784  1.9585
 4838SOL     OW25975   1.337   1.038   2.648  0.3009 -0.4219  0.3349
 4838SOL    HW125976   1.400   1.101   2.614 -0.3951 -0.1610 -0.4610
 4838SOL    HW225977   1.256   1.078   2.617  0.8637  1.2009  0.9903
 4839SOL     OW25978   0.052   3.379   3.627  0.3194 -0.6128 -0.4133
 4839SOL    HW125979   4.694   3.385   3.576  0.3170  0.1505 -0.3277
 4839SOL    HW225980   0.106   3.344   3.556 -0.2005 -0.6022 -0.8087
 4840SOL     OW25981   3.780   2.708   4.821  0.6094 -0.1705 -0.3096
 4840SOL    HW125982   3.814   2.772   4.758  0.2633  0.1306 -0.1920
 4840SOL    HW225983   3.830   2.739   4.897 -0.6073  1.5328 -0.2026
 4841SOL     OW25984   3.365   4.224   4.299 -0.1730 -0.0069 -0.0768
 4841SOL    HW125985   3.282   4.269   4.285 -0.0383  0.1617 -0.3264
 4841SOL    HW225986   3.343   4.175   4.379 -0.7100  0.1016 -0.1591
 4842SOL     OW25987   3.946   4.329  10.229  0.0195  0.6359 -0.1598
 4842SOL    HW125988   4.011   4.346  10.298 -2.0901  0.2989  1.8877
 4842SOL    HW225989   3.991   4.376  10.158  1.2402 -0.3376 -0.0311
 4843SOL     OW25990   0.808   4.406   5.840  0.5493  0.2635  0.6344
 4843SOL    HW125991   0.893   4.437   5.807  0.5650 -0.1534  0.2905
 4843SOL    HW225992   0.762   4.394   5.757  0.2752  0.5577  0.7435
 4844SOL     OW25993   2.903   3.907   4.721 -0.1542 -0.2379 -0.6287
 4844SOL    HW125994   2.923   3.938   4.633 -0.1740 -1.7415 -1.1501
 4844SOL    HW225995   2.981   3.855   4.740 -0.4033 -0.3205  0.1906
 4845SOL     OW25996   2.345   4.024  15.712  0.5018  0.0965  0.5360
 4845SOL    HW125997   2.321   4.116  15.699 -0.5148 -0.1656  0.5390
 4845SOL    HW225998   2.430   4.037  15.752  0.0826  0.1722  1.4006
 4846SOL     OW25999   1.267   4.512   4.421  0.1763 -0.4563 -0.4754
 4846SOL    HW126000   1.251   4.429   4.377  1.8106 -0.4743 -1.0302
 4846SOL    HW226001   1.256   4.568   4.345  1.1454 -1.5289 -1.3922
 4847SOL     OW26002   4.645   0.810  17.420  0.5117 -0.4293  0.8118
 4847SOL    HW126003   4.711   0.814  17.490 -1.1899  0.1876  2.3752
 4847SOL    HW226004   4.594   0.885  17.450  0.0799 -1.0189  1.5526
 4848SOL     OW26005   0.058   0.072   7.925  0.1145  0.1075  0.1299
 4848SOL    HW126006   4.696   0.091   7.885  0.8805  1.3522 -0.9188
 4848SOL    HW226007   0.109   0.153   7.928  2.4018 -1.3207  0.5463
 4849SOL     OW26008   3.369   4.682  12.370  0.2614 -0.0390 -0.1244
 4849SOL    HW126009   3.461   4.680  12.344  0.4656  1.9942  0.4866
 4849SOL    HW226010   3.324   4.701  12.288 -1.2240  2.8658  1.3608
 4850SOL     OW26011   0.998   3.299   1.402  0.0253 -1.0317  0.8682
 4850SOL    HW126012   1.005   3.372   1.342 -1.1136 -1.2518  0.4605
 4850SOL    HW226013   0.988   3.228   1.338  1.5513 -0.9553  0.5453
 4851SOL     OW26014   2.798   2.312   6.524 -0.5541  0.1590  0.1355
 4851SOL    HW126015   2.825   2.288   6.612 -0.7875 -1.7603 -0.3196
 4851SOL    HW226016   2.792   2.408   6.529  1.4823  0.3016 -0.1160
 4852SOL     OW26017   4.302   2.559  13.095  0.3999  0.2303  0.1340
 4852SOL    HW126018   4.286   2.470  13.062 -0.9259 -0.2249  2.0006
 4852SOL    HW226019   4.245   2.599  13.030  2.3266 -0.8442 -2.2353
 4853SOL     OW26020   4.111   2.864  10.115  0.1737  0.5144 -0.9617
 4853SOL    HW126021   4.205   2.868  10.135  0.4202 -1.8806 -1.5722
 4853SOL    HW226022   4.071   2.925  10.177 -0.0151 -0.2358 -0.3424
 4854SOL     OW26023   2.337   0.227   3.177 -0.6466  0.0680  0.2499
 4854SOL    HW126024   2.322   0.151   3.235  2.2975 -0.0996  0.8136
 4854SOL    HW226025   2.429   0.254   3.176 -0.1265 -1.6502  0.9017
 4855SOL     OW26026   0.554   3.370   6.455  0.5357 -0.2726 -0.4479
 4855SOL    HW126027   0.472   3.322   6.458  1.2948 -1.6660 -1.8935
 4855SOL    HW226028   0.584   3.339   6.369  3.6767  2.1505 -0.2326
 4856SOL     OW26029   2.768   1.289   9.867 -0.2980 -0.1443  0.1337
 4856SOL    HW126030   2.699   1.264   9.806  0.1909  0.5865 -0.7060
 4856SOL    HW226031   2.730   1.372   9.896  0.9255  0.2140  0.7356
 4857SOL     OW26032   2.794   4.244  10.256 -0.2544  0.5601  0.2304
 4857SOL    HW126033   2.743   4.163  10.263 -1.8983  1.7257  1.8195
 4857SOL    HW226034   2.728   4.304  10.289  1.0779  1.3485  1.4456
 4858SOL     OW26035   2.534   1.199   6.498  0.4143  0.0853 -0.2645
 4858SOL    HW126036   2.544   1.104   6.490  0.7309  0.1113 -0.1870
 4858SOL    HW226037   2.626   1.225   6.488  0.3546 -0.5964 -2.5689
 4859SOL     OW26038   1.694   0.234  17.224 -0.0446 -0.0398  0.3093
 4859SOL    HW126039   1.751   0.177  17.173 -0.8254  1.7747 -2.6275
 4859SOL    HW226040   1.756   0.287  17.272 -0.7129 -0.5751  1.7688
 4860SOL     OW26041   1.410   2.970   4.864  0.3692  0.3372  0.1921
 4860SOL    HW126042   1.374   3.015   4.788  0.5563  0.8191  0.3879
 4860SOL    HW226043   1.331   2.921   4.883 -0.6951  2.2362  0.6945
 4861SOL     OW26044   4.161   1.181   4.222 -0.1454  0.4955  0.2572
 4861SOL    HW126045   4.086   1.123   4.209 -0.3512  0.8607 -0.1701
 4861SOL    HW226046   4.169   1.177   4.317  2.7939  0.3795 -0.0044
 4862SOL     OW26047   4.258   0.164   7.576 -0.1264 -0.3778  0.3625
 4862SOL    HW126048   4.196   0.224   7.536  2.3957  1.2987 -1.0405
 4862SOL    HW226049   4.280   0.105   7.504 -0.7677 -0.5552  0.3186
 4863SOL     OW26050   4.112   1.910   9.295  0.3817 -0.5552 -0.4613
 4863SOL    HW126051   4.156   1.896   9.379  0.9829 -2.8328 -1.1602
 4863SOL    HW226052   4.065   1.827   9.283  0.9179 -1.1108  1.2279
 4864SOL     OW26053   2.212   1.260   9.866 -0.0383 -0.2601 -0.3584
 4864SOL    HW126054   2.288   1.318   9.867  1.3837 -2.1065  0.4354
 4864SOL    HW226055   2.221   1.206   9.788  1.0446 -0.1620 -0.2998
 4865SOL     OW26056   3.852   0.022   3.076  0.3200  0.4588 -0.6921
 4865SOL    HW126057   3.936   0.068   3.084  0.2924  0.4075 -0.1324
 4865SOL    HW226058   3.792   0.067   3.135  1.0211 -1.2794  1.3411
 4866SOL     OW26059   4.003   2.613  14.140  0.3729  0.2558  0.4043
 4866SOL    HW126060   4.024   2.626  14.047  0.1648 -1.7406  0.0866
 4866SOL    HW226061   4.011   2.519  14.152 -1.6675  0.0875  0.4308
 4867SOL     OW26062   4.111   4.361   0.103 -0.1085 -1.4136  0.0679
 4867SOL    HW126063   4.206   4.378   0.102 -0.5810  1.2452  1.1261
 4867SOL    HW226064   4.110   4.298   0.031 -0.6030 -0.7303 -0.5244
 4868SOL     OW26065   0.796   1.430   2.373 -0.1549 -0.2992  0.7146
 4868SOL    HW126066   0.853   1.354   2.359 -0.6416  0.0018 -2.9331
 4868SOL    HW226067   0.705   1.400   2.365 -0.1102 -0.7753  2.0704
 4869SOL     OW26068   1.233   2.935   7.368  0.0315  0.0045 -0.4761
 4869SOL    HW126069   1.266   2.845   7.377  1.0302  0.4104 -0.0010
 4869SOL    HW226070   1.235   2.956   7.462  0.6482  1.6414 -0.8605
 4870SOL     OW26071   1.634   0.098   5.143 -0.5559  0.2896  0.8324
 4870SOL    HW126072   1.711   0.134   5.098 -0.6204 -1.2331 -0.4920
 4870SOL    HW226073   1.628   0.025   5.081 -1.7462 -0.3608  1.7317
 4871SOL     OW26074   1.773   2.232   6.812  0.4834 -0.0645 -0.3373
 4871SOL    HW126075   1.689   2.191   6.833 -0.1087  0.4135 -1.7417
 4871SOL    HW226076   1.770   2.306   6.872  0.7628 -1.1243  0.9851
 4872SOL     OW26077   4.197   0.090   6.438 -0.1006  0.8962 -0.0329
 4872SOL    HW126078   4.274   0.099   6.495 -0.9403  1.1654  1.0607
 4872SOL    HW226079   4.233   0.051   6.358 -2.0706  1.3949 -1.1596
 4873SOL     OW26080   0.061   0.334  14.592 -0.1720  0.0282  0.2015
 4873SOL    HW126081   0.012   0.320  14.511  0.7427  1.5818 -0.6117
 4873SOL    HW226082   0.145   0.296  14.567  0.2299  1.2012 -0.2480
 4874SOL     OW26083   2.774   3.863   8.855  0.0698 -0.0848  0.4848
 4874SOL    HW126084   2.710   3.818   8.910 -1.2915  0.2631 -0.8223
 4874SOL    HW226085   2.792   3.789   8.796  0.0984  0.8651 -0.6872
 4875SOL     OW26086   3.207   4.100  11.751  0.7398 -0.0045 -0.0549
 4875SOL    HW126087   3.159   4.136  11.826 -0.9448  0.9672 -1.5999
 4875SOL    HW226088   3.138   4.104  11.684 -0.1791 -0.7260  0.8355
 4876SOL     OW26089   3.740   4.541   3.849 -0.2875 -0.2099  0.1106
 4876SOL    HW126090   3.706   4.591   3.924  2.2423 -0.5960  1.5271
 4876SOL    HW226091   3.683   4.464   3.852 -1.4398  0.6792  1.0839
 4877SOL     OW26092   3.135   1.595   9.991 -0.1303  0.4899 -0.1357
 4877SOL    HW126093   3.069   1.659   9.966 -0.7741  0.1185  0.5939
 4877SOL    HW226094   3.213   1.643   9.966 -0.5200  0.3219 -1.6506
 4878SOL     OW26095   1.825   1.708   7.584 -0.3945 -0.1207 -0.2299
 4878SOL    HW126096   1.790   1.643   7.646  1.1808 -0.4845  0.2835
 4878SOL    HW226097   1.806   1.796   7.616 -0.1123 -0.4575  0.8906
 4879SOL     OW26098   1.325   1.339  17.159  0.5480 -0.3985 -0.0551
 4879SOL    HW126099   1.363   1.397  17.092  1.0489 -1.7265 -0.9141
 4879SOL    HW226100   1.377   1.261  17.143  0.6611  0.2136 -2.7138
 4880SOL     OW26101   3.535   2.499   3.017 -0.5715  0.5356  0.6170
 4880SOL    HW126102   3.452   2.504   2.970 -0.3650  2.1837  0.4499
 4880SOL    HW226103   3.584   2.580   3.004 -0.2973  0.5450  1.6628
 4881SOL     OW26104   1.249   3.432   0.631 -0.4798 -0.6737 -0.1743
 4881SOL    HW126105   1.205   3.461   0.552  0.4487 -0.7042 -0.7076
 4881SOL    HW226106   1.341   3.456   0.619 -0.3406 -1.4859 -0.7636
 4882SOL     OW26107   2.349   1.344  10.974  0.2887 -0.4545  0.1165
 4882SOL    HW126108   2.327   1.434  10.953  1.1697  0.3716  2.7101
 4882SOL    HW226109   2.423   1.361  11.033  0.7113  0.6414 -0.7394
 4883SOL     OW26110   0.895   2.514  10.941  0.8018  0.1240 -0.1476
 4883SOL    HW126111   0.959   2.581  10.965  0.6346 -0.7933  2.8238
 4883SOL    HW226112   0.898   2.466  11.024 -0.6467  1.9954  0.9814
 4884SOL     OW26113   0.612   1.221  12.494  0.5441 -0.8847  0.5393
 4884SOL    HW126114   0.707   1.223  12.506  0.5196  0.2632  0.5439
 4884SOL    HW226115   0.597   1.290  12.558  0.2835 -0.7619  0.3486
 4885SOL     OW26116   0.543   1.011   3.366 -0.7249 -0.0029  0.6261
 4885SOL    HW126117   0.550   0.920   3.396 -0.4111  0.3071  1.5026
 4885SOL    HW226118   0.619   1.044   3.414 -1.6333 -0.2447  2.2722
 4886SOL     OW26119   3.061   3.474  15.928 -0.0394 -0.0667  0.4569
 4886SOL    HW126120   3.006   3.458  15.851 -1.0739  2.4601  0.6922
 4886SOL    HW226121   3.059   3.380  15.946  1.0891 -0.1784  0.0104
 4887SOL     OW26122   1.471   0.381   9.300  0.4143  0.6751  0.1101
 4887SOL    HW126123   1.462   0.469   9.339 -0.0630  0.3404  0.7548
 4887SOL    HW226124   1.412   0.331   9.356 -1.1677  2.0845 -0.2869
 4888SOL     OW26125   4.135   2.176   7.326 -0.1323  0.1124  0.4055
 4888SOL    HW126126   4.188   2.100   7.350  1.1891 -0.0824 -3.2224
 4888SOL    HW226127   4.129   2.236   7.401 -0.3857 -1.6388  1.7819
 4889SOL     OW26128   3.019   1.435  17.558  0.1892  0.9610  0.1816
 4889SOL    HW126129   2.948   1.499  17.564 -0.3605  0.4633 -1.1471
 4889SOL    HW226130   2.982   1.370  17.619  0.2768 -0.2278 -1.0481
 4890SOL     OW26131   4.190   4.001   2.126 -0.1025 -0.2785  0.2091
 4890SOL    HW126132   4.261   3.938   2.139 -0.8484 -1.4592 -1.3972
 4890SOL    HW226133   4.176   4.039   2.212  1.4688 -1.7497  1.1306
 4891SOL     OW26134   4.693   2.808   6.613 -0.5731 -0.0430 -0.3339
 4891SOL    HW126135   0.049   2.855   6.641 -0.4138 -1.2935  1.2713
 4891SOL    HW226136   4.631   2.880   6.628  1.2034  1.4565 -0.2948
 4892SOL     OW26137   0.117   0.805   5.690 -0.2631  0.0405 -0.0819
 4892SOL    HW126138   0.158   0.743   5.631  1.1237 -0.9374  1.8901
 4892SOL    HW226139   0.191   0.819   5.749 -0.9987  1.8542  0.4188
 4893SOL     OW26140   0.322   1.341  17.205 -0.3801 -0.2987 -0.2440
 4893SOL    HW126141   0.287   1.253  17.192 -0.4703 -0.7627  3.0622
 4893SOL    HW226142   0.372   1.333  17.286 -0.5757 -1.9353 -0.2907
 4894SOL     OW26143   3.362   1.148   3.696  0.0220  0.2000  0.6883
 4894SOL    HW126144   3.343   1.056   3.677  0.3223 -0.0463  1.5683
 4894SOL    HW226145   3.319   1.193   3.624 -0.0773  1.5256  1.5718
 4895SOL     OW26146   1.823   2.293   2.384 -0.4394  0.6124 -0.3224
 4895SOL    HW126147   1.761   2.229   2.350  1.0611 -0.0184 -1.8761
 4895SOL    HW226148   1.896   2.243   2.421 -0.9535 -0.7886 -1.2296
 4896SOL     OW26149   0.233   1.752   4.473 -0.4477 -0.0076  0.0909
 4896SOL    HW126150   0.190   1.771   4.556 -0.3662 -0.3513  0.2100
 4896SOL    HW226151   0.195   1.665   4.459  0.5435 -0.4336  0.0301
 4897SOL     OW26152   4.138   3.923   4.463  0.2675 -0.0300  0.2302
 4897SOL    HW126153   4.144   3.884   4.376 -1.2370 -0.0516  0.1430
 4897SOL    HW226154   4.185   4.004   4.443  0.3540 -0.0577  0.3163
 4898SOL     OW26155   0.421   0.004   2.283 -0.1339  0.2778 -0.3501
 4898SOL    HW126156   0.379   4.670   2.219 -1.1728  1.8201 -1.0401
 4898SOL    HW226157   0.353   0.029   2.347 -0.1100 -1.7129  0.4399
 4899SOL     OW26158   4.061   0.563  11.486  0.0934 -0.0381  0.5688
 4899SOL    HW126159   3.972   0.572  11.453 -0.0904 -0.4072  0.9750
 4899SOL    HW226160   4.116   0.604  11.418 -0.2474  1.3018  1.0897
 4900SOL     OW26161   4.210   4.444  14.424  0.1912  0.1682 -0.8070
 4900SOL    HW126162   4.229   4.387  14.498 -0.1510  0.6316 -0.3624
 4900SOL    HW226163   4.181   4.386  14.353 -2.5105  0.3442  0.1581
 4901SOL     OW26164   1.236   0.950   3.486  0.2392 -0.2490  0.2978
 4901SOL    HW126165   1.162   0.907   3.529  1.3412 -1.1606  1.2970
 4901SOL    HW226166   1.304   0.884   3.502  0.5340  0.1901  0.8660
 4902SOL     OW26167   3.379   3.536   0.515 -0.2130 -0.1041  0.1985
 4902SOL    HW126168   3.432   3.509   0.440 -2.0256  0.1025 -1.1722
 4902SOL    HW226169   3.389   3.631   0.507  0.3368 -0.1358  0.5114
 4903SOL     OW26170   0.126   3.868   6.746 -0.0630 -0.1898 -0.4204
 4903SOL    HW126171   0.162   3.877   6.834  0.6390  0.3406 -0.7605
 4903SOL    HW226172   0.207   3.864   6.696 -1.9651 -2.4771 -3.3477
 4904SOL     OW26173   1.459   3.890   2.087 -0.0426  0.4456  0.1100
 4904SOL    HW126174   1.428   3.800   2.077  1.6844 -0.1916  0.4571
 4904SOL    HW226175   1.453   3.926   1.998  0.7319 -0.5605 -0.3419
 4905SOL     OW26176   1.296   0.608   4.556 -0.1565 -0.4092 -0.7084
 4905SOL    HW126177   1.347   0.607   4.637 -0.5762  1.6955 -0.4202
 4905SOL    HW226178   1.221   0.656   4.592  1.7743  1.5052  0.7711
 4906SOL     OW26179   3.548   2.411   8.859  0.1735  0.4598  0.3162
 4906SOL    HW126180   3.552   2.363   8.942 -1.3132  1.8153  1.1770
 4906SOL    HW226181   3.640   2.424   8.838 -0.2120  0.6924 -1.2185
 4907SOL     OW26182   2.021   0.089   0.787 -0.6637  0.1848  0.0857
 4907SOL    HW126183   2.094   0.044   0.830  0.0478 -0.9781 -2.3439
 4907SOL    HW226184   1.996   0.021   0.725  0.3138  0.8722 -1.0743
 4908SOL     OW26185   4.581   0.071   2.237 -0.4154  0.3641 -0.0291
 4908SOL    HW126186   4.585   0.030   2.151 -1.0170  1.4157 -0.5538
 4908SOL    HW226187   4.642   0.141   2.211  0.8133 -0.0668  1.7133
 4909SOL     OW26188   2.978   3.799   7.896  0.2414  0.0216 -0.3681
 4909SOL    HW126189   2.980   3.797   7.800  1.0660  1.0687 -0.3910
 4909SOL    HW226190   2.956   3.710   7.923  1.9628 -0.3323 -0.1289
 4910SOL     OW26191   3.725   1.325   7.056  0.7000 -0.0851 -0.8002
 4910SOL    HW126192   3.688   1.254   7.004  0.1062 -0.3097 -0.0796
 4910SOL    HW226193   3.802   1.284   7.096  2.0146  3.6922  0.5204
 4911SOL     OW26194   2.067   4.020   3.615 -0.1559  0.1294 -0.5438
 4911SOL    HW126195   2.075   3.998   3.522  2.9789 -0.3875 -0.1765
 4911SOL    HW226196   1.977   4.049   3.627  0.0207 -0.3751  2.0097
 4912SOL     OW26197   2.665   2.256   4.085  0.0969  0.2100 -0.2041
 4912SOL    HW126198   2.611   2.314   4.139  0.1025  0.1239 -0.1072
 4912SOL    HW226199   2.703   2.197   4.150  2.1758  0.0583 -1.5314
 4913SOL     OW26200   0.528   1.518   4.002  0.1191  0.5082 -0.3918
 4913SOL    HW126201   0.532   1.574   3.924 -0.2735  0.9789 -0.0663
 4913SOL    HW226202   0.471   1.449   3.968 -2.3913  3.5732 -2.4040
 4914SOL     OW26203   0.257   1.045   5.082 -0.5245  0.6496 -0.6407
 4914SOL    HW126204   0.253   0.965   5.031 -1.9039 -0.0705  0.6148
 4914SOL    HW226205   0.352   1.057   5.083 -0.5672  0.9049  1.3812
 4915SOL     OW26206   0.658   1.483   5.143  0.2635  0.1350 -0.0637
 4915SOL    HW126207   0.596   1.557   5.146 -0.0395 -0.0848 -0.7922
 4915SOL    HW226208   0.624   1.427   5.213  0.1627  0.7870  0.4155
 4916SOL     OW26209   4.318   4.491   2.370  0.1858 -0.2609 -0.2114
 4916SOL    HW126210   4.307   4.563   2.308  0.8594  0.0157 -0.0078
 4916SOL    HW226211   4.398   4.525   2.411 -0.2409 -0.0654  0.4553
 4917SOL     OW26212   1.585   3.788   7.717  0.5026  0.6504  0.0974
 4917SOL    HW126213   1.557   3.700   7.694 -1.4626  1.5049 -0.7932
 4917SOL    HW226214   1.499   3.827   7.734  0.3661 -0.2494  1.5088
 4918SOL     OW26215   0.833   3.573   5.024 -0.3568 -0.0720 -0.0931
 4918SOL    HW126216   0.847   3.570   5.119  1.2955 -0.6682 -0.3545
 4918SOL    HW226217   0.897   3.639   4.999 -0.1694 -0.3362 -0.3132
 4919SOL     OW26218   2.102   4.645   6.887  0.3210  0.7291 -0.0206
 4919SOL    HW126219   2.021   4.687   6.915 -0.9716 -1.1392 -0.9276
 4919SOL    HW226220   2.070   4.604   6.806  1.4971 -0.1141 -0.0544
 4920SOL     OW26221   3.520   2.904  14.054  0.5367 -0.2775 -0.3086
 4920SOL    HW126222   3.463   2.857  14.115  0.9930  0.0771  0.3966
 4920SOL    HW226223   3.509   2.985  14.105  2.6220 -0.3206  0.2188
 4921SOL     OW26224   0.319   2.529   4.605 -0.5352  0.3165  0.2003
 4921SOL    HW126225   0.314   2.437   4.630 -0.7892  0.4248  0.5471
 4921SOL    HW226226   0.402   2.556   4.644  2.2840 -3.2327 -3.3610
 4922SOL     OW26227   0.402   1.079  12.391  0.6335 -0.3447  0.1557
 4922SOL    HW126228   0.449   1.008  12.346 -1.3657 -0.8186 -1.2011
 4922SOL    HW226229   0.468   1.146  12.407 -1.1149  1.3475  0.2262
 4923SOL     OW26230   3.331   0.815  12.654  0.8054  0.3414  0.1164
 4923SOL    HW126231   3.240   0.804  12.683 -0.4444  1.8417 -3.1793
 4923SOL    HW226232   3.385   0.779  12.724 -0.2357 -0.6382  0.4173
 4924SOL     OW26233   1.016   0.026   5.514  0.3063  0.3190  0.3289
 4924SOL    HW126234   1.062   0.090   5.568 -1.5412  2.6509 -0.8935
 4924SOL    HW226235   1.023   4.680   5.580  3.7050 -0.3984 -0.7626
 4925SOL     OW26236   0.701   2.700   4.972  0.4342  0.5020  0.3536
 4925SOL    HW126237   0.787   2.729   5.004  0.8073 -0.3670  0.1511
 4925SOL    HW226238   0.668   2.786   4.946  3.1901  0.0850 -4.4419
 4926SOL     OW26239   3.815   3.150  16.616  0.2774 -0.3615  0.1473
 4926SOL    HW126240   3.889   3.186  16.567 -0.0838 -0.3536 -0.3900
 4926SOL    HW226241   3.843   3.062  16.640  1.3304 -0.4476 -1.4165
 4927SOL     OW26242   1.459   2.369   5.163 -0.3941  0.0492  0.1309
 4927SOL    HW126243   1.465   2.321   5.246 -0.8326 -1.0626 -0.4751
 4927SOL    HW226244   1.550   2.397   5.167  0.2058 -1.5523 -2.2257
 4928SOL     OW26245   0.482   3.870   6.183 -0.1701  0.3507 -0.3623
 4928SOL    HW126246   0.456   3.933   6.250  0.6871 -0.5404  0.7795
 4928SOL    HW226247   0.571   3.898   6.161 -0.7318  1.1902 -1.5982
 4929SOL     OW26248   3.156   2.161  11.155  0.0332 -0.3208  0.0417
 4929SOL    HW126249   3.129   2.247  11.188  2.0678 -0.4049  1.9273
 4929SOL    HW226250   3.249   2.177  11.138  0.2973 -0.7457  1.0606
 4930SOL     OW26251   3.487   3.552   8.484 -0.3606 -0.0212  0.0359
 4930SOL    HW126252   3.563   3.577   8.431 -0.1743  0.4608  0.5224
 4930SOL    HW226253   3.529   3.481   8.533  0.5302 -0.2685 -1.0742
 4931SOL     OW26254   1.317   1.914   5.471  0.0156 -0.0454  0.7715
 4931SOL    HW126255   1.243   1.918   5.532  0.0067  0.3681  0.7332
 4931SOL    HW226256   1.285   1.942   5.386 -1.5464 -0.1682  1.3083
 4932SOL     OW26257   4.597   2.436   8.281 -0.1976  0.2289 -0.5758
 4932SOL    HW126258   4.659   2.423   8.209 -1.8176  2.7788 -2.4563
 4932SOL    HW226259   4.579   2.347   8.309  0.7359  0.4446  0.6644
 4933SOL     OW26260   0.582   1.847  11.935  0.0436 -0.3727 -0.0076
 4933SOL    HW126261   0.557   1.794  12.010  0.3020  0.8044  0.9075
 4933SOL    HW226262   0.507   1.839  11.876  1.5849 -1.9098 -1.7548
 4934SOL     OW26263   1.493   4.712   2.772  0.0899  0.2324 -0.1717
 4934SOL    HW126264   1.488   0.082   2.798  0.1419  1.2171 -3.7020
 4934SOL    HW226265   1.578   4.712   2.728 -0.5397  1.3436 -1.3985
 4935SOL     OW26266   2.618   2.906   0.152  0.4679  0.0457 -0.4776
 4935SOL    HW126267   2.644   2.980   0.096 -0.3714 -0.8381 -2.0356
 4935SOL    HW226268   2.542   2.872   0.105 -1.0419  0.3351  1.7594
 4936SOL     OW26269   2.337   0.925   6.828  0.3711  0.1689  0.2932
 4936SOL    HW126270   2.262   0.956   6.777  0.6537 -1.0509 -0.8758
 4936SOL    HW226271   2.411   0.966   6.785 -0.1210 -0.9730 -1.6579
 4937SOL     OW26272   4.588   2.140   2.139 -0.6175 -0.2617  0.0599
 4937SOL    HW126273   4.574   2.046   2.141  0.9213 -0.4734  1.0397
 4937SOL    HW226274   4.533   2.171   2.067 -0.2420  1.5069  0.5196
 4938SOL     OW26275   4.681   3.639   6.462  0.5491  0.2441  0.3563
 4938SOL    HW126276   4.627   3.718   6.464  0.0931 -0.0987  1.4470
 4938SOL    HW226277   4.713   3.650   6.372  2.1911  1.2321  1.0609
 4939SOL     OW26278   0.227   0.577   4.347 -0.2473  0.4462  0.1639
 4939SOL    HW126279   0.170   0.651   4.371 -0.6730  0.3195 -0.4472
 4939SOL    HW226280   0.295   0.571   4.414 -0.9111  1.8162  0.9656
 4940SOL     OW26281   2.021   2.998   6.599  0.2939  0.7738  0.2738
 4940SOL    HW126282   2.105   3.024   6.559  0.1687  1.3935  0.4082
 4940SOL    HW226283   2.010   2.922   6.542 -0.9752  0.5705  0.8072
 4941SOL     OW26284   4.529   1.164   4.288 -0.5422 -0.6855  0.1156
 4941SOL    HW126285   4.622   1.146   4.274  0.3296  2.6761  1.7400
 4941SOL    HW226286   4.527   1.257   4.310  1.6051 -0.2042 -1.7162
 4942SOL     OW26287   1.493   2.909   9.083 -0.4953  0.2055 -0.2739
 4942SOL    HW126288   1.406   2.950   9.076 -0.2042  0.8175 -0.3414
 4942SOL    HW226289   1.498   2.879   8.992 -2.5311  0.2532 -0.4119
 4943SOL     OW26290   3.207   3.264   5.157  0.1189 -0.1142 -0.1348
 4943SOL    HW126291   3.118   3.284   5.187  0.3316  2.9655 -1.5333
 4943SOL    HW226292   3.210   3.322   5.081  0.0002  1.4310  1.0461
 4944SOL     OW26293   2.018   0.323   8.175  0.1105  0.3806  0.5934
 4944SOL    HW126294   1.995   0.408   8.137  2.8419  1.4072  1.2410
 4944SOL    HW226295   2.098   0.357   8.215  0.1950 -0.0841  0.8140
 4945SOL     OW26296   2.817   1.414   5.523 -0.2988 -0.0363  0.1454
 4945SOL    HW126297   2.906   1.435   5.494  0.0690 -0.4721  0.9468
 4945SOL    HW226298   2.834   1.406   5.617 -1.3847 -1.5319  0.2252
 4946SOL     OW26299   0.087   0.185   6.934  0.5000 -0.0619  0.1332
 4946SOL    HW126300   0.154   0.119   6.916  0.7958  0.3565 -0.3093
 4946SOL    HW226301   0.085   0.165   7.027  0.2911  0.2468  0.1960
 4947SOL     OW26302   1.881   1.728  13.472  0.0130 -0.0332 -0.1233
 4947SOL    HW126303   1.934   1.793  13.518 -1.2482  1.3490 -0.6417
 4947SOL    HW226304   1.945   1.659  13.455  0.7542  0.5855  0.1514
 4948SOL     OW26305   1.938   4.198  16.904  0.2971  0.2993  0.1540
 4948SOL    HW126306   1.940   4.163  16.993 -0.3551  0.2319  0.1417
 4948SOL    HW226307   1.871   4.261  16.929 -0.8024 -1.1721  0.9019
 4949SOL     OW26308   3.590   1.817   9.135  0.5471 -0.4863 -0.4807
 4949SOL    HW126309   3.541   1.741   9.103  0.0441 -0.3516 -0.0221
 4949SOL    HW226310   3.613   1.858   9.052 -0.8285  0.8180 -0.2047
 4950SOL     OW26311   3.774   2.698  15.550  0.1369  0.1442  0.0201
 4950SOL    HW126312   3.773   2.700  15.454 -0.7600  0.4459  0.0298
 4950SOL    HW226313   3.867   2.712  15.568 -0.0732  0.0696  1.2024
 4951SOL     OW26314   2.114   2.089  15.069 -0.5217  0.9930 -0.8302
 4951SOL    HW126315   2.142   2.178  15.089  1.1207  0.0611  0.9994
 4951SOL    HW226316   2.108   2.093  14.973 -1.5587  1.4414 -0.7516
 4952SOL     OW26317   3.960   1.598   9.030  0.4120 -0.4193  0.3474
 4952SOL    HW126318   4.002   1.677   8.997  0.9088 -0.1991  1.5005
 4952SOL    HW226319   4.033   1.536   9.026  0.2891 -0.5169 -0.3195
 4953SOL     OW26320   3.724   4.493   2.560 -0.1361 -0.2351 -0.5736
 4953SOL    HW126321   3.753   4.490   2.469 -1.2933 -0.3248 -0.9473
 4953SOL    HW226322   3.682   4.579   2.563  2.0610  0.9016 -2.5971
 4954SOL     OW26323   3.116   0.266   2.950  0.2282 -0.4477 -0.1483
 4954SOL    HW126324   3.082   0.353   2.972 -0.6962 -0.9166  0.3037
 4954SOL    HW226325   3.163   0.248   3.031  0.2951  0.5969  0.0525
 4955SOL     OW26326   1.820   1.467   6.047  0.7292  0.1968 -0.0975
 4955SOL    HW126327   1.887   1.525   6.011  1.0479 -0.4688 -0.5840
 4955SOL    HW226328   1.819   1.489   6.141  1.4726  1.4067 -0.3734
 4956SOL     OW26329   2.453   4.395  14.088  0.0887 -0.4126  0.0468
 4956SOL    HW126330   2.492   4.312  14.115 -0.9044  0.0801  2.9212
 4956SOL    HW226331   2.494   4.388  14.001 -0.9152 -1.4658 -0.3329
 4957SOL     OW26332   0.074   2.385   4.153 -0.3678 -0.3546  0.4230
 4957SOL    HW126333   0.112   2.383   4.241 -2.7272  0.6153  1.4525
 4957SOL    HW226334   0.048   2.477   4.148 -0.2005 -0.1646  3.0913
 4958SOL     OW26335   1.083   0.589   8.822 -0.2058  0.3778  0.1146
 4958SOL    HW126336   1.110   0.520   8.883 -0.7190 -0.5096 -0.6839
 4958SOL    HW226337   1.062   0.539   8.743  2.2195 -0.7513  0.1552
 4959SOL     OW26338   1.936   0.338   0.720 -0.1176 -0.6679 -0.5468
 4959SOL    HW126339   1.972   0.260   0.762  0.4852  0.0760  0.3037
 4959SOL    HW226340   1.881   0.297   0.653 -0.6513 -1.7796  0.5863
 4960SOL     OW26341   2.715   1.746   4.446 -0.5734  0.6469 -0.2573
 4960SOL    HW126342   2.723   1.808   4.518  1.8624  1.0824 -0.8955
 4960SOL    HW226343   2.807   1.750   4.419 -0.6904  2.4302 -0.3468
 4961SOL     OW26344   2.652   1.845  13.466  0.2414  0.4066  0.0189
 4961SOL    HW126345   2.604   1.770  13.501  0.1362  0.9697  1.1085
 4961SOL    HW226346   2.741   1.838  13.500  0.7676  0.1397 -1.4274
 4962SOL     OW26347   2.645   2.719   2.774 -0.2346 -0.2016  0.0903
 4962SOL    HW126348   2.636   2.808   2.807  1.3895  0.4363 -1.2098
 4962SOL    HW226349   2.721   2.719   2.716  0.1824 -0.5477  0.6378
 4963SOL     OW26350   4.539   4.139   7.725  0.2082  0.1663  0.3354
 4963SOL    HW126351   4.449   4.172   7.725  0.6447  1.3752 -0.5908
 4963SOL    HW226352   4.567   4.162   7.814  0.0032  0.1206  0.4135
 4964SOL     OW26353   0.941   1.282   5.358 -0.6803  0.5543 -0.3063
 4964SOL    HW126354   1.024   1.322   5.384 -0.8676 -0.9306  2.4705
 4964SOL    HW226355   0.872   1.337   5.396 -1.0710  0.7009 -1.2028
 4965SOL     OW26356   0.863   2.942  17.077 -0.0915 -0.2392  0.2554
 4965SOL    HW126357   0.856   2.858  17.031  1.8386 -0.5640  0.5290
 4965SOL    HW226358   0.778   2.950  17.119 -0.5589  1.5036 -1.0278
 4966SOL     OW26359   4.653   0.211   7.556  0.1893  0.6328 -0.4575
 4966SOL    HW126360   4.575   0.175   7.597  0.6284 -1.5825 -1.5860
 4966SOL    HW226361   4.672   0.289   7.608 -1.0748  0.3061  0.4819
 4967SOL     OW26362   4.194   0.006   5.014 -0.3683 -0.4181  0.0001
 4967SOL    HW126363   4.120   4.708   4.957 -0.8889 -0.8184  0.8265
 4967SOL    HW226364   4.239   4.644   5.008 -1.0369 -0.7945  0.2924
 4968SOL     OW26365   3.007   2.771   8.760 -0.4697 -0.5642  0.4892
 4968SOL    HW126366   3.059   2.691   8.755 -0.6610 -0.5822 -1.2259
 4968SOL    HW226367   2.969   2.792   8.674  0.6456  1.7305  0.5742
 4969SOL     OW26368   3.687   2.757   9.019 -0.0232  0.0813 -0.1813
 4969SOL    HW126369   3.760   2.696   9.007 -0.3136 -0.7745  2.4735
 4969SOL    HW226370   3.657   2.732   9.107 -0.7289  0.5771 -0.2833
 4970SOL     OW26371   1.116   3.577   5.564  0.4236  0.8606  0.0735
 4970SOL    HW126372   1.103   3.650   5.624  1.1587  0.2466  0.9842
 4970SOL    HW226373   1.154   3.619   5.487 -0.4941  1.1212 -0.2389
 4971SOL     OW26374   2.147   0.283  12.260 -0.3467  0.2776 -0.1140
 4971SOL    HW126375   2.165   0.322  12.345  0.8517 -1.3785  0.3954
 4971SOL    HW226376   2.096   0.208  12.291 -2.0979  1.6965  0.4777
 4972SOL     OW26377   0.767   0.217   0.108  0.3889 -0.1920 -0.6407
 4972SOL    HW126378   0.740   0.230   0.199 -0.4011 -2.8651 -0.5038
 4972SOL    HW226379   0.763   0.124   0.086  0.5809 -0.0217 -1.3750
 4973SOL     OW26380   0.984   0.422   0.580  0.1563 -0.1326 -0.2103
 4973SOL    HW126381   0.901   0.459   0.550 -0.6186 -0.2986  1.7351
 4973SOL    HW226382   1.000   0.369   0.501  0.7272 -1.0500  0.5138
 4974SOL     OW26383   3.812   1.423   2.398  0.2659 -0.0140  0.0164
 4974SOL    HW126384   3.756   1.345   2.399 -0.8855  0.8066 -1.2515
 4974SOL    HW226385   3.756   1.495   2.425 -2.3209 -2.6482  1.6365
 4975SOL     OW26386   3.736   1.245   7.778  0.2768  0.1058 -0.3797
 4975SOL    HW126387   3.757   1.161   7.737  0.7772 -0.1961  0.4966
 4975SOL    HW226388   3.641   1.249   7.764  0.2168 -0.2829 -0.0813
 4976SOL     OW26389   1.994   2.657   3.637  0.0863  0.0283 -0.0671
 4976SOL    HW126390   1.979   2.750   3.620 -0.4446  0.1276  0.9666
 4976SOL    HW226391   1.908   2.626   3.664 -0.9125  1.2865 -1.8087
 4977SOL     OW26392   4.396   0.561   3.561 -0.2085  0.1988  0.3653
 4977SOL    HW126393   4.439   0.528   3.639  0.4359  0.4750  0.1321
 4977SOL    HW226394   4.355   0.641   3.595  0.4648  0.6799  0.0501
 4978SOL     OW26395   1.801   4.269   4.293 -0.6527  0.7801  0.0813
 4978SOL    HW126396   1.808   4.292   4.386 -0.0931  1.1419 -0.0508
 4978SOL    HW226397   1.796   4.175   4.314  1.5303  0.9340  1.3823
 4979SOL     OW26398   3.749   3.350   6.235  0.0453  0.0591  0.4053
 4979SOL    HW126399   3.691   3.354   6.310  0.6265  1.4122  0.7784
 4979SOL    HW226400   3.778   3.259   6.244 -1.1830 -0.2877  0.8724
 4980SOL     OW26401   1.124   0.697   3.318  0.0516  0.3974  0.3466
 4980SOL    HW126402   1.164   0.701   3.231 -1.4334 -0.8821 -0.3847
 4980SOL    HW226403   1.041   0.738   3.295  0.8587  1.8499 -0.0085
 4981SOL     OW26404   4.505   1.093   8.432  0.1445 -0.1105 -0.5591
 4981SOL    HW126405   4.562   1.082   8.356  2.0969  1.9413  0.5842
 4981SOL    HW226406   4.572   1.051   8.486  1.3799  2.3218 -0.1640
 4982SOL     OW26407   0.752   4.156   5.526 -0.9286 -0.1494 -0.0428
 4982SOL    HW126408   0.693   4.083   5.507 -0.0319 -0.6006 -1.0408
 4982SOL    HW226409   0.697   4.232   5.507  0.3874  1.5292  2.7862
 4983SOL     OW26410   2.060   1.048  14.621 -0.0775 -0.2839 -0.1822
 4983SOL    HW126411   2.117   1.010  14.554  1.3552  2.0165 -0.2665
 4983SOL    HW226412   2.035   0.961  14.652 -0.7994  0.5071  1.4942
 4984SOL     OW26413   0.019   2.163   5.738 -0.7880 -0.3597  0.2198
 4984SOL    HW126414   0.078   2.088   5.726 -2.5851 -1.9274  1.1576
 4984SOL    HW226415   0.087   2.230   5.744 -1.6724  0.5293  0.1678
 4985SOL     OW26416   4.702   2.741  10.122 -0.5929  0.4840 -0.3327
 4985SOL    HW126417   4.703   2.790  10.040  1.2931  0.6715 -0.2040
 4985SOL    HW226418   4.705   2.806  10.192  0.4802  0.2633 -0.1737
 4986SOL     OW26419   2.289   1.816   4.412  0.2164 -0.3835 -0.2636
 4986SOL    HW126420   2.298   1.760   4.336  0.3489 -0.9217  0.1545
 4986SOL    HW226421   2.373   1.861   4.413  0.1215 -0.1978 -0.5693
 4987SOL     OW26422   3.206   1.249   4.957  0.6747 -0.5428 -0.1714
 4987SOL    HW126423   3.255   1.281   5.033 -1.2415  0.7497  0.5294
 4987SOL    HW226424   3.199   1.158   4.985  2.2660 -0.5959  0.0588
 4988SOL     OW26425   4.355   3.241   9.487  0.0046  0.4308 -0.3485
 4988SOL    HW126426   4.366   3.307   9.419 -1.3398 -0.1513 -1.1347
 4988SOL    HW226427   4.262   3.219   9.492 -0.1858  0.3619 -4.0994
 4989SOL     OW26428   0.295   0.540   5.611 -0.2725 -0.1335  0.3457
 4989SOL    HW126429   0.305   0.499   5.525  0.0941  0.4142  0.1304
 4989SOL    HW226430   0.201   0.523   5.623 -0.3610  0.8597  1.0701
 4990SOL     OW26431   3.480   3.829   3.821  0.2038  0.0370 -0.3213
 4990SOL    HW126432   3.413   3.874   3.873  1.1436  0.6765  0.3408
 4990SOL    HW226433   3.553   3.862   3.873  0.1379  0.7092 -0.6459
 4991SOL     OW26434   3.266   0.590  11.526  0.3549 -0.6617  0.7344
 4991SOL    HW126435   3.304   0.624  11.445 -0.3604  1.9291  1.4728
 4991SOL    HW226436   3.338   0.611  11.586  0.1270 -0.4468  0.9366
 4992SOL     OW26437   2.494   4.111   7.969 -0.1117 -0.7625 -0.1797
 4992SOL    HW126438   2.512   4.052   8.042 -0.7146 -1.4346 -0.5685
 4992SOL    HW226439   2.542   4.190   7.994  0.3490 -1.3670  0.8370
 4993SOL     OW26440   2.831   0.365   9.043 -0.1295  0.0511  0.3592
 4993SOL    HW126441   2.742   0.346   9.072  0.0378 -1.4695 -0.0800
 4993SOL    HW226442   2.877   0.398   9.120 -1.6252  2.4771  0.1837
 4994SOL     OW26443   2.447   4.322   5.499 -0.0324  0.3757  0.3519
 4994SOL    HW126444   2.443   4.381   5.574 -0.9332  1.2302 -0.3495
 4994SOL    HW226445   2.443   4.383   5.425  1.2226 -0.8146 -0.6959
 4995SOL     OW26446   4.075   1.317   7.898 -0.3232  0.3834 -0.0770
 4995SOL    HW126447   4.028   1.340   7.818  1.8714 -0.0506 -1.4839
 4995SOL    HW226448   4.116   1.234   7.873 -1.1376  0.5897 -2.0794
 4996SOL     OW26449   2.267   2.551  12.718  0.3090 -0.5067  0.2721
 4996SOL    HW126450   2.282   2.623  12.780  0.2071  0.1801 -0.4983
 4996SOL    HW226451   2.311   2.478  12.762 -0.2394 -0.0120  1.6690
 4997SOL     OW26452   3.353   0.198   3.752 -0.1712 -0.9309 -0.4581
 4997SOL    HW126453   3.414   0.263   3.717  0.2762  1.1415  4.1749
 4997SOL    HW226454   3.362   0.215   3.845 -2.0634 -2.0664 -0.0752
 4998SOL     OW26455   3.370   4.611   6.927 -0.0139 -0.4350 -0.5225
 4998SOL    HW126456   3.403   4.618   7.017 -0.8654 -1.6869 -0.0983
 4998SOL    HW226457   3.450   4.623   6.877 -0.2265  1.2317 -0.4494
 4999SOL     OW26458   1.545   0.480   7.683 -0.0178 -0.4961  0.1252
 4999SOL    HW126459   1.638   0.502   7.680 -0.2015  0.1981 -0.4557
 4999SOL    HW226460   1.524   0.520   7.768  0.9331  0.8352 -0.2744
 5000SOL     OW26461   1.621   4.467   5.226 -0.7404  0.3068 -0.3911
 5000SOL    HW126462   1.692   4.424   5.273  0.2884  1.1018 -1.2321
 5000SOL    HW226463   1.583   4.529   5.289 -1.1698 -0.4314  0.0754
 5001SOL     OW26464   2.989   0.084   2.347  0.4060  0.2846 -0.5985
 5001SOL    HW126465   3.063   0.028   2.325 -0.7260 -1.1442 -0.7958
 5001SOL    HW226466   2.976   0.116   2.258  0.6858  3.3105  0.4457
 5002SOL     OW26467   2.807   2.086   5.974  0.4943  0.1196 -1.0502
 5002SOL    HW126468   2.866   2.162   5.970  1.3891 -0.6188 -1.6710
 5002SOL    HW226469   2.740   2.115   5.911  0.7081 -0.8318 -1.7119
 5003SOL     OW26470   4.241   4.590   2.791 -0.3098  0.3742  0.3978
 5003SOL    HW126471   4.191   4.552   2.719  1.3979 -0.0552 -0.5543
 5003SOL    HW226472   4.193   4.671   2.811 -0.1021  0.8755 -1.1693
 5004SOL     OW26473   3.492   0.739   8.614 -0.2858  0.3531 -0.6322
 5004SOL    HW126474   3.504   0.666   8.674 -1.8323  0.6780  0.0500
 5004SOL    HW226475   3.502   0.692   8.531 -0.0158  0.6337 -0.7590
 5005SOL     OW26476   4.558   2.009   3.689  0.9232  0.2297  0.4558
 5005SOL    HW126477   4.639   1.958   3.690 -1.2704 -3.2644 -0.0358
 5005SOL    HW226478   4.579   2.071   3.759  0.6572  0.6995  0.1204
 5006SOL     OW26479   2.543   4.580   1.494  0.4251 -0.0091  0.0773
 5006SOL    HW126480   2.456   4.597   1.530 -1.2764 -2.4589 -2.7622
 5006SOL    HW226481   2.528   4.642   1.422 -0.3489 -1.3947 -0.9693
 5007SOL     OW26482   1.880   2.317  17.537 -0.2968 -0.2812 -1.2315
 5007SOL    HW126483   1.945   2.251  17.514  0.3779  0.6071 -1.8389
 5007SOL    HW226484   1.903   2.393  17.485  2.1720  0.3136  0.7537
 5008SOL     OW26485   3.217   1.461   8.068  0.2158  0.6274  0.0796
 5008SOL    HW126486   3.255   1.506   8.144  0.2769  2.6559 -1.1331
 5008SOL    HW226487   3.196   1.373   8.099  0.4382  0.6848  0.3976
 5009SOL     OW26488   0.090   4.326  11.252  0.5829  0.2009 -0.0527
 5009SOL    HW126489   0.185   4.332  11.243  0.7463 -1.9420  0.3849
 5009SOL    HW226490   0.081   4.417  11.223  0.9592  0.7371  1.5391
 5010SOL     OW26491   2.579   0.480   0.292  0.2451  0.8743  0.4788
 5010SOL    HW126492   2.625   0.407   0.333 -0.2720 -0.4101 -1.2695
 5010SOL    HW226493   2.507   0.503   0.351  0.1981  1.1320  0.3234
 5011SOL     OW26494   0.855   4.052   4.626  0.1145 -0.4331  0.1984
 5011SOL    HW126495   0.814   4.048   4.540  2.6058 -0.8809 -0.9754
 5011SOL    HW226496   0.776   4.031   4.677 -0.0182  0.7453  0.4914
 5012SOL     OW26497   3.356   0.155  13.397 -0.0554 -0.9473 -0.2176
 5012SOL    HW126498   3.390   0.163  13.486 -0.4710  1.2181 -0.2668
 5012SOL    HW226499   3.279   0.098  13.396 -0.0083 -0.9763 -1.3901
 5013SOL     OW26500   4.654   2.329  10.710  0.0854 -0.0048 -0.0029
 5013SOL    HW126501   4.713   2.273  10.660  0.2785 -0.1849  0.4256
 5013SOL    HW226502   4.581   2.327  10.648  0.5045 -1.3690 -0.4493
 5014SOL     OW26503   2.253   3.910   5.961  0.8269  0.0471 -0.0196
 5014SOL    HW126504   2.327   3.952   5.918 -0.1105  2.6448  0.9452
 5014SOL    HW226505   2.220   3.988   6.005  2.3152 -0.3653  1.8187
 5015SOL     OW26506   1.085   4.238   3.053 -0.2524 -0.2179  0.3531
 5015SOL    HW126507   1.112   4.234   2.962 -2.0034 -1.4029 -0.1134
 5015SOL    HW226508   1.160   4.275   3.099  1.1030 -2.0890 -0.3636
 5016SOL     OW26509   3.040   1.937   6.103  0.5344 -0.7207 -0.2194
 5016SOL    HW126510   2.985   2.015   6.117  1.9184  0.3131 -0.5234
 5016SOL    HW226511   2.981   1.870   6.068 -2.3490  1.5258  0.2998
 5017SOL     OW26512   2.659   1.103   7.884  0.6222 -0.4111  0.2692
 5017SOL    HW126513   2.669   1.130   7.793  1.2816 -0.7873  0.2263
 5017SOL    HW226514   2.705   1.174   7.928  0.5696  1.5302 -2.8327
 5018SOL     OW26515   0.160   4.572   5.703 -0.4202 -0.3981 -1.4102
 5018SOL    HW126516   0.102   4.602   5.773  2.4323 -0.9254  1.2104
 5018SOL    HW226517   0.090   4.519   5.665 -2.5752 -0.7958  3.0190
 5019SOL     OW26518   1.042   3.396   8.156  0.1930  0.3136  0.5933
 5019SOL    HW126519   1.081   3.309   8.142 -0.5535  0.4880 -2.6144
 5019SOL    HW226520   0.976   3.367   8.220  0.6241  1.6127  1.6231
 5020SOL     OW26521   2.780   3.158   8.880  0.2357 -0.6501 -0.6078
 5020SOL    HW126522   2.714   3.168   8.949  0.5553 -0.7862 -0.2782
 5020SOL    HW226523   2.778   3.063   8.864  0.1821 -0.8769  0.7463
 5021SOL     OW26524   3.192   4.564   3.045 -0.5847 -0.0207  0.2351
 5021SOL    HW126525   3.232   4.615   2.974 -0.7075 -0.0445  0.1493
 5021SOL    HW226526   3.267   4.547   3.102 -0.0985  1.1851 -0.0301
 5022SOL     OW26527   1.027   0.266  14.670  0.1754  0.4224 -0.0895
 5022SOL    HW126528   1.119   0.273  14.644  0.0600 -2.3104 -1.2338
 5022SOL    HW226529   1.036   0.301  14.759 -1.3542 -1.0764  0.6375
 5023SOL     OW26530   3.520   2.182  14.633  0.3863  0.0825 -0.0732
 5023SOL    HW126531   3.528   2.191  14.728  0.6421 -0.6060 -0.0290
 5023SOL    HW226532   3.427   2.162  14.634 -0.0951  2.4294  0.9859
 5024SOL     OW26533   4.571   3.608   2.702 -0.4084  0.0161 -0.4124
 5024SOL    HW126534   4.605   3.553   2.772 -1.4007  3.1030  2.4783
 5024SOL    HW226535   4.615   3.686   2.737  0.7312 -0.2134 -1.3292
 5025SOL     OW26536   2.739   0.880   4.001  0.2074  0.7733 -0.1814
 5025SOL    HW126537   2.829   0.896   4.031  0.9360 -0.2949 -1.8235
 5025SOL    HW226538   2.693   0.922   4.073  1.2495  1.3260  0.1695
 5026SOL     OW26539   3.552   0.064   6.397 -0.4131  0.9862  0.4280
 5026SOL    HW126540   3.612   0.050   6.324  0.1923  0.9751  0.9186
 5026SOL    HW226541   3.489   4.717   6.378  1.7297 -1.5272  2.3835
 5027SOL     OW26542   0.240   3.676   9.757 -0.0991  0.3126  0.3651
 5027SOL    HW126543   0.243   3.586   9.788  0.0421 -0.1551 -1.0126
 5027SOL    HW226544   0.160   3.671   9.703  1.6916 -1.6325 -2.0848
 5028SOL     OW26545   3.449   1.138   9.305 -0.1590  0.0858  0.2365
 5028SOL    HW126546   3.501   1.061   9.286 -2.1216 -1.5239  1.3496
 5028SOL    HW226547   3.524   1.189   9.336  1.2018 -2.3406  0.8843
 5029SOL     OW26548   3.888   3.384   4.379 -0.1459  0.1334 -0.5385
 5029SOL    HW126549   3.863   3.412   4.291 -1.9813 -1.5904 -0.5550
 5029SOL    HW226550   3.968   3.334   4.363  0.1311  0.4853 -0.2529
 5030SOL     OW26551   3.300   2.749  12.852  0.7719  0.7631 -0.7334
 5030SOL    HW126552   3.360   2.691  12.804 -0.6641 -1.2160 -0.1245
 5030SOL    HW226553   3.226   2.740  12.792 -0.4452 -1.5692  1.1142
 5031SOL     OW26554   3.084   3.175   9.318 -0.7605 -0.6117  0.1736
 5031SOL    HW126555   3.041   3.114   9.258  1.2280 -1.0818 -0.7532
 5031SOL    HW226556   3.175   3.146   9.315 -0.5823 -0.1157  0.7827
 5032SOL     OW26557   3.200   0.857   5.600 -0.0142 -0.6835 -0.0493
 5032SOL    HW126558   3.225   0.770   5.568  0.0025 -0.5244 -0.4600
 5032SOL    HW226559   3.106   0.845   5.618  0.0430  0.3581  1.0042
 5033SOL     OW26560   2.910   3.741   2.847 -0.0048 -0.1970  0.0421
 5033SOL    HW126561   2.926   3.741   2.753 -0.0486  3.1634  0.0179
 5033SOL    HW226562   2.923   3.650   2.875  0.7661  0.8066  3.0392
 5034SOL     OW26563   3.395   3.958  16.975 -0.0102 -0.1383 -0.5219
 5034SOL    HW126564   3.403   3.865  16.954 -1.2457 -0.3322 -0.1380
 5034SOL    HW226565   3.337   3.984  16.904 -0.8122  0.7472  0.4633
 5035SOL     OW26566   3.363   2.676   7.636 -0.0408  0.4982 -0.5695
 5035SOL    HW126567   3.411   2.648   7.714 -2.7340 -0.7217  0.6616
 5035SOL    HW226568   3.436   2.700   7.580  0.6590  0.4083  0.3166
 5036SOL     OW26569   2.666   3.294   4.617  0.2706  0.0076  0.0056
 5036SOL    HW126570   2.629   3.366   4.668 -0.3578 -0.0853 -0.3190
 5036SOL    HW226571   2.633   3.317   4.530 -2.4806 -0.0997  0.9966
 5037SOL     OW26572   4.197   3.407   3.733 -0.4525  0.9188  0.6820
 5037SOL    HW126573   4.152   3.375   3.811 -1.1886 -2.4502 -1.1138
 5037SOL    HW226574   4.263   3.338   3.721 -0.0723  2.1522 -4.1992
 5038SOL     OW26575   1.698   2.198   8.170  0.1524  0.5118 -0.4069
 5038SOL    HW126576   1.702   2.238   8.257  0.1068  2.1858 -1.1766
 5038SOL    HW226577   1.682   2.106   8.193 -2.6291  1.0229 -0.3634
 5039SOL     OW26578   0.406   0.956  12.979  0.0240  0.3503 -0.0005
 5039SOL    HW126579   0.376   1.028  12.924  1.3014  0.1921 -0.8843
 5039SOL    HW226580   0.470   0.911  12.924 -0.6716 -0.6315 -0.0017
 5040SOL     OW26581   0.886   0.594  14.263 -0.5626 -0.0147  0.1080
 5040SOL    HW126582   0.816   0.633  14.316 -0.5738 -0.7137  0.6081
 5040SOL    HW226583   0.862   0.606  14.172 -1.9010  0.4731  0.5293
 5041SOL     OW26584   4.305   0.781   9.113 -0.2066 -0.3015  0.5215
 5041SOL    HW126585   4.332   0.702   9.067  1.1954 -0.0007  0.8050
 5041SOL    HW226586   4.358   0.841   9.060  0.2678 -0.7470  0.4928
 5042SOL     OW26587   2.542   3.600   3.004  0.3502 -0.1020 -0.1391
 5042SOL    HW126588   2.507   3.569   2.920  0.3594  0.0855 -0.2150
 5042SOL    HW226589   2.635   3.582   2.993  0.2322 -1.1085  0.5418
 5043SOL     OW26590   0.218   1.583   2.955 -1.1054 -0.1092 -0.4190
 5043SOL    HW126591   0.253   1.529   3.026  1.9303  1.0067 -1.0471
 5043SOL    HW226592   0.126   1.571   2.978 -1.1503  2.5416  0.7804
 5044SOL     OW26593   2.015   0.626   5.448  0.1564  0.1016 -0.5631
 5044SOL    HW126594   2.012   0.719   5.470  0.3702  0.5079 -2.2668
 5044SOL    HW226595   1.983   0.631   5.358  0.4876  0.6793 -0.6455
 5045SOL     OW26596   0.406   3.720   7.949  0.7208 -0.5162  0.0305
 5045SOL    HW126597   0.450   3.681   8.024  2.3956  1.9516  0.3346
 5045SOL    HW226598   0.482   3.736   7.894 -0.1644 -0.2448 -1.1205
 5046SOL     OW26599   4.624   0.318   0.501 -0.3650  0.2946  0.0534
 5046SOL    HW126600   4.717   0.329   0.523 -0.0152 -1.3019 -0.5587
 5046SOL    HW226601   4.597   0.244   0.556  0.8437  0.0123  0.2728
 5047SOL     OW26602   1.375   3.378   7.726  0.2387 -0.0921  0.1712
 5047SOL    HW126603   1.359   3.452   7.785  0.1938  0.4968 -0.5833
 5047SOL    HW226604   1.292   3.380   7.680  0.6923  0.5547 -0.6295
 5048SOL     OW26605   3.657   1.071   6.956 -0.2805 -0.1317 -0.1058
 5048SOL    HW126606   3.599   1.002   6.989  0.1852  0.1380  1.2899
 5048SOL    HW226607   3.656   1.057   6.861  1.1203 -0.7550 -0.0403
 5049SOL     OW26608   2.436   3.603   5.728 -0.3220  0.0881 -0.0168
 5049SOL    HW126609   2.439   3.507   5.719 -1.8367  0.0686 -0.3066
 5049SOL    HW226610   2.514   3.620   5.781 -1.2098  1.3188  0.9031
 5050SOL     OW26611   4.533   4.651   7.725  0.4096 -0.0180  0.2501
 5050SOL    HW126612   4.527   4.623   7.817 -0.7269 -0.1550  0.1410
 5050SOL    HW226613   4.534   0.021   7.748  0.8947 -0.0281  0.2660
 5051SOL     OW26614   1.248   2.604   7.351 -0.0664  0.4962 -0.2864
 5051SOL    HW126615   1.320   2.561   7.304 -0.2838 -1.3618  1.0951
 5051SOL    HW226616   1.170   2.571   7.307 -0.1526 -1.2218  1.1564
 5052SOL     OW26617   1.340   4.470   8.249  0.0712  0.2876  0.5087
 5052SOL    HW126618   1.413   4.513   8.204 -0.3693  2.0631  1.4796
 5052SOL    HW226619   1.389   4.398   8.290 -1.4738 -0.1548  1.5957
 5053SOL     OW26620   3.926   2.598   7.272 -0.6036 -0.4998 -0.5876
 5053SOL    HW126621   3.909   2.531   7.205 -0.9891 -1.6100  0.6342
 5053SOL    HW226622   3.842   2.592   7.318 -0.3854 -2.3729 -0.4272
 5054SOL     OW26623   4.083   2.600   3.324 -0.2485 -0.7685  0.1840
 5054SOL    HW126624   4.155   2.595   3.262 -0.6385  1.4291 -0.4582
 5054SOL    HW226625   4.064   2.507   3.315  0.2372 -1.0852  2.5682
 5055SOL     OW26626   4.112   3.323   6.768 -0.0801 -0.0746  0.0174
 5055SOL    HW126627   4.019   3.341   6.786  0.2321  0.0614  1.5216
 5055SOL    HW226628   4.138   3.292   6.855  1.0264  0.1179 -0.2481
 5056SOL     OW26629   2.332   0.278  12.963  0.7384  0.5703  0.1215
 5056SOL    HW126630   2.356   0.365  12.993 -3.3623  1.5436  0.6288
 5056SOL    HW226631   2.362   0.279  12.872  0.1560 -1.3197 -0.1000
 5057SOL     OW26632   3.186   1.147   5.509  0.4956 -0.0553  0.3768
 5057SOL    HW126633   3.156   1.120   5.595 -0.1872  0.5069  0.3112
 5057SOL    HW226634   3.167   1.066   5.462 -0.0273  0.2765  0.0116
 5058SOL     OW26635   3.416   0.203   7.458  0.5931  0.1765 -0.0451
 5058SOL    HW126636   3.427   0.296   7.440  2.0035 -0.2244 -1.2281
 5058SOL    HW226637   3.449   0.167   7.375  2.7839  1.1615  0.3881
 5059SOL     OW26638   1.761   2.120  10.573 -0.0757 -0.0990  0.4104
 5059SOL    HW126639   1.721   2.174  10.505 -0.7111 -0.4689  0.4943
 5059SOL    HW226640   1.683   2.100  10.625 -0.3151 -0.9424 -0.2746
 5060SOL     OW26641   2.783   2.898   4.436  0.0794  0.3815 -0.1727
 5060SOL    HW126642   2.787   2.811   4.475 -0.7395  1.4763  2.4279
 5060SOL    HW226643   2.694   2.897   4.402  0.1244  1.3997 -0.3198
 5061SOL     OW26644   1.263   2.449  13.611  0.5705 -1.2370 -0.1414
 5061SOL    HW126645   1.197   2.406  13.665 -0.5190  0.8422  0.1758
 5061SOL    HW226646   1.218   2.434  13.528 -0.3565  1.3269 -0.0932
 5062SOL     OW26647   4.575   0.265  12.570  0.2351  0.0041 -0.6898
 5062SOL    HW126648   4.578   0.290  12.478  4.9352  1.7591 -0.0513
 5062SOL    HW226649   4.598   0.172  12.571  3.3385  0.7802  1.4614
 5063SOL     OW26650   1.487   3.627   7.495  0.2385 -0.0551 -0.1512
 5063SOL    HW126651   1.404   3.600   7.456 -1.1389  0.9878  2.0500
 5063SOL    HW226652   1.524   3.700   7.445 -2.3615  0.7734 -0.8691
 5064SOL     OW26653   0.006   2.254   8.514 -0.3721 -0.1281 -0.4064
 5064SOL    HW126654   0.101   2.240   8.505 -0.4064 -0.6699  0.0217
 5064SOL    HW226655   0.003   2.299   8.598 -0.7928  1.3583 -1.2114
 5065SOL     OW26656   2.373   4.073   6.750  0.5079  0.0358  0.5719
 5065SOL    HW126657   2.373   3.986   6.790  3.6383 -0.8282 -1.3452
 5065SOL    HW226658   2.344   4.137   6.815 -0.4962 -0.5100  0.6577
 5066SOL     OW26659   1.431   3.874   8.754  0.1472  0.2447 -0.0129
 5066SOL    HW126660   1.486   3.803   8.722  0.5494  0.0836  1.0514
 5066SOL    HW226661   1.351   3.844   8.711  0.3394 -2.3190  1.4357
 5067SOL     OW26662   3.220   1.975   4.734  0.2549 -0.0006  0.4861
 5067SOL    HW126663   3.255   2.065   4.733  0.7379 -0.1749  2.0978
 5067SOL    HW226664   3.134   1.987   4.774  0.1548 -2.5369  0.9809
 5068SOL     OW26665   0.078   3.290   1.286 -0.6293  0.2149 -0.7920
 5068SOL    HW126666   0.108   3.376   1.315 -2.1779  0.2477  0.7075
 5068SOL    HW226667   0.127   3.296   1.204 -0.9821  2.4556 -0.8373
 5069SOL     OW26668   4.120   4.199   7.124 -0.0621  0.4851 -0.1776
 5069SOL    HW126669   4.108   4.178   7.217 -2.9233  3.4297  0.1356
 5069SOL    HW226670   4.094   4.120   7.077  0.4110 -0.0996  0.5294
 5070SOL     OW26671   4.515   2.794   0.886 -0.0472 -0.7434  0.5390
 5070SOL    HW126672   4.429   2.830   0.865  0.4737 -0.6180 -1.3529
 5070SOL    HW226673   4.504   2.787   0.981 -1.5396  0.0501  0.4255
 5071SOL     OW26674   4.537   1.823   3.297 -0.1593 -0.1962 -0.3772
 5071SOL    HW126675   4.449   1.822   3.337 -0.4286  0.2783 -0.9563
 5071SOL    HW226676   4.542   1.737   3.255  0.8748  0.2265 -1.0990
 5072SOL     OW26677   0.967   0.012   6.917 -0.5345  0.0735  0.1803
 5072SOL    HW126678   0.989   4.679   6.992 -1.0285  2.3691  1.9969
 5072SOL    HW226679   0.961   0.094   6.966  0.8694  0.0125  0.4583
 5073SOL     OW26680   3.431   4.246   2.212 -0.3637 -0.1849  0.4235
 5073SOL    HW126681   3.499   4.182   2.191  0.5011  0.6288  0.7179
 5073SOL    HW226682   3.432   4.246   2.308  1.0075 -0.3510  0.4148
 5074SOL     OW26683   0.103   0.249   8.746 -0.0823  0.1056 -0.1710
 5074SOL    HW126684   0.119   0.202   8.828  1.1405  2.9424  1.2326
 5074SOL    HW226685   0.095   0.335   8.788 -0.1907  1.2136 -2.4410
 5075SOL     OW26686   4.208   1.795   1.756 -1.1027  0.1255  0.3592
 5075SOL    HW126687   4.299   1.824   1.752 -1.1460  0.1126 -0.8326
 5075SOL    HW226688   4.184   1.856   1.686  0.6279  0.0771 -0.2629
 5076SOL     OW26689   0.196   1.150   3.652  0.0024  0.2614  0.2798
 5076SOL    HW126690   0.132   1.132   3.583 -0.0687  2.3337 -0.2084
 5076SOL    HW226691   0.215   1.243   3.637  0.9286  0.2614  1.4197
 5077SOL     OW26692   0.421   0.238   8.787  0.3163  0.4009 -0.1334
 5077SOL    HW126693   0.396   0.197   8.704 -0.6318  0.2286  0.2386
 5077SOL    HW226694   0.469   0.163   8.823 -0.9750  0.2224  1.2130
 5078SOL     OW26695   0.746   4.528   9.460 -0.2449  0.4964  0.1243
 5078SOL    HW126696   0.734   4.573   9.543  1.7211 -0.0304  0.6916
 5078SOL    HW226697   0.839   4.503   9.460 -0.5207 -0.5095  1.6287
 5079SOL     OW26698   1.507   2.455   7.258  0.3385  0.1508  0.0735
 5079SOL    HW126699   1.595   2.442   7.292  0.3666 -0.4885 -0.2526
 5079SOL    HW226700   1.524   2.510   7.181 -1.1677  1.4227  0.6570
 5080SOL     OW26701   3.727   0.013   7.596  0.2820 -1.0175  0.0534
 5080SOL    HW126702   3.677   4.686   7.662 -0.9214  1.3605  0.9037
 5080SOL    HW226703   3.810   4.689   7.585  0.4017 -0.4667 -1.3273
 5081SOL     OW26704   4.471   4.688  13.751 -0.0864  0.9314 -0.3718
 5081SOL    HW126705   4.543   0.030  13.750  1.0742 -0.3919 -2.1502
 5081SOL    HW226706   4.495   4.630  13.678  1.7074  1.2455 -0.0336
 5082SOL     OW26707   1.588   3.635  14.164  0.0087 -0.5535 -0.5364
 5082SOL    HW126708   1.600   3.648  14.258 -2.0973  1.2791 -0.5181
 5082SOL    HW226709   1.634   3.711  14.127  0.1710 -0.3011  0.1961
 5083SOL     OW26710   0.193   3.518   4.481 -0.8939  0.3415  0.3023
 5083SOL    HW126711   0.167   3.550   4.394  0.2930  0.6577  0.0578
 5083SOL    HW226712   0.111   3.496   4.524  0.8889 -1.5984  2.6937
 5084SOL     OW26713   0.834   2.129   2.297 -0.0286 -0.2937  0.5781
 5084SOL    HW126714   0.813   2.109   2.206  2.0679 -0.6378  0.1597
 5084SOL    HW226715   0.918   2.085   2.311 -0.1955 -0.3182  1.4836
 5085SOL     OW26716   3.185   4.345  13.995 -0.0219  0.6623  0.2174
 5085SOL    HW126717   3.185   4.249  14.000 -2.8559  0.5980 -0.8487
 5085SOL    HW226718   3.280   4.353  14.006  0.1773 -3.0678  1.2115
 5086SOL     OW26719   2.348   0.489   4.185 -0.0004  0.3764  0.6819
 5086SOL    HW126720   2.434   0.508   4.223  0.3324  0.4401 -0.1010
 5086SOL    HW226721   2.313   0.438   4.258 -0.8019 -1.1164 -0.7449
 5087SOL     OW26722   3.181   3.184   2.700 -0.2190 -0.1882  0.0061
 5087SOL    HW126723   3.244   3.192   2.772  0.5096 -0.3012 -0.6218
 5087SOL    HW226724   3.196   3.096   2.665  1.5061  0.8681 -1.9190
 5088SOL     OW26725   1.977   3.226  15.444  0.4549 -0.2278  0.4551
 5088SOL    HW126726   1.962   3.179  15.526  2.8502 -0.0394  1.0062
 5088SOL    HW226727   1.897   3.276  15.429  1.1643  0.4955 -0.8798
 5089SOL     OW26728   0.540   2.804   3.441  0.0723  0.0801  0.1180
 5089SOL    HW126729   0.505   2.742   3.377 -0.6506  1.5104 -0.8650
 5089SOL    HW226730   0.505   2.775   3.525  1.3616  0.3371  0.7545
 5090SOL     OW26731   1.201   4.021   3.813 -0.3450  0.0135  0.6635
 5090SOL    HW126732   1.142   4.079   3.862 -1.1097  0.0278 -0.2668
 5090SOL    HW226733   1.160   4.013   3.727 -1.7311  0.2953  1.2851
 5091SOL     OW26734   0.990   2.868   1.057  0.1883 -0.0177 -0.8027
 5091SOL    HW126735   1.056   2.806   1.025 -1.1611 -1.2280 -1.2485
 5091SOL    HW226736   0.913   2.836   1.010 -1.0800  0.8295  0.7118
 5092SOL     OW26737   1.442   0.223   7.560 -0.2650  0.4071  0.0251
 5092SOL    HW126738   1.485   0.307   7.572  0.4462  0.0557 -0.0493
 5092SOL    HW226739   1.367   0.229   7.620 -1.0047 -1.1430 -0.7283
 5093SOL     OW26740   2.420   0.156   7.464 -0.4032  0.1359 -0.4274
 5093SOL    HW126741   2.467   0.172   7.546  0.7671  4.6557 -1.9978
 5093SOL    HW226742   2.386   0.243   7.445 -0.4887  0.1877 -0.0454
 5094SOL     OW26743   2.563   1.400   0.203  0.0754 -0.4986  0.4286
 5094SOL    HW126744   2.496   1.332   0.196 -1.6576  1.1379  0.9785
 5094SOL    HW226745   2.532   1.457   0.273 -2.5003  1.4162 -2.2434
 5095SOL     OW26746   3.951   0.248   3.658  0.0253 -0.2640 -0.4513
 5095SOL    HW126747   3.885   0.178   3.653  1.4499 -1.6304 -0.1336
 5095SOL    HW226748   3.896   0.326   3.653  0.4336  0.0971  0.6513
 5096SOL     OW26749   4.271   2.601   1.734 -0.2291 -0.2355 -0.1903
 5096SOL    HW126750   4.231   2.523   1.696 -1.4405  0.1740  0.2338
 5096SOL    HW226751   4.345   2.593   1.674  1.6631  0.0790  2.1037
 5097SOL     OW26752   2.856   2.881  14.419  0.1602 -0.8101  0.1424
 5097SOL    HW126753   2.806   2.807  14.456 -1.2214  1.2406  2.4047
 5097SOL    HW226754   2.816   2.961  14.453 -0.6858 -1.5834  0.9929
 5098SOL     OW26755   3.423   0.243  14.168 -0.2602 -0.4323 -0.0668
 5098SOL    HW126756   3.443   0.337  14.170 -1.9183 -0.0778 -0.2059
 5098SOL    HW226757   3.497   0.202  14.213  0.8219 -1.6932 -2.9807
 5099SOL     OW26758   0.712   4.627   6.803  0.2500 -0.1166  0.5031
 5099SOL    HW126759   0.696   4.636   6.897 -0.3485  1.0290  0.2849
 5099SOL    HW226760   0.807   4.624   6.794  0.1065 -0.9187 -0.7016
 5100SOL     OW26761   0.761   1.413   5.507  0.0340  0.3119  0.3509
 5100SOL    HW126762   0.682   1.359   5.503  1.2878 -1.2318 -3.6808
 5100SOL    HW226763   0.737   1.484   5.566 -0.9253 -0.3859  0.8027
 5101SOL     OW26764   3.718   3.052  15.390 -0.0273 -0.0383 -0.1434
 5101SOL    HW126765   3.662   3.010  15.455 -0.7472 -0.6336 -1.1445
 5101SOL    HW226766   3.698   3.144  15.405 -0.7866 -0.6836  2.8817
 5102SOL     OW26767   3.475   3.338   0.911  0.4567 -0.2881 -0.0708
 5102SOL    HW126768   3.408   3.271   0.924 -1.4144  1.1726 -2.1882
 5102SOL    HW226769   3.542   3.276   0.885  1.0984  0.3020  0.1744
 5103SOL     OW26770   2.036   3.642  11.765  0.2551 -0.4311 -0.2283
 5103SOL    HW126771   2.031   3.735  11.787  0.6384 -1.2512  3.4015
 5103SOL    HW226772   1.954   3.641  11.717  0.5683  2.1645 -0.7967
 5104SOL     OW26773   4.341   4.691   9.991  0.0050  0.1327  0.6469
 5104SOL    HW126774   4.363   4.629   9.921 -1.6308 -1.0501  1.1585
 5104SOL    HW226775   4.265   0.012   9.952  0.8197 -0.1976 -1.2826
 5105SOL     OW26776   3.966   4.133   5.506 -0.0922  0.5634 -0.2718
 5105SOL    HW126777   3.918   4.170   5.432  0.4901 -0.6944 -1.2858
 5105SOL    HW226778   4.000   4.055   5.462 -0.1486 -0.1231  0.8895
 5106SOL     OW26779   3.512   4.104   8.927  0.0863  0.1417 -0.1051
 5106SOL    HW126780   3.465   4.075   9.006 -1.2401  0.4369 -0.7935
 5106SOL    HW226781   3.549   4.024   8.891 -1.1649 -0.0396 -0.9802
 5107SOL     OW26782   1.612   3.173   8.497  0.2794 -0.3075  0.7567
 5107SOL    HW126783   1.670   3.173   8.420 -2.2004 -0.2275 -1.1327
 5107SOL    HW226784   1.683   3.178   8.561  1.5758 -1.1285 -0.5983
 5108SOL     OW26785   0.417   2.444   7.292 -0.0662  0.9048 -0.5456
 5108SOL    HW126786   0.501   2.406   7.266  0.3993  1.7974 -0.3364
 5108SOL    HW226787   0.359   2.369   7.278  1.8855 -0.3515 -2.0009
 5109SOL     OW26788   3.763   2.679   2.624  0.3381  0.0562  0.1058
 5109SOL    HW126789   3.801   2.676   2.712 -0.4536 -3.0310  0.3162
 5109SOL    HW226790   3.837   2.706   2.569  0.3336  0.3814  0.2601
 5110SOL     OW26791   3.637   4.189   4.475  0.1078  0.0470 -0.3143
 5110SOL    HW126792   3.673   4.100   4.481 -0.0811  0.1932  3.1617
 5110SOL    HW226793   3.603   4.186   4.386  0.4658 -1.5414 -0.4058
 5111SOL     OW26794   3.979   2.734   1.391  0.4039 -0.2232  0.0403
 5111SOL    HW126795   3.988   2.665   1.326  2.4057 -0.1899  0.2835
 5111SOL    HW226796   3.986   2.819   1.347  1.6364  0.2221  1.0849
 5112SOL     OW26797   3.588   1.916   3.561 -0.4197  0.5044  0.2346
 5112SOL    HW126798   3.515   1.856   3.576  0.8285 -1.5554 -1.8801
 5112SOL    HW226799   3.655   1.872   3.614  1.3382  1.9330 -0.7957
 5113SOL     OW26800   1.718   4.507  14.080 -0.0760 -0.1987  0.6805
 5113SOL    HW126801   1.762   4.541  14.002 -1.0047 -1.8559 -0.5769
 5113SOL    HW226802   1.644   4.468  14.034 -0.6373 -0.3043  1.6718
 5114SOL     OW26803   1.082   3.806   4.370  0.4875  0.2864 -0.2483
 5114SOL    HW126804   1.069   3.893   4.333  0.2637  0.4530  0.2204
 5114SOL    HW226805   1.044   3.745   4.307 -1.6843  0.2604  1.0796
 5115SOL     OW26806   2.203   3.363  16.664 -0.4474  0.4525 -0.1599
 5115SOL    HW126807   2.217   3.423  16.590 -0.3508 -0.2140 -0.6808
 5115SOL    HW226808   2.235   3.283  16.621 -0.3717  0.0637  0.6264
 5116SOL     OW26809   1.902   3.749   7.711  0.6414 -0.2881 -0.0672
 5116SOL    HW126810   1.868   3.698   7.786 -1.2163  1.0548  0.0124
 5116SOL    HW226811   1.903   3.674   7.652 -2.2090 -0.4156  0.0146
 5117SOL     OW26812   3.372   4.615   4.678  0.4290 -0.3732 -0.6705
 5117SOL    HW126813   3.282   4.596   4.650  0.2403 -1.9704  0.9690
 5117SOL    HW226814   3.380   4.559   4.756 -0.0994  0.3017 -0.1210
 5118SOL     OW26815   0.951   0.995   2.953  0.0999 -0.3871 -0.8392
 5118SOL    HW126816   0.871   1.036   2.986  0.0720  1.0560 -2.7087
 5118SOL    HW226817   0.920   0.909   2.925 -1.6464  0.1831 -0.6635
 5119SOL     OW26818   0.389   2.440   6.071 -0.2970 -0.7869  0.3329
 5119SOL    HW126819   0.394   2.470   6.162 -0.0944 -1.2734  0.4838
 5119SOL    HW226820   0.294   2.428   6.063 -0.5943  1.6511  0.0502
 5120SOL     OW26821   1.282   2.605  17.518 -0.0381 -0.0301  0.0153
 5120SOL    HW126822   1.344   2.647  17.578 -0.1701 -0.0080  0.1368
 5120SOL    HW226823   1.334   2.525  17.507 -0.7224 -0.7483  2.0278
 5121SOL     OW26824   0.513   3.935   3.864  0.0505 -0.4536  0.6005
 5121SOL    HW126825   0.462   3.984   3.800 -2.4532 -1.6776  1.6295
 5121SOL    HW226826   0.447   3.879   3.905 -2.1948  0.7982 -1.3554
 5122SOL     OW26827   4.665   2.750  16.948  0.5319 -0.1904 -0.1730
 5122SOL    HW126828   4.660   2.723  17.040  0.3007  2.9083  0.7071
 5122SOL    HW226829   4.584   2.796  16.926  0.1343 -1.6149 -1.6701
 5123SOL     OW26830   1.624   2.442  12.770  1.0761 -0.3459 -0.6819
 5123SOL    HW126831   1.613   2.536  12.785 -1.5145 -1.1492  2.6022
 5123SOL    HW226832   1.701   2.420  12.823  1.0772  2.5026  0.4945
 5124SOL     OW26833   0.287   3.688   3.616 -0.2422 -0.2629  0.5026
 5124SOL    HW126834   0.211   3.696   3.558  1.1373  0.7498 -1.1769
 5124SOL    HW226835   0.254   3.646   3.695  1.0138 -2.0565  0.0624
 5125SOL     OW26836   2.235   1.024   1.027 -0.5399  0.2409 -0.2058
 5125SOL    HW126837   2.262   1.074   1.103 -2.2172 -0.5310  0.8973
 5125SOL    HW226838   2.141   1.042   1.026 -0.6987 -0.5213  2.8149
 5126SOL     OW26839   0.305   4.187   4.351 -0.5959 -0.4274 -0.6809
 5126SOL    HW126840   0.290   4.125   4.422  2.5855 -0.2749  0.1307
 5126SOL    HW226841   0.399   4.196   4.365 -0.7693 -0.9590  0.7608
 5127SOL     OW26842   4.491   0.585   5.712 -0.2414  0.3894 -0.1603
 5127SOL    HW126843   4.432   0.641   5.763 -0.3300  1.4624 -1.4681
 5127SOL    HW226844   4.551   0.568   5.786 -0.7419 -0.4133  0.0508
 5128SOL     OW26845   0.075   2.041   4.123  0.5419 -0.3489  0.4365
 5128SOL    HW126846   0.021   1.970   4.090 -0.6735  0.8827 -0.2452
 5128SOL    HW226847   0.119   2.067   4.042  1.4777 -0.6677  0.8437
 5129SOL     OW26848   3.138   1.039   8.572 -0.2181  0.4696  0.7781
 5129SOL    HW126849   3.080   1.045   8.496 -0.0164 -0.3592  0.5637
 5129SOL    HW226850   3.219   1.010   8.529 -0.4750  0.6980  0.1435
 5130SOL     OW26851   3.092   1.755   8.597  0.4447  0.0319 -0.3488
 5130SOL    HW126852   3.157   1.819   8.568 -0.1061 -0.4373 -2.6125
 5130SOL    HW226853   3.136   1.728   8.678  0.3258  0.3979 -0.1623
 5131SOL     OW26854   1.925   0.701   5.786 -0.0343 -0.1976  0.0471
 5131SOL    HW126855   1.830   0.692   5.795 -0.0231  1.1260  1.5326
 5131SOL    HW226856   1.939   0.777   5.729 -1.6721 -0.1501 -0.2827
 5132SOL     OW26857   2.673   4.657   5.751  0.0099 -0.3265  0.1032
 5132SOL    HW126858   2.659   4.680   5.659  0.3689  1.8296  0.5912
 5132SOL    HW226859   2.633   0.011   5.793 -0.7212 -0.0767 -1.0583
 5133SOL     OW26860   4.721   4.101   7.098 -0.1669 -0.1706 -0.2424
 5133SOL    HW126861   0.042   4.184   7.119 -0.3459 -0.1651  0.1053
 5133SOL    HW226862   4.689   4.113   7.009  0.2228 -2.9017 -0.7656
 5134SOL     OW26863   2.705   2.247   7.449  0.3789  0.0681  0.2187
 5134SOL    HW126864   2.637   2.208   7.394 -0.7456  0.6991  1.1474
 5134SOL    HW226865   2.664   2.256   7.535 -1.3139 -2.7318 -0.3274
 5135SOL     OW26866   4.049   2.643   5.685 -0.5284  0.3153  0.1071
 5135SOL    HW126867   4.045   2.555   5.724 -1.2928  0.6386  0.7461
 5135SOL    HW226868   4.006   2.641   5.599 -0.1955  0.2930 -0.0624
 5136SOL     OW26869   0.136   4.063   1.751  0.1669  0.2598  0.9282
 5136SOL    HW126870   0.107   4.050   1.661 -1.3914  2.6396  1.0791
 5136SOL    HW226871   0.230   4.070   1.736 -0.0808  0.8046 -0.4263
 5137SOL     OW26872   0.628   4.061   6.558 -0.0583 -0.1403 -0.0887
 5137SOL    HW126873   0.680   4.133   6.593 -2.5463  0.9275  1.4658
 5137SOL    HW226874   0.581   4.034   6.638 -0.0501 -2.4474 -0.8622
 5138SOL     OW26875   2.932   3.433   7.030 -0.3001  0.1025  0.1753
 5138SOL    HW126876   2.927   3.516   6.983  1.2922 -0.7860 -1.5288
 5138SOL    HW226877   2.955   3.369   6.963  3.3964  1.5369  0.0662
 5139SOL     OW26878   2.270   2.208   6.067  0.8426  0.2662 -0.6122
 5139SOL    HW126879   2.177   2.228   6.066  0.9267  0.6514 -0.5060
 5139SOL    HW226880   2.258   2.113   6.071  1.2103  0.2325 -0.2879
 5140SOL     OW26881   3.176   4.276   1.528 -0.1322  0.2733  0.2490
 5140SOL    HW126882   3.154   4.335   1.600  1.3416 -0.3978  1.2409
 5140SOL    HW226883   3.271   4.269   1.542  0.2754  1.4572 -1.8342
 5141SOL     OW26884   1.992   0.946   1.366  0.5961  0.3209 -0.3909
 5141SOL    HW126885   1.933   0.899   1.307  2.1587 -0.4516 -1.3406
 5141SOL    HW226886   2.068   0.889   1.376 -1.1211 -1.5772  1.7955
 5142SOL     OW26887   4.289   2.102   6.584 -0.2562  0.0672  0.0770
 5142SOL    HW126888   4.238   2.113   6.503 -1.5877 -1.1186  0.7506
 5142SOL    HW226889   4.302   2.007   6.582  1.6156  0.3235  0.9734
 5143SOL     OW26890   1.857   1.453   7.268  0.6633  0.4358  0.3596
 5143SOL    HW126891   1.811   1.534   7.246  1.2507  0.9622  1.0486
 5143SOL    HW226892   1.856   1.398   7.190 -0.7113  2.3696 -0.9870
 5144SOL     OW26893   1.778   2.481   5.538 -0.0893  0.0167  0.3369
 5144SOL    HW126894   1.750   2.563   5.498  0.3754  0.0748  0.1287
 5144SOL    HW226895   1.721   2.496   5.614  1.7211  2.1751  1.2933
 5145SOL     OW26896   2.284   0.352   3.517 -0.2074 -0.1566 -0.2973
 5145SOL    HW126897   2.313   0.443   3.504 -0.7848  0.1434  0.4774
 5145SOL    HW226898   2.368   0.307   3.518 -0.9815 -1.5736  0.3061
 5146SOL     OW26899   4.185   0.262   9.105 -0.2551 -0.5747  0.0887
 5146SOL    HW126900   4.155   0.243   9.016  0.2725  2.1703 -0.6762
 5146SOL    HW226901   4.101   0.269   9.150 -0.0331  0.6906  0.2950
 5147SOL     OW26902   2.765   0.905   6.966 -0.1838 -0.4713 -0.0023
 5147SOL    HW126903   2.822   0.846   7.015  2.2828  0.1096 -2.1826
 5147SOL    HW226904   2.795   0.994   6.984 -1.0439 -0.2697  0.4524
 5148SOL     OW26905   0.922   1.502   8.944 -0.1102 -0.6310  0.4523
 5148SOL    HW126906   0.980   1.554   8.888 -1.6150  1.1313  0.5293
 5148SOL    HW226907   0.963   1.418   8.963 -0.5032 -0.4990  1.9173
 5149SOL     OW26908   1.481   0.900  16.221  0.0896  0.0741  0.1429
 5149SOL    HW126909   1.553   0.838  16.216 -1.3252 -1.1863 -4.6326
 5149SOL    HW226910   1.408   0.847  16.189  1.1635 -1.1117 -0.3328
 5150SOL     OW26911   0.772   1.363  13.935  0.4505  0.4808 -0.4066
 5150SOL    HW126912   0.715   1.427  13.892  0.4651  0.7178 -0.0731
 5150SOL    HW226913   0.756   1.376  14.029  4.1776 -1.7925  0.5364
 5151SOL     OW26914   1.730   0.830   6.925  0.1981 -0.1604  0.3806
 5151SOL    HW126915   1.701   0.747   6.965 -0.7546 -0.6851 -1.4127
 5151SOL    HW226916   1.715   0.889   6.998  0.6353 -0.7293  0.9371
 5152SOL     OW26917   3.283   3.445  12.271 -0.1246 -0.2581 -0.1563
 5152SOL    HW126918   3.265   3.357  12.237  2.5822 -0.7779 -0.2221
 5152SOL    HW226919   3.215   3.499  12.231  1.0532  1.4196  0.1061
 5153SOL     OW26920   1.912   3.284   7.908 -0.1742 -0.4288 -0.2813
 5153SOL    HW126921   1.883   3.280   7.817  0.1154  1.6366 -0.4615
 5153SOL    HW226922   1.842   3.327   7.958 -0.7208 -0.1503 -1.2881
 5154SOL     OW26923   4.219   1.341   2.458  0.2822  0.2094  0.1675
 5154SOL    HW126924   4.281   1.405   2.422  2.1031 -1.1427  0.9560
 5154SOL    HW226925   4.192   1.294   2.379 -3.0062  0.9672  0.8160
 5155SOL     OW26926   1.334   1.351   4.894 -0.3124 -0.2587 -0.2326
 5155SOL    HW126927   1.414   1.298   4.897 -0.3106 -0.1376  1.9329
 5155SOL    HW226928   1.324   1.358   4.799 -1.2762 -0.6643 -0.1578
 5156SOL     OW26929   1.172   0.882   0.300  0.1640 -0.4155 -0.3289
 5156SOL    HW126930   1.246   0.942   0.300  1.1853 -1.6787 -1.6024
 5156SOL    HW226931   1.212   0.803   0.337  0.5325 -0.1301 -0.1146
 5157SOL     OW26932   0.994   2.421  15.268 -0.0491 -0.3365 -0.0329
 5157SOL    HW126933   1.013   2.482  15.197 -1.4378  0.8292  0.5885
 5157SOL    HW226934   0.997   2.335  15.226 -0.9311  0.0663 -0.9162
 5158SOL     OW26935   2.216   2.186   7.362 -0.3376  0.4322 -0.8515
 5158SOL    HW126936   2.306   2.183   7.393 -2.5928 -2.5846  5.4220
 5158SOL    HW226937   2.223   2.132   7.283 -0.1345 -0.3682 -0.2870
 5159SOL     OW26938   4.631   1.349  14.201 -0.2948 -0.5951  0.2041
 5159SOL    HW126939   4.550   1.392  14.176  0.3975  0.8886  0.4836
 5159SOL    HW226940   4.657   1.405  14.274 -0.4147 -1.9561  1.2898
 5160SOL     OW26941   2.678   2.725  11.405 -0.1741 -0.0178  0.6839
 5160SOL    HW126942   2.657   2.632  11.405  2.1725 -0.5386  2.3967
 5160SOL    HW226943   2.627   2.765  11.335  1.7714 -1.6939 -1.6526
 5161SOL     OW26944   1.273   0.016   2.583  0.1555 -0.3611 -0.3444
 5161SOL    HW126945   1.320   4.672   2.533  0.0973  1.2907 -2.5832
 5161SOL    HW226946   1.293   0.008   2.676  0.5832 -1.8090 -0.5628
 5162SOL     OW26947   4.083   1.859   5.350  0.7591 -0.2518  0.3573
 5162SOL    HW126948   4.017   1.905   5.401  1.5498  0.8016  0.4260
 5162SOL    HW226949   4.112   1.823   5.435  0.7724  1.6043  1.1335
 5163SOL     OW26950   4.402   3.866   9.212  0.4019  0.5966 -0.3662
 5163SOL    HW126951   4.425   3.959   9.217  2.9215 -0.1557  1.9267
 5163SOL    HW226952   4.399   3.831   9.301  2.4717 -1.0255 -0.9392
 5164SOL     OW26953   0.531   4.612   4.697 -0.5382  0.8556  0.7806
 5164SOL    HW126954   0.563   4.523   4.713 -0.3204  0.7321 -0.3651
 5164SOL    HW226955   0.495   4.632   4.783 -3.0314 -1.5515  0.3235
 5165SOL     OW26956   2.581   2.918   2.133 -0.4391 -0.2734  0.0456
 5165SOL    HW126957   2.612   3.005   2.109  2.2614 -1.1095  0.4316
 5165SOL    HW226958   2.629   2.864   2.070  0.0332  0.2927 -0.0844
 5166SOL     OW26959   4.721   3.166   8.355 -0.0034  0.0749  0.1090
 5166SOL    HW126960   4.653   3.122   8.406  0.3594  0.0171  0.5510
 5166SOL    HW226961   0.079   3.136   8.399  0.1500  0.5600  0.1588
 5167SOL     OW26962   4.673   2.618   4.163 -0.0961  0.4373 -0.2495
 5167SOL    HW126963   4.649   2.685   4.228  0.5210  0.3966  0.0193
 5167SOL    HW226964   4.620   2.643   4.088  0.8406 -1.4798 -1.5232
 5168SOL     OW26965   3.345   2.316   9.313  0.7398  0.3066 -0.1363
 5168SOL    HW126966   3.316   2.316   9.404  0.2219 -4.8786 -0.3372
 5168SOL    HW226967   3.387   2.230   9.308  0.6097  0.2594 -0.4127
 5169SOL     OW26968   1.099   0.676   7.005  0.1500  0.1767 -0.1572
 5169SOL    HW126969   1.117   0.748   7.065 -1.3351  0.7238 -0.3830
 5169SOL    HW226970   1.016   0.705   6.969  1.1530 -0.2535 -2.7918
 5170SOL     OW26971   0.492   3.660   7.394  0.0936 -0.2184 -0.0191
 5170SOL    HW126972   0.397   3.651   7.388  0.1870 -0.1058 -1.6658
 5170SOL    HW226973   0.513   3.567   7.396  0.5663 -0.1343 -1.3308
 5171SOL     OW26974   2.330   1.285   3.824  0.1322  0.0801 -0.1238
 5171SOL    HW126975   2.315   1.348   3.753 -3.5345 -0.5779  0.1048
 5171SOL    HW226976   2.425   1.293   3.833  0.0173 -0.9006  1.9594
 5172SOL     OW26977   2.772   1.201  14.297 -0.0446 -0.0097  0.3143
 5172SOL    HW126978   2.799   1.129  14.353  3.2485 -1.2112 -2.7886
 5172SOL    HW226979   2.813   1.274  14.343  1.2589  0.0255 -0.8728
 5173SOL     OW26980   0.995   0.603  14.690 -0.1434 -0.4437  0.2120
 5173SOL    HW126981   0.992   0.515  14.726  2.0220  0.1215  1.7850
 5173SOL    HW226982   0.931   0.655  14.738 -0.7624 -0.5153 -0.5376
 5174SOL     OW26983   4.613   4.021   6.785 -0.1073  0.1289  0.0385
 5174SOL    HW126984   4.573   3.985   6.706  0.4050 -1.5335  0.5275
 5174SOL    HW226985   4.686   3.960   6.798 -2.7392 -3.0782 -0.2775
 5175SOL     OW26986   3.369   2.824   7.271 -0.2448 -0.2347 -0.2010
 5175SOL    HW126987   3.449   2.856   7.230 -0.1176  1.7704  1.6094
 5175SOL    HW226988   3.319   2.837   7.191  1.8378  0.0470 -1.4413
 5176SOL     OW26989   3.323   4.719   5.239 -0.1109  0.0821  0.5434
 5176SOL    HW126990   3.358   0.084   5.225 -0.0673 -0.0500 -0.1666
 5176SOL    HW226991   3.332   4.710   5.334  1.9087  1.9869  0.5140
 5177SOL     OW26992   2.855   1.169   3.479  0.1808 -0.7303 -0.1072
 5177SOL    HW126993   2.787   1.123   3.431  1.1469 -0.4985 -1.6955
 5177SOL    HW226994   2.919   1.099   3.492  2.7495  0.7953 -4.7385
 5178SOL     OW26995   0.492   4.001  13.969  0.4481  0.5485 -0.5851
 5178SOL    HW126996   0.529   4.013  14.056 -0.9160  0.4589  0.0098
 5178SOL    HW226997   0.456   3.912  13.973  1.0064  0.3462 -0.0579
 5179SOL     OW26998   0.759   3.300  12.217  0.5131 -0.3665  0.5234
 5179SOL    HW126999   0.773   3.273  12.307  1.6036 -1.2849  0.0688
 5179SOL    HW227000   0.850   3.298  12.187  0.2750  0.3217 -0.2691
 5180SOL     OW27001   4.464   2.845   3.664 -0.2806 -0.0573  0.4537
 5180SOL    HW127002   4.464   2.804   3.578 -1.7400 -0.0979  0.4887
 5180SOL    HW227003   4.373   2.844   3.691 -0.4461  0.0058 -0.0986
 5181SOL     OW27004   0.080   0.550   5.365 -0.3611 -0.3291  0.1921
 5181SOL    HW127005   0.109   0.641   5.363 -1.3025 -0.0077  1.7215
 5181SOL    HW227006   0.075   0.518   5.274 -0.5954 -0.4976  0.2656
 5182SOL     OW27007   1.724   3.465  14.713  0.0682 -0.1537  0.3782
 5182SOL    HW127008   1.786   3.534  14.692  0.0364 -0.5892 -1.0974
 5182SOL    HW227009   1.730   3.479  14.808 -3.0086  0.9810  0.4271
 5183SOL     OW27010   3.663   1.865  14.958 -0.1287  0.0197  0.6814
 5183SOL    HW127011   3.576   1.897  14.932 -0.1060  1.0519  1.9030
 5183SOL    HW227012   3.649   1.770  14.961 -0.8110  0.1132  0.5833
 5184SOL     OW27013   4.352   1.330  12.868 -0.2469 -0.0037 -0.4965
 5184SOL    HW127014   4.259   1.340  12.890 -0.6283 -1.2793 -1.5200
 5184SOL    HW227015   4.364   1.241  12.901  2.7867  0.4474 -0.4260
 5185SOL     OW27016   1.627   1.921   8.190 -0.8353  0.0232  0.5891
 5185SOL    HW127017   1.690   1.864   8.146 -0.7358 -0.3104  1.1583
 5185SOL    HW227018   1.548   1.869   8.175 -0.7367  0.1268 -0.2693
 5186SOL     OW27019   2.392   0.942   3.273  0.2772  0.0686  0.4974
 5186SOL    HW127020   2.354   0.867   3.228 -0.0949  0.3103  0.4100
 5186SOL    HW227021   2.311   0.981   3.307  0.4545  1.1998 -0.3424
 5187SOL     OW27022   3.223   0.343  12.210  0.5697 -0.1024  0.5230
 5187SOL    HW127023   3.267   0.393  12.280  0.2991 -1.2118  1.4797
 5187SOL    HW227024   3.166   0.290  12.266 -0.8246  0.0972 -0.7004
 5188SOL     OW27025   4.567   1.723  10.463  0.2805 -0.1248 -0.2314
 5188SOL    HW127026   4.546   1.705  10.371  1.6683 -0.9990 -0.3814
 5188SOL    HW227027   4.656   1.689  10.473  0.1171  0.2836  2.5857
 5189SOL     OW27028   1.274   1.877   1.484 -0.3732  0.4564  0.1070
 5189SOL    HW127029   1.248   1.785   1.488  0.4612  0.3132  2.3238
 5189SOL    HW227030   1.195   1.920   1.517  0.1164  1.3936  0.0669
 5190SOL     OW27031   2.532   1.886   4.284  0.4529 -0.6833  0.4182
 5190SOL    HW127032   2.601   1.951   4.272 -0.4487  0.2058  0.1323
 5190SOL    HW227033   2.591   1.818   4.318  0.6548 -0.1421  1.1348
 5191SOL     OW27034   2.969   1.068   6.360 -0.0161  0.4663  0.0665
 5191SOL    HW127035   2.928   0.986   6.389 -0.1988  0.6147  0.2210
 5191SOL    HW227036   3.037   1.027   6.306 -0.6104 -0.2239 -0.1706
 5192SOL     OW27037   4.484   1.871   7.137 -0.2741  0.5616 -0.5340
 5192SOL    HW127038   4.543   1.797   7.147 -1.2532 -0.2058 -0.4313
 5192SOL    HW227039   4.394   1.840   7.152 -0.4237  0.8054 -0.9123
 5193SOL     OW27040   1.173   1.504   7.983 -0.4459  0.3634 -0.1957
 5193SOL    HW127041   1.123   1.584   8.000 -0.7188  0.7407 -2.6986
 5193SOL    HW227042   1.116   1.459   7.921  0.2908 -2.1627  0.9795
 5194SOL     OW27043   2.816   3.426  11.342 -0.4929  0.7921  0.6112
 5194SOL    HW127044   2.752   3.496  11.335  0.5889  1.8165  1.0337
 5194SOL    HW227045   2.863   3.446  11.423 -1.7604  2.0005  1.0363
 5195SOL     OW27046   3.956   1.649   2.234  0.4318  0.6412 -0.7278
 5195SOL    HW127047   4.043   1.679   2.258  0.5958 -0.8803  0.5621
 5195SOL    HW227048   3.922   1.738   2.241  0.1503  0.3673  1.4049
 5196SOL     OW27049   0.074   2.682   4.967 -0.2136  0.2558 -0.0249
 5196SOL    HW127050   4.703   2.668   4.984 -0.2850  1.4794  0.6207
 5196SOL    HW227051   0.073   2.772   4.935  1.6776 -0.2054 -1.4358
 5197SOL     OW27052   2.450   1.658   8.853  0.1957  1.0137 -0.1325
 5197SOL    HW127053   2.443   1.702   8.938 -1.1047 -0.0473  0.3058
 5197SOL    HW227054   2.463   1.734   8.796  0.9016  0.3002 -0.9346
 5198SOL     OW27055   4.181   2.007   7.964  0.2779 -0.4598  0.2218
 5198SOL    HW127056   4.212   1.940   7.902  1.6816 -1.2128  1.7517
 5198SOL    HW227057   4.213   1.966   8.044  2.2089 -1.3289 -0.9891
 5199SOL     OW27058   2.828   2.824   6.594  0.5143  0.2811 -0.2158
 5199SOL    HW127059   2.824   2.854   6.503 -1.2970  1.8610  0.3832
 5199SOL    HW227060   2.922   2.830   6.609  0.6890 -0.3155 -1.1098
 5200SOL     OW27061   3.836   3.770  13.074  0.1650 -0.4652 -0.3696
 5200SOL    HW127062   3.861   3.753  13.165 -1.8698 -0.9149  0.1041
 5200SOL    HW227063   3.881   3.850  13.048  0.9994 -0.9121 -0.2876
 5201SOL     OW27064   0.049   3.545  13.312 -0.1325 -0.2237 -0.0222
 5201SOL    HW127065   0.079   3.593  13.389 -0.4390 -1.4719  0.8628
 5201SOL    HW227066   4.679   3.536  13.333 -0.1945 -2.5753 -1.3542
 5202SOL     OW27067   0.432   1.601   7.671  0.1090  0.3287 -0.3982
 5202SOL    HW127068   0.478   1.557   7.599 -1.5972 -0.4782 -0.9997
 5202SOL    HW227069   0.466   1.564   7.753 -1.7623 -0.1714  0.1530
 5203SOL     OW27070   2.814   4.071  11.141  0.4413  0.5995  0.2918
 5203SOL    HW127071   2.723   4.083  11.113 -0.3032  0.3043  2.5907
 5203SOL    HW227072   2.866   4.110  11.071  1.4782 -1.5572 -0.1471
 5204SOL     OW27073   4.155   3.245   4.002  0.1336  0.4284 -0.6842
 5204SOL    HW127074   4.066   3.278   4.005  0.3082  0.7742  0.5765
 5204SOL    HW227075   4.135   3.153   4.017  1.7662  0.0229 -0.8967
 5205SOL     OW27076   3.917   3.747   6.632 -0.1914  0.0541  0.2894
 5205SOL    HW127077   3.872   3.773   6.712 -1.8393  0.5775 -0.7936
 5205SOL    HW227078   3.839   3.730   6.579 -0.4526  1.9431  0.0703
 5206SOL     OW27079   1.956   1.187   6.508  0.4733  0.1989  0.0455
 5206SOL    HW127080   1.953   1.201   6.414  2.1501 -1.2731 -0.2187
 5206SOL    HW227081   1.957   1.278   6.539  4.6554 -0.0323  0.5418
 5207SOL     OW27082   0.422   0.785   4.789  0.2257  0.3955 -0.2159
 5207SOL    HW127083   0.340   0.794   4.838  0.1971  0.8116 -0.3395
 5207SOL    HW227084   0.389   0.803   4.701 -1.5505  0.6553  0.4925
 5208SOL     OW27085   2.882   2.800   3.503  0.6170  0.1158  0.5342
 5208SOL    HW127086   2.804   2.851   3.522 -0.0321 -0.8273  0.4367
 5208SOL    HW227087   2.859   2.712   3.533 -1.5995  0.9445  1.2312
 5209SOL     OW27088   0.818   4.518  17.423  0.1904  0.4503 -0.7203
 5209SOL    HW127089   0.802   4.466  17.501  1.1404 -2.8537 -2.7164
 5209SOL    HW227090   0.827   4.444  17.362 -1.2792 -1.1924  1.0763
 5210SOL     OW27091   1.414   1.901   2.935  0.4876  0.7454  0.1544
 5210SOL    HW127092   1.498   1.887   2.977  0.2766 -2.4389 -0.4845
 5210SOL    HW227093   1.406   1.840   2.862 -0.9270 -0.7988  1.6014
 5211SOL     OW27094   3.633   2.023   8.020 -0.1814 -0.5723 -0.2130
 5211SOL    HW127095   3.647   2.091   8.085 -3.3269 -0.2683  0.1657
 5211SOL    HW227096   3.720   2.020   7.980 -0.5683  1.6365 -1.2216
 5212SOL     OW27097   4.715   3.560   0.258 -0.6013 -0.1536  0.1461
 5212SOL    HW127098   4.662   3.580   0.335 -1.2238 -3.2657  0.5426
 5212SOL    HW227099   0.052   3.635   0.257 -1.4522  0.5305  1.0685
 5213SOL     OW27100   1.451   0.712   4.777 -0.0581  0.4273  0.3954
 5213SOL    HW127101   1.425   0.730   4.867 -1.4766 -1.0249  0.2675
 5213SOL    HW227102   1.543   0.702   4.804 -0.8413 -1.4194  2.4101
 5214SOL     OW27103   1.630   3.044   8.111 -0.2568 -0.0024 -0.4356
 5214SOL    HW127104   1.538   3.038   8.138 -0.1050  0.8935  0.2798
 5214SOL    HW227105   1.642   2.962   8.064  0.0575 -2.1109  3.2697
 5215SOL     OW27106   2.487   3.014   2.884  0.3922  0.4663  0.7562
 5215SOL    HW127107   2.476   2.990   2.792  3.2393  1.0867  0.2493
 5215SOL    HW227108   2.581   3.031   2.881  0.1678  1.7770  1.2457
 5216SOL     OW27109   4.504   3.285   2.641  0.1283 -0.2084 -0.2125
 5216SOL    HW127110   4.553   3.219   2.691 -1.4854 -0.5255  0.9355
 5216SOL    HW227111   4.572   3.343   2.606  1.8451 -3.0201 -1.5530
 5217SOL     OW27112   1.041   3.427   2.769 -0.6886 -0.2127 -0.3079
 5217SOL    HW127113   1.133   3.438   2.744 -1.0688  2.2086 -0.6262
 5217SOL    HW227114   1.037   3.332   2.762  1.8538 -0.3760  0.4055
 5218SOL     OW27115   3.107   1.807  17.553 -0.3099  0.4244  0.0058
 5218SOL    HW127116   3.174   1.741  17.540 -0.9995 -0.6929  2.2374
 5218SOL    HW227117   3.168   1.880  17.561 -2.9178  2.5090  1.0227
 5219SOL     OW27118   2.498   2.601   0.318  0.0690 -0.5628  0.1170
 5219SOL    HW127119   2.507   2.523   0.372 -2.4188 -1.8105 -1.2582
 5219SOL    HW227120   2.451   2.655   0.381  0.8631  0.8012 -0.4535
 5220SOL     OW27121   3.569   0.721   4.215 -0.2760 -0.1945 -0.6769
 5220SOL    HW127122   3.515   0.642   4.212 -0.8727  0.1830 -0.0496
 5220SOL    HW227123   3.569   0.721   4.311 -0.0115 -2.9358 -0.6580
 5221SOL     OW27124   0.741   1.320   4.233  0.5214  0.1419  0.5530
 5221SOL    HW127125   0.756   1.239   4.184  2.1887  1.3926 -0.9978
 5221SOL    HW227126   0.814   1.374   4.202  0.3728  0.1163  0.1505
 5222SOL     OW27127   4.672   3.651   7.175  0.1805 -0.0454  0.3432
 5222SOL    HW127128   0.030   3.599   7.183  1.1580  1.5739  1.1632
 5222SOL    HW227129   4.628   3.605   7.104 -0.9176  0.2577  0.8300
 5223SOL     OW27130   3.865   0.813   3.156 -0.0863 -0.0467 -0.6964
 5223SOL    HW127131   3.926   0.745   3.184 -0.8035 -0.1203  0.6670
 5223SOL    HW227132   3.926   0.887   3.152 -0.8972  0.5538 -2.1310
 5224SOL     OW27133   1.157   2.551  11.818  0.8245 -0.5593 -0.0288
 5224SOL    HW127134   1.122   2.576  11.903 -0.2952 -0.5033 -0.5066
 5224SOL    HW227135   1.232   2.610  11.815  1.3386 -1.2931 -1.4745
 5225SOL     OW27136   0.186   1.264  16.895  0.4698 -0.0421 -0.1067
 5225SOL    HW127137   0.270   1.239  16.933  1.1052 -0.2147 -1.6292
 5225SOL    HW227138   0.213   1.318  16.821  1.4643  1.4389  1.3438
 5226SOL     OW27139   3.750   2.371   6.112  0.1417  0.0156  0.0763
 5226SOL    HW127140   3.773   2.357   6.204 -1.2878 -0.3323  0.3824
 5226SOL    HW227141   3.655   2.385   6.117  0.4036  2.1226 -0.7307
 5227SOL     OW27142   4.266   1.548   6.925  0.0281  0.0894  0.2438
 5227SOL    HW127143   4.229   1.467   6.958  2.4349 -0.7196  0.9789
 5227SOL    HW227144   4.329   1.507   6.865  0.8516 -1.1251  1.9492
 5228SOL     OW27145   3.550   1.368   0.102 -0.0555  0.2548  0.4108
 5228SOL    HW127146   3.568   1.417   0.182  1.3419 -0.6855  0.6660
 5228SOL    HW227147   3.459   1.391   0.083  0.5291  1.0580 -1.4673
 5229SOL     OW27148   4.118   3.107   7.648  0.1053 -0.0124 -0.5917
 5229SOL    HW127149   4.212   3.119   7.636  0.0666  2.8209  1.8318
 5229SOL    HW227150   4.090   3.190   7.609  2.0414  0.5219 -0.8550
 5230SOL     OW27151   1.852   1.889  15.482 -0.3955  0.1771 -0.2451
 5230SOL    HW127152   1.806   1.972  15.490 -2.0996 -0.5188 -3.0135
 5230SOL    HW227153   1.942   1.919  15.498 -0.3325 -0.6538  0.9175
 5231SOL     OW27154   2.873   1.250   4.180  0.4206  0.2688 -0.1875
 5231SOL    HW127155   2.905   1.333   4.216 -1.5113  1.7256 -1.8182
 5231SOL    HW227156   2.938   1.206   4.235 -0.7718 -1.3679 -0.0935
 5232SOL     OW27157   3.250   0.887   2.421  0.2785  0.0521 -0.1552
 5232SOL    HW127158   3.220   0.855   2.506 -0.4140 -0.5022 -0.6144
 5232SOL    HW227159   3.303   0.964   2.441 -0.1107  0.5482 -1.0404
 5233SOL     OW27160   0.742   1.432   1.616 -0.7617  0.2702  0.3240
 5233SOL    HW127161   0.772   1.432   1.706 -2.0529 -0.5197  0.7556
 5233SOL    HW227162   0.737   1.524   1.590 -1.3827  0.0349 -0.3935
 5234SOL     OW27163   3.890   0.593  14.512 -0.5693 -0.5976  0.2534
 5234SOL    HW127164   3.910   0.588  14.606 -0.3684  1.9657  0.3545
 5234SOL    HW227165   3.939   0.673  14.490  0.3805 -1.4621 -0.7561
 5235SOL     OW27166   2.769   2.782   9.111 -0.5266 -0.2368  0.8303
 5235SOL    HW127167   2.786   2.690   9.130  2.0356 -0.3043 -1.9104
 5235SOL    HW227168   2.815   2.820   9.186 -0.4005  0.4900  0.3802
 5236SOL     OW27169   1.265   4.626   8.585 -0.3145  0.0480  0.4092
 5236SOL    HW127170   1.201   4.640   8.655 -0.7684  0.4018 -0.0649
 5236SOL    HW227171   1.241   4.539   8.554 -1.8953  0.0355  1.6682
 5237SOL     OW27172   2.407   1.181   7.262 -0.1319 -0.3479 -0.0115
 5237SOL    HW127173   2.422   1.102   7.211  1.4244 -0.8015  1.1695
 5237SOL    HW227174   2.404   1.252   7.198 -2.5569 -0.1583  0.2952
 5238SOL     OW27175   1.746   1.164   5.205  0.1195  0.0460 -0.1116
 5238SOL    HW127176   1.710   1.115   5.131 -0.2820  0.6621 -0.3199
 5238SOL    HW227177   1.667   1.191   5.250  0.6383  0.5445  0.4973
 5239SOL     OW27178   3.899   0.753   0.961 -0.1491 -0.6020  0.2058
 5239SOL    HW127179   3.863   0.671   0.927  2.6250 -0.5470 -2.8667
 5239SOL    HW227180   3.843   0.759   1.039 -1.2049 -0.9072 -0.5223
 5240SOL     OW27181   1.007   0.749   9.023  0.0776 -0.2969 -0.2982
 5240SOL    HW127182   1.044   0.693   8.955  0.9046  0.5091 -0.5145
 5240SOL    HW227183   0.944   0.803   8.975  0.2402  1.0445  0.9812
 5241SOL     OW27184   0.545   2.426   8.779 -0.0480  0.5310 -0.6374
 5241SOL    HW127185   0.608   2.375   8.829 -0.7030 -1.2329 -1.6258
 5241SOL    HW227186   0.464   2.415   8.828  2.4671 -2.5569  2.7691
 5242SOL     OW27187   3.652   0.449   1.345 -0.2319  0.2083  0.3445
 5242SOL    HW127188   3.559   0.428   1.356 -0.6213  2.0107  0.4306
 5242SOL    HW227189   3.663   0.530   1.394  0.0223  0.2014  0.2982
 5243SOL     OW27190   4.662   0.271   3.176  0.3636  0.0273  0.6972
 5243SOL    HW127191   4.665   0.328   3.099 -2.3206  0.2389  0.7169
 5243SOL    HW227192   4.583   0.296   3.224 -0.2320  0.5506 -0.5560
 5244SOL     OW27193   4.281   2.363   8.481  0.3365 -0.1034 -0.0247
 5244SOL    HW127194   4.224   2.380   8.556 -1.1276 -0.5909 -1.0359
 5244SOL    HW227195   4.363   2.393   8.519  0.0561 -0.1733  0.6277
 5245SOL     OW27196   1.191   0.874  14.586  0.7071 -0.2367  0.2288
 5245SOL    HW127197   1.190   0.784  14.553 -0.1519 -0.4442  0.8186
 5245SOL    HW227198   1.231   0.860  14.671 -3.0347  0.4701  2.1132
 5246SOL     OW27199   1.745   2.204   7.376  0.3039  0.4841 -0.2424
 5246SOL    HW127200   1.749   2.282   7.432  0.9750  0.5278 -0.3507
 5246SOL    HW227201   1.814   2.150   7.416 -1.2081 -1.1330  0.1973
 5247SOL     OW27202   0.983   1.639   3.782 -0.3779 -0.2186  0.4404
 5247SOL    HW127203   1.041   1.577   3.739 -0.5804  0.8394 -1.3607
 5247SOL    HW227204   1.045   1.705   3.813 -2.2961  2.4702 -1.4195
 5248SOL     OW27205   2.304   2.315   4.968  0.0785 -0.1199 -0.0343
 5248SOL    HW127206   2.357   2.236   4.975  0.1991 -0.2186 -1.9966
 5248SOL    HW227207   2.360   2.362   4.906  1.0970  0.0156  0.9929
 5249SOL     OW27208   4.449   0.368   6.400 -0.3006  0.1142 -0.1928
 5249SOL    HW127209   4.426   0.278   6.423 -0.3325  0.4593  1.1537
 5249SOL    HW227210   4.524   0.382   6.459 -0.9691  1.3646  0.3658
 5250SOL     OW27211   3.246   1.621  10.845  0.1391 -0.1744 -0.1414
 5250SOL    HW127212   3.194   1.614  10.925 -1.7219  1.2573 -1.2075
 5250SOL    HW227213   3.300   1.700  10.854 -0.4967  0.3009 -0.4593
 5251SOL     OW27214   1.731   1.787   2.416  0.2042 -0.3214  0.2431
 5251SOL    HW127215   1.775   1.706   2.394  0.2824 -0.0431 -0.6013
 5251SOL    HW227216   1.799   1.853   2.404 -2.3762  2.1863 -0.8294
 5252SOL     OW27217   2.821   1.319   3.917  0.2649  0.1173 -0.5142
 5252SOL    HW127218   2.880   1.264   3.865 -3.2076 -1.7986 -2.3690
 5252SOL    HW227219   2.832   1.282   4.005  3.1072  1.3600 -0.3372
 5253SOL     OW27220   0.464   2.477   0.413 -0.3224  0.0982  0.4042
 5253SOL    HW127221   0.439   2.441   0.328 -1.2561 -0.3602  0.8678
 5253SOL    HW227222   0.421   2.561   0.426  1.4826  0.7211  2.4037
 5254SOL     OW27223   4.388   0.742  15.122 -0.2867 -0.4305 -0.3034
 5254SOL    HW127224   4.393   0.651  15.092 -0.9520 -0.8020  0.7463
 5254SOL    HW227225   4.475   0.756  15.160  0.4978 -1.2461 -1.7361
 5255SOL     OW27226   2.191   2.212   8.273  0.3105  0.1439  0.2851
 5255SOL    HW127227   2.261   2.249   8.327  1.0006  1.1137 -1.2964
 5255SOL    HW227228   2.123   2.279   8.284  2.0501  1.7820  0.9673
 5256SOL     OW27229   1.947   2.884   5.108 -0.3732 -0.2355 -0.2721
 5256SOL    HW127230   2.009   2.946   5.070  0.1248 -0.2209  0.5692
 5256SOL    HW227231   1.861   2.916   5.080 -0.8034 -0.4880  0.7825
 5257SOL     OW27232   3.142   4.491   4.930 -0.3355  0.2006  0.0118
 5257SOL    HW127233   3.125   4.483   4.836 -2.4806  0.5316  0.3734
 5257SOL    HW227234   3.217   4.432   4.943 -0.8037 -0.1036  1.2703
 5258SOL     OW27235   1.851   0.212   5.003  0.4269  0.0190  0.4865
 5258SOL    HW127236   1.944   0.205   5.024  1.0755  0.3612 -2.2762
 5258SOL    HW227237   1.841   0.269   4.926  2.3709  1.3418  1.2281
 5259SOL     OW27238   2.923   0.750   9.079 -0.4877  0.1940 -0.4913
 5259SOL    HW127239   2.991   0.703   9.030  0.5302  2.0004 -0.8178
 5259SOL    HW227240   2.973   0.828   9.105  0.1671 -0.9590  1.6906
 5260SOL     OW27241   3.664   3.023   5.487  0.4618  1.0728 -0.1851
 5260SOL    HW127242   3.644   3.115   5.507  0.9367  0.8135  1.5002
 5260SOL    HW227243   3.722   3.000   5.559  1.1787 -1.6803 -1.6625
 5261SOL     OW27244   2.677   1.987   7.011 -0.3079 -0.4086  0.2843
 5261SOL    HW127245   2.704   1.898   6.990 -0.5381 -0.1512 -1.0912
 5261SOL    HW227246   2.666   1.988   7.107 -0.4795 -2.7510  0.3073
 5262SOL     OW27247   4.527   1.341   5.248 -0.1866  0.6775 -1.2243
 5262SOL    HW127248   4.495   1.427   5.221 -0.5757  1.1194  0.6717
 5262SOL    HW227249   4.509   1.285   5.172  0.6302  1.4969 -2.0244
 5263SOL     OW27250   4.219   0.082  13.895  0.2066 -0.2752 -0.1300
 5263SOL    HW127251   4.288   0.146  13.913 -2.1933  1.7126  2.1181
 5263SOL    HW227252   4.268   0.000  13.898 -0.5098 -0.6229  2.2117
 5264SOL     OW27253   3.131   3.507  10.022 -0.7143 -0.5847 -0.1694
 5264SOL    HW127254   3.065   3.564  10.060 -0.6656 -0.2765 -0.5427
 5264SOL    HW227255   3.205   3.560  10.052 -0.3498 -0.6361 -0.9798
 5265SOL     OW27256   3.575   3.410   6.000 -0.6622 -0.1099 -0.3126
 5265SOL    HW127257   3.570   3.485   6.059  0.4392 -0.8801  0.7662
 5265SOL    HW227258   3.619   3.352   6.062 -1.1231  0.6563  0.7483
 5266SOL     OW27259   2.325   0.954  11.694 -0.2901  0.1347 -0.2800
 5266SOL    HW127260   2.404   0.961  11.748 -0.9803  2.1925  0.4712
 5266SOL    HW227261   2.313   0.860  11.678 -0.3933  0.0882  0.0585
 5267SOL     OW27262   4.046   2.851   9.846  0.2629  0.1147  0.2722
 5267SOL    HW127263   3.952   2.856   9.864  0.1371  0.3125 -0.4682
 5267SOL    HW227264   4.075   2.864   9.937 -2.3758 -0.4059  1.2083
 5268SOL     OW27265   4.471   0.911   1.857  1.1552 -0.4004 -0.3748
 5268SOL    HW127266   4.466   0.840   1.921  1.8011  0.4170  0.5743
 5268SOL    HW227267   4.556   0.906   1.813  1.6737 -2.3316  0.8123
 5269SOL     OW27268   4.453   3.494   5.134  0.2235  0.2920  0.1147
 5269SOL    HW127269   4.431   3.415   5.183  1.8936 -0.2242  0.0304
 5269SOL    HW227270   4.406   3.476   5.053  0.4684 -1.9858  0.4857
 5270SOL     OW27271   3.947   1.226   7.186 -0.3419  0.3272 -0.7930
 5270SOL    HW127272   3.979   1.142   7.220 -2.0881  0.1427  0.4146
 5270SOL    HW227273   3.960   1.288   7.258 -1.6227 -2.4565  1.8126
 5271SOL     OW27274   3.112   4.267   6.848  0.3064  0.0147 -0.2013
 5271SOL    HW127275   3.190   4.215   6.867  1.4252  1.3441 -1.1504
 5271SOL    HW227276   3.059   4.212   6.791 -0.4339 -0.7411  1.2091
 5272SOL     OW27277   3.943   3.929  16.269  0.0140 -0.5063  0.1056
 5272SOL    HW127278   3.909   3.864  16.330  1.0480 -0.1035  1.1019
 5272SOL    HW227279   3.868   3.931  16.210  0.3856 -1.6968 -0.3970
 5273SOL     OW27280   4.385   0.380   7.694 -0.0507  0.1159 -0.1325
 5273SOL    HW127281   4.340   0.315   7.639  0.1422  1.0447 -1.4028
 5273SOL    HW227282   4.400   0.449   7.629 -1.2405  0.6377  0.1465
 5274SOL     OW27283   2.828   0.066   1.708  0.1319 -0.1872 -0.2931
 5274SOL    HW127284   2.836   4.697   1.680 -0.9811 -0.1158 -0.8805
 5274SOL    HW227285   2.741   0.062   1.748  0.5963 -0.8559  0.6519
 5275SOL     OW27286   1.160   2.906   0.775  0.3839  0.0974  0.0316
 5275SOL    HW127287   1.180   2.852   0.851  2.6196  1.4523  0.3987
 5275SOL    HW227288   1.222   2.870   0.712  0.6025  1.2306 -0.4009
 5276SOL     OW27289   0.590   3.682  17.240 -0.1961 -0.2821  0.0738
 5276SOL    HW127290   0.556   3.663  17.328 -1.5046 -0.2391 -0.4187
 5276SOL    HW227291   0.546   3.618  17.185  0.4369 -0.5199 -0.1544
 5277SOL     OW27292   1.286   4.322  12.381  0.5302 -0.0365  0.4806
 5277SOL    HW127293   1.326   4.286  12.302 -0.6485  1.0799 -0.6329
 5277SOL    HW227294   1.202   4.278  12.373 -0.2850  1.6464 -0.2051
 5278SOL     OW27295   3.100   3.367   5.532 -0.1482  0.2539  0.4358
 5278SOL    HW127296   3.079   3.353   5.624  1.1898  1.2241  0.9026
 5278SOL    HW227297   3.072   3.291   5.481 -0.8311 -0.1934  1.5023
 5279SOL     OW27298   1.190   1.128   1.597  0.9412 -0.3900  0.2042
 5279SOL    HW127299   1.193   1.046   1.647  2.0986 -1.1280 -1.0578
 5279SOL    HW227300   1.111   1.165   1.635  1.4566  0.5520  0.3456
 5280SOL     OW27301   0.396   4.455   8.647  0.1676 -0.1813 -1.0641
 5280SOL    HW127302   0.360   4.504   8.573  1.3166 -0.7335 -2.0010
 5280SOL    HW227303   0.363   4.502   8.723  2.0063 -0.4724 -0.0845
 5281SOL     OW27304   3.937   0.456  12.789 -0.1863  0.3651  0.1235
 5281SOL    HW127305   3.987   0.458  12.707 -1.0341 -1.3865 -0.4319
 5281SOL    HW227306   4.000   0.475  12.859  2.5157  1.6343 -2.6254
 5282SOL     OW27307   1.315   0.137   3.903  0.0119 -0.7487  0.1273
 5282SOL    HW127308   1.396   0.186   3.891 -0.2276 -0.4918 -0.4182
 5282SOL    HW227309   1.260   0.188   3.963 -1.1598 -0.9449 -0.7840
 5283SOL     OW27310   0.418   2.188   6.385 -0.2704 -0.8535 -0.2755
 5283SOL    HW127311   0.499   2.142   6.363 -0.2055 -0.6735 -0.4202
 5283SOL    HW227312   0.419   2.174   6.480  0.7523  0.6416 -0.0576
 5284SOL     OW27313   3.378   2.098  11.387  0.1145  0.0731 -0.2347
 5284SOL    HW127314   3.440   2.136  11.324 -1.2248  4.0060  0.8202
 5284SOL    HW227315   3.414   2.128  11.470 -1.9440  2.4944 -0.2427
 5285SOL     OW27316   0.503   0.839  12.308 -0.7631 -0.8463  0.4562
 5285SOL    HW127317   0.586   0.834  12.261 -0.0199  2.1136  1.4442
 5285SOL    HW227318   0.482   0.747  12.324 -0.0531 -1.2563 -0.9547
 5286SOL     OW27319   1.694   0.338   7.955 -0.3449 -0.3864  0.2215
 5286SOL    HW127320   1.755   0.283   7.906  0.1123  0.3747 -0.0561
 5286SOL    HW227321   1.743   0.358   8.034  1.2433  0.2963 -0.9331
 5287SOL     OW27322   3.986   4.440   9.112 -0.4733  0.0884 -0.0369
 5287SOL    HW127323   4.066   4.406   9.073  1.2039  1.1033  2.4971
 5287SOL    HW227324   4.011   4.522   9.153  0.5950  0.5713 -1.6694
 5288SOL     OW27325   3.867   0.582   2.492 -0.3900 -0.1216 -0.2383
 5288SOL    HW127326   3.845   0.490   2.480  0.7416 -0.2528 -1.3049
 5288SOL    HW227327   3.847   0.606   2.582  2.1127  0.5001  0.1567
 5289SOL     OW27328   3.853   1.630   7.529  0.1377 -0.0246  0.1984
 5289SOL    HW127329   3.845   1.602   7.438  3.6762 -2.7861  0.7255
 5289SOL    HW227330   3.904   1.710   7.520  0.1256 -0.0083  0.2690
 5290SOL     OW27331   3.043   3.752   9.475  0.3270  0.0697 -0.1718
 5290SOL    HW127332   3.052   3.763   9.569  0.1826  0.6262 -0.2279
 5290SOL    HW227333   3.029   3.657   9.475 -0.0899  0.1349  0.7376
 5291SOL     OW27334   2.466   3.244   0.686 -0.4014 -0.6372  0.3253
 5291SOL    HW127335   2.501   3.234   0.598 -1.5054  0.1415 -0.1948
 5291SOL    HW227336   2.467   3.151   0.708  0.9543 -0.5545  0.6619
 5292SOL     OW27337   0.307   0.314   7.636 -0.3868  0.1731 -0.0873
 5292SOL    HW127338   0.314   0.230   7.589 -0.2386  0.4877 -0.6337
 5292SOL    HW227339   0.398   0.332   7.661 -0.9922  1.5413  1.0817
 5293SOL     OW27340   4.451   3.070   6.198 -0.6084 -0.0278 -0.0882
 5293SOL    HW127341   4.424   3.015   6.125 -1.3858  1.1781 -0.7092
 5293SOL    HW227342   4.482   2.999   6.254  0.4561  1.1971  0.8731
 5294SOL     OW27343   2.288   3.109   7.106  0.1974  0.7127 -0.0007
 5294SOL    HW127344   2.272   3.184   7.163 -0.3478 -0.5867  1.5825
 5294SOL    HW227345   2.249   3.132   7.022  0.2366  1.2003  0.1169
 5295SOL     OW27346   4.447   0.032   8.583 -0.1926 -0.0468  0.0225
 5295SOL    HW127347   4.499   0.059   8.658 -0.5632  1.4073 -0.2261
 5295SOL    HW227348   4.439   0.114   8.534 -2.1651 -0.5007 -0.4162
 5296SOL     OW27349   2.742   2.108   8.248 -0.2766  0.3264 -0.1906
 5296SOL    HW127350   2.806   2.106   8.319  1.2293  1.9365 -1.5424
 5296SOL    HW227351   2.740   2.200   8.224 -0.1159  0.0119 -1.4156
 5297SOL     OW27352   0.840   1.409   7.258  0.0660 -0.1232 -0.3790
 5297SOL    HW127353   0.810   1.483   7.205 -0.4678  0.2410  0.4338
 5297SOL    HW227354   0.929   1.400   7.224 -0.5779 -1.2560 -1.7951
 5298SOL     OW27355   3.762   0.881   6.283  0.1148  0.4644 -0.3764
 5298SOL    HW127356   3.729   0.954   6.231  1.2683  0.5287 -1.0176
 5298SOL    HW227357   3.849   0.878   6.243  0.7988  2.0751  1.0261
 5299SOL     OW27358   0.462   4.285  15.148  0.0041  0.1894  0.0458
 5299SOL    HW127359   0.528   4.345  15.182  0.5531  0.9359 -2.4081
 5299SOL    HW227360   0.496   4.205  15.189  1.7355  1.7924  1.7328
 5300SOL     OW27361   2.627   2.707   5.479 -0.3400 -0.1302  0.2732
 5300SOL    HW127362   2.711   2.729   5.439  0.4894 -0.8359  1.6386
 5300SOL    HW227363   2.632   2.611   5.475 -0.1702 -0.1415  0.7506
 5301SOL     OW27364   0.675   4.322  14.266  0.5038 -0.2791 -0.7664
 5301SOL    HW127365   0.707   4.233  14.252  1.0504  0.0531 -1.6833
 5301SOL    HW227366   0.683   4.348  14.174 -0.3342 -1.0238 -1.0481
 5302SOL     OW27367   3.348   3.942   3.600  0.3402 -0.1528 -0.0078
 5302SOL    HW127368   3.422   3.947   3.661 -0.1715 -0.6338  0.6618
 5302SOL    HW227369   3.333   3.848   3.607 -0.3320 -0.0196  0.3935
 5303SOL     OW27370   1.685   4.673  14.559  0.0469  0.0996 -0.1806
 5303SOL    HW127371   1.736   4.667  14.478  0.2785  2.1451 -0.1784
 5303SOL    HW227372   1.735   0.008  14.616 -1.4298  0.0695  1.1691
 5304SOL     OW27373   1.348   1.663  16.244  0.2907 -0.1907 -0.4698
 5304SOL    HW127374   1.326   1.756  16.237 -1.2433 -0.4507  0.7507
 5304SOL    HW227375   1.320   1.629  16.159 -1.1893 -0.0006 -0.0574
 5305SOL     OW27376   3.431   1.624   7.962 -0.1575 -0.6989  0.3605
 5305SOL    HW127377   3.373   1.552   7.938 -0.7329 -0.0890 -0.0844
 5305SOL    HW227378   3.512   1.574   7.963  0.7982  0.8292 -1.4524
 5306SOL     OW27379   1.472   1.800   1.087 -0.3944 -0.2801  0.0692
 5306SOL    HW127380   1.528   1.764   1.156  0.5151 -1.3530 -1.2267
 5306SOL    HW227381   1.525   1.790   1.008 -1.2414 -1.5345 -0.3327
 5307SOL     OW27382   0.745   0.940   2.223  0.5121 -0.1117  0.2477
 5307SOL    HW127383   0.797   0.866   2.191  1.6062  0.6706  0.2146
 5307SOL    HW227384   0.782   0.958   2.310 -0.0102  1.1506  0.2078
 5308SOL     OW27385   3.498   3.846  15.953 -0.8361  0.0822  0.7253
 5308SOL    HW127386   3.451   3.910  15.900  0.9992  0.0704 -0.9159
 5308SOL    HW227387   3.509   3.774  15.890 -1.9904  2.0714 -1.7520
 5309SOL     OW27388   2.970   2.732   4.838  0.1480  0.2082  0.4865
 5309SOL    HW127389   3.058   2.768   4.853 -0.9348  2.6409  1.0840
 5309SOL    HW227390   2.915   2.766   4.909  0.1963  2.6310 -0.6482
 5310SOL     OW27391   2.840   2.715   2.575  0.2310 -0.0071  0.3854
 5310SOL    HW127392   2.911   2.720   2.510  1.5240  0.1934  1.8142
 5310SOL    HW227393   2.893   2.736   2.652 -0.6254  0.0132  0.9633
 5311SOL     OW27394   3.057   3.782   3.085 -0.6670 -0.4003  0.1510
 5311SOL    HW127395   2.971   3.807   3.052 -0.4115 -0.9089 -0.8674
 5311SOL    HW227396   3.091   3.720   3.022  0.1104 -1.9603  2.0958
 5312SOL     OW27397   0.407   4.523  11.658  0.1901 -0.3359 -0.3925
 5312SOL    HW127398   0.480   4.473  11.622  0.5315  1.1026 -1.6790
 5312SOL    HW227399   0.401   4.501  11.751  0.1073  3.4291  0.4790
 5313SOL     OW27400   0.386   4.097   6.420  0.3405  0.3660 -0.9021
 5313SOL    HW127401   0.426   4.015   6.449 -0.6363  1.0167  2.2744
 5313SOL    HW227402   0.300   4.078   6.457  0.7951  0.1161  0.0354
 5314SOL     OW27403   0.061   3.125   9.268  0.1011  0.1981 -0.0618
 5314SOL    HW127404   0.110   3.150   9.189 -0.2995 -0.1928 -0.4314
 5314SOL    HW227405   0.050   3.210   9.309 -2.9521 -0.3287  0.1685
 5315SOL     OW27406   2.980   1.927  10.101 -0.5785 -0.0579  0.0664
 5315SOL    HW127407   3.066   1.922  10.140  0.4976  0.9499 -2.1586
 5315SOL    HW227408   2.995   2.001  10.042  0.5083  0.7588  1.4030
 5316SOL     OW27409   3.712   4.404   5.667  0.0656 -0.2160  0.0804
 5316SOL    HW127410   3.762   4.324   5.685 -0.6072 -0.4733  0.7919
 5316SOL    HW227411   3.719   4.454   5.747  0.4844 -0.4117  0.1704
 5317SOL     OW27412   0.768   2.084   6.981  0.5270  0.1061 -0.1478
 5317SOL    HW127413   0.750   2.005   6.930 -1.4321  0.6302 -0.2875
 5317SOL    HW227414   0.850   2.070   7.028  0.1724  1.6380  0.9453
 5318SOL     OW27415   2.123   1.896   9.627  0.0123  0.1439  0.4555
 5318SOL    HW127416   2.161   1.855   9.550 -2.5567 -0.6654 -0.3535
 5318SOL    HW227417   2.063   1.832   9.663  0.1102 -0.4164 -0.3871
 5319SOL     OW27418   1.241   0.020  12.067  0.2456 -0.4977  0.2014
 5319SOL    HW127419   1.178   4.678  12.102 -0.1277  1.5475  3.2921
 5319SOL    HW227420   1.325   4.697  12.081  0.6623  0.2410  0.0789
 5320SOL     OW27421   1.589   4.161   8.248 -0.5466 -0.5587 -1.4601
 5320SOL    HW127422   1.583   4.222   8.321 -1.2362  1.2606 -3.0584
 5320SOL    HW227423   1.680   4.131   8.256 -1.0403 -2.0549 -1.3504
 5321SOL     OW27424   3.954   2.627  12.682 -0.0412 -0.5298 -1.1733
 5321SOL    HW127425   3.969   2.675  12.764  0.5038 -2.0763 -0.3809
 5321SOL    HW227426   3.866   2.660  12.659  0.2598 -0.0612 -1.6617
 5322SOL     OW27427   3.645   1.558   6.651 -0.4791  0.0376 -0.2214
 5322SOL    HW127428   3.624   1.651   6.659 -2.4125 -0.8044  4.4742
 5322SOL    HW227429   3.613   1.529   6.737  1.1016  0.4830  0.5307
 5323SOL     OW27430   0.715   3.068   8.263  0.1184 -0.1356  0.2001
 5323SOL    HW127431   0.781   3.026   8.208  2.9629  0.6557  3.0061
 5323SOL    HW227432   0.763   3.147   8.289  0.3133 -0.5396  1.0741
 5324SOL     OW27433   0.377   2.707   5.098  0.0921 -0.5909  0.0762
 5324SOL    HW127434   0.286   2.680   5.084 -0.5708  2.8455 -2.1467
 5324SOL    HW227435   0.393   2.773   5.031 -0.2289  0.6994  1.2747
 5325SOL     OW27436   0.833   4.484   6.387  0.0242  0.0338  0.4545
 5325SOL    HW127437   0.801   4.408   6.338 -0.7994  0.1864  0.7609
 5325SOL    HW227438   0.762   4.547   6.375 -1.2456 -1.5068 -0.0562
 5326SOL     OW27439   1.775   2.402   7.944 -0.3206 -0.1234 -0.2044
 5326SOL    HW127440   1.744   2.326   7.992  0.8503 -0.9693 -0.7659
 5326SOL    HW227441   1.770   2.362   7.857  1.7246  0.4848 -0.6181
 5327SOL     OW27442   4.590   2.809  10.914  0.3917 -0.4428 -0.7036
 5327SOL    HW127443   4.530   2.750  10.868 -0.1646 -1.4858  1.3763
 5327SOL    HW227444   4.679   2.788  10.884 -0.8007 -2.9393 -2.5023
 5328SOL     OW27445   4.285   1.920  10.776  0.6265 -0.1817  0.1906
 5328SOL    HW127446   4.217   1.963  10.829  1.8929  2.3271 -0.1899
 5328SOL    HW227447   4.301   1.840  10.825  2.7222 -0.5900 -1.1524
 5329SOL     OW27448   3.345   2.781   2.762 -0.5389 -0.0412 -0.3092
 5329SOL    HW127449   3.397   2.792   2.841  0.4267  0.7429 -1.0516
 5329SOL    HW227450   3.297   2.698   2.770  0.4609 -0.5867 -0.0405
 5330SOL     OW27451   4.550   2.809   6.920 -0.3090  0.3053  0.0288
 5330SOL    HW127452   4.454   2.818   6.918 -0.1761  0.9793 -2.8008
 5330SOL    HW227453   4.558   2.731   6.865  1.1264  0.2678  0.2962
 5331SOL     OW27454   3.534   1.802   2.723 -0.0197 -0.7041  0.2549
 5331SOL    HW127455   3.560   1.850   2.644 -0.1109 -1.4358 -0.2255
 5331SOL    HW227456   3.449   1.844   2.730 -0.6278 -1.6399 -1.4553
 5332SOL     OW27457   2.509   4.446   8.974  0.1459 -0.1647  0.7312
 5332SOL    HW127458   2.536   4.456   8.883  0.3059  0.4347  0.8448
 5332SOL    HW227459   2.588   4.438   9.028  1.0731 -1.8429 -0.8757
 5333SOL     OW27460   4.060   3.020   9.064  0.0833  0.0083 -0.3678
 5333SOL    HW127461   4.063   3.010   9.159 -1.9551  0.9910 -0.1908
 5333SOL    HW227462   4.146   2.986   9.038  1.3076  3.0018 -0.2874
 5334SOL     OW27463   2.789   3.937   0.436  0.1863  0.1771 -0.0180
 5334SOL    HW127464   2.823   3.848   0.437  0.4906  0.2939 -0.1777
 5334SOL    HW227465   2.755   3.947   0.347  2.6984  0.0140 -0.9782
 5335SOL     OW27466   0.185   3.388   2.838  0.0420 -0.1478  0.5117
 5335SOL    HW127467   0.199   3.459   2.776  0.2827  0.1429  0.8957
 5335SOL    HW227468   0.248   3.326   2.802 -1.4087 -0.9632 -0.6188
 5336SOL     OW27469   3.397   0.725   1.343 -0.1164  0.2761  0.3013
 5336SOL    HW127470   3.336   0.672   1.394 -0.6969  0.0547 -0.6281
 5336SOL    HW227471   3.462   0.721   1.414 -0.4557 -0.5343  0.5639
 5337SOL     OW27472   3.812   1.399   4.870  0.2584  0.3066  0.3332
 5337SOL    HW127473   3.777   1.459   4.804 -0.5914 -0.3377  0.1988
 5337SOL    HW227474   3.738   1.346   4.899 -0.6670  1.2930 -0.2531
 5338SOL     OW27475   1.285   4.271  11.539  0.2792 -0.3672 -1.0076
 5338SOL    HW127476   1.190   4.281  11.550  0.5114  1.3026 -0.6241
 5338SOL    HW227477   1.283   4.181  11.505 -0.7710 -0.1289 -1.5819
 5339SOL     OW27478   2.665   4.340  15.838  0.9340 -0.2351 -0.2271
 5339SOL    HW127479   2.712   4.366  15.917  0.5594 -0.0562 -0.0668
 5339SOL    HW227480   2.592   4.399  15.823 -1.4129 -3.1144 -0.2542
 5340SOL     OW27481   3.246   2.128   7.158 -0.2013 -0.4256  0.1365
 5340SOL    HW127482   3.235   2.052   7.215  2.1286 -1.2362 -0.5105
 5340SOL    HW227483   3.313   2.177   7.205 -0.2411 -0.7277  0.5095
 5341SOL     OW27484   3.991   4.704   7.522  0.5765 -0.8372  0.1456
 5341SOL    HW127485   4.054   4.645   7.480  0.6964  0.0410 -0.8897
 5341SOL    HW227486   3.960   0.041   7.454  0.3016 -1.0271  0.1055
 5342SOL     OW27487   0.015   4.325  10.361 -0.1204  0.2796  0.2887
 5342SOL    HW127488   4.685   4.252  10.396  0.6670 -1.2679 -1.7640
 5342SOL    HW227489   4.698   4.402  10.402 -1.7263 -0.3553 -0.0515
 5343SOL     OW27490   2.143   2.347  11.105 -0.1302  0.4535  0.4557
 5343SOL    HW127491   2.159   2.253  11.105 -0.9333  0.3258 -1.0418
 5343SOL    HW227492   2.121   2.350  11.012 -1.8124 -0.6440  0.8208
 5344SOL     OW27493   2.720   1.849  14.475  0.4551 -0.2180 -0.1549
 5344SOL    HW127494   2.671   1.801  14.542  0.5297 -0.2398 -0.1163
 5344SOL    HW227495   2.723   1.787  14.401  1.3515 -0.7004  0.2834
 5345SOL     OW27496   3.824   2.805   6.568  0.2292  0.2568  0.5234
 5345SOL    HW127497   3.899   2.862   6.587  1.1994 -1.4947  1.9168
 5345SOL    HW227498   3.856   2.760   6.490 -1.2011  0.7694 -0.3621
 5346SOL     OW27499   3.242   2.244   8.603  0.3942  0.7522 -0.5143
 5346SOL    HW127500   3.293   2.270   8.526  0.9905 -2.1582 -1.0661
 5346SOL    HW227501   3.185   2.321   8.611  0.2102  0.2549  3.0265
 5347SOL     OW27502   2.142   2.522   3.368  0.0899 -0.3440  0.0665
 5347SOL    HW127503   2.089   2.545   3.444 -0.2169  0.3103 -0.3482
 5347SOL    HW227504   2.073   2.531   3.302  1.0690  1.3903 -0.7187
 5348SOL     OW27505   2.796   3.578   4.886 -0.0260 -0.0623  0.0651
 5348SOL    HW127506   2.758   3.578   4.798  0.2479  0.6326 -0.0576
 5348SOL    HW227507   2.890   3.589   4.871  0.3505 -1.7520  1.2753
 5349SOL     OW27508   2.738   0.588   1.572  0.1068  0.1104 -0.2144
 5349SOL    HW127509   2.777   0.610   1.488  0.1835 -0.5024 -0.3391
 5349SOL    HW227510   2.821   0.589   1.620 -0.8332  0.5002  1.4166
 5350SOL     OW27511   2.548   4.036   8.915 -0.3814 -0.4905 -0.1296
 5350SOL    HW127512   2.633   4.007   8.881  0.3148  2.2071 -0.6743
 5350SOL    HW227513   2.578   4.054   9.003  0.8412  0.0797 -0.6716
 5351SOL     OW27514   0.499   1.990  14.917 -0.0791 -0.1728 -0.0689
 5351SOL    HW127515   0.519   2.019  14.828  2.6524 -0.9944  0.2838
 5351SOL    HW227516   0.460   1.903  14.904  1.1334 -0.9225  1.2242
 5352SOL     OW27517   4.071   4.525   2.484  0.1260 -0.0891  0.3454
 5352SOL    HW127518   4.148   4.508   2.431  0.3809  0.4621  0.5389
 5352SOL    HW227519   4.045   4.437   2.509 -1.1680  0.3566  0.6148
 5353SOL     OW27520   4.096   4.476   5.901  0.0923 -0.2560  0.0286
 5353SOL    HW127521   4.106   4.411   5.832  0.3277 -1.8604  1.5474
 5353SOL    HW227522   4.166   4.539   5.886 -0.3562  0.1973 -0.1269
 5354SOL     OW27523   0.559   3.832   0.797 -0.5175 -0.6952  0.0934
 5354SOL    HW127524   0.524   3.830   0.886 -0.9562  1.0635 -0.0461
 5354SOL    HW227525   0.513   3.906   0.758  0.2235  0.8290  2.1097
 5355SOL     OW27526   0.583   2.979   4.643 -0.5447  0.3660  0.0629
 5355SOL    HW127527   0.624   2.963   4.728  0.6926  1.3196 -0.3566
 5355SOL    HW227528   0.617   3.068   4.634 -0.5269  0.0423 -3.1553
 5356SOL     OW27529   4.330   1.143  14.046 -0.5551  0.1660  0.0581
 5356SOL    HW127530   4.250   1.189  14.070 -0.6767  0.2068 -0.4229
 5356SOL    HW227531   4.364   1.205  13.981 -0.5555 -1.0186 -1.0756
 5357SOL     OW27532   1.835   1.314  10.778  0.6379  0.3392 -0.5220
 5357SOL    HW127533   1.785   1.232  10.773  0.3014  0.4946  0.1642
 5357SOL    HW227534   1.783   1.385  10.742 -0.2602 -0.0420  0.0144
 5358SOL     OW27535   0.689   2.325   6.692  0.2943 -0.0705  0.3667
 5358SOL    HW127536   0.663   2.411   6.662 -0.2592 -0.4952 -0.3706
 5358SOL    HW227537   0.622   2.269   6.653 -0.8260  1.3004  0.3276
 5359SOL     OW27538   1.821   1.399  11.499  0.2155 -0.6367  0.1476
 5359SOL    HW127539   1.867   1.354  11.429  3.2449  1.4908  0.7918
 5359SOL    HW227540   1.728   1.377  11.491  0.7405 -2.6118 -0.4543
 5360SOL     OW27541   3.823   0.205   1.297 -0.5647  0.7152  0.0223
 5360SOL    HW127542   3.771   0.278   1.263  0.2283  1.0321 -0.5237
 5360SOL    HW227543   3.779   0.126   1.266  1.9042 -0.3635 -0.7869
 5361SOL     OW27544   3.030   1.525   8.452 -0.2666 -0.5211 -0.0955
 5361SOL    HW127545   3.056   1.604   8.499  1.1059 -1.8985  1.4663
 5361SOL    HW227546   3.119   1.509   8.423 -0.9124 -0.5600 -2.0483
 5362SOL     OW27547   1.218   2.447  12.234 -0.1168 -0.3754 -0.0335
 5362SOL    HW127548   1.161   2.459  12.158  1.9371  0.6049 -1.3902
 5362SOL    HW227549   1.294   2.503  12.218  0.0958 -1.3333 -2.4067
 5363SOL     OW27550   2.119   3.604  13.196 -0.2683 -0.2524 -0.1449
 5363SOL    HW127551   2.100   3.516  13.166 -1.4967 -0.0651  0.0716
 5363SOL    HW227552   2.203   3.627  13.157 -0.5199 -1.7320 -1.5390
 5364SOL     OW27553   4.081   0.109   1.279  0.2216 -0.3091  0.1281
 5364SOL    HW127554   4.068   0.022   1.318 -0.4092  0.3312  1.3266
 5364SOL    HW227555   3.990   0.138   1.282  0.1879 -0.4214  0.2309
 5365SOL     OW27556   4.298   0.471   5.109  0.2133  0.2569 -0.3654
 5365SOL    HW127557   4.297   0.530   5.185  0.7818 -0.1072 -0.0748
 5365SOL    HW227558   4.383   0.483   5.068 -0.2057  0.1623 -1.2610
 5366SOL     OW27559   0.809   2.351   9.120 -0.0490  0.4851 -0.0995
 5366SOL    HW127560   0.866   2.384   9.190  1.3042  0.0007 -0.9731
 5366SOL    HW227561   0.724   2.395   9.125 -0.4204 -0.5325  2.6779
 5367SOL     OW27562   1.225   0.394  11.481 -0.0102  0.7503 -0.3910
 5367SOL    HW127563   1.167   0.470  11.488 -1.4805 -0.4345  0.0697
 5367SOL    HW227564   1.176   0.345  11.415  0.3418 -0.5946  0.3654
 5368SOL     OW27565   1.689   0.321   8.435 -0.0284 -0.2054  0.6606
 5368SOL    HW127566   1.721   0.281   8.516  0.6453 -0.4959  0.2473
 5368SOL    HW227567   1.707   0.411   8.463  2.6160 -0.6122  0.2892
 5369SOL     OW27568   3.912   3.535  11.268 -0.0203  0.0265 -0.2345
 5369SOL    HW127569   3.913   3.613  11.212  0.4050  0.5380  0.4771
 5369SOL    HW227570   4.005   3.527  11.289 -0.4547 -0.5587  1.4218
 5370SOL     OW27571   4.273   3.623   3.541  0.4077 -0.3340 -0.1621
 5370SOL    HW127572   4.327   3.548   3.566 -0.1802 -0.6814  0.0948
 5370SOL    HW227573   4.208   3.582   3.483  1.9938 -0.7256 -1.6382
 5371SOL     OW27574   2.968   2.418   3.449  0.3955  0.3938 -0.0899
 5371SOL    HW127575   2.952   2.468   3.529  2.3002  0.2613  0.3720
 5371SOL    HW227576   2.882   2.381   3.428  0.3707  0.4713 -0.1243
 5372SOL     OW27577   0.007   4.517   3.238  0.4883  0.2176 -0.0646
 5372SOL    HW127578   4.647   4.548   3.200 -0.0884  0.5032  1.3980
 5372SOL    HW227579   4.700   4.442   3.291  0.1215  0.2518 -0.2197
 5373SOL     OW27580   2.680   0.558  11.208 -0.4031 -0.3381  0.4295
 5373SOL    HW127581   2.667   0.485  11.269 -0.6553 -0.2810  0.4432
 5373SOL    HW227582   2.635   0.628  11.254  1.1159 -0.1459  1.6247
 5374SOL     OW27583   0.445   1.123  13.594 -0.5748  0.7291  0.5273
 5374SOL    HW127584   0.482   1.115  13.683 -1.4059 -1.9522  0.6384
 5374SOL    HW227585   0.438   1.218  13.595  1.1423  0.8621 -0.6007
 5375SOL     OW27586   1.061   3.211   3.313  0.8584 -0.2736 -0.1976
 5375SOL    HW127587   1.140   3.238   3.361 -0.6371 -0.9413  2.6654
 5375SOL    HW227588   1.069   3.119   3.339 -1.6750 -0.2908  0.5410
 5376SOL     OW27589   1.181   3.585  17.544  0.0307  0.2856 -0.4196
 5376SOL    HW127590   1.230   3.590  17.626  0.5749  1.5446 -0.8235
 5376SOL    HW227591   1.090   3.574  17.571  0.5577  1.7405  1.9471
 5377SOL     OW27592   1.807   2.523  15.909 -0.3364  0.2113  0.1306
 5377SOL    HW127593   1.774   2.489  15.827 -1.6706  0.0857  0.7254
 5377SOL    HW227594   1.901   2.528  15.888  0.2489  1.6421  3.0538
 5378SOL     OW27595   3.429   4.053   2.421 -0.8983 -0.2038 -0.1923
 5378SOL    HW127596   3.511   4.081   2.460 -1.1321 -1.0658  0.9239
 5378SOL    HW227597   3.362   4.103   2.467 -1.6530 -1.1811 -0.2279
 5379SOL     OW27598   1.574   2.112  11.497 -0.1936  0.7434 -0.0480
 5379SOL    HW127599   1.667   2.111  11.519  0.2294  0.4898 -1.8525
 5379SOL    HW227600   1.568   2.098  11.402 -0.4308  0.2455  0.0381
 5380SOL     OW27601   2.972   2.001  14.475  0.2538 -0.4183 -0.3250
 5380SOL    HW127602   2.899   1.955  14.432 -1.3846  0.0067  2.0386
 5380SOL    HW227603   3.020   1.926  14.511 -3.0965 -1.7028  1.4509
 5381SOL     OW27604   2.693   2.443   4.749 -0.1310 -0.5029 -0.3619
 5381SOL    HW127605   2.729   2.421   4.835  0.8220 -1.9986 -1.1297
 5381SOL    HW227606   2.709   2.537   4.749 -0.2699 -0.4795  0.8792
 5382SOL     OW27607   0.667   3.242  13.735 -0.1714 -0.7291  0.6444
 5382SOL    HW127608   0.651   3.303  13.807  1.5186  1.3102 -0.6857
 5382SOL    HW227609   0.576   3.247  13.706  0.6365  2.5340 -1.3379
 5383SOL     OW27610   4.611   1.970  15.515 -0.3369 -0.2350 -0.3735
 5383SOL    HW127611   4.591   2.011  15.599 -1.0961  1.2758 -1.2886
 5383SOL    HW227612   4.696   2.012  15.502 -1.4409  1.5686 -1.7671
 5384SOL     OW27613   0.419   4.274   6.201 -0.4320  0.1712 -0.1165
 5384SOL    HW127614   0.324   4.282   6.195 -0.4140 -0.6054 -1.4737
 5384SOL    HW227615   0.426   4.219   6.279 -0.9285  1.0970  0.5731
 5385SOL     OW27616   4.022   1.634   9.299 -0.2885  0.1477  0.1046
 5385SOL    HW127617   3.939   1.651   9.344 -1.0653 -2.5292 -0.3038
 5385SOL    HW227618   3.991   1.564   9.240  0.4719  0.7581 -1.0063
 5386SOL     OW27619   0.889   3.393   7.415 -0.6255  0.3500 -0.6066
 5386SOL    HW127620   0.936   3.474   7.396 -0.9972  0.5052 -0.8794
 5386SOL    HW227621   0.948   3.330   7.374 -0.1000  0.2961  0.2401
 5387SOL     OW27622   3.236   2.586   7.376 -0.3929 -0.4035 -0.4219
 5387SOL    HW127623   3.219   2.680   7.382  1.0821 -0.0694 -1.4694
 5387SOL    HW227624   3.330   2.577   7.360 -0.0882  0.9484  0.7116
 5388SOL     OW27625   0.923   0.757  17.189 -0.6383  0.0303  0.3346
 5388SOL    HW127626   0.999   0.805  17.222  0.0093 -0.0039 -1.1356
 5388SOL    HW227627   0.947   0.664  17.194  0.8795  0.5155  2.0184
 5389SOL     OW27628   3.696   0.990   4.936 -0.3983  0.1390 -0.2707
 5389SOL    HW127629   3.692   0.977   5.031  0.7404 -1.7763 -0.4709
 5389SOL    HW227630   3.791   1.003   4.931 -0.4190  1.1644  1.9299
 5390SOL     OW27631   2.344   0.139   3.821 -0.0684  0.0881 -0.0010
 5390SOL    HW127632   2.276   0.135   3.888 -2.8124 -1.5648 -2.8694
 5390SOL    HW227633   2.391   0.220   3.844  0.5530 -0.4981  0.8046
 5391SOL     OW27634   0.700   1.788   7.773 -0.6836  0.6569 -0.0854
 5391SOL    HW127635   0.641   1.846   7.724 -2.0013 -1.2977 -0.8450
 5391SOL    HW227636   0.712   1.710   7.719  2.4266  0.5613  0.7409
 5392SOL     OW27637   0.382   3.625   1.251 -0.3202  0.1943  0.5988
 5392SOL    HW127638   0.392   3.700   1.310 -0.5464  1.7963 -1.4004
 5392SOL    HW227639   0.379   3.548   1.307 -0.5427  0.8091  1.4376
 5393SOL     OW27640   1.666   1.488   2.214 -0.2549 -0.3228 -0.3980
 5393SOL    HW127641   1.668   1.393   2.214  1.3212 -0.2894  0.8810
 5393SOL    HW227642   1.729   1.519   2.279  0.5032 -1.0569 -0.7897
 5394SOL     OW27643   3.417   0.530   4.367 -0.0087 -0.1158  0.1404
 5394SOL    HW127644   3.331   0.569   4.352  0.8942  1.5594 -0.7234
 5394SOL    HW227645   3.395   0.452   4.418 -0.4646 -1.8968 -2.7454
 5395SOL     OW27646   3.948   3.801   6.118 -0.8575  0.5491  0.2716
 5395SOL    HW127647   4.029   3.813   6.168 -0.4094 -1.6146  0.0513
 5395SOL    HW227648   3.922   3.720   6.161 -1.8551  0.3928 -0.6314
 5396SOL     OW27649   2.692   2.507   5.750  0.0909  1.1459  0.6981
 5396SOL    HW127650   2.697   2.472   5.839  4.3937  0.6293  0.2245
 5396SOL    HW227651   2.653   2.592   5.771  2.4451  2.4623 -0.3270
 5397SOL     OW27652   2.105   4.693   2.066 -0.1242 -0.1165 -0.1739
 5397SOL    HW127653   2.048   0.001   2.137  1.4802  1.2399  0.5241
 5397SOL    HW227654   2.073   0.020   1.990  1.6696 -1.9966 -2.1372
 5398SOL     OW27655   1.045   3.787   6.662 -0.4700 -0.4023 -0.1102
 5398SOL    HW127656   1.086   3.771   6.577 -0.6236  1.3347 -0.5153
 5398SOL    HW227657   0.958   3.760   6.634 -0.9409  1.4841 -0.4723
 5399SOL     OW27658   1.458   0.037  12.429  0.6656 -0.1011 -0.3788
 5399SOL    HW127659   1.526   0.095  12.462 -1.2094  1.5103  0.6454
 5399SOL    HW227660   1.422   0.093  12.360  1.0007 -1.1997 -1.4360
 5400SOL     OW27661   2.296   2.856   7.425 -0.3945 -0.0503 -0.0470
 5400SOL    HW127662   2.383   2.819   7.412  0.0508  0.4805  1.4370
 5400SOL    HW227663   2.265   2.839   7.514 -3.8160  1.7137 -0.9141
 5401SOL     OW27664   2.690   0.238   5.404 -0.0024 -0.4366  0.3133
 5401SOL    HW127665   2.693   0.206   5.314 -0.1338  1.2590 -0.2855
 5401SOL    HW227666   2.656   0.327   5.396  0.2314 -0.4800 -1.2028
 5402SOL     OW27667   3.892   1.461  13.187 -0.2687  0.1994 -0.0024
 5402SOL    HW127668   3.812   1.465  13.135 -1.0323  1.7653  1.3094
 5402SOL    HW227669   3.855   1.493  13.269 -0.1790 -1.3102  0.6374
 5403SOL     OW27670   3.676   3.323  13.297 -0.5496  0.0481  0.1162
 5403SOL    HW127671   3.613   3.306  13.227  0.0395 -1.8758  0.0608
 5403SOL    HW227672   3.755   3.292  13.253  0.5308  0.0720  2.0100
 5404SOL     OW27673   1.641   2.853   7.873  0.1219 -0.6759 -0.2053
 5404SOL    HW127674   1.698   2.787   7.912  1.6879 -0.2271 -1.7479
 5404SOL    HW227675   1.656   2.836   7.780  1.3913  1.1638 -0.3409
 5405SOL     OW27676   2.160   3.334   7.689 -0.5054 -0.2011  0.8041
 5405SOL    HW127677   2.135   3.274   7.759  2.8820 -1.2430  1.1206
 5405SOL    HW227678   2.130   3.303   7.604  0.3529 -2.5853  1.3681
 5406SOL     OW27679   4.242   4.706   7.103  0.3888 -0.1162  0.3037
 5406SOL    HW127680   4.243   4.642   7.032  1.7081  0.7292 -0.4364
 5406SOL    HW227681   4.223   0.067   7.060 -0.8346  0.4985  2.0433
 5407SOL     OW27682   3.277   2.314   3.967  0.2642 -0.3050  0.4353
 5407SOL    HW127683   3.338   2.270   3.907  0.3521  1.1986 -0.5503
 5407SOL    HW227684   3.277   2.406   3.941 -0.4730 -0.3511  0.2846
 5408SOL     OW27685   0.049   0.077   8.489  0.1741  0.0379  0.1766
 5408SOL    HW127686   0.048   0.128   8.570  0.8612 -0.1874  0.3250
 5408SOL    HW227687   0.060   4.711   8.524 -1.1347 -0.4320 -0.6050
 5409SOL     OW27688   4.594   3.132  10.187 -0.5078  0.6769 -0.6286
 5409SOL    HW127689   4.579   3.221  10.219 -0.8897 -0.7942  3.1877
 5409SOL    HW227690   4.618   3.146  10.095  0.8707 -1.9033 -0.6436
 5410SOL     OW27691   1.968   4.634   2.768  0.3012  0.0487  0.3678
 5410SOL    HW127692   2.053   4.605   2.736  1.1622  2.0149  0.9063
 5410SOL    HW227693   1.987   4.671   2.854  2.9080  0.1712 -0.2715
 5411SOL     OW27694   2.128   0.364  14.855  0.0209 -0.0697 -0.0070
 5411SOL    HW127695   2.196   0.368  14.921 -1.6149 -0.4610  1.7186
 5411SOL    HW227696   2.125   0.455  14.825 -0.7178  0.1240  0.6361
 5412SOL     OW27697   0.716   3.906   2.959 -0.3795 -0.8708 -0.0682
 5412SOL    HW127698   0.667   3.836   2.916 -0.5125  0.1007 -1.4840
 5412SOL    HW227699   0.644   3.932   3.016 -0.0123 -0.1977  0.0816
 5413SOL     OW27700   0.276   2.221  10.403  0.4381 -0.1375 -0.0213
 5413SOL    HW127701   0.185   2.238  10.380  0.4745  3.0529  2.1559
 5413SOL    HW227702   0.269   2.147  10.463 -1.0637 -1.1115 -1.4264
 5414SOL     OW27703   3.277   4.694  11.844  0.1730  0.4405 -0.3349
 5414SOL    HW127704   3.265   4.611  11.797 -0.7769  2.0347 -2.9117
 5414SOL    HW227705   3.328   0.009  11.773  0.4260  1.4217  0.3624
 5415SOL     OW27706   3.863   1.298  10.045  0.3016  0.2269  0.6252
 5415SOL    HW127707   3.838   1.385  10.077 -0.7797 -0.6612  2.1949
 5415SOL    HW227708   3.926   1.290  10.115  1.0883 -1.3456 -0.2768
 5416SOL     OW27709   2.215   3.459  13.399 -0.0884  0.2516  0.3387
 5416SOL    HW127710   2.242   3.495  13.484  2.5515  2.4700 -1.4469
 5416SOL    HW227711   2.161   3.522  13.351 -2.6276 -1.5227  0.8479
 5417SOL     OW27712   4.722   4.263   5.189  0.5808  0.7189 -0.0709
 5417SOL    HW127713   4.653   4.218   5.238 -0.9164  1.2818 -1.6582
 5417SOL    HW227714   4.686   4.351   5.193 -1.3226 -0.0330 -0.6855
 5418SOL     OW27715   2.988   3.667   8.882 -0.0906 -0.0930  0.1379
 5418SOL    HW127716   2.945   3.582   8.869 -1.2657  0.5704 -0.2799
 5418SOL    HW227717   2.965   3.682   8.974  1.4436 -0.0846  0.5153
 5419SOL     OW27718   1.872   4.220  15.301 -0.1744 -0.8278 -0.1602
 5419SOL    HW127719   1.856   4.210  15.208  1.1758 -1.4810 -0.3312
 5419SOL    HW227720   1.794   4.268  15.329  2.1773  1.1267  3.0552
 5420SOL     OW27721   2.722   0.322   4.048 -0.2241 -0.4294  0.7785
 5420SOL    HW127722   2.755   0.292   3.963 -0.2289  1.7768 -0.0090
 5420SOL    HW227723   2.737   0.245   4.102 -0.1700 -1.3845 -0.6031
 5421SOL     OW27724   0.924   1.541   5.204  0.5438  0.6456  0.0030
 5421SOL    HW127725   0.962   1.462   5.166 -0.6192 -0.4197  1.0634
 5421SOL    HW227726   0.831   1.526   5.186 -0.1725  2.1000  2.5073
 5422SOL     OW27727   1.126   1.905   5.647  0.0574  0.4769  0.1128
 5422SOL    HW127728   1.039   1.938   5.668 -0.4093 -1.0728  0.5619
 5422SOL    HW227729   1.162   1.886   5.733 -4.6006  0.4456  2.0259
 5423SOL     OW27730   1.241   4.301   8.540  0.3141  0.2791  0.2144
 5423SOL    HW127731   1.334   4.301   8.515 -0.2651  1.7200 -1.9257
 5423SOL    HW227732   1.223   4.207   8.542  0.7364  0.1599 -1.0733
 5424SOL     OW27733   3.220   4.035  15.013  0.3178  0.5300 -0.1457
 5424SOL    HW127734   3.179   3.953  15.039 -1.4412  1.7392  0.9367
 5424SOL    HW227735   3.175   4.092  15.076  0.8517 -0.1165  0.8048
 5425SOL     OW27736   2.525   4.368   3.195 -0.3644  0.1836 -0.0465
 5425SOL    HW127737   2.591   4.323   3.247 -0.3894  2.3481  1.9020
 5425SOL    HW227738   2.443   4.330   3.226 -0.6144  2.0370  1.6054
 5426SOL     OW27739   3.328   0.394   7.736 -0.0282 -0.0010  0.3978
 5426SOL    HW127740   3.342   0.299   7.738  1.4803  0.1809 -1.0922
 5426SOL    HW227741   3.383   0.437   7.802  2.4114 -2.4232 -0.0556
 5427SOL     OW27742   2.510   0.881   7.436  0.3176  0.6713 -0.2518
 5427SOL    HW127743   2.587   0.932   7.413  0.3871  0.8902  0.4520
 5427SOL    HW227744   2.467   0.937   7.502  1.4936  0.2450  0.8865
 5428SOL     OW27745   3.096   2.133   2.809 -0.0695 -0.2072 -0.1198
 5428SOL    HW127746   3.037   2.184   2.753 -0.9922  0.6434  1.6378
 5428SOL    HW227747   3.134   2.201   2.866 -1.5295  0.2009  0.3540
 5429SOL     OW27748   0.773   3.877   1.304 -0.0961  0.0429 -0.1670
 5429SOL    HW127749   0.815   3.865   1.390  2.0681  0.5170 -1.1511
 5429SOL    HW227750   0.845   3.919   1.257  0.3044 -0.3088  0.1321
 5430SOL     OW27751   3.283   2.606   4.566  0.3874 -0.2377 -0.4802
 5430SOL    HW127752   3.368   2.644   4.589  1.0945 -1.3732 -1.2448
 5430SOL    HW227753   3.293   2.575   4.476 -0.1645  1.8996 -1.2797
 5431SOL     OW27754   3.926   1.784  17.427 -0.0446 -0.7567  0.6590
 5431SOL    HW127755   3.983   1.860  17.439  0.3499 -0.9418 -0.0371
 5431SOL    HW227756   3.977   1.707  17.454  0.1524 -0.6830  0.4990
 5432SOL     OW27757   3.142   3.871   9.251  0.0105 -0.7629 -0.0755
 5432SOL    HW127758   3.100   3.794   9.214 -1.6228  0.6039 -1.1069
 5432SOL    HW227759   3.134   3.865   9.346  0.9196  1.3012  0.1425
 5433SOL     OW27760   4.488   3.061  14.125  0.0196 -0.2348  0.1346
 5433SOL    HW127761   4.542   3.110  14.064  0.2525  0.3700  0.8309
 5433SOL    HW227762   4.553   3.060  14.195  0.3769 -0.0107 -0.1933
 5434SOL     OW27763   2.164   3.229   8.387 -0.2735 -0.1990  0.6325
 5434SOL    HW127764   2.162   3.323   8.373  0.4426 -0.3173 -0.2979
 5434SOL    HW227765   2.148   3.199   8.297  3.5233  1.2951 -0.5122
 5435SOL     OW27766   3.625   4.444   7.158 -0.1722  0.4719 -0.2923
 5435SOL    HW127767   3.690   4.444   7.228  1.2684 -1.2153 -1.6480
 5435SOL    HW227768   3.656   4.515   7.102  0.8210 -1.5720 -2.3277
 5436SOL     OW27769   3.226   4.364   1.837 -0.0890  0.0943 -0.7376
 5436SOL    HW127770   3.274   4.289   1.871  2.3107  1.4442 -1.1405
 5436SOL    HW227771   3.141   4.320   1.831  0.6870 -1.3200 -1.3332
 5437SOL     OW27772   0.515   2.996   1.901  0.3007 -0.2527  0.2194
 5437SOL    HW127773   0.544   3.038   1.820 -0.4830 -1.0159 -0.4569
 5437SOL    HW227774   0.601   2.990   1.943  0.9987  1.7420 -0.9053
 5438SOL     OW27775   1.794   3.932   3.324  0.1109 -0.2928  0.2034
 5438SOL    HW127776   1.735   3.920   3.398  0.5777 -0.2545  0.5799
 5438SOL    HW227777   1.773   3.866   3.258 -0.7738 -1.2003  1.3785
 5439SOL     OW27778   2.775   1.535   8.662 -0.3978 -0.1319  0.2289
 5439SOL    HW127779   2.793   1.613   8.714 -0.0899  0.3414 -0.5981
 5439SOL    HW227780   2.861   1.521   8.621 -0.8794  0.0074 -0.8139
 5440SOL     OW27781   3.602   4.520   8.291  0.4450  0.3306 -0.1722
 5440SOL    HW127782   3.585   4.602   8.337 -0.6951 -1.4804  2.5770
 5440SOL    HW227783   3.697   4.509   8.283  0.2084 -0.0633 -2.4023
 5441SOL     OW27784   2.778   0.759   7.517 -0.0901  0.3935  0.1824
 5441SOL    HW127785   2.695   0.736   7.476  1.2499 -0.2516 -2.2361
 5441SOL    HW227786   2.763   0.698   7.589 -3.3587  0.3737 -0.5508
 5442SOL     OW27787   0.216   3.115   7.974  0.5275 -0.0585 -0.2422
 5442SOL    HW127788   0.256   3.110   7.888  1.0599 -2.4596  0.1368
 5442SOL    HW227789   0.128   3.078   7.963  0.2811  0.4522  0.0297
 5443SOL     OW27790   2.865   1.726   7.714  0.1519 -0.2816 -0.0476
 5443SOL    HW127791   2.909   1.801   7.754 -1.3865  0.1499  0.8473
 5443SOL    HW227792   2.883   1.660   7.780 -3.2027 -2.2360 -1.0359
 5444SOL     OW27793   1.817   0.855   9.929  0.6747  0.1387 -0.8595
 5444SOL    HW127794   1.773   0.892   9.852 -0.1584  3.0918  1.0230
 5444SOL    HW227795   1.842   0.932   9.980 -0.2444 -0.2793  0.2352
 5445SOL     OW27796   1.843   0.177   1.009 -0.4700 -0.8478  0.3241
 5445SOL    HW127797   1.886   0.137   0.933  2.0571 -1.6570  2.1660
 5445SOL    HW227798   1.903   0.141   1.075 -0.5647 -0.8066  0.4308
 5446SOL     OW27799   2.971   0.221   6.591  0.2075  0.1639 -0.3744
 5446SOL    HW127800   2.923   0.140   6.611  1.5536 -0.9001 -1.3928
 5446SOL    HW227801   3.055   0.187   6.560 -0.1380  0.3691 -1.5301
 5447SOL     OW27802   0.417   0.760   0.342 -0.1853  0.3409 -0.1166
 5447SOL    HW127803   0.425   0.678   0.390  0.9415  1.2904  1.3346
 5447SOL    HW227804   0.487   0.809   0.385  0.4391  0.9530 -1.8021
 5448SOL     OW27805   2.946   2.386   3.736 -0.7405  0.0686  0.1612
 5448SOL    HW127806   2.914   2.296   3.731  0.0043 -0.0842 -1.9342
 5448SOL    HW227807   2.879   2.455   3.743 -1.6145 -0.5481 -2.1638
 5449SOL     OW27808   4.464   0.321   5.646 -0.4859  0.0404  0.4744
 5449SOL    HW127809   4.468   0.416   5.658  1.4100  0.4147 -3.0728
 5449SOL    HW227810   4.370   0.311   5.635 -0.5958  1.9219 -0.3830
 5450SOL     OW27811   2.358   1.026   8.817 -0.1747  0.1288  0.0939
 5450SOL    HW127812   2.266   1.008   8.833  0.4457 -1.8960  1.4037
 5450SOL    HW227813   2.394   0.941   8.793  0.5768  0.1524  1.1644
 5451SOL     OW27814   1.511   0.491   1.089  0.4539 -0.3404  0.2746
 5451SOL    HW127815   1.585   0.448   1.047 -0.0325 -0.4806 -0.4264
 5451SOL    HW227816   1.449   0.515   1.020 -3.0186 -1.5947  2.9073
 5452SOL     OW27817   1.319   3.066   8.788 -0.1996  0.8377 -0.4293
 5452SOL    HW127818   1.365   3.142   8.822  2.2245 -1.6381  1.7252
 5452SOL    HW227819   1.230   3.082   8.821 -0.0429  0.9953 -0.0904
 5453SOL     OW27820   2.329   2.663   2.691  0.4084  0.5714 -0.1724
 5453SOL    HW127821   2.321   2.623   2.604 -0.8347  0.7473 -0.1433
 5453SOL    HW227822   2.344   2.755   2.669  0.7367  0.4549 -0.4373
 5454SOL     OW27823   2.374   2.488   2.913  0.2657  0.8578 -0.2188
 5454SOL    HW127824   2.367   2.562   2.853  0.9465  1.1571  0.0658
 5454SOL    HW227825   2.401   2.421   2.851  2.4059  0.8843  0.6904
 5455SOL     OW27826   0.139   2.805  17.385 -0.6475  0.0656 -0.2499
 5455SOL    HW127827   0.070   2.764  17.332 -2.0639  1.2603  0.6736
 5455SOL    HW227828   0.132   2.897  17.360  1.4393  0.1485 -0.5499
 5456SOL     OW27829   2.868   3.457   8.328 -0.3595  0.1209 -0.0577
 5456SOL    HW127830   2.789   3.414   8.293 -0.0790 -0.6943  0.3196
 5456SOL    HW227831   2.908   3.481   8.244  0.2981 -2.4763 -0.4897
 5457SOL     OW27832   0.640   3.390   8.036  0.5285  0.1529  0.0178
 5457SOL    HW127833   0.735   3.377   8.026  1.2130  4.3016  1.3422
 5457SOL    HW227834   0.604   3.313   7.992 -1.0601  1.1326 -0.3659
 5458SOL     OW27835   1.969   4.085   1.611  0.4273 -0.2815 -0.1633
 5458SOL    HW127836   1.981   4.034   1.531 -1.0034  1.4963 -1.5258
 5458SOL    HW227837   1.947   4.016   1.673 -1.0479 -1.5932 -2.1523
 5459SOL     OW27838   1.514   0.197   1.740  0.1680 -0.2511 -0.7990
 5459SOL    HW127839   1.584   0.147   1.782 -2.8876 -1.2434  3.1101
 5459SOL    HW227840   1.466   0.123   1.703  0.0358 -0.6998  0.2747
 5460SOL     OW27841   3.531   3.084   1.984 -0.2767 -0.3111 -0.0570
 5460SOL    HW127842   3.469   3.140   1.939 -1.3714 -2.6242 -1.4333
 5460SOL    HW227843   3.559   3.027   1.913  3.9740 -0.6967  1.8787
 5461SOL     OW27844   0.067   2.676   0.609 -0.3159 -0.6117  0.0887
 5461SOL    HW127845   0.122   2.649   0.536  0.8925 -2.4046  1.6565
 5461SOL    HW227846   4.711   2.715   0.570  0.0116 -1.7177 -1.6868
 5462SOL     OW27847   2.950   4.280   5.241  0.0826  0.1788 -0.3062
 5462SOL    HW127848   3.029   4.294   5.293 -0.4834 -1.4280  1.0152
 5462SOL    HW227849   2.882   4.268   5.308  1.2259  1.8480  1.1297
 5463SOL     OW27850   0.730   4.297   4.194 -0.1957 -0.0555 -0.4342
 5463SOL    HW127851   0.722   4.359   4.122 -1.6697  1.8219  1.3749
 5463SOL    HW227852   0.709   4.212   4.155  1.5618  0.0948 -1.7303
 5464SOL     OW27853   4.400   2.312  10.604 -0.1029  0.1252  0.6558
 5464SOL    HW127854   4.396   2.216  10.607  0.9152 -0.0598 -4.8595
 5464SOL    HW227855   4.344   2.341  10.532  0.6658  0.6980  0.2859
 5465SOL     OW27856   1.610   3.827   3.492 -0.2290 -0.2135 -0.2239
 5465SOL    HW127857   1.579   3.751   3.543  0.2539 -0.6348 -0.5633
 5465SOL    HW227858   1.608   3.892   3.562  2.3617 -0.0902 -0.2914
 5466SOL     OW27859   3.814   3.269   7.899  0.2912  0.2552  0.1193
 5466SOL    HW127860   3.835   3.203   7.832 -1.0449 -1.4205  1.3545
 5466SOL    HW227861   3.759   3.227   7.964  1.5448  1.4038  1.9188
 5467SOL     OW27862   1.000   0.415   3.382 -0.1788 -0.3524 -0.1484
 5467SOL    HW127863   1.028   0.350   3.446 -1.5407 -0.0941  0.7029
 5467SOL    HW227864   1.085   0.457   3.377 -0.7123  0.6202 -0.9552
 5468SOL     OW27865   4.363   1.925   8.179 -0.7825  0.2646  0.6448
 5468SOL    HW127866   4.445   1.966   8.153 -0.5039 -0.2332  0.7382
 5468SOL    HW227867   4.337   1.980   8.253  1.4079  1.0548  0.8101
 5469SOL     OW27868   1.401   3.197   2.546  0.0887  0.2682  0.3666
 5469SOL    HW127869   1.437   3.145   2.618 -0.9232 -0.7193  0.1396
 5469SOL    HW227870   1.481   3.226   2.502 -1.2920  0.5055 -1.9844
 5470SOL     OW27871   2.697   1.164   3.131  0.7237  0.7296  0.3247
 5470SOL    HW127872   2.724   1.102   3.063 -0.6590 -1.1210  1.4546
 5470SOL    HW227873   2.713   1.247   3.087 -1.5201  1.7073  1.3587
 5471SOL     OW27874   3.161   2.230   3.603 -0.5202  0.0551  0.2955
 5471SOL    HW127875   3.100   2.303   3.613 -0.8400 -0.1953  0.1301
 5471SOL    HW227876   3.110   2.159   3.641  0.1583 -0.0192  1.0931
 5472SOL     OW27877   2.346   3.952  15.423  0.5186 -0.5615  0.3613
 5472SOL    HW127878   2.402   3.956  15.501 -0.5286 -1.5191  1.1773
 5472SOL    HW227879   2.266   3.985  15.464  0.4460 -1.2520  0.7871
 5473SOL     OW27880   2.966   3.913   1.316 -0.0993  0.1584 -0.6202
 5473SOL    HW127881   2.955   3.974   1.388  1.3490  0.2158 -0.4413
 5473SOL    HW227882   3.049   3.944   1.279 -0.3470  0.8980 -0.5362
 5474SOL     OW27883   2.512   3.261   5.465  0.4328 -0.1425  0.0049
 5474SOL    HW127884   2.473   3.175   5.446  0.6886 -0.1377 -0.5301
 5474SOL    HW227885   2.579   3.273   5.398  0.7164  0.7647  0.4495
 5475SOL     OW27886   1.894   4.086  13.903 -0.5728  0.4377 -0.3735
 5475SOL    HW127887   1.813   4.068  13.857  0.8309 -0.1641 -2.5946
 5475SOL    HW227888   1.937   4.144  13.840 -1.7322 -0.5725 -2.0760
 5476SOL     OW27889   3.413   2.303   4.305  0.0915 -0.3139 -0.3731
 5476SOL    HW127890   3.385   2.393   4.291 -1.2042 -0.3864  1.8936
 5476SOL    HW227891   3.496   2.298   4.257  0.1510 -0.7424 -0.2302
 5477SOL     OW27892   2.933   0.123   3.523  0.1212 -0.0736 -0.3930
 5477SOL    HW127893   2.927   0.212   3.557 -2.2072 -0.4924  0.2755
 5477SOL    HW227894   3.023   0.105   3.494  0.6696  0.8001  0.7482
 5478SOL     OW27895   0.668   4.463   8.804  0.4905  1.3155 -0.5825
 5478SOL    HW127896   0.696   4.387   8.753 -2.4621 -0.4935  0.4403
 5478SOL    HW227897   0.584   4.474   8.759 -0.3620  1.6384  1.0898
 5479SOL     OW27898   2.233   3.127   9.460  0.3874  0.0343  0.0609
 5479SOL    HW127899   2.221   3.126   9.365  0.1063  0.7839  0.0886
 5479SOL    HW227900   2.151   3.168   9.488  0.7068  0.2073  0.7449
 5480SOL     OW27901   0.565   3.186  17.077  0.5146 -0.3622  0.0852
 5480SOL    HW127902   0.479   3.154  17.104  1.1090 -3.1684 -1.3578
 5480SOL    HW227903   0.553   3.163  16.985 -0.4621  2.5527 -0.4980
 5481SOL     OW27904   1.998   0.631   5.176  0.6259 -0.2203  0.3828
 5481SOL    HW127905   2.066   0.635   5.109 -0.1801 -2.5424 -0.5881
 5481SOL    HW227906   1.925   0.651   5.116  0.0680 -1.1163  0.7654
 5482SOL     OW27907   0.578   0.274   6.259 -0.1968 -0.1928  0.2269
 5482SOL    HW127908   0.606   0.184   6.276  3.1969  0.5489 -1.5232
 5482SOL    HW227909   0.492   0.267   6.217 -0.1375  0.2461  0.0336
 5483SOL     OW27910   0.531   3.416   7.621  0.9639 -0.0219  0.8830
 5483SOL    HW127911   0.566   3.335   7.582 -2.2862 -1.4178  0.8607
 5483SOL    HW227912   0.438   3.395   7.621  0.5663  1.7938 -1.9862
 5484SOL     OW27913   1.605   4.710   1.318  0.3649 -0.3367 -0.8301
 5484SOL    HW127914   1.658   0.056   1.359  1.4043 -2.1697  0.8761
 5484SOL    HW227915   1.597   0.029   1.231  0.4921 -2.2256 -1.7350
 5485SOL     OW27916   0.499   4.353   9.428 -0.0746  0.2729 -0.5963
 5485SOL    HW127917   0.568   4.415   9.405  1.4947 -1.4271 -0.4114
 5485SOL    HW227918   0.537   4.272   9.396  1.8818  1.0180 -0.1567
 5486SOL     OW27919   0.278   3.967   5.807 -0.4233 -0.6471  0.2707
 5486SOL    HW127920   0.371   3.990   5.797  0.0678 -1.7384  2.2198
 5486SOL    HW227921   0.241   4.054   5.816  0.2654 -0.1823 -1.4033
 5487SOL     OW27922   2.374   2.722   4.039  0.2010  0.2733  0.4397
 5487SOL    HW127923   2.405   2.796   3.987 -1.9703  0.9872  0.1563
 5487SOL    HW227924   2.305   2.691   3.979 -1.5026  2.5306  1.2483
 5488SOL     OW27925   1.570   0.726   9.410 -0.0032  0.4975 -0.0297
 5488SOL    HW127926   1.510   0.664   9.452  0.9492 -0.1578  0.3730
 5488SOL    HW227927   1.538   0.720   9.320  3.7035  0.7868 -1.3680
 5489SOL     OW27928   0.946   3.304  10.752  0.3631 -0.8485  0.3298
 5489SOL    HW127929   0.952   3.347  10.667 -0.2332 -1.3312  0.0460
 5489SOL    HW227930   0.995   3.224  10.734  1.1836 -0.2234 -0.2367
 5490SOL     OW27931   0.036   4.697   2.560  0.0624 -0.0637  0.1896
 5490SOL    HW127932   0.077   4.613   2.539 -1.5476 -0.4853 -1.2401
 5490SOL    HW227933   0.094   0.049   2.544  2.3200 -1.7206  0.5574
 5491SOL     OW27934   0.642   1.981  16.352  0.1130  0.3630 -0.6547
 5491SOL    HW127935   0.674   2.000  16.264  0.0684  0.4186 -0.6587
 5491SOL    HW227936   0.661   2.066  16.391  0.1836  1.0695 -2.2449
 5492SOL     OW27937   4.100   3.498  11.605 -0.2815 -0.5307  0.5668
 5492SOL    HW127938   4.027   3.559  11.621 -0.5463 -0.6948 -0.0369
 5492SOL    HW227939   4.093   3.441  11.682  1.9538 -0.2501  0.9831
 5493SOL     OW27940   1.769   4.526   2.368 -0.5044  0.1651 -0.0200
 5493SOL    HW127941   1.701   4.466   2.337  0.5369 -0.0717 -1.8653
 5493SOL    HW227942   1.850   4.479   2.348 -0.4322 -0.0244  0.7425
 5494SOL     OW27943   0.492   3.723  14.022 -0.3020  0.5072 -0.8592
 5494SOL    HW127944   0.530   3.736  14.109  0.0305 -0.2181 -0.8983
 5494SOL    HW227945   0.446   3.640  14.029 -0.7120  0.8677  0.7621
 5495SOL     OW27946   1.092   0.725  11.051 -0.0163  0.2386 -0.5263
 5495SOL    HW127947   1.020   0.663  11.059 -0.2925  0.7411  0.7911
 5495SOL    HW227948   1.139   0.705  11.131 -0.7516 -1.9263 -0.6239
 5496SOL     OW27949   1.769   3.764   6.600  0.1073 -0.6250 -0.1354
 5496SOL    HW127950   1.718   3.741   6.523  0.1363 -0.4336 -0.2124
 5496SOL    HW227951   1.835   3.824   6.566 -2.4790  1.3364 -1.6393
 5497SOL     OW27952   1.781   1.927   3.663 -0.3387  0.2970  0.3712
 5497SOL    HW127953   1.690   1.900   3.670  0.2042 -1.7068 -0.3134
 5497SOL    HW227954   1.803   1.945   3.755  0.4764 -0.9980  0.4258
 5498SOL     OW27955   1.501   4.530  15.481 -0.3911 -0.4151 -0.0690
 5498SOL    HW127956   1.458   4.605  15.522 -0.6358 -0.4165 -0.3237
 5498SOL    HW227957   1.492   4.544  15.387 -0.4293  1.0340  0.1471
 5499SOL     OW27958   0.815   2.997  15.828  0.7841  0.1001  0.2043
 5499SOL    HW127959   0.866   3.036  15.757 -1.4616  0.0663 -1.4486
 5499SOL    HW227960   0.831   3.060  15.898 -1.3629  0.8666  0.0102
 5500SOL     OW27961   2.277   1.985  13.562  0.3807 -0.4882 -0.1514
 5500SOL    HW127962   2.354   2.040  13.573 -0.3320  0.1749  1.4701
 5500SOL    HW227963   2.310   1.896  13.547  0.9681 -0.2463 -0.2815
 5501SOL     OW27964   1.237   2.149  13.003 -0.0429  0.6631 -0.5704
 5501SOL    HW127965   1.216   2.066  12.961 -2.3469  0.5073  0.9052
 5501SOL    HW227966   1.268   2.126  13.091  1.4172 -0.7776 -1.4685
 5502SOL     OW27967   0.796   1.544  17.380  0.2930 -0.4874 -0.1991
 5502SOL    HW127968   0.756   1.461  17.353 -2.0041  0.1677  1.1630
 5502SOL    HW227969   0.882   1.544  17.339  0.5293  0.5784  0.2955
 5503SOL     OW27970   3.761   3.956  16.741 -0.5149 -0.1658 -1.1533
 5503SOL    HW127971   3.845   3.954  16.787  0.2136 -1.2021 -2.5277
 5503SOL    HW227972   3.727   4.031  16.790  0.5328  0.1854 -0.9633
 5504SOL     OW27973   2.015   2.767   4.411  0.4469 -0.7102  0.1712
 5504SOL    HW127974   1.979   2.855   4.417 -0.3530 -1.0531  0.4268
 5504SOL    HW227975   1.954   2.713   4.462 -0.1846 -0.0974  0.0703
 5505SOL     OW27976   1.622   3.285  10.063  0.5131 -0.5996 -0.2541
 5505SOL    HW127977   1.562   3.299   9.990 -0.0563 -1.0648  0.1242
 5505SOL    HW227978   1.632   3.376  10.092  0.1992 -0.1265 -1.6273
 5506SOL     OW27979   2.007   1.567  16.513 -0.2548  0.1509  0.0777
 5506SOL    HW127980   2.044   1.602  16.594 -1.7177  1.0962  0.3236
 5506SOL    HW227981   1.918   1.603  16.509 -0.3707 -0.1015  0.3853
 5507SOL     OW27982   0.656   4.614   2.712  0.2331  0.1794  0.4761
 5507SOL    HW127983   0.610   4.575   2.786 -0.9116  1.7303  0.5827
 5507SOL    HW227984   0.638   4.708   2.719 -1.4006 -0.1247  0.3720
 5508SOL     OW27985   4.125   2.950   6.902  0.0773  0.3085  0.3482
 5508SOL    HW127986   4.210   2.960   6.858 -1.0040  0.5258 -1.7129
 5508SOL    HW227987   4.127   2.865   6.945  1.4529 -0.6480 -1.5672
 5509SOL     OW27988   3.084   0.800   2.683 -0.4407  0.0562 -0.4175
 5509SOL    HW127989   3.074   0.852   2.763 -0.6048  1.0145 -1.0611
 5509SOL    HW227990   3.046   0.717   2.712  0.6081 -0.0706  0.6102
 5510SOL     OW27991   2.003   4.045   0.523 -0.0107  0.0794  0.5569
 5510SOL    HW127992   1.921   3.997   0.513 -0.4770  1.2276 -1.0759
 5510SOL    HW227993   2.038   4.045   0.434  0.3632  1.2076  0.7000
 5511SOL     OW27994   4.647   4.532   9.787  0.3186  0.1446  0.1909
 5511SOL    HW127995   4.683   4.444   9.776 -1.7702 -0.8565  1.4856
 5511SOL    HW227996   4.554   4.513   9.777  0.2724 -0.1901  1.2230
 5512SOL     OW27997   0.309   1.080  11.757 -0.3303 -0.0031  0.1955
 5512SOL    HW127998   0.308   0.986  11.740  0.2877 -0.0058  0.1538
 5512SOL    HW227999   0.390   1.114  11.718 -1.3633  0.4856 -1.5466
 5513SOL     OW28000   2.529   0.949  17.647 -0.1312  0.1424 -0.3654
 5513SOL    HW128001   2.621   0.938  17.627 -0.0542  0.4752 -0.2075
 5513SOL    HW228002   2.487   0.955  17.561  0.9229  0.6739 -0.8404
 5514SOL     OW28003   0.848   1.976   5.703  0.0766 -0.2245 -0.5180
 5514SOL    HW128004   0.810   2.041   5.762  1.6955 -0.6671  0.9976
 5514SOL    HW228005   0.820   1.899   5.752 -1.4265  1.0040  0.5470
 5515SOL     OW28006   2.713   1.331  10.721  0.7226 -0.4453  0.2588
 5515SOL    HW128007   2.638   1.315  10.664  2.0600 -1.9184 -1.0947
 5515SOL    HW228008   2.676   1.394  10.783  0.2322 -0.7307  0.2579
 5516SOL     OW28009   3.807   0.895   8.340  0.0856  0.5468  0.1686
 5516SOL    HW128010   3.779   0.952   8.269 -0.6060  0.7577  0.6087
 5516SOL    HW228011   3.822   0.812   8.295  2.8304  1.2178 -0.1540
 5517SOL     OW28012   4.683   2.697   8.015 -0.1928  0.5866  0.7747
 5517SOL    HW128013   0.002   2.621   7.975  1.0998  1.4914  0.4000
 5517SOL    HW228014   4.613   2.720   7.953 -1.3644 -0.5700  1.6660
 5518SOL     OW28015   3.914   4.235   4.511  0.3391 -0.1471 -0.0199
 5518SOL    HW128016   3.925   4.176   4.437 -1.2659 -0.6433  0.1306
 5518SOL    HW228017   3.820   4.252   4.499  0.3792 -1.0335 -1.6306
 5519SOL     OW28018   3.400   0.380   9.635  0.0120  0.2277 -0.2826
 5519SOL    HW128019   3.311   0.362   9.606 -0.5451  0.9826  0.9560
 5519SOL    HW228020   3.434   0.417   9.554  0.2880  2.0752  0.6732
 5520SOL     OW28021   2.425   3.743   3.671  0.0563  0.1276 -0.6256
 5520SOL    HW128022   2.501   3.728   3.615  0.8345 -0.9597  0.7156
 5520SOL    HW228023   2.433   3.692   3.751  0.6205 -1.7032 -1.8412
 5521SOL     OW28024   4.686   0.532   3.917 -0.1524  0.5913  0.0800
 5521SOL    HW128025   4.689   0.627   3.905 -1.6490  0.5581 -0.4634
 5521SOL    HW228026   4.604   0.511   3.873 -0.0090  0.3283 -0.0625
 5522SOL     OW28027   0.243   3.402   2.294 -0.8965  0.4429  0.1714
 5522SOL    HW128028   0.222   3.312   2.318 -1.5834  0.5347 -0.0781
 5522SOL    HW228029   0.298   3.376   2.220 -1.1561 -1.3490  0.6027
 5523SOL     OW28030   4.064   2.150   2.196  0.0240 -0.2565 -0.7645
 5523SOL    HW128031   4.127   2.111   2.256 -0.2484 -1.5140 -1.2950
 5523SOL    HW228032   4.120   2.219   2.162  0.8334 -0.3987  0.2692
 5524SOL     OW28033   0.106   4.010   4.729 -0.0206  0.2800  0.1577
 5524SOL    HW128034   0.019   3.971   4.723  0.3135 -0.4463  0.0791
 5524SOL    HW228035   0.086   4.078   4.793 -1.7437 -2.6916  2.7730
 5525SOL     OW28036   3.296   4.445  17.260  0.2889 -0.5013 -0.3253
 5525SOL    HW128037   3.365   4.380  17.275 -0.8315 -1.8344 -1.0306
 5525SOL    HW228038   3.281   4.432  17.167 -2.1883  1.0704 -0.1211
 5526SOL     OW28039   4.306   4.191   5.212  0.3643  0.2616  0.1708
 5526SOL    HW128040   4.333   4.172   5.122 -0.7078  1.2498 -0.3648
 5526SOL    HW228041   4.215   4.220   5.205  0.7850  1.4972 -0.3250
 5527SOL     OW28042   0.291   1.019  14.833 -0.2673  0.0824 -0.6161
 5527SOL    HW128043   0.280   0.924  14.832 -0.3218  0.0501  1.9011
 5527SOL    HW228044   0.360   1.040  14.896 -1.0873  0.9494 -0.0054
 5528SOL     OW28045   3.110   3.443   9.232  0.3093  0.3155 -0.4615
 5528SOL    HW128046   3.095   3.349   9.224  0.1277  0.1325  2.0698
 5528SOL    HW228047   3.206   3.436   9.237  0.2357  0.9883  1.5794
 5529SOL     OW28048   1.443   2.476   4.803  0.4441 -0.6280  0.7492
 5529SOL    HW128049   1.453   2.558   4.852  0.6531  1.6229 -3.0089
 5529SOL    HW228050   1.356   2.443   4.822 -0.3087  1.9871  1.9509
 5530SOL     OW28051   1.629   2.643   5.364  0.4647  0.2845 -0.3413
 5530SOL    HW128052   1.619   2.700   5.288 -1.9575  0.2461 -0.0210
 5530SOL    HW228053   1.549   2.665   5.411  0.3704 -2.8553  0.9796
 5531SOL     OW28054   0.735   0.922   8.598 -0.5199 -0.3489  0.7036
 5531SOL    HW128055   0.728   0.844   8.653  0.6091 -1.2392 -0.4199
 5531SOL    HW228056   0.724   0.988   8.667  0.7188 -1.0333  1.5643
 5532SOL     OW28057   0.241   0.965   1.576 -0.3115  0.3487  0.0430
 5532SOL    HW128058   0.268   0.879   1.544  0.5148  0.0922  1.4037
 5532SOL    HW228059   0.316   0.976   1.634 -1.4807 -0.1998  1.6691
 5533SOL     OW28060   3.373   2.083   5.248  0.6125  1.4816  0.2197
 5533SOL    HW128061   3.350   2.000   5.208  0.9688  0.8063  1.4240
 5533SOL    HW228062   3.294   2.109   5.295  0.1138 -0.0618  0.2046
 5534SOL     OW28063   2.179   1.106  13.510 -0.2524 -0.0617 -0.2143
 5534SOL    HW128064   2.187   1.172  13.580 -1.2027 -0.7504  0.5512
 5534SOL    HW228065   2.189   1.162  13.433  2.1263 -0.7872 -0.4303
 5535SOL     OW28066   4.415   0.496  15.001  0.3228  0.4834  0.1877
 5535SOL    HW128067   4.330   0.480  14.962  1.1080  0.6398 -1.5915
 5535SOL    HW228068   4.464   0.415  14.986 -1.2248 -0.4319  0.1580
 5536SOL     OW28069   4.217   3.252   7.032  0.5574  0.4633  0.4956
 5536SOL    HW128070   4.260   3.337   7.047  2.5321 -0.1785 -1.5349
 5536SOL    HW228071   4.291   3.198   7.007 -1.6827 -1.8865 -1.0088
 5537SOL     OW28072   3.795   0.197   2.254 -0.1561 -0.0309  0.3477
 5537SOL    HW128073   3.830   0.112   2.226  0.4224  0.0556  0.8179
 5537SOL    HW228074   3.812   0.267   2.190  2.6372  0.1887  1.3481
 5538SOL     OW28075   0.469   3.477  17.117 -0.3254  0.1083  0.5109
 5538SOL    HW128076   0.510   3.401  17.077  0.1239  1.0661 -0.8352
 5538SOL    HW228077   0.379   3.448  17.112 -0.6288  0.7381  2.2111
 5539SOL     OW28078   1.874   1.026   7.876 -0.2644 -0.8261  0.2064
 5539SOL    HW128079   1.867   1.015   7.970  0.7817 -0.7392  0.3005
 5539SOL    HW228080   1.806   1.093   7.869  0.1286 -0.8302 -3.8004
 5540SOL     OW28081   1.072   1.921   6.158 -0.8057  0.1534  0.1266
 5540SOL    HW128082   1.091   1.839   6.111 -0.5566  0.5028 -0.3874
 5540SOL    HW228083   1.100   1.992   6.100 -0.5329 -0.1531 -0.1239
 5541SOL     OW28084   1.019   2.006   2.059 -0.0107 -0.2491 -0.0227
 5541SOL    HW128085   0.991   1.973   2.145 -0.8435 -1.1815 -0.6536
 5541SOL    HW228086   1.070   1.934   2.023 -0.5778 -2.1918  3.0079
 5542SOL     OW28087   3.186   2.884   4.869  0.1670 -0.3982  0.7505
 5542SOL    HW128088   3.258   2.924   4.917 -0.5617  1.3396  0.3911
 5542SOL    HW228089   3.131   2.961   4.856 -1.1872 -1.6515 -0.9901
 5543SOL     OW28090   1.585   2.256   1.197  0.1486 -0.8214  0.3100
 5543SOL    HW128091   1.550   2.196   1.263  1.6138 -1.3246  0.6379
 5543SOL    HW228092   1.679   2.261   1.217  0.3507 -3.1203  0.0247
 5544SOL     OW28093   0.600   4.597   3.736 -0.4087  0.0960 -0.2841
 5544SOL    HW128094   0.599   4.693   3.732 -1.3627 -0.0393 -3.1426
 5544SOL    HW228095   0.594   4.570   3.645  0.4787 -1.3306  0.0854
 5545SOL     OW28096   2.573   3.526   7.081  0.2255  0.5623  1.0375
 5545SOL    HW128097   2.642   3.488   7.027 -0.4728 -0.4641  0.8679
 5545SOL    HW228098   2.540   3.453   7.134 -1.1157  2.0713  2.2716
 5546SOL     OW28099   3.355   1.686   0.278 -0.0318 -0.2756  0.2955
 5546SOL    HW128100   3.411   1.617   0.314 -2.6718 -2.6859 -0.2010
 5546SOL    HW228101   3.347   1.659   0.187  0.6594 -2.4211  0.8693
 5547SOL     OW28102   3.101   2.848   5.639 -0.2017  0.6808  0.1718
 5547SOL    HW128103   3.082   2.778   5.701 -0.6962  0.5551 -0.1195
 5547SOL    HW228104   3.085   2.923   5.697  3.4261  2.8202 -1.6177
 5548SOL     OW28105   1.473   1.065   6.417  0.2593 -0.4044  0.0980
 5548SOL    HW128106   1.501   0.998   6.354  1.7089  1.1826 -0.9365
 5548SOL    HW228107   1.478   1.012   6.497  0.3547 -0.2400  0.2008
 5549SOL     OW28108   1.627   2.739  12.764  0.0702  0.0426 -0.4529
 5549SOL    HW128109   1.698   2.802  12.752  0.5751 -0.1393  1.5940
 5549SOL    HW228110   1.607   2.762  12.855 -1.2400 -0.9217 -0.4996
 5550SOL     OW28111   1.159   0.797   1.943  0.3770 -0.0154 -0.1720
 5550SOL    HW128112   1.163   0.793   1.847 -2.3710 -0.8983 -0.2520
 5550SOL    HW228113   1.125   0.712   1.971 -0.1988 -0.5575 -2.4510
 5551SOL     OW28114   1.080   2.939   3.420  0.4299 -0.3509 -0.3294
 5551SOL    HW128115   1.038   2.868   3.469  1.3204 -0.4302  0.3329
 5551SOL    HW228116   1.170   2.914   3.444  0.4961  2.3315  2.1978
 5552SOL     OW28117   0.309   4.591   6.161 -0.4775 -0.9022  0.1459
 5552SOL    HW128118   0.276   4.632   6.241 -1.7999 -0.8780 -0.4168
 5552SOL    HW228119   0.307   4.669   6.105 -0.3434 -0.7399  0.3680
 5553SOL     OW28120   3.692   3.860   3.240 -0.4397 -0.0840 -0.4176
 5553SOL    HW128121   3.598   3.874   3.247 -0.1010  2.4673 -0.7186
 5553SOL    HW228122   3.685   3.765   3.244 -1.4435  0.0659  1.1784
 5554SOL     OW28123   4.568   0.073  15.294  0.3938 -0.0559 -0.0958
 5554SOL    HW128124   4.635   0.052  15.229 -0.4535 -0.0115 -0.9693
 5554SOL    HW228125   4.491   0.022  15.270  0.4125 -1.0926  2.0330
 5555SOL     OW28126   1.615   1.794   5.119  0.1794 -0.1975  0.8622
 5555SOL    HW128127   1.652   1.858   5.180  1.6423  0.9837 -1.2566
 5555SOL    HW228128   1.619   1.837   5.033 -0.4780  1.0300  1.4483
 5556SOL     OW28129   0.326   0.527   1.649 -0.1262 -0.6111  0.0936
 5556SOL    HW128130   0.330   0.612   1.606 -2.1490 -1.2477 -1.3702
 5556SOL    HW228131   0.233   0.508   1.651  0.3363 -3.0484 -2.1182
 5557SOL     OW28132   0.588   0.809  12.832  0.6175 -0.4388  0.5306
 5557SOL    HW128133   0.578   0.728  12.782  4.5602  0.6456 -2.0395
 5557SOL    HW228134   0.585   0.874  12.761  0.6000 -0.0699  0.8708
 5558SOL     OW28135   0.465   0.818   5.500  0.0733  0.2932 -0.2866
 5558SOL    HW128136   0.534   0.812   5.565 -1.4581  1.1061  1.4404
 5558SOL    HW228137   0.442   0.911   5.507  0.0158 -0.0439  3.7474
 5559SOL     OW28138   1.884   3.872   1.750  0.4840  0.7330  0.0035
 5559SOL    HW128139   1.973   3.836   1.744  0.9787  2.1122 -0.8149
 5559SOL    HW228140   1.843   3.819   1.818  0.6155  2.9705  1.8341
 5560SOL     OW28141   0.578   0.176   3.754 -0.0964 -0.1031  0.1078
 5560SOL    HW128142   0.541   0.171   3.666 -2.5971 -0.0516  1.1536
 5560SOL    HW228143   0.500   0.175   3.811 -1.8726 -1.8685 -2.3394
 5561SOL     OW28144   2.527   1.106  16.772 -0.6666 -0.0817 -0.1556
 5561SOL    HW128145   2.497   1.028  16.725 -0.6459 -0.9815  1.3118
 5561SOL    HW228146   2.452   1.126  16.828  0.7315 -2.2654  2.5428
 5562SOL     OW28147   2.233   2.388   7.040 -0.0367  0.0248 -0.1310
 5562SOL    HW128148   2.166   2.354   7.099  0.6339 -0.6419  0.2507
 5562SOL    HW228149   2.231   2.324   6.969 -1.9192  1.5938 -1.5199
 5563SOL     OW28150   0.037   2.311   4.724  0.1949  0.6115 -0.1909
 5563SOL    HW128151   4.694   2.275   4.784 -0.2735 -0.2115 -1.1770
 5563SOL    HW228152   0.079   2.384   4.768  0.0089  1.6615 -1.7457
 5564SOL     OW28153   0.500   2.787   0.901  0.0281  0.0575 -0.0036
 5564SOL    HW128154   0.502   2.821   0.811  3.3601 -0.6426 -0.1653
 5564SOL    HW228155   0.423   2.731   0.888 -0.1737  0.1921  0.6547
 5565SOL     OW28156   3.649   0.187  13.076  0.0439  0.6280 -0.3419
 5565SOL    HW128157   3.698   0.261  13.112 -0.0321 -0.0245  1.1170
 5565SOL    HW228158   3.682   0.176  12.987 -0.7534  0.9779 -0.6803
 5566SOL     OW28159   4.111   2.456   8.675 -0.1961  0.2607  0.8079
 5566SOL    HW128160   4.095   2.550   8.664 -0.2233  0.2264  0.5639
 5566SOL    HW228161   4.123   2.444   8.769  0.0067  1.0171  0.8766
 5567SOL     OW28162   1.603   2.807   3.594 -0.6187  0.3944  0.1720
 5567SOL    HW128163   1.552   2.818   3.674 -0.4843 -0.8332  0.4268
 5567SOL    HW228164   1.691   2.819   3.629 -1.5406 -1.6620  3.1654
 5568SOL     OW28165   3.952   3.481   7.957  0.1215 -0.5765 -0.2073
 5568SOL    HW128166   3.919   3.401   7.915  0.2670  0.2786 -1.9429
 5568SOL    HW228167   3.977   3.436   8.037  1.2555 -0.1579 -0.3300
 5569SOL     OW28168   3.166   0.825   6.486  0.0096 -0.6459 -0.5075
 5569SOL    HW128169   3.120   0.743   6.505 -2.5478  0.4079 -2.1255
 5569SOL    HW228170   3.142   0.843   6.395 -4.4392 -1.2449  0.5292
 5570SOL     OW28171   1.974   3.458   8.436  0.0517  0.3893  0.1004
 5570SOL    HW128172   1.924   3.528   8.395  0.5807 -0.6272 -2.2495
 5570SOL    HW228173   1.929   3.451   8.521  1.0509 -0.1702  0.5797
 5571SOL     OW28174   3.236   0.385  13.277  0.6935 -0.2704  0.0719
 5571SOL    HW128175   3.287   0.324  13.330 -2.9017 -2.5103  0.9560
 5571SOL    HW228176   3.290   0.392  13.198  1.8839  0.9591  0.9886
 5572SOL     OW28177   0.968   1.190   2.119 -0.3314 -0.3280  0.0323
 5572SOL    HW128178   1.003   1.218   2.203  1.2242 -2.5934  0.1322
 5572SOL    HW228179   1.028   1.117   2.106  0.0791  0.1720 -0.9061
 5573SOL     OW28180   1.994   1.252   3.697  0.2448  0.0354  0.7199
 5573SOL    HW128181   2.006   1.290   3.610  0.6036  1.2698  1.3123
 5573SOL    HW228182   1.905   1.220   3.683  0.6584 -1.3135  1.1693
 5574SOL     OW28183   0.434   2.845   7.633 -0.2818  0.3535  0.2111
 5574SOL    HW128184   0.449   2.841   7.539 -1.1284 -1.2171  0.1458
 5574SOL    HW228185   0.369   2.914   7.649  1.2124  1.8274 -0.1185
 5575SOL     OW28186   2.341   1.877  12.746  0.2040 -0.4076  0.5562
 5575SOL    HW128187   2.407   1.868  12.815 -0.6582 -0.2546  1.3880
 5575SOL    HW228188   2.282   1.938  12.789  0.7575  0.9651 -0.6389
 5576SOL     OW28189   2.693   1.394   6.129  0.2328  0.6942 -0.0353
 5576SOL    HW128190   2.608   1.432   6.150  0.2233  0.5335  0.2184
 5576SOL    HW228191   2.709   1.327   6.196  2.1414  0.1507 -1.0459
 5577SOL     OW28192   3.979   2.132   1.597  0.7242  0.5319 -0.3533
 5577SOL    HW128193   4.024   2.130   1.681 -0.7844 -0.5096  0.4041
 5577SOL    HW228194   3.916   2.204   1.603 -0.3209 -0.4200 -0.0338
 5578SOL     OW28195   0.982   2.708   9.162  0.1292 -0.1322  0.4505
 5578SOL    HW128196   0.987   2.621   9.203  1.3688 -0.7642 -1.0460
 5578SOL    HW228197   1.069   2.747   9.176 -0.1981  0.7015  0.1398
 5579SOL     OW28198   1.945   2.132  13.379 -0.2014 -0.2172 -0.0163
 5579SOL    HW128199   1.897   2.058  13.340 -3.1603  0.7126  1.8231
 5579SOL    HW228200   1.894   2.207  13.349 -2.6398 -0.7198  2.8908
 5580SOL     OW28201   0.519   1.712   9.677  0.6955  0.3174  0.3038
 5580SOL    HW128202   0.458   1.779   9.708  0.0947 -0.1560  0.1161
 5580SOL    HW228203   0.550   1.684   9.763 -0.0392 -1.3045  0.0351
 5581SOL     OW28204   2.853   0.979  16.567 -0.1657  0.3591 -0.1548
 5581SOL    HW128205   2.877   1.018  16.650 -3.4680  1.0778  0.4736
 5581SOL    HW228206   2.932   0.979  16.513 -0.6535  1.4938 -0.8615
 5582SOL     OW28207   3.008   1.656   3.358  0.0839 -0.2393 -0.2853
 5582SOL    HW128208   3.078   1.628   3.298  1.9850  0.2940  1.7008
 5582SOL    HW228209   2.969   1.573   3.386 -0.7138  0.4147  0.5554
 5583SOL     OW28210   1.762   3.353   4.329  0.6211 -0.3644 -0.4885
 5583SOL    HW128211   1.769   3.443   4.361  1.2668 -0.5713 -0.0415
 5583SOL    HW228212   1.774   3.351   4.234 -0.6426 -2.4785 -0.6071
 5584SOL     OW28213   4.225   0.819   6.543  0.1974  0.5693 -0.2054
 5584SOL    HW128214   4.201   0.904   6.508 -0.1910  0.0893 -1.0929
 5584SOL    HW228215   4.190   0.765   6.473  2.8216  0.2622 -1.2644
 5585SOL     OW28216   3.642   2.019  11.091 -0.1072 -1.0342 -0.0940
 5585SOL    HW128217   3.734   2.007  11.114 -0.2966  1.3111  1.9706
 5585SOL    HW228218   3.650   2.089  11.026 -0.8310 -1.2113 -0.3741
 5586SOL     OW28219   1.042   1.792  15.933  0.0365  0.3339  0.1653
 5586SOL    HW128220   1.122   1.797  15.880 -2.1315  1.5100 -3.0112
 5586SOL    HW228221   1.010   1.715  15.887  0.1586  1.3327 -1.5813
 5587SOL     OW28222   0.704   2.973  11.860  0.1069  0.2932  0.1596
 5587SOL    HW128223   0.656   2.970  11.778  1.8225 -1.6119 -0.7787
 5587SOL    HW228224   0.764   3.044  11.837  1.9703 -1.1437  0.5964
 5588SOL     OW28225   2.153   4.210   5.001  0.5912  0.0717 -0.1809
 5588SOL    HW128226   2.096   4.133   4.995  2.4257 -1.0041 -4.1429
 5588SOL    HW228227   2.227   4.186   5.056 -2.0585  0.8741  3.7792
 5589SOL     OW28228   4.340   2.629   0.739  0.5937  0.1221  0.3311
 5589SOL    HW128229   4.428   2.663   0.751  0.9056 -0.9551  1.1255
 5589SOL    HW228230   4.359   2.585   0.656 -3.8434 -1.4549  0.1237
 5590SOL     OW28231   2.341   0.571   9.922 -0.4061  0.5201  0.1207
 5590SOL    HW128232   2.432   0.561   9.892  0.1925  2.9473  1.1867
 5590SOL    HW228233   2.333   0.665   9.939 -1.1748  0.2505  1.2242
 5591SOL     OW28234   2.923   3.778   0.872  0.5280 -0.1292  0.1822
 5591SOL    HW128235   3.002   3.831   0.861  0.9537 -0.7452  0.2674
 5591SOL    HW228236   2.854   3.842   0.855  1.0325  0.0052 -1.3621
 5592SOL     OW28237   0.312   1.799   9.483  0.4393 -0.4424 -0.2159
 5592SOL    HW128238   0.303   1.715   9.439 -0.1553  0.4413 -1.8176
 5592SOL    HW228239   0.254   1.794   9.559 -0.0847  2.8140 -0.3611
 5593SOL     OW28240   0.221   0.759  14.840 -0.4288 -0.3269 -0.5528
 5593SOL    HW128241   0.143   0.806  14.868  0.2530 -0.8312  2.2495
 5593SOL    HW228242   0.200   0.668  14.861 -2.3716 -0.2468 -2.2155
 5594SOL     OW28243   0.598   4.691   9.277 -0.1697 -0.0391  0.3602
 5594SOL    HW128244   0.552   0.032   9.333  2.5404  1.9517  0.3020
 5594SOL    HW228245   0.667   4.649   9.328  1.5127  2.5874  0.2352
 5595SOL     OW28246   0.295   4.653   9.802 -0.2147  0.5619 -0.1074
 5595SOL    HW128247   0.295   0.023   9.827 -1.7562  0.5252  0.0309
 5595SOL    HW228248   0.360   4.646   9.732 -0.6033 -1.6244 -0.2448
 5596SOL     OW28249   4.115   0.154   3.126 -0.0258 -0.2805 -0.3681
 5596SOL    HW128250   4.109   0.127   3.218  1.8152 -0.1833 -0.2187
 5596SOL    HW228251   4.158   0.238   3.139  2.7414 -1.9295  1.1983
 5597SOL     OW28252   1.278   4.081   7.020  0.4333  0.0673  0.4243
 5597SOL    HW128253   1.321   4.002   7.053 -1.7443 -0.5856  1.7177
 5597SOL    HW228254   1.186   4.056   7.007  1.7853 -4.4428 -0.3005
 5598SOL     OW28255   3.325   1.935  12.870  0.0374 -0.6352 -0.5781
 5598SOL    HW128256   3.287   2.011  12.827  1.8846  1.0111  0.6464
 5598SOL    HW228257   3.395   1.922  12.806  0.3462 -0.2547 -0.3208
 5599SOL     OW28258   0.324   2.005   4.742  0.3306  0.0138 -0.4746
 5599SOL    HW128259   0.390   1.941   4.769  0.7491  0.3966 -0.5863
 5599SOL    HW228260   0.245   1.959   4.715  0.4741 -0.8003  0.4773
 5600SOL     OW28261   1.981   4.208  16.233 -0.1987  0.5781  0.2810
 5600SOL    HW128262   1.965   4.265  16.157 -1.0363  0.9009  0.6993
 5600SOL    HW228263   2.065   4.238  16.268  0.1270 -0.5644  0.4585
 5601SOL     OW28264   0.381   0.532   1.909 -0.1605  0.4572  0.3163
 5601SOL    HW128265   0.393   0.623   1.938 -0.2201  0.6506 -0.2754
 5601SOL    HW228266   0.338   0.541   1.824  0.2687 -0.1206  0.0417
 5602SOL     OW28267   0.750   1.795   0.385 -0.0827  0.1822 -0.3004
 5602SOL    HW128268   0.834   1.836   0.363 -0.2349  1.0047  0.6772
 5602SOL    HW228269   0.724   1.781   0.294 -0.7139  1.8806 -0.3641
 5603SOL     OW28270   4.707   0.186   6.556 -0.9449  0.0994 -0.0888
 5603SOL    HW128271   0.039   0.136   6.616  0.1158 -1.2773 -2.2255
 5603SOL    HW228272   4.690   0.125   6.484  0.1277 -0.5348  0.2021
 5604SOL     OW28273   2.933   2.933   8.553 -0.0534  0.1501  0.0166
 5604SOL    HW128274   3.027   2.933   8.568 -0.2662 -2.0018  1.3003
 5604SOL    HW228275   2.910   3.008   8.497 -0.5114  0.8533  1.1514
 5605SOL     OW28276   0.751   4.383  14.797 -0.3461  0.5077 -0.4332
 5605SOL    HW128277   0.767   4.454  14.859 -0.5651  1.4955 -1.5358
 5605SOL    HW228278   0.818   4.404  14.732  1.1420 -0.1392  0.8690
 5606SOL     OW28279   2.681   2.576   7.323  0.3462  0.2620 -0.3094
 5606SOL    HW128280   2.774   2.561   7.342  0.0322 -2.1212 -0.6257
 5606SOL    HW228281   2.672   2.492   7.277 -1.0008 -1.1056  2.4334
 5607SOL     OW28282   2.151   0.084  11.541  0.1276  0.5243  0.2590
 5607SOL    HW128283   2.082   0.018  11.536  0.3585  0.4952 -2.1710
 5607SOL    HW228284   2.141   0.103  11.635 -0.3252 -0.4675  0.4126
 5608SOL     OW28285   0.192   0.494   4.785  0.1824 -0.0428  0.1556
 5608SOL    HW128286   0.272   0.521   4.740 -0.3845 -0.4000 -1.0812
 5608SOL    HW228287   0.174   0.414   4.735  2.4724  0.2783 -1.2111
 5609SOL     OW28288   1.076   1.842   9.546  0.4097  0.6796 -0.0781
 5609SOL    HW128289   1.112   1.856   9.634  0.9401 -0.0156 -0.1890
 5609SOL    HW228290   0.982   1.850   9.563  0.0673 -1.5134 -0.9526
 5610SOL     OW28291   0.132   1.756   8.937 -0.5360 -0.0551 -0.1694
 5610SOL    HW128292   0.068   1.686   8.946 -1.5777  0.8648 -0.4771
 5610SOL    HW228293   0.127   1.802   9.021 -1.9973  0.3770 -0.4898
 5611SOL     OW28294   0.235   3.751   7.440  0.4188  0.3238 -0.3968
 5611SOL    HW128295   0.162   3.691   7.423  3.0447 -3.2776  1.0089
 5611SOL    HW228296   0.238   3.757   7.535 -2.0307  0.8594 -0.3571
 5612SOL     OW28297   1.708   3.931  17.172  0.1158  0.1248  0.6644
 5612SOL    HW128298   1.733   3.876  17.247  1.6327 -0.7547 -0.4723
 5612SOL    HW228299   1.798   3.939  17.139  0.5122  0.5062  1.8185
 5613SOL     OW28300   0.487   1.047   1.669  0.4812 -0.0275  0.0564
 5613SOL    HW128301   0.511   1.120   1.612  0.0373  0.2944  0.2814
 5613SOL    HW228302   0.518   0.978   1.611 -0.4669 -0.1552 -0.3095
 5614SOL     OW28303   3.726   3.049   4.115  0.4194  0.4956 -0.2391
 5614SOL    HW128304   3.686   3.135   4.129  0.4558  0.6724 -1.2293
 5614SOL    HW228305   3.739   3.031   4.209  0.1868 -0.3995 -0.3799
 5615SOL     OW28306   0.687   0.068   2.949  0.2475 -0.1867 -0.2678
 5615SOL    HW128307   0.681   0.153   2.992  0.7580  0.7658 -2.0865
 5615SOL    HW228308   0.735   0.093   2.870  1.2877  0.3938  0.5402
 5616SOL     OW28309   4.515   4.308   5.911 -0.1900 -0.0559 -0.9213
 5616SOL    HW128310   4.581   4.370   5.880  0.0915 -1.1944 -2.6163
 5616SOL    HW228311   4.571   4.252   5.965 -1.4689 -1.5133 -1.1001
 5617SOL     OW28312   3.962   0.294   3.345 -0.0713 -0.2436 -0.1972
 5617SOL    HW128313   4.040   0.339   3.378  0.5521 -1.0929 -0.5142
 5617SOL    HW228314   4.002   0.208   3.359  0.2601  0.3104  2.2832
 5618SOL     OW28315   2.790   0.208   7.973  0.4859 -0.5326  0.9685
 5618SOL    HW128316   2.802   0.198   8.068  1.1071  0.6354  1.0092
 5618SOL    HW228317   2.724   0.277   7.972  0.8474 -0.2587 -2.0792
 5619SOL     OW28318   3.588   3.235   2.719 -0.6918  0.2531 -0.4501
 5619SOL    HW128319   3.536   3.299   2.671 -1.0681  1.2424  1.2650
 5619SOL    HW228320   3.667   3.230   2.666  0.3701 -2.9535  1.3747
 5620SOL     OW28321   4.289   3.776   7.431 -0.5435 -0.0260 -0.4737
 5620SOL    HW128322   4.237   3.696   7.422 -3.2272  1.9001 -1.9393
 5620SOL    HW228323   4.362   3.758   7.371 -1.7461  2.0255 -2.5341
 5621SOL     OW28324   3.703   0.387   6.490 -0.2895 -0.4181 -0.2936
 5621SOL    HW128325   3.629   0.429   6.446  0.1569 -0.4859 -1.1034
 5621SOL    HW228326   3.778   0.446   6.498  0.0168 -0.8962  0.3191
 5622SOL     OW28327   3.075   3.592   4.912  0.3374 -0.4228  0.1216
 5622SOL    HW128328   3.099   3.567   4.823 -0.9079  3.2432 -1.2340
 5622SOL    HW228329   3.140   3.537   4.956  0.9067 -1.7301 -2.3554
 5623SOL     OW28330   1.992   0.192   5.543  0.7098 -0.0143  0.0981
 5623SOL    HW128331   1.924   0.153   5.488 -0.3428  0.9708  0.7207
 5623SOL    HW228332   1.945   0.183   5.626 -0.1665  0.9854 -0.2957
 5624SOL     OW28333   3.426   0.241   5.318  0.3102  0.4006 -0.3996
 5624SOL    HW128334   3.394   0.331   5.323 -1.6259 -0.2272 -1.3247
 5624SOL    HW228335   3.386   0.205   5.397  0.6446  2.3509  0.6623
 5625SOL     OW28336   2.869   1.512   8.995 -0.2606 -0.8512  0.1168
 5625SOL    HW128337   2.904   1.466   8.919  1.5667  0.9982 -0.1567
 5625SOL    HW228338   2.836   1.591   8.952  1.3318 -1.3474 -1.9726
 5626SOL     OW28339   3.214   2.376  14.953  0.6332 -0.5694 -0.5910
 5626SOL    HW128340   3.162   2.379  14.873 -0.7478  0.8700  0.3477
 5626SOL    HW228341   3.167   2.316  15.012 -0.0211  1.4862  0.9826
 5627SOL     OW28342   4.238   4.709   2.196  0.1355  0.2042 -0.1790
 5627SOL    HW128343   4.276   0.027   2.118  0.1887  0.8525  0.1881
 5627SOL    HW228344   4.233   0.066   2.249  0.6513  0.0751  0.0644
 5628SOL     OW28345   3.490   3.038   8.477  0.4076  0.1779  0.4205
 5628SOL    HW128346   3.526   3.039   8.566  1.0711 -0.8313  0.1626
 5628SOL    HW228347   3.523   2.953   8.448 -0.4433 -0.4429  1.2450
 5629SOL     OW28348   0.852   4.197  12.755 -0.1377  0.4859 -0.4107
 5629SOL    HW128349   0.926   4.139  12.771  2.0792  3.7807  1.4521
 5629SOL    HW228350   0.791   4.149  12.811  1.8924 -2.0508 -0.3671
 5630SOL     OW28351   4.280   0.171   4.170  0.0077 -0.1209  0.1056
 5630SOL    HW128352   4.294   0.150   4.078  1.6556  1.4089  0.0082
 5630SOL    HW228353   4.349   0.112   4.199  0.3222  0.3997  0.4275
 5631SOL     OW28354   2.627   1.235   4.784  0.0323  0.2931  0.3387
 5631SOL    HW128355   2.540   1.271   4.765 -0.6175 -0.9510  0.9600
 5631SOL    HW228356   2.675   1.268   4.708 -0.2856 -0.8250 -0.3555
 5632SOL     OW28357   2.077   1.794   5.749 -0.1228  0.0164 -0.6634
 5632SOL    HW128358   2.025   1.870   5.774  0.2496  0.3384 -0.8571
 5632SOL    HW228359   2.008   1.733   5.724 -0.4993  0.3011 -0.3163
 5633SOL     OW28360   3.745   0.502  16.051  0.2151 -0.3388 -0.0366
 5633SOL    HW128361   3.810   0.464  15.992  0.4439 -0.3016  0.1927
 5633SOL    HW228362   3.800   0.518  16.127 -0.8093  0.2155  0.5930
 5634SOL     OW28363   3.082   4.426  17.476 -0.4571 -0.0550 -0.6364
 5634SOL    HW128364   3.155   4.437  17.415 -1.2204 -3.5868 -2.2215
 5634SOL    HW228365   3.022   4.464  17.413  1.7606  2.7024 -1.0749
 5635SOL     OW28366   1.303   2.395   6.021  0.0131 -0.2065 -0.5401
 5635SOL    HW128367   1.257   2.425   5.942  1.7982  1.8147 -0.8107
 5635SOL    HW228368   1.341   2.479   6.045 -0.7773 -0.0274  0.0763
 5636SOL     OW28369   0.554   3.905  12.605 -0.2954 -0.4050 -0.3246
 5636SOL    HW128370   0.557   3.811  12.587  2.5343 -0.7933  2.1466
 5636SOL    HW228371   0.648   3.919  12.616 -0.9066  2.0246  1.7451
 5637SOL     OW28372   4.525   1.643   6.128 -0.2059  0.1438 -0.0265
 5637SOL    HW128373   4.488   1.688   6.204 -2.3183 -2.6496  0.6117
 5637SOL    HW228374   4.495   1.702   6.059 -1.4299 -0.1748  0.2329
 5638SOL     OW28375   1.925   1.511   0.245  0.5589 -0.3950 -0.3651
 5638SOL    HW128376   1.862   1.439   0.237  1.3517 -0.9461 -1.6158
 5638SOL    HW228377   1.899   1.550   0.328  1.2394 -0.6037 -0.0528
 5639SOL     OW28378   2.919   0.750   7.997 -0.0122 -0.5597 -0.5700
 5639SOL    HW128379   3.007   0.731   8.028 -0.8663 -0.5975  1.8223
 5639SOL    HW228380   2.896   0.802   8.074  0.9360 -0.3077 -0.4603
 5640SOL     OW28381   1.004   2.007  16.080 -0.0862 -0.0789 -0.3358
 5640SOL    HW128382   1.079   1.961  16.118  0.4448  0.3920 -0.8225
 5640SOL    HW228383   1.000   1.946  16.006  1.0943 -1.4876  0.7444
 5641SOL     OW28384   1.579   4.213   2.508 -0.1669  0.0746  0.3395
 5641SOL    HW128385   1.552   4.185   2.421  0.6553 -1.6988  0.6602
 5641SOL    HW228386   1.536   4.143   2.555 -0.3383  1.8781  2.8925
 5642SOL     OW28387   4.378   2.285   7.105 -0.1010  1.2213  0.0573
 5642SOL    HW128388   4.290   2.247   7.104  0.5386 -0.2248  0.6945
 5642SOL    HW228389   4.427   2.222   7.157  1.0245  2.3517  0.3579
 5643SOL     OW28390   4.158   2.082   8.589 -0.6229  0.1047 -0.1444
 5643SOL    HW128391   4.072   2.115   8.616  0.5637  2.1268  1.1760
 5643SOL    HW228392   4.204   2.079   8.672  0.3196  0.6750 -0.6411
 5644SOL     OW28393   2.354   3.863   4.493 -0.6052 -0.0660 -0.1415
 5644SOL    HW128394   2.357   3.805   4.417 -1.3574 -0.8912  0.4571
 5644SOL    HW228395   2.269   3.840   4.532 -0.3622 -1.6796 -0.5733
 5645SOL     OW28396   4.513   0.978   1.016 -0.9420 -0.4046  0.4580
 5645SOL    HW128397   4.575   1.047   0.992 -1.5247  0.1963  0.6831
 5645SOL    HW228398   4.440   1.018   0.969 -0.9643 -0.9686  0.0163
 5646SOL     OW28399   2.001   2.020  10.561 -0.0808  0.2389 -0.0143
 5646SOL    HW128400   2.005   2.027  10.465  1.8424 -0.4974  0.0146
 5646SOL    HW228401   1.909   2.044  10.571  0.0972  1.2436 -0.7826
 5647SOL     OW28402   4.334   2.963   3.125  0.2074 -0.1443 -0.6294
 5647SOL    HW128403   4.427   2.947   3.141 -0.2174 -0.3827  1.5464
 5647SOL    HW228404   4.298   2.922   3.204  1.0965 -1.8562 -1.1054
 5648SOL     OW28405   0.714   1.641  13.655 -0.2205  0.1447  0.2284
 5648SOL    HW128406   0.797   1.666  13.696  0.0121 -1.6174  0.8230
 5648SOL    HW228407   0.672   1.600  13.731  1.7707 -0.3037  1.1174
 5649SOL     OW28408   0.752   0.940  17.350 -0.3577 -0.7660 -0.2885
 5649SOL    HW128409   0.707   0.855  17.350  0.8594 -1.4154  0.1811
 5649SOL    HW228410   0.834   0.907  17.387  0.4956  0.7840 -0.8008
 5650SOL     OW28411   0.088   4.320   8.936  0.9057 -0.2968 -0.4925
 5650SOL    HW128412   0.167   4.371   8.955 -0.0328  1.5277 -1.4990
 5650SOL    HW228413   0.113   4.233   8.966  0.6762 -0.8118 -1.7760
 5651SOL     OW28414   1.756   0.591   8.513 -0.0212  0.1578  0.1588
 5651SOL    HW128415   1.819   0.641   8.564  0.9567 -1.0064  0.0876
 5651SOL    HW228416   1.714   0.658   8.459  0.3826  1.3290  1.3016
 5652SOL     OW28417   1.265   2.311   4.973  0.2802  0.0118  0.0309
 5652SOL    HW128418   1.229   2.232   5.013 -1.0384  1.3357  1.4652
 5652SOL    HW228419   1.345   2.323   5.022  0.0596 -2.6665  1.0667
 5653SOL     OW28420   1.958   4.695  14.096  0.5004  0.1670 -0.1131
 5653SOL    HW128421   1.921   0.058  14.116  0.4663  0.1428 -0.0722
 5653SOL    HW228422   1.946   4.696  14.001 -2.2554  0.7279  0.2298
 5654SOL     OW28423   3.973   2.204   1.310  0.4439 -0.1524 -0.0876
 5654SOL    HW128424   3.895   2.258   1.297 -0.6225 -1.0823  2.3865
 5654SOL    HW228425   3.979   2.210   1.405  2.1877  0.4696 -0.2382
 5655SOL     OW28426   0.310   3.827   2.705 -0.0631 -0.1846  0.7861
 5655SOL    HW128427   0.290   3.896   2.642  0.5201  1.5510  2.4852
 5655SOL    HW228428   0.305   3.879   2.785  0.0355  0.9000  0.0874
 5656SOL     OW28429   0.943   2.640   1.614 -0.2764 -0.2140 -0.3675
 5656SOL    HW128430   1.000   2.696   1.668  1.5013 -3.6197  1.2397
 5656SOL    HW228431   0.959   2.558   1.660 -1.9791 -0.1192  0.3856
 5657SOL     OW28432   2.225   3.767   8.803 -0.2594 -0.4302  0.2199
 5657SOL    HW128433   2.212   3.691   8.747  1.0249 -2.2308  2.3210
 5657SOL    HW228434   2.249   3.714   8.879  1.7442  0.3275  0.1474
 5658SOL     OW28435   2.728   4.567  16.460  0.0274  0.3371  0.1710
 5658SOL    HW128436   2.736   4.496  16.523  1.5929  0.7368  0.4172
 5658SOL    HW228437   2.634   4.566  16.440 -0.0529 -0.8064  0.6019
 5659SOL     OW28438   3.869   2.254   9.898  0.2523  0.4204 -0.4492
 5659SOL    HW128439   3.950   2.305   9.890  0.2009  0.3604 -1.3143
 5659SOL    HW228440   3.879   2.206   9.816  0.9068 -0.3542  0.0759
 5660SOL     OW28441   3.424   3.465   7.070  0.1807  0.0459  0.0538
 5660SOL    HW128442   3.465   3.550   7.087 -1.6684  1.5162 -2.8370
 5660SOL    HW228443   3.457   3.442   6.984  1.2924  0.0266  0.4867
 5661SOL     OW28444   1.556   1.267   7.014  0.2126 -0.0312  0.1909
 5661SOL    HW128445   1.645   1.251   6.982  0.6163  0.9376  0.8292
 5661SOL    HW228446   1.510   1.231   6.938  0.1869  1.5215 -0.5160
 5662SOL     OW28447   1.046   3.824   4.694  0.2496  0.1783  0.4628
 5662SOL    HW128448   0.981   3.842   4.627  1.0347  2.5956  0.3247
 5662SOL    HW228449   1.091   3.748   4.659  0.4609  0.0578  0.9848
 5663SOL     OW28450   0.392   3.519   0.989 -0.2959 -0.2542  0.0506
 5663SOL    HW128451   0.335   3.565   0.927 -1.8963 -0.8573  1.0821
 5663SOL    HW228452   0.367   3.556   1.074  0.1744 -0.5654  0.3177
 5664SOL     OW28453   4.115   3.837   0.711 -0.2003  0.0688 -0.3791
 5664SOL    HW128454   4.111   3.757   0.659  0.2110 -0.6237  0.6573
 5664SOL    HW228455   4.072   3.891   0.645 -0.7052  1.7693  1.3427
 5665SOL     OW28456   0.618   1.398   3.214 -0.2222  0.0083 -0.5686
 5665SOL    HW128457   0.642   1.374   3.124 -2.7358 -3.8397 -0.2385
 5665SOL    HW228458   0.697   1.442   3.244 -0.6261  0.4608 -0.1769
 5666SOL     OW28459   0.908   3.481   4.771 -0.5369 -0.2143  0.5767
 5666SOL    HW128460   0.896   3.407   4.831 -0.1239  0.4344  1.4573
 5666SOL    HW228461   0.873   3.561   4.810 -1.6418 -0.2442 -0.3821
 5667SOL     OW28462   0.966   3.867   0.957  0.2513  0.2948 -0.2402
 5667SOL    HW128463   0.922   3.857   0.873  0.0317  0.3649 -0.1336
 5667SOL    HW228464   0.956   3.776   0.984  0.0725  0.8646  1.6144
 5668SOL     OW28465   4.185   3.647   5.693 -0.2823  0.1193 -0.4549
 5668SOL    HW128466   4.145   3.607   5.771 -0.5861  0.6521 -0.3369
 5668SOL    HW228467   4.154   3.736   5.710  0.3947  0.5175 -1.3354
 5669SOL     OW28468   2.708   3.617   9.309  0.6639 -0.2909 -0.0576
 5669SOL    HW128469   2.646   3.676   9.351 -0.0557 -2.7442  2.3250
 5669SOL    HW228470   2.653   3.541   9.293  0.2328 -0.1344  0.6800
 5670SOL     OW28471   0.197   0.245   5.734  0.6844 -0.0825  0.0120
 5670SOL    HW128472   0.217   0.186   5.661  1.1996  0.6140 -0.4123
 5670SOL    HW228473   0.160   0.325   5.698 -1.1850 -1.1001 -0.3585
 5671SOL     OW28474   0.003   2.916   5.731  0.1233 -1.1974 -0.0015
 5671SOL    HW128475   4.706   2.837   5.680 -4.6523  1.5540 -2.4701
 5671SOL    HW228476   4.635   2.936   5.755  0.3411  1.7048 -1.6029
 5672SOL     OW28477   1.729   1.865  11.184  0.3684 -0.0365  0.3294
 5672SOL    HW128478   1.729   1.773  11.212  1.5286 -0.5416 -1.3323
 5672SOL    HW228479   1.705   1.853  11.092 -1.4773 -0.6353  0.8835
 5673SOL     OW28480   1.394   2.820   9.964 -0.0766 -0.1062 -0.5390
 5673SOL    HW128481   1.407   2.903   9.919  0.7411 -0.6970 -1.3955
 5673SOL    HW228482   1.372   2.763   9.890  0.9895  0.5364 -1.3419
 5674SOL     OW28483   0.079   3.108  17.012  0.0137  0.1125  0.2881
 5674SOL    HW128484   4.712   3.137  16.992  0.3889  0.1197 -1.3351
 5674SOL    HW228485   0.102   3.049  16.941  0.2044  0.8955 -0.2991
 5675SOL     OW28486   2.011   2.763   6.484 -0.5961  0.4911 -0.0219
 5675SOL    HW128487   2.044   2.697   6.424  0.8589  1.5166 -0.3659
 5675SOL    HW228488   1.988   2.703   6.554 -0.1055 -1.7452 -1.7760
 5676SOL     OW28489   3.432   0.461  10.962 -0.6025  0.6164  0.1147
 5676SOL    HW128490   3.453   0.553  10.947 -0.5463 -0.1608 -4.6674
 5676SOL    HW228491   3.349   0.447  10.916 -1.0142  1.0954  0.7125
 5677SOL     OW28492   1.468   3.445   5.732  0.8975 -0.2608 -0.5934
 5677SOL    HW128493   1.505   3.445   5.644 -1.9228 -0.7978 -1.7861
 5677SOL    HW228494   1.513   3.371   5.772 -0.7059  0.7492  3.0361
 5678SOL     OW28495   4.233   0.896   8.346  0.4420 -0.7188  0.1825
 5678SOL    HW128496   4.294   0.823   8.340  1.1178 -0.0228 -1.5941
 5678SOL    HW228497   4.205   0.893   8.254  2.4156  1.7029 -0.4956
 5679SOL     OW28498   1.213   2.843  10.580  0.1886  0.0267  0.4348
 5679SOL    HW128499   1.241   2.767  10.631 -0.7428 -1.1226 -0.7630
 5679SOL    HW228500   1.264   2.822  10.501  0.6555 -1.8522  1.2390
 5680SOL     OW28501   1.744   1.523  10.646  0.2014  0.2079  0.3692
 5680SOL    HW128502   1.821   1.542  10.594  0.8158 -0.0080  1.2030
 5680SOL    HW228503   1.718   1.612  10.668  1.4648  0.3446  1.3109
 5681SOL     OW28504   4.021   2.186   4.586 -0.1888 -0.5529 -0.0056
 5681SOL    HW128505   4.046   2.190   4.678 -0.7168 -0.5771  0.1391
 5681SOL    HW228506   4.093   2.241   4.556 -0.7258 -0.1395 -0.5241
 5682SOL     OW28507   1.115   1.263   2.658  0.1191  0.0772  0.4100
 5682SOL    HW128508   1.043   1.324   2.677 -0.0461  0.4524 -1.4366
 5682SOL    HW228509   1.167   1.322   2.604 -1.6344 -0.0678 -1.4334
 5683SOL     OW28510   1.530   4.258   6.002  0.5094 -0.7095  0.2485
 5683SOL    HW128511   1.604   4.252   6.062 -0.1110 -0.3321  1.0472
 5683SOL    HW228512   1.496   4.169   6.008  1.1846 -1.0326 -0.8137
 5684SOL     OW28513   0.752   2.127   5.467 -0.2851 -0.1002  0.7013
 5684SOL    HW128514   0.705   2.147   5.549 -0.9896 -2.5407  0.8737
 5684SOL    HW228515   0.831   2.084   5.500 -2.0152 -0.9061  3.8560
 5685SOL     OW28516   3.558   3.056   3.641 -0.2681 -0.0545 -0.0971
 5685SOL    HW128517   3.634   3.071   3.586  1.0529 -2.2131  1.1470
 5685SOL    HW228518   3.485   3.081   3.583 -0.5804 -0.8011 -0.0201
 5686SOL     OW28519   1.111   3.660   9.107 -0.3109  0.4733 -0.0739
 5686SOL    HW128520   1.166   3.738   9.099  1.7292 -0.9749 -0.1424
 5686SOL    HW228521   1.123   3.612   9.026  1.9656  1.2847 -0.2143
 5687SOL     OW28522   0.744   1.673   1.513 -0.0839  0.1715 -0.0304
 5687SOL    HW128523   0.824   1.700   1.468  0.4286 -2.7660 -0.8817
 5687SOL    HW228524   0.698   1.640   1.436 -1.4494  1.0864  0.3984
 5688SOL     OW28525   2.632   3.651   8.958 -0.3606  0.4759 -0.2577
 5688SOL    HW128526   2.632   3.606   8.874 -0.8691  2.3589 -1.2769
 5688SOL    HW228527   2.595   3.579   9.008  2.4710 -0.5467  0.3586
 5689SOL     OW28528   1.982   2.111  10.274 -0.5265  0.6525 -0.2384
 5689SOL    HW128529   2.049   2.145  10.214  0.1198  2.2221  1.3618
 5689SOL    HW228530   1.955   2.194  10.312 -0.3680 -0.3265  2.0226
 5690SOL     OW28531   0.008   4.413   8.429 -0.0904  0.7657 -0.1719
 5690SOL    HW128532   0.095   4.430   8.393  0.6175  0.4928  1.4156
 5690SOL    HW228533   4.701   4.349   8.363 -0.7884  1.8131 -0.8751
 5691SOL     OW28534   3.433   3.656  14.193  0.1401 -0.4853 -0.3468
 5691SOL    HW128535   3.383   3.705  14.128 -0.4532  0.3136  0.7260
 5691SOL    HW228536   3.521   3.694  14.185 -0.6470  1.1212 -1.1556
 5692SOL     OW28537   4.170   4.546   3.284  0.1044  0.1480  0.4855
 5692SOL    HW128538   4.146   4.461   3.322 -1.2201  0.4369  0.3213
 5692SOL    HW228539   4.204   4.514   3.201 -0.4618 -1.0412  0.7041
 5693SOL     OW28540   4.469   2.650  11.106 -0.0442 -0.7303 -0.2627
 5693SOL    HW128541   4.547   2.608  11.142 -0.0297 -0.6949 -0.2526
 5693SOL    HW228542   4.505   2.733  11.074 -1.1522 -0.5110 -0.9149
 5694SOL     OW28543   1.763   3.340  11.250 -0.0769  0.5440 -0.2913
 5694SOL    HW128544   1.778   3.341  11.345  1.6015 -2.9241 -0.5150
 5694SOL    HW228545   1.826   3.407  11.224  1.7909 -1.5350 -1.0868
 5695SOL     OW28546   0.855   4.484   3.749 -0.1011 -0.6332  0.1365
 5695SOL    HW128547   0.881   4.538   3.674 -0.8160  3.4685  2.8507
 5695SOL    HW228548   0.770   4.522   3.771  0.9858  1.1814  1.1010
 5696SOL     OW28549   1.980   1.374   8.760  0.7929  0.2215  0.3545
 5696SOL    HW128550   1.961   1.377   8.854 -1.2717 -0.1027 -0.0621
 5696SOL    HW228551   2.022   1.288   8.756 -2.1099 -1.2411  0.9998
 5697SOL     OW28552   3.682   0.371   6.759 -0.0738  0.2793  0.4848
 5697SOL    HW128553   3.651   0.460   6.777  1.2693  1.2985 -2.2871
 5697SOL    HW228554   3.674   0.368   6.664  0.9543  1.7289  0.3623
 5698SOL     OW28555   4.468   3.957   6.997  0.5372 -0.8050 -0.4413
 5698SOL    HW128556   4.518   3.989   6.922  0.0515 -0.0720 -0.4465
 5698SOL    HW228557   4.457   4.039   7.045 -0.7869 -0.6042 -1.1024
 5699SOL     OW28558   1.367   4.460  16.657  0.3503 -0.3385  0.1385
 5699SOL    HW128559   1.370   4.376  16.611  1.5101 -0.7723  0.9950
 5699SOL    HW228560   1.395   4.418  16.738  3.3324 -0.2158 -0.8242
 5700SOL     OW28561   4.694   1.656   8.173 -0.1921  0.2666  0.1412
 5700SOL    HW128562   4.698   1.711   8.095  1.8901 -1.5590 -1.0570
 5700SOL    HW228563   0.053   1.608   8.158  0.6392  1.1618  1.6946
 5701SOL     OW28564   0.829   4.286   0.906  0.1553  0.8509 -0.2989
 5701SOL    HW128565   0.839   4.359   0.968 -0.0984  0.3090  0.3790
 5701SOL    HW228566   0.916   4.244   0.909  0.6833  1.8403 -1.7126
 5702SOL     OW28567   4.566   3.678  12.940 -0.2839  0.4742  0.4868
 5702SOL    HW128568   4.490   3.626  12.916 -0.2676  0.4089  0.5779
 5702SOL    HW228569   4.551   3.682  13.035  0.6420  2.7943  0.5336
 5703SOL     OW28570   2.639   4.035   5.536  0.5251 -0.5923 -0.2215
 5703SOL    HW128571   2.733   4.045   5.551  0.0716  1.4568  1.3019
 5703SOL    HW228572   2.612   4.120   5.572 -0.3322 -1.0016  0.0896
 5704SOL     OW28573   4.374   0.063   2.990  0.3829 -0.1644 -0.3906
 5704SOL    HW128574   4.398   0.146   2.950  0.7371  0.1596  0.4951
 5704SOL    HW228575   4.304   0.094   3.047  0.3307 -1.2956  0.1745
 5705SOL     OW28576   2.235   0.200   5.046  0.5666  0.3346  0.3746
 5705SOL    HW128577   2.175   0.253   5.097  0.4121 -0.5363  1.1059
 5705SOL    HW228578   2.223   0.219   4.953 -0.7451 -0.5143  0.3839
 5706SOL     OW28579   2.247   3.237   4.972 -0.0009  0.2472 -0.7503
 5706SOL    HW128580   2.295   3.245   4.890  0.1761 -1.7329 -0.8447
 5706SOL    HW228581   2.303   3.283   5.035 -0.3540 -2.7090  1.7477
 5707SOL     OW28582   2.889   0.682  16.711 -0.6097 -0.0708  0.0441
 5707SOL    HW128583   2.951   0.627  16.759 -1.7051  0.8130  2.4839
 5707SOL    HW228584   2.884   0.757  16.770  0.5060 -0.6065  0.8468
 5708SOL     OW28585   2.313   1.127  16.913  0.0647  0.1423 -0.4916
 5708SOL    HW128586   2.262   1.067  16.966 -1.3561  0.9549 -0.9503
 5708SOL    HW228587   2.248   1.157  16.850  0.1601  2.2132  0.4058
 5709SOL     OW28588   4.604   1.470  17.313  0.3313 -0.2106 -0.2066
 5709SOL    HW128589   4.617   1.434  17.226 -0.1287 -0.2880 -0.2467
 5709SOL    HW228590   4.624   1.398  17.373  2.2641 -0.7840 -1.5387
 5710SOL     OW28591   3.244   1.722   5.881 -0.0690 -0.5822 -0.7048
 5710SOL    HW128592   3.284   1.664   5.816  0.3408 -1.6354  0.4886
 5710SOL    HW228593   3.307   1.793   5.866  0.0257 -0.4846  0.1639
 5711SOL     OW28594   1.698   4.170   6.218 -0.0108 -0.2426  0.4611
 5711SOL    HW128595   1.680   4.206   6.305  0.9031  0.3429  0.4181
 5711SOL    HW228596   1.736   4.083   6.225  2.1747  0.4749 -2.0856
 5712SOL     OW28597   2.651   3.050   3.207 -0.0635  0.3073 -0.6019
 5712SOL    HW128598   2.665   2.959   3.180 -0.0794  0.4699 -1.1613
 5712SOL    HW228599   2.730   3.091   3.172  0.3544 -1.4777 -1.7428
 5713SOL     OW28600   0.825   2.677  12.107  0.4643 -0.3713 -0.2787
 5713SOL    HW128601   0.797   2.621  12.034 -1.5931  0.0403  0.1986
 5713SOL    HW228602   0.804   2.615  12.177  1.7721  1.7569  1.9888
 5714SOL     OW28603   1.458   4.309  17.669  0.1061  0.2435  0.2787
 5714SOL    HW128604   1.457   4.265   0.063 -2.6284  1.4585  0.8776
 5714SOL    HW228605   1.445   4.234  17.610  0.8622 -1.2123  1.9485
 5715SOL     OW28606   0.988   4.566   7.145  0.4798 -0.4024 -0.6417
 5715SOL    HW128607   1.082   4.583   7.136  0.1491 -0.3841 -4.0194
 5715SOL    HW228608   0.991   4.513   7.225  0.3736 -1.1472 -1.1279
 5716SOL     OW28609   1.985   0.121   3.692 -0.4748 -0.0776 -0.1132
 5716SOL    HW128610   2.021   0.130   3.604  1.8104 -1.9797  0.6079
 5716SOL    HW228611   1.909   0.179   3.692  0.1494  0.7355 -0.9446
 5717SOL     OW28612   0.090   0.802  17.654  0.0196  0.6793 -0.8961
 5717SOL    HW128613   0.182   0.803  17.680 -0.0426 -2.0811 -0.6046
 5717SOL    HW228614   0.043   0.799   0.047 -0.4265  1.3051 -1.1209
 5718SOL     OW28615   3.276   0.962  11.010  0.6069  0.6057 -1.0617
 5718SOL    HW128616   3.218   1.029  10.975 -0.9742 -0.5129 -0.5469
 5718SOL    HW228617   3.239   0.941  11.095  0.9246  0.8812 -0.8545
 5719SOL     OW28618   1.548   4.184   8.714 -0.6987 -0.6253  0.4623
 5719SOL    HW128619   1.612   4.113   8.708  0.7563  0.8851 -1.8087
 5719SOL    HW228620   1.467   4.150   8.753 -1.5871 -1.6367 -2.2859
 5720SOL     OW28621   2.691   1.139   0.556  0.2462  0.0666 -0.2196
 5720SOL    HW128622   2.688   1.173   0.466 -3.0502  1.8043  0.5396
 5720SOL    HW228623   2.676   1.220   0.605 -0.6763  0.2733 -0.8451
 5721SOL     OW28624   2.564   4.599   3.869  0.2293  0.1264 -0.0596
 5721SOL    HW128625   2.556   4.669   3.934  0.5953 -0.6700  0.8266
 5721SOL    HW228626   2.582   4.641   3.785 -0.8106  2.8836  1.0922
 5722SOL     OW28627   0.991   0.781   5.698  0.1104 -0.1217 -0.0733
 5722SOL    HW128628   1.078   0.750   5.674  0.9375  3.4856 -1.6504
 5722SOL    HW228629   0.942   0.783   5.616  1.1023  0.7079 -0.6327
 5723SOL     OW28630   1.631   2.993   6.548  0.2061 -0.2400 -0.2123
 5723SOL    HW128631   1.537   3.014   6.550  0.0872 -0.7088 -1.0561
 5723SOL    HW228632   1.655   3.041   6.469 -0.4823  1.2393  0.4637
 5724SOL     OW28633   3.488   0.431   7.968  0.1009  0.4125 -0.2176
 5724SOL    HW128634   3.527   0.354   7.927  2.5143  0.7354  1.4776
 5724SOL    HW228635   3.567   0.470   8.005  0.4313 -0.7027  0.2363
 5725SOL     OW28636   0.874   3.124   9.632  0.0329 -0.0449  0.5233
 5725SOL    HW128637   0.805   3.169   9.682 -1.2701 -1.0819 -0.3349
 5725SOL    HW228638   0.916   3.201   9.593  0.7869  0.2847  1.9920
 5726SOL     OW28639   0.491   2.949   2.951  0.0949  0.0392  0.0526
 5726SOL    HW128640   0.501   3.023   3.010 -1.3873 -0.1112  0.4878
 5726SOL    HW228641   0.556   2.886   2.984 -1.1172 -0.2894  1.8015
 5727SOL     OW28642   4.286   2.784  16.430  0.3765  0.4348  0.0011
 5727SOL    HW128643   4.267   2.726  16.356 -1.5366 -0.4839  1.2243
 5727SOL    HW228644   4.201   2.827  16.441 -0.1039 -0.6301  0.4382
 5728SOL     OW28645   0.770   4.158   5.940  0.0424  0.2425  0.4634
 5728SOL    HW128646   0.777   4.251   5.919  1.0991 -0.0921 -0.6460
 5728SOL    HW228647   0.849   4.116   5.905  0.0967  0.6287  0.1362
 5729SOL     OW28648   3.039   4.633   3.936 -0.5958  0.5297  0.0765
 5729SOL    HW128649   2.990   4.559   3.971 -1.3849  1.2424  0.4707
 5729SOL    HW228650   3.124   4.631   3.981 -0.6910 -1.5495  0.1752
 5730SOL     OW28651   4.292   3.844   9.477 -0.0002  0.3687  0.1323
 5730SOL    HW128652   4.272   3.938   9.477 -2.6526 -0.2126 -0.2705
 5730SOL    HW228653   4.333   3.839   9.563  2.3473 -1.7281 -1.1240
 5731SOL     OW28654   2.559   3.812   2.432 -0.2504 -0.5601 -0.3413
 5731SOL    HW128655   2.583   3.891   2.385 -0.5885 -0.1440  0.1825
 5731SOL    HW228656   2.464   3.824   2.442 -0.0493  1.3096 -0.6401
 5732SOL     OW28657   0.277   0.482  11.338 -0.8202  0.5423  0.2408
 5732SOL    HW128658   0.295   0.550  11.403  0.5988  1.9539 -1.6335
 5732SOL    HW228659   0.182   0.470  11.340 -0.3891 -2.9922 -0.0591
 5733SOL     OW28660   0.846   2.186  14.878 -0.4958 -0.1425 -0.1727
 5733SOL    HW128661   0.831   2.100  14.839 -0.0167 -0.7866  1.0522
 5733SOL    HW228662   0.845   2.172  14.973 -2.5860  0.8302 -0.0573
 5734SOL     OW28663   1.207   0.521  10.824  0.0659  0.3966  0.5864
 5734SOL    HW128664   1.241   0.606  10.796 -0.8739  1.1862  1.8176
 5734SOL    HW228665   1.119   0.523  10.788  0.0596 -1.3547  0.4931
 5735SOL     OW28666   4.188   0.091   5.302  0.2927  0.2763  0.6491
 5735SOL    HW128667   4.176   4.721   5.281 -0.7420  0.4030  0.6884
 5735SOL    HW228668   4.263   0.110   5.245 -0.6377 -0.3758 -0.8004
 5736SOL     OW28669   0.939   4.684   7.724  0.1493 -0.2555  0.2650
 5736SOL    HW128670   0.995   0.003   7.790  1.9993  2.0655 -2.7644
 5736SOL    HW228671   0.938   4.599   7.769  2.2855  0.4859  1.7481
 5737SOL     OW28672   4.064   0.609  15.939  0.4793  0.3016  0.3468
 5737SOL    HW128673   4.018   0.528  15.962 -1.9349  0.8629 -2.4950
 5737SOL    HW228674   4.030   0.674  16.001  0.2775 -1.3524  1.9591
 5738SOL     OW28675   1.080   1.331   7.790 -0.4542  0.4666  0.5306
 5738SOL    HW128676   1.020   1.281   7.845 -1.9736  0.2306 -1.3574
 5738SOL    HW228677   1.147   1.267   7.763 -0.7097 -1.6583  5.0258
 5739SOL     OW28678   1.597   2.303  14.784  0.0292 -0.2625  0.3754
 5739SOL    HW128679   1.599   2.292  14.689 -3.0098 -0.8560  0.3820
 5739SOL    HW228680   1.508   2.266  14.789  0.9053 -2.3365  0.5974
 5740SOL     OW28681   2.325   2.788   0.486  0.0991  0.0148  0.7316
 5740SOL    HW128682   2.353   2.852   0.420  0.4479  1.2337  2.0564
 5740SOL    HW228683   2.231   2.791   0.467 -0.3709  0.3716  3.1877
 5741SOL     OW28684   4.160   0.576   2.550  0.2000  0.2780 -0.1554
 5741SOL    HW128685   4.192   0.490   2.576 -0.3829 -0.1556 -0.8869
 5741SOL    HW228686   4.068   0.550   2.541  0.3191 -0.3511  0.4997
 5742SOL     OW28687   0.724   1.359   5.796  0.3831 -0.5984 -0.0153
 5742SOL    HW128688   0.688   1.401   5.874 -2.0778  1.0040 -2.0309
 5742SOL    HW228689   0.795   1.418   5.774  0.5337 -0.4565  0.8599
 5743SOL     OW28690   3.091   4.660   4.515 -0.8680  0.0450  0.2788
 5743SOL    HW128691   3.062   4.630   4.429  0.2693 -1.3311  0.3838
 5743SOL    HW228692   3.038   0.014   4.541 -2.1870 -0.8679  0.2679
 5744SOL     OW28693   0.949   4.176   8.466 -0.4912 -0.2701 -0.2927
 5744SOL    HW128694   0.926   4.247   8.406 -0.0046 -1.0272 -1.3627
 5744SOL    HW228695   1.004   4.126   8.406 -1.0724 -0.5008 -0.6352
 5745SOL     OW28696   1.590   0.863   8.103  0.2601  0.2508 -0.0315
 5745SOL    HW128697   1.636   0.800   8.047 -0.0183 -0.7132  0.8295
 5745SOL    HW228698   1.661   0.923   8.127 -1.4951  2.3468 -0.0463
 5746SOL     OW28699   0.924   1.532   5.791  0.1923 -0.0323  0.4223
 5746SOL    HW128700   0.961   1.560   5.707  0.6952  0.1207  0.6943
 5746SOL    HW228701   1.001   1.490   5.830  0.9758  0.1151 -0.9502
 5747SOL     OW28702   2.514   3.665   7.509 -0.5226 -0.1205 -0.1033
 5747SOL    HW128703   2.584   3.628   7.456 -1.6665 -2.4719  0.0208
 5747SOL    HW228704   2.463   3.710   7.442 -2.9165  0.7254  2.2960
 5748SOL     OW28705   3.801   0.062   6.544  0.3220 -0.1110 -0.2850
 5748SOL    HW128706   3.859   0.137   6.531 -0.0276  0.0102 -1.1237
 5748SOL    HW228707   3.719   0.098   6.512 -0.3207 -0.5281  0.9010
 5749SOL     OW28708   3.123   2.522   5.733  0.5717  0.2080  0.3299
 5749SOL    HW128709   3.165   2.488   5.653 -1.8878  2.4470 -1.9193
 5749SOL    HW228710   3.065   2.450   5.759  0.5520  0.6285  1.4066
 5750SOL     OW28711   2.332   1.698   5.987  0.4057 -0.5022  1.1137
 5750SOL    HW128712   2.308   1.635   5.919  2.9654 -0.7740  0.4798
 5750SOL    HW228713   2.377   1.638   6.047  4.8844  1.7341  0.0091
 5751SOL     OW28714   0.644   0.155   9.854  0.4854 -0.0927 -0.6273
 5751SOL    HW128715   0.673   0.162   9.945 -2.5582  4.7696 -0.0253
 5751SOL    HW228716   0.550   0.170   9.854  0.3644 -0.7697  1.4553
 5752SOL     OW28717   1.947   1.996   7.335  0.5874  0.3191 -0.1569
 5752SOL    HW128718   1.912   1.960   7.253 -1.3320  1.3272  0.2119
 5752SOL    HW228719   2.032   2.030   7.305 -0.4379  1.1815 -2.1079
 5753SOL     OW28720   1.232   1.712   5.233  0.0602  0.1353 -0.4057
 5753SOL    HW128721   1.212   1.620   5.246  1.3450  0.0070  0.7411
 5753SOL    HW228722   1.259   1.707   5.141  1.0224  3.6784 -0.3043
 5754SOL     OW28723   0.481   3.025   6.813 -0.3740  0.1019 -0.2311
 5754SOL    HW128724   0.571   3.038   6.845 -0.1679 -0.1562 -0.7023
 5754SOL    HW228725   0.499   2.975   6.734 -1.1542  0.4499 -0.6256
 5755SOL     OW28726   2.829   2.562   6.539  0.5389 -0.6144  0.0178
 5755SOL    HW128727   2.909   2.575   6.489 -1.1525  1.4719 -2.1050
 5755SOL    HW228728   2.817   2.648   6.580 -0.0196 -1.1348  0.9663
 5756SOL     OW28729   0.367   4.299   2.246  0.4663 -0.4981  0.7258
 5756SOL    HW128730   0.358   4.226   2.185 -2.4049 -1.1795  1.9656
 5756SOL    HW228731   0.401   4.253   2.323  1.6878 -1.7333 -0.5614
 5757SOL     OW28732   2.141   0.665   3.627  0.0738  0.1707  0.3424
 5757SOL    HW128733   2.199   0.678   3.702 -0.8364 -0.3528  1.1454
 5757SOL    HW228734   2.124   0.757   3.607  1.5766  0.4735  0.4869
 5758SOL     OW28735   3.818   1.047   6.060 -0.4308  0.1953 -0.3246
 5758SOL    HW128736   3.727   1.072   6.043 -0.5751 -0.8577 -1.1055
 5758SOL    HW228737   3.868   1.073   5.982 -0.8727  0.8199 -0.4066
 5759SOL     OW28738   1.803   4.543   1.511 -0.4959  0.0210  0.0931
 5759SOL    HW128739   1.794   4.630   1.472 -0.5821 -0.1002 -0.1630
 5759SOL    HW228740   1.784   4.482   1.439  0.0293  0.9490 -0.8285
 5760SOL     OW28741   4.425   1.783  11.433 -0.0269  0.1194 -0.7342
 5760SOL    HW128742   4.515   1.811  11.450  0.2097 -0.8446 -0.3593
 5760SOL    HW228743   4.435   1.738  11.349 -1.0263  3.0206 -2.3810
 5761SOL     OW28744   2.785   2.172  14.823  0.4801 -0.2974  0.0966
 5761SOL    HW128745   2.739   2.158  14.906 -1.8904 -2.8946 -1.6717
 5761SOL    HW228746   2.702   2.179  14.775  0.5715  1.6027  0.2104
 5762SOL     OW28747   4.106   1.487   8.260 -0.7486 -0.1259  0.5847
 5762SOL    HW128748   4.119   1.534   8.342  0.6619  0.0357  0.2620
 5762SOL    HW228749   4.136   1.543   8.189 -1.1430  1.1552  1.4371
 5763SOL     OW28750   0.102   4.040   6.506  0.3474  0.2786  0.6298
 5763SOL    HW128751   0.093   3.973   6.573  0.1448 -1.8895 -1.5753
 5763SOL    HW228752   0.066   4.123   6.537 -0.8748  0.4642 -1.2487
 5764SOL     OW28753   2.705   3.558   2.305 -0.6531 -0.6678  0.2341
 5764SOL    HW128754   2.621   3.595   2.277  0.1540  1.0520  0.1070
 5764SOL    HW228755   2.687   3.464   2.312  3.1106 -1.4170  0.0537
 5765SOL     OW28756   0.626   2.928   1.416 -0.6051 -0.2322  0.3705
 5765SOL    HW128757   0.536   2.925   1.449  0.0294 -2.1148  1.9354
 5765SOL    HW228758   0.614   2.932   1.321  1.5210  1.3265  0.1666
 5766SOL     OW28759   1.070   4.533   4.623 -0.2476  0.3653  0.5754
 5766SOL    HW128760   1.145   4.518   4.566 -0.7082 -0.8534  0.2892
 5766SOL    HW228761   1.049   4.441   4.641  0.1438 -0.1645 -1.7062
 5767SOL     OW28762   3.355   2.914   7.843 -0.0627  0.5005 -0.4032
 5767SOL    HW128763   3.368   2.877   7.756 -2.3661 -2.0085  0.3101
 5767SOL    HW228764   3.409   2.991   7.828  1.5313 -0.5960 -0.2631
 5768SOL     OW28765   4.007   2.347  14.128  0.3289 -0.2688 -0.3842
 5768SOL    HW128766   4.043   2.282  14.189  0.9709  1.1340  0.7565
 5768SOL    HW228767   3.934   2.298  14.091  1.1329 -0.7582 -1.2955
 5769SOL     OW28768   1.474   3.770   4.176  0.2895 -0.1971 -0.7844
 5769SOL    HW128769   1.382   3.786   4.194  0.2990  1.3743 -2.0958
 5769SOL    HW228770   1.509   3.858   4.158  1.3584 -0.8095 -1.6598
 5770SOL     OW28771   1.837   3.694   5.329 -0.5741  0.0811 -0.6186
 5770SOL    HW128772   1.927   3.673   5.352 -1.0176 -2.1253 -0.9131
 5770SOL    HW228773   1.807   3.609   5.297  1.7110 -0.7202 -0.5948
 5771SOL     OW28774   1.083   3.166   5.984  0.0926  0.4592  0.2145
 5771SOL    HW128775   1.078   3.257   6.014 -0.7590  0.8223 -0.9848
 5771SOL    HW228776   1.137   3.172   5.905 -0.4375  1.2073 -0.0945
 5772SOL     OW28777   4.664   0.574   4.732 -0.6458  0.0185  0.7605
 5772SOL    HW128778   0.016   0.574   4.792 -1.2632  0.6705  1.5242
 5772SOL    HW228779   4.706   0.525   4.662 -1.1200 -1.5794  1.5821
 5773SOL     OW28780   2.122   3.411  11.651 -0.3245 -0.3716  0.4358
 5773SOL    HW128781   2.108   3.503  11.674  0.8205  0.4397 -2.1050
 5773SOL    HW228782   2.191   3.388  11.712 -1.0469  1.0625  1.8191
 5774SOL     OW28783   1.658   2.609   6.409  0.3713  0.7351 -0.4640
 5774SOL    HW128784   1.606   2.689   6.402 -1.2997 -0.5117 -2.4821
 5774SOL    HW228785   1.595   2.541   6.383  2.0231 -1.3144  0.8984
 5775SOL     OW28786   0.667   2.020  16.982  0.0397 -0.0771 -0.2749
 5775SOL    HW128787   0.595   1.957  16.978  1.4981 -1.8560  1.9207
 5775SOL    HW228788   0.742   1.962  16.987 -0.6250 -1.2075 -3.3519
 5776SOL     OW28789   0.869   1.873   7.970  0.1210 -0.0507  0.5553
 5776SOL    HW128790   0.867   1.963   7.938  0.2674  0.4391  1.9128
 5776SOL    HW228791   0.807   1.835   7.907  0.2819 -1.3216  1.1751
 5777SOL     OW28792   2.831   2.673   4.599 -0.3057  0.6673  0.0107
 5777SOL    HW128793   2.755   2.696   4.653 -2.0332 -2.9031 -0.9037
 5777SOL    HW228794   2.893   2.677   4.672 -2.0020 -1.5344  1.5579
 5778SOL     OW28795   0.095   2.650   8.942 -0.3644  0.2342  0.4252
 5778SOL    HW128796   0.187   2.666   8.960  0.1636 -0.7475 -1.4264
 5778SOL    HW228797   0.093   2.556   8.957  0.6846  0.2622  0.7089
 5779SOL     OW28798   1.141   4.387   3.430 -0.0518  0.4566 -0.1651
 5779SOL    HW128799   1.074   4.431   3.482 -0.4524  0.2840 -0.5397
 5779SOL    HW228800   1.197   4.462   3.411  0.2872  0.7311  1.9458
 5780SOL     OW28801   1.623   2.155  13.465  0.4364 -0.2847  0.0860
 5780SOL    HW128802   1.569   2.142  13.543 -1.2934  0.8303 -0.9324
 5780SOL    HW228803   1.641   2.248  13.473 -2.6954  0.4874 -1.7491
 5781SOL     OW28804   3.992   3.172   7.162 -0.1995 -0.4871  0.2545
 5781SOL    HW128805   4.027   3.093   7.204 -1.1367 -1.1286 -0.1504
 5781SOL    HW228806   4.070   3.201   7.115 -1.1045 -1.5300 -1.8971
 5782SOL     OW28807   2.127   4.373   8.330  0.0496 -0.2492 -0.3473
 5782SOL    HW128808   2.105   4.463   8.308 -0.5831 -0.3193  0.0023
 5782SOL    HW228809   2.086   4.368   8.417  1.1046 -0.9732  0.1167
 5783SOL     OW28810   3.108   0.884   6.210 -0.1317 -0.3897  0.4132
 5783SOL    HW128811   3.201   0.866   6.203 -0.4108 -0.4536 -3.1227
 5783SOL    HW228812   3.077   0.847   6.127 -1.0082  1.0973  0.0711
 5784SOL     OW28813   0.071   0.028   9.251 -0.0990  0.3711  0.0771
 5784SOL    HW128814   0.049   4.666   9.210  2.2537  0.6104 -1.6771
 5784SOL    HW228815   0.131   0.004   9.322 -0.8046 -0.1200  0.5097
 5785SOL     OW28816   2.903   4.447   9.482 -0.5092  0.0799 -0.1808
 5785SOL    HW128817   2.993   4.466   9.455  0.1452 -3.5411 -0.4570
 5785SOL    HW228818   2.870   4.532   9.511  0.6303  1.2579 -2.3812
 5786SOL     OW28819   3.643   1.483  10.144 -0.3270  0.0777 -0.3169
 5786SOL    HW128820   3.624   1.389  10.141 -1.1171  0.2193  0.2546
 5786SOL    HW228821   3.557   1.523  10.133  0.2712  1.7116  0.9674
 5787SOL     OW28822   2.436   4.158   2.446 -0.2560  0.2847 -0.2683
 5787SOL    HW128823   2.474   4.102   2.379 -0.3452 -1.1606  0.8850
 5787SOL    HW228824   2.467   4.246   2.424 -0.3731  0.5030  0.4099
 5788SOL     OW28825   0.509   3.871   8.449 -0.2553 -0.1780 -0.2183
 5788SOL    HW128826   0.441   3.804   8.452  0.3210 -0.7555 -0.2336
 5788SOL    HW228827   0.483   3.932   8.518  0.4296 -0.1726  0.0297
 5789SOL     OW28828   0.778   2.140   7.899  0.1524  0.2110  0.2264
 5789SOL    HW128829   0.821   2.176   7.977  0.5682  0.8197 -0.2871
 5789SOL    HW228830   0.709   2.203   7.881  0.1582 -0.1325 -0.9576
 5790SOL     OW28831   3.623   0.178   3.862  0.0604 -0.4614  0.2765
 5790SOL    HW128832   3.664   0.131   3.789 -2.1060 -0.5215 -0.8993
 5790SOL    HW228833   3.683   0.252   3.875  0.2548 -0.4405 -0.7221
 5791SOL     OW28834   0.673   2.012   8.443  0.3486 -0.3761  0.7689
 5791SOL    HW128835   0.655   2.057   8.360 -0.9536 -2.9606 -0.3509
 5791SOL    HW228836   0.610   2.056   8.500 -0.2312  1.0285 -0.9398
 5792SOL     OW28837   1.179   4.078   4.856 -0.4567 -0.1862  0.1733
 5792SOL    HW128838   1.161   4.076   4.950  0.5130 -0.0303  0.3635
 5792SOL    HW228839   1.147   3.993   4.826  0.9949 -1.0030  0.9321
 5793SOL     OW28840   2.384   4.100   4.653 -0.1915 -0.4044  0.5767
 5793SOL    HW128841   2.354   4.019   4.611  1.9783 -1.8313  1.8115
 5793SOL    HW228842   2.308   4.157   4.643 -0.1078 -0.7125 -1.9438
 5794SOL     OW28843   1.189   0.627   4.279  1.1398  0.2203  0.1705
 5794SOL    HW128844   1.259   0.588   4.226  1.4409  1.4906 -0.3833
 5794SOL    HW228845   1.239   0.613   4.360  1.7787  2.3389  0.1582
 5795SOL     OW28846   4.127   0.549   8.929  0.3493 -0.4149 -0.3473
 5795SOL    HW128847   4.067   0.605   8.979 -0.5984  0.3107 -2.3018
 5795SOL    HW228848   4.162   0.487   8.993  0.7169 -0.7912 -0.9152
 5796SOL     OW28849   1.465   4.396   6.712 -0.3882 -0.5049  0.4532
 5796SOL    HW128850   1.462   4.304   6.738 -0.8799 -1.4528 -2.9531
 5796SOL    HW228851   1.408   4.419   6.639 -1.7191 -0.5206  1.4890
 5797SOL     OW28852   2.172   3.187   4.017  0.2887 -0.4315 -0.0929
 5797SOL    HW128853   2.176   3.283   4.027  1.4259 -0.4922  0.0185
 5797SOL    HW228854   2.171   3.150   4.105 -0.2418  0.7876  0.4184
 5798SOL     OW28855   3.546   0.760  14.739 -1.0719  0.2051  0.3210
 5798SOL    HW128856   3.543   0.844  14.783  0.3178  0.7148 -0.5663
 5798SOL    HW228857   3.488   0.706  14.792  0.6060 -1.2146  0.7122
 5799SOL     OW28858   3.696   0.066   5.053  0.4235 -0.4711 -0.0837
 5799SOL    HW128859   3.635   0.136   5.076 -2.0823 -2.3318 -1.0318
 5799SOL    HW228860   3.783   0.106   5.056  1.0489 -1.9412  1.1991
 5800SOL     OW28861   1.310   1.698   2.534  0.2853 -0.6321  0.3766
 5800SOL    HW128862   1.342   1.760   2.469 -1.7114 -0.6758 -0.6381
 5800SOL    HW228863   1.218   1.695   2.508  0.0589  0.8974  1.0354
 5801SOL     OW28864   1.209   0.914   3.888  0.1780 -0.9480 -0.0753
 5801SOL    HW128865   1.301   0.941   3.892 -0.5957  1.7364 -1.1442
 5801SOL    HW228866   1.174   0.983   3.833  2.5687  0.2866 -0.0549
 5802SOL     OW28867   3.719   2.674   5.968 -0.7012 -0.2017 -0.2009
 5802SOL    HW128868   3.693   2.609   5.903 -1.8475  0.4060 -0.3463
 5802SOL    HW228869   3.634   2.675   6.011 -0.6245 -0.0839 -0.0473
 5803SOL     OW28870   2.435   4.187   6.286  0.1026 -0.9973  0.3062
 5803SOL    HW128871   2.388   4.161   6.364 -0.8054 -2.0182 -0.5891
 5803SOL    HW228872   2.481   4.265   6.318 -1.4502  0.7971 -1.8149
 5804SOL     OW28873   0.765   3.573   4.415  0.2116 -0.1452  0.0764
 5804SOL    HW128874   0.748   3.522   4.336  0.9281 -1.0950  0.5426
 5804SOL    HW228875   0.847   3.530   4.439  0.7227  1.0675  0.5209
 5805SOL     OW28876   2.391   2.052   5.844  0.1200 -0.0236  0.1209
 5805SOL    HW128877   2.359   2.141   5.854 -0.3405 -0.1489 -0.2526
 5805SOL    HW228878   2.351   2.004   5.917 -0.0574 -2.3392 -1.4976
 5806SOL     OW28879   2.679   0.532   7.147 -0.6904  0.2271  0.5938
 5806SOL    HW128880   2.721   0.474   7.211  0.1448 -1.0179 -1.0993
 5806SOL    HW228881   2.734   0.609   7.136  1.2798 -1.2090  0.4515
 5807SOL     OW28882   2.064   3.273   5.476  0.2737 -0.1887  0.2210
 5807SOL    HW128883   2.110   3.252   5.557  0.3988 -0.0076  0.1982
 5807SOL    HW228884   2.135   3.250   5.416  1.2348  0.8124  0.9816
 5808SOL     OW28885   2.905   4.062   5.518 -0.1964 -0.5810  0.5127
 5808SOL    HW128886   2.945   4.111   5.446 -0.4916 -0.1559  0.6382
 5808SOL    HW228887   2.952   3.979   5.513  0.8022  0.0829 -0.8129
 5809SOL     OW28888   2.617   0.236  13.397  0.1638 -0.3841  0.2067
 5809SOL    HW128889   2.634   0.237  13.303  0.6168 -1.4786  0.2747
 5809SOL    HW228890   2.533   0.193  13.410  0.6413 -0.9824  1.2502
 5810SOL     OW28891   3.829   2.832  14.926  0.0935 -0.3385  0.8345
 5810SOL    HW128892   3.899   2.897  14.929  0.3773 -0.5510 -0.8082
 5810SOL    HW228893   3.862   2.762  14.982 -2.4351 -1.6385  0.7082
 5811SOL     OW28894   3.412   0.285   9.265 -0.5172 -0.3159  0.3666
 5811SOL    HW128895   3.359   0.342   9.209 -1.2597 -0.7736  0.6069
 5811SOL    HW228896   3.444   0.355   9.322 -0.4849 -1.3143  1.5753
 5812SOL     OW28897   3.833   0.110  15.973 -0.1192 -0.1209  0.2514
 5812SOL    HW128898   3.834   0.078  16.064  1.2295  0.4142  0.4306
 5812SOL    HW228899   3.839   0.021  15.937  0.2092  0.3337 -0.8095
 5813SOL     OW28900   3.695   0.423  13.506  0.2412 -0.1031  0.3032
 5813SOL    HW128901   3.607   0.437  13.541  0.6895  1.3777  0.8343
 5813SOL    HW228902   3.720   0.515  13.495  0.1893 -0.3056 -1.5695
 5814SOL     OW28903   1.609   3.333  15.493  0.5033 -0.4051 -0.1399
 5814SOL    HW128904   1.607   3.298  15.404  0.8041  2.3356 -1.2438
 5814SOL    HW228905   1.692   3.381  15.487  0.7250 -1.1790 -3.3250
 5815SOL     OW28906   2.383   2.630   8.931 -0.4234 -0.2694  0.6802
 5815SOL    HW128907   2.382   2.721   8.960 -3.5819 -0.1827  0.3939
 5815SOL    HW228908   2.310   2.588   8.979  0.7101 -2.3707  0.5629
 5816SOL     OW28909   1.394   3.502   6.788  0.3073 -0.0556  0.0070
 5816SOL    HW128910   1.413   3.589   6.753 -1.7783  0.5896  0.4535
 5816SOL    HW228911   1.453   3.442   6.741 -0.5092 -0.0586 -1.0082
 5817SOL     OW28912   4.220   1.627   7.754 -0.0351 -0.1517  0.0689
 5817SOL    HW128913   4.269   1.566   7.809  0.8116  0.4320 -0.0319
 5817SOL    HW228914   4.167   1.573   7.696  0.9822  0.4506 -1.4095
 5818SOL     OW28915   3.215   3.498   7.829  1.0464 -0.1965  0.2551
 5818SOL    HW128916   3.261   3.423   7.790 -1.9394 -2.7965  1.7903
 5818SOL    HW228917   3.137   3.505   7.773 -0.7889 -2.1675  2.5808
 5819SOL     OW28918   2.379   2.590   7.155 -0.1686 -0.1988 -0.0729
 5819SOL    HW128919   2.330   2.518   7.115 -1.1569  1.5315 -1.9983
 5819SOL    HW228920   2.469   2.572   7.126  0.9834  4.5116  0.5494
 5820SOL     OW28921   0.905   0.421  11.190 -0.0136 -0.0964 -0.9112
 5820SOL    HW128922   0.997   0.446  11.183 -0.0927  0.1826 -0.9644
 5820SOL    HW228923   0.868   0.467  11.114 -2.2296  0.1276  0.3020
 5821SOL     OW28924   0.258   1.399   3.144 -0.5676 -0.2069  0.2004
 5821SOL    HW128925   0.323   1.329   3.153 -0.5891 -0.1870  0.5145
 5821SOL    HW228926   0.174   1.355   3.136 -1.6998  2.1252 -0.7377
 5822SOL     OW28927   0.644   3.677   9.687  0.1142 -0.5636  0.0579
 5822SOL    HW128928   0.704   3.736   9.641 -0.3244  2.5864  3.4688
 5822SOL    HW228929   0.565   3.718   9.651  0.1170  1.2839  2.1233
 5823SOL     OW28930   1.956   0.291   7.362  0.1410  0.5234  0.0060
 5823SOL    HW128931   1.944   0.266   7.454  1.2027  0.5009  0.1382
 5823SOL    HW228932   2.015   0.219   7.341 -2.5328 -1.7069  0.1541
 5824SOL     OW28933   4.326   2.995   5.409  0.1765 -0.3881  0.2407
 5824SOL    HW128934   4.382   2.934   5.362 -2.0501 -1.7482 -0.6334
 5824SOL    HW228935   4.248   2.941   5.422  0.5114 -0.8213  0.4812
 5825SOL     OW28936   2.454   3.074   9.621  0.4673 -0.0135  0.1326
 5825SOL    HW128937   2.387   3.104   9.561 -1.3459 -2.1784  1.0641
 5825SOL    HW228938   2.514   3.145   9.598 -1.1276  1.4334  0.4782
 5826SOL     OW28939   1.445   2.806   3.826 -0.6182  0.7692 -0.0935
 5826SOL    HW128940   1.417   2.727   3.781 -0.4570 -1.3106  3.3970
 5826SOL    HW228941   1.465   2.768   3.912  0.0725  2.0185  0.2929
 5827SOL     OW28942   0.035   0.416   6.227  0.5409  0.5466 -0.1028
 5827SOL    HW128943   0.108   0.397   6.169 -1.1708  0.0483 -2.0976
 5827SOL    HW228944   0.064   0.423   6.319  1.2030 -1.5398 -0.1385
 5828SOL     OW28945   3.130   1.992   6.876 -0.6505  0.1002  0.0634
 5828SOL    HW128946   3.193   1.961   6.941 -0.9022 -0.7008 -0.0723
 5828SOL    HW228947   3.058   2.035   6.921  1.0109  0.1563  2.6612
 5829SOL     OW28948   0.488   4.695   4.940  0.0928 -0.2096 -0.3524
 5829SOL    HW128949   0.504   0.017   5.023  1.7284 -0.2796 -0.6337
 5829SOL    HW228950   0.446   0.043   4.890 -1.8231  0.1503  1.7183
 5830SOL     OW28951   3.685   0.528  10.370  0.5797 -0.0763 -0.0631
 5830SOL    HW128952   3.631   0.528  10.449 -0.1744  1.4043 -0.5754
 5830SOL    HW228953   3.707   0.435  10.360 -2.2824 -0.7791  0.3463
 5831SOL     OW28954   0.185   4.305  17.106  0.0785 -0.6316 -0.6208
 5831SOL    HW128955   0.256   4.283  17.047 -0.4215 -0.6398 -1.2232
 5831SOL    HW228956   0.104   4.319  17.057 -1.6839 -0.0180  2.4702
 5832SOL     OW28957   4.294   1.016   2.429 -0.0906  0.6169 -0.4820
 5832SOL    HW128958   4.328   0.927   2.442 -1.6264 -0.3583 -3.1268
 5832SOL    HW228959   4.297   1.018   2.333  2.2502  1.0246 -0.3746
 5833SOL     OW28960   3.793   2.743   9.594 -0.3335 -0.1727  0.0548
 5833SOL    HW128961   3.874   2.705   9.630 -1.6969 -0.0153  3.3319
 5833SOL    HW228962   3.835   2.804   9.534  0.5270  0.0745  0.8950
 5834SOL     OW28963   4.270   1.033   5.237  0.3607  0.3366  0.2483
 5834SOL    HW128964   4.277   0.990   5.322  0.8393  0.4087  0.2431
 5834SOL    HW228965   4.222   0.965   5.188 -0.1114  2.9672 -2.9148
 5835SOL     OW28966   4.416   2.602  12.758  0.0217 -0.6419 -0.1700
 5835SOL    HW128967   4.477   2.656  12.708 -0.6866  1.2693  1.0571
 5835SOL    HW228968   4.466   2.601  12.839 -1.3817  0.2573  0.6975
 5836SOL     OW28969   3.663   2.223  10.934  0.5485 -0.1814  0.2506
 5836SOL    HW128970   3.719   2.231  10.857 -0.8007 -0.8304 -0.8031
 5836SOL    HW228971   3.608   2.300  10.919 -0.7407 -1.6355 -2.5917
 5837SOL     OW28972   1.423   4.474   1.288  0.1450 -0.3446 -0.0413
 5837SOL    HW128973   1.464   4.560   1.297  1.1985 -1.1595  3.2778
 5837SOL    HW228974   1.502   4.420   1.298  1.1486  0.9466 -1.1268
 5838SOL     OW28975   0.529   0.350   4.057  0.2491 -0.5248  0.1396
 5838SOL    HW128976   0.493   0.437   4.039 -0.4355 -0.8610 -0.1141
 5838SOL    HW228977   0.474   0.294   4.004 -0.5204  1.0732 -0.7225
 5839SOL     OW28978   4.342   1.893  16.794 -0.1678 -0.3444 -0.6766
 5839SOL    HW128979   4.283   1.964  16.819  1.3429 -0.1483  2.3378
 5839SOL    HW228980   4.322   1.874  16.702  0.0217  0.9572 -0.9821
 5840SOL     OW28981   0.888   1.847   2.234  0.5667 -0.4796 -0.2728
 5840SOL    HW128982   0.841   1.778   2.186 -2.8004  0.4278  1.7419
 5840SOL    HW228983   0.841   1.851   2.317  0.5489 -1.7708 -0.2213
 5841SOL     OW28984   1.268   2.895   7.632 -0.4559 -0.0545  0.2847
 5841SOL    HW128985   1.264   2.805   7.665 -0.1783  0.1968  1.0055
 5841SOL    HW228986   1.322   2.937   7.699 -1.8057  1.8636  0.1561
 5842SOL     OW28987   2.535   4.368  12.988 -0.3004  0.1874 -0.3010
 5842SOL    HW128988   2.502   4.279  12.995  1.1493 -0.2453  1.1126
 5842SOL    HW228989   2.497   4.406  13.067  0.5158  0.2714  0.0516
 5843SOL     OW28990   3.435   4.360   3.235 -0.4804 -0.2583 -0.7612
 5843SOL    HW128991   3.397   4.286   3.189  0.9454 -1.1134 -0.5634
 5843SOL    HW228992   3.422   4.322   3.322  2.7288  2.4605  0.9279
 5844SOL     OW28993   3.839   0.551   6.905  0.1468 -0.0885  0.0716
 5844SOL    HW128994   3.810   0.466   6.872  0.4845 -0.0328 -0.3623
 5844SOL    HW228995   3.788   0.560   6.986  2.8501  1.9876  1.5337
 5845SOL     OW28996   2.819   1.209   0.304 -0.0685  0.5117 -0.2276
 5845SOL    HW128997   2.901   1.194   0.351  0.3518 -1.4501 -1.5734
 5845SOL    HW228998   2.799   1.115   0.303 -1.5719  0.8194  0.7189
 5846SOL     OW28999   2.456   1.806   9.107  0.3378  0.5917  0.2011
 5846SOL    HW129000   2.436   1.895   9.077 -0.2403 -0.1814 -1.7313
 5846SOL    HW229001   2.379   1.774   9.154  0.8858  0.3941  0.9553
 5847SOL     OW29002   2.540   3.059   7.683  0.3869 -0.1609 -0.2248
 5847SOL    HW129003   2.545   2.972   7.720 -1.9148 -0.0186  0.4478
 5847SOL    HW229004   2.618   3.074   7.630  0.2497  1.2130 -0.0468
 5848SOL     OW29005   3.415   0.139  17.314  0.3305  0.2682  0.0187
 5848SOL    HW129006   3.444   0.172  17.229  0.3860  1.0788  0.3489
 5848SOL    HW229007   3.445   0.211  17.369  2.5576 -1.2011  0.7411
 5849SOL     OW29008   1.865   1.980   7.612  0.4194  0.7012 -0.2847
 5849SOL    HW129009   1.888   1.956   7.522  0.7260 -0.0759 -0.0080
 5849SOL    HW229010   1.912   2.062   7.626  2.4462 -1.0169  3.2782
 5850SOL     OW29011   2.594   2.251   4.459 -0.3155 -0.1328 -0.3988
 5850SOL    HW129012   2.592   2.202   4.541  1.2465  2.0476  0.9276
 5850SOL    HW229013   2.683   2.238   4.428 -0.1472  0.5572 -0.2140
 5851SOL     OW29014   3.710   2.499   3.756 -0.5363 -0.0639 -0.6577
 5851SOL    HW129015   3.693   2.408   3.777  0.8070 -0.1134  0.1561
 5851SOL    HW229016   3.668   2.503   3.670 -2.1400  2.2579  0.2144
 5852SOL     OW29017   4.517   0.578  11.408  0.2631  0.5729 -0.5061
 5852SOL    HW129018   4.513   0.499  11.461 -1.4920  0.3734 -0.9455
 5852SOL    HW229019   4.507   0.656  11.464  2.2538 -0.1620  0.8708
 5853SOL     OW29020   3.020   4.358   8.222 -0.0428 -0.5024 -0.4147
 5853SOL    HW129021   3.101   4.324   8.261  1.8817  2.7209 -1.6390
 5853SOL    HW229022   3.052   4.384   8.136  1.3476 -0.2407  0.1799
 5854SOL     OW29023   3.277   3.801   2.703  0.0734  0.2715 -0.1063
 5854SOL    HW129024   3.287   3.806   2.608 -0.1557  1.6363 -0.0533
 5854SOL    HW229025   3.212   3.869   2.720  0.1897  0.4280 -0.2982
 5855SOL     OW29026   1.636   1.279  17.072 -0.1128  0.5068  0.2629
 5855SOL    HW129027   1.608   1.337  17.001  2.1233  0.1868 -0.8996
 5855SOL    HW229028   1.729   1.298  17.086 -0.1483  0.9030 -0.0370
 5856SOL     OW29029   0.843   0.561   1.371 -0.3956 -0.5356 -0.3416
 5856SOL    HW129030   0.829   0.655   1.368  2.0944 -0.1861 -1.2520
 5856SOL    HW229031   0.936   0.549   1.390 -0.6219 -1.6722  0.0713
 5857SOL     OW29032   3.285   0.196   5.720  0.0354 -0.1800  0.0969
 5857SOL    HW129033   3.199   0.230   5.693 -0.6385 -1.3093  0.7820
 5857SOL    HW229034   3.343   0.253   5.671  1.0569 -1.0327  0.3311
 5858SOL     OW29035   1.541   3.973   9.005  0.6088 -0.2299  0.0287
 5858SOL    HW129036   1.528   3.982   8.910  1.2494 -0.7412 -0.1092
 5858SOL    HW229037   1.627   3.932   9.008  0.7429 -0.0148 -0.7393
 5859SOL     OW29038   0.322   2.075  16.162  0.0100  0.4607  0.3985
 5859SOL    HW129039   0.388   2.019  16.122 -1.2085  0.6851 -1.9136
 5859SOL    HW229040   0.332   2.154  16.110 -1.2812  0.0428 -0.4786
 5860SOL     OW29041   0.330   0.857   5.856 -0.2538 -0.0443 -0.8671
 5860SOL    HW129042   0.424   0.840   5.857 -0.4238 -1.0234 -2.2226
 5860SOL    HW229043   0.334   0.952   5.869  1.5158 -0.4171  1.2637
 5861SOL     OW29044   2.448   0.063  13.101  0.1820 -0.1335 -0.2997
 5861SOL    HW129045   2.399   0.128  13.052  1.7716  1.5735  0.3941
 5861SOL    HW229046   2.509   0.119  13.149 -0.8256 -0.6318  1.5228
 5862SOL     OW29047   1.458   3.615  15.629 -0.1163 -0.4912  0.3792
 5862SOL    HW129048   1.466   3.696  15.679  0.3006 -1.2490  1.5608
 5862SOL    HW229049   1.521   3.561  15.677  2.2460  0.7828 -1.3198
 5863SOL     OW29050   1.948   2.034   2.724  0.2301  0.1666  0.4060
 5863SOL    HW129051   1.960   1.939   2.727  2.1356  0.4568  2.3730
 5863SOL    HW229052   2.021   2.065   2.778  0.4915  0.0263  0.1280
 5864SOL     OW29053   0.150   2.996   6.680  0.0082  0.0617 -0.4639
 5864SOL    HW129054   0.145   3.072   6.623  0.0503  0.7520  0.4519
 5864SOL    HW229055   0.225   2.947   6.646  0.4117  0.3493  0.0047
 5865SOL     OW29056   4.395   2.371   6.461  0.1928 -0.4361 -0.1841
 5865SOL    HW129057   4.342   2.404   6.533 -3.2205 -0.8055 -2.5462
 5865SOL    HW229058   4.335   2.304   6.429 -2.2667  0.8076  1.8009
 5866SOL     OW29059   4.245   2.559   9.147 -0.1616  0.2597 -0.1709
 5866SOL    HW129060   4.315   2.512   9.193  0.4531  0.5819 -0.7690
 5866SOL    HW229061   4.241   2.508   9.066  1.5866 -1.8158  1.0605
 5867SOL     OW29062   0.471   4.343   6.520  0.1974 -0.0732  0.2920
 5867SOL    HW129063   0.485   4.334   6.614 -0.1880  0.3855  0.3931
 5867SOL    HW229064   0.482   4.253   6.490  0.5825  0.5379 -1.4354
 5868SOL     OW29065   0.395   4.661  14.436 -0.6311  0.4976 -0.0684
 5868SOL    HW129066   0.470   4.623  14.392 -0.8504  0.8440 -0.7380
 5868SOL    HW229067   0.444   4.683  14.515 -1.8474  0.4414  0.6982
 5869SOL     OW29068   0.953   2.466   4.085 -0.3600  0.5024  0.2053
 5869SOL    HW129069   0.918   2.404   4.021  4.1815 -1.3149 -0.5419
 5869SOL    HW229070   0.928   2.411   4.159 -0.7826  0.6246  0.1543
 5870SOL     OW29071   4.676   3.188   5.956 -0.4831 -0.0887  0.1399
 5870SOL    HW129072   4.622   3.254   6.001 -0.7890 -1.2353  1.4597
 5870SOL    HW229073   4.604   3.126   5.944  0.1583 -0.8355  0.1517
 5871SOL     OW29074   0.566   1.289   7.217 -0.3787  0.0084 -0.8440
 5871SOL    HW129075   0.646   1.335   7.193  0.4055 -0.7598  0.3198
 5871SOL    HW229076   0.491   1.310   7.160 -1.2518  0.4090  0.4431
 5872SOL     OW29077   3.195   4.467  10.947 -0.3178 -0.2502  0.3771
 5872SOL    HW129078   3.199   4.451  11.041 -0.3821 -0.3158  0.3692
 5872SOL    HW229079   3.159   4.555  10.959  3.5635  1.4268 -0.3881
 5873SOL     OW29080   3.315   4.349   9.048  0.0065 -0.3608  0.3729
 5873SOL    HW129081   3.227   4.324   9.078  0.0061  0.5710  1.1647
 5873SOL    HW229082   3.346   4.265   9.015  1.1613 -0.2189  1.1104
 5874SOL     OW29083   3.334   0.237  17.650 -1.2183  0.1169  0.4351
 5874SOL    HW129084   3.418   0.282  17.653 -0.3150 -1.5580  0.1068
 5874SOL    HW229085   3.361   0.146  17.639 -1.4312  0.1629 -0.4723
 5875SOL     OW29086   4.415   2.730  10.119 -0.2604  0.4987  0.0706
 5875SOL    HW129087   4.462   2.735  10.202  0.2224 -1.3516 -0.0944
 5875SOL    HW229088   4.466   2.677  10.058 -2.5895 -1.1699 -0.4236
 5876SOL     OW29089   2.681   4.044  12.452  0.4021  0.1252 -0.4324
 5876SOL    HW129090   2.770   4.033  12.418  1.2435 -1.1479  2.1959
 5876SOL    HW229091   2.700   4.040  12.546  0.9585  4.5383 -0.3523
 5877SOL     OW29092   1.140   3.776  14.358 -0.4577 -0.7053  0.0029
 5877SOL    HW129093   1.190   3.789  14.278  0.4810  1.2885  0.9292
 5877SOL    HW229094   1.075   3.847  14.356  0.2628 -0.0348  0.3459
 5878SOL     OW29095   3.376   4.605  15.688  0.4069  0.0111 -0.2048
 5878SOL    HW129096   3.471   4.619  15.686  0.1621  1.5302 -1.4947
 5878SOL    HW229097   3.352   4.642  15.773 -0.4030 -2.3230  0.5870
 5879SOL     OW29098   4.069   3.702   2.239  0.1165 -0.1168  0.0833
 5879SOL    HW129099   4.122   3.721   2.162  2.2660  0.9676  1.8400
 5879SOL    HW229100   4.122   3.628   2.266 -0.6788 -0.5595  0.4471
 5880SOL     OW29101   2.064   2.032  15.598  0.2390 -0.4191 -0.6129
 5880SOL    HW129102   2.156   2.039  15.623  0.4829  0.2355 -1.6745
 5880SOL    HW229103   2.023   2.099  15.653  0.8637 -1.5320  1.2046
 5881SOL     OW29104   4.442   4.663   1.015 -0.0327 -0.5058  0.5265
 5881SOL    HW129105   4.429   0.014   0.954  2.5813  1.1880  2.0224
 5881SOL    HW229106   4.489   4.702   1.088  0.2457  0.0136  0.0692
 5882SOL     OW29107   4.581   0.061   8.307  0.3594 -0.4198  0.0281
 5882SOL    HW129108   4.663   0.061   8.356 -0.9048 -0.0849  2.1602
 5882SOL    HW229109   4.577   0.150   8.272  1.5609 -1.2014 -2.0714
 5883SOL     OW29110   2.466   4.004   3.333 -0.2056  0.3834 -0.3536
 5883SOL    HW129111   2.532   4.026   3.398  0.1965 -1.0699 -0.2730
 5883SOL    HW229112   2.504   3.929   3.288  0.5714 -0.7615  2.2239
 5884SOL     OW29113   0.165   1.265   8.313 -0.0258  0.1879 -0.9364
 5884SOL    HW129114   0.243   1.245   8.365 -2.0308 -0.1339  1.9455
 5884SOL    HW229115   0.094   1.283   8.375  0.1455  0.3334 -0.7834
 5885SOL     OW29116   4.270   1.122  16.664  0.0345 -0.2553  0.0363
 5885SOL    HW129117   4.347   1.069  16.685  0.4059  0.3079  0.0970
 5885SOL    HW229118   4.266   1.164  16.750 -2.0746  0.7487 -0.5710
 5886SOL     OW29119   0.556   3.517   0.121  0.4258 -0.2112  0.6113
 5886SOL    HW129120   0.536   3.607   0.146  2.0864  0.7553 -1.4935
 5886SOL    HW229121   0.648   3.515   0.096  0.6493 -0.8160  1.4682
 5887SOL     OW29122   1.790   1.438   1.910 -0.2453 -0.3468 -0.3813
 5887SOL    HW129123   1.880   1.413   1.931 -0.2044 -2.0328 -2.5271
 5887SOL    HW229124   1.724   1.377   1.944  1.9817 -2.7529 -0.3759
 5888SOL     OW29125   0.053   0.367  11.611 -0.2280 -0.3958 -0.0920
 5888SOL    HW129126   0.042   0.417  11.692 -1.2053 -2.0241  0.7730
 5888SOL    HW229127   4.690   0.376  11.569  0.1999 -0.0243 -0.8843
 5889SOL     OW29128   4.362   1.414  15.836  0.2186 -0.4301 -0.1609
 5889SOL    HW129129   4.329   1.418  15.746  1.6443 -0.6429 -0.6910
 5889SOL    HW229130   4.455   1.424  15.817  0.1770  1.4896  0.7223
 5890SOL     OW29131   3.546   4.316  15.833  0.0730  0.1636 -0.5808
 5890SOL    HW129132   3.595   4.390  15.797 -2.7921  1.9660 -0.7081
 5890SOL    HW229133   3.457   4.334  15.803  0.2705  2.7847  0.4420
 5891SOL     OW29134   2.135   1.428  17.056  0.1014  0.1590  0.0254
 5891SOL    HW129135   2.221   1.430  17.099 -0.2696  0.6320  0.7525
 5891SOL    HW229136   2.152   1.449  16.964  0.6213  1.8655  0.5142
 5892SOL     OW29137   0.664   3.356   1.194 -0.5522  0.0744  0.2370
 5892SOL    HW129138   0.695   3.441   1.226 -0.5509  0.0847  0.2081
 5892SOL    HW229139   0.675   3.303   1.273 -1.3926 -2.1051 -1.1075
 5893SOL     OW29140   0.901   0.067  17.296 -0.4867 -0.2223 -0.0825
 5893SOL    HW129141   0.875   0.132  17.231 -1.6352  1.5130  2.0807
 5893SOL    HW229142   0.989   0.095  17.323  1.1416 -2.7568 -2.7296
 5894SOL     OW29143   1.091   4.081   3.429 -0.6563 -0.0269  0.6783
 5894SOL    HW129144   1.144   4.158   3.409 -0.9205 -0.2064 -0.7448
 5894SOL    HW229145   1.019   4.124   3.476  0.5532  0.2029  2.3014
 5895SOL     OW29146   3.421   2.154  13.813  0.2500  0.1146  0.5202
 5895SOL    HW129147   3.469   2.208  13.750  1.8024  0.1432  1.7116
 5895SOL    HW229148   3.339   2.203  13.809 -1.4436 -2.7268  0.9309
 5896SOL     OW29149   2.236   3.889   6.925 -0.2022 -0.3570  0.2948
 5896SOL    HW129150   2.149   3.929   6.916  0.7867  1.7663  0.0623
 5896SOL    HW229151   2.233   3.835   7.003  0.1905 -0.5657  0.1659
 5897SOL     OW29152   3.635   0.863   3.006  0.0414  0.4237 -0.1420
 5897SOL    HW129153   3.667   0.793   2.950 -0.8754 -0.8624  0.9557
 5897SOL    HW229154   3.698   0.852   3.077 -0.0062 -0.4395 -0.2381
 5898SOL     OW29155   4.052   3.895   5.404  0.2931 -0.0988  0.6060
 5898SOL    HW129156   4.056   3.819   5.346 -2.2857  0.4875 -0.3282
 5898SOL    HW229157   4.142   3.910   5.434  0.9426  1.2286 -2.0030
 5899SOL     OW29158   3.667   2.231   3.853  0.3212  0.2880 -0.0553
 5899SOL    HW129159   3.691   2.139   3.843 -1.9427 -0.3414  0.3298
 5899SOL    HW229160   3.575   2.235   3.827  0.7912 -1.1729 -1.9243
 5900SOL     OW29161   1.240   0.045  13.563  0.1560  0.0154  0.4143
 5900SOL    HW129162   1.278   0.035  13.651  1.0175 -0.6473 -0.0406
 5900SOL    HW229163   1.216   4.675  13.561  1.0482 -0.2196  0.3272
 5901SOL     OW29164   3.822   4.420   1.694 -0.5323  0.6114  0.6513
 5901SOL    HW129165   3.858   4.332   1.706 -2.5866 -0.2252  0.7109
 5901SOL    HW229166   3.758   4.413   1.765 -1.0306  2.3490  0.3671
 5902SOL     OW29167   2.361   1.850   3.282  0.6972 -0.2557  0.4124
 5902SOL    HW129168   2.299   1.781   3.309  0.9760 -0.2406  1.0852
 5902SOL    HW229169   2.416   1.799   3.223  0.5079  0.6347 -0.5285
 5903SOL     OW29170   0.081   2.146   3.085 -0.5205 -0.1520  0.3181
 5903SOL    HW129171   0.091   2.205   3.160  0.1001 -2.8611  2.3516
 5903SOL    HW229172   0.018   2.203   3.042 -0.0868 -0.0017 -0.1229
 5904SOL     OW29173   1.958   4.354   5.804  0.2974 -0.1664 -0.2168
 5904SOL    HW129174   1.916   4.268   5.795 -2.5005  1.3088 -1.6004
 5904SOL    HW229175   2.044   4.329   5.837 -0.0044  0.6500  1.1497
 5905SOL     OW29176   2.887   3.321   2.113 -0.1978 -0.5195 -0.2655
 5905SOL    HW129177   2.908   3.242   2.064  0.5885  1.4094 -2.9998
 5905SOL    HW229178   2.802   3.355   2.085 -0.4268 -0.6669  0.2460
 5906SOL     OW29179   3.971   2.544   6.056  0.4565  0.1290  0.1110
 5906SOL    HW129180   3.896   2.489   6.080  0.1558  0.8322  0.8131
 5906SOL    HW229181   3.922   2.614   6.013  0.4313 -0.3745 -0.6649
 5907SOL     OW29182   0.867   2.141  15.146  0.3841 -0.3961  0.0686
 5907SOL    HW129183   0.822   2.144  15.230  2.2511 -3.2747  1.1823
 5907SOL    HW229184   0.946   2.095  15.175  0.3753 -1.5333 -1.6868
 5908SOL     OW29185   3.629   4.020  12.424 -0.3210  0.1092 -0.0135
 5908SOL    HW129186   3.591   4.104  12.399 -1.7775  0.2281  2.5446
 5908SOL    HW229187   3.547   3.974  12.443 -0.1650  0.4991  1.6573
 5909SOL     OW29188   0.665   3.195  17.494  0.2393  0.3605  0.0060
 5909SOL    HW129189   0.754   3.168  17.515  0.6686  0.1800 -2.0676
 5909SOL    HW229190   0.681   3.214  17.402 -0.8236 -3.7145 -1.0126
 5910SOL     OW29191   4.022   4.685   4.807  0.1335  0.2096  0.5954
 5910SOL    HW129192   4.072   0.036   4.769 -0.3959  0.5855  0.6190
 5910SOL    HW229193   3.990   4.631   4.735  2.3729  0.9004 -0.9148
 5911SOL     OW29194   4.647   1.631   4.740  0.1904  0.5260  0.3152
 5911SOL    HW129195   4.617   1.565   4.803 -0.7879  2.3476  1.7677
 5911SOL    HW229196   4.721   1.585   4.700  0.1976  1.4977 -0.7868
 5912SOL     OW29197   3.615   3.509   4.977  0.0568  0.2559  0.1891
 5912SOL    HW129198   3.655   3.501   4.890 -2.2525 -1.2352 -0.7321
 5912SOL    HW229199   3.684   3.476   5.035  0.4739 -1.7828 -1.4447
 5913SOL     OW29200   1.105   1.691   2.199 -0.1279 -0.6778 -0.7215
 5913SOL    HW129201   1.030   1.751   2.197  0.7140  0.4607  0.9524
 5913SOL    HW229202   1.160   1.729   2.130  1.0730 -0.1760  0.4793
 5914SOL     OW29203   1.118   4.671   1.113 -0.1330  0.2315  0.1229
 5914SOL    HW129204   1.133   4.675   1.208 -0.1974 -2.6491  0.2476
 5914SOL    HW229205   1.077   0.033   1.095 -0.3082  0.4949  1.7326
 5915SOL     OW29206   2.029   3.981   8.134  0.1171  0.2368 -0.0330
 5915SOL    HW129207   1.978   3.903   8.112  0.2099 -0.1949  1.3094
 5915SOL    HW229208   2.084   3.972   8.056 -2.9708  1.3846 -2.3552
 5916SOL     OW29209   0.398   1.141   3.195  0.1384 -0.3220  0.3964
 5916SOL    HW129210   0.374   1.061   3.147 -1.6066  0.2000  0.4121
 5916SOL    HW229211   0.453   1.102   3.263 -1.2925 -2.0722  0.5552
 5917SOL     OW29212   2.873   1.241   5.939  0.7394  0.0945 -0.3417
 5917SOL    HW129213   2.804   1.292   5.983 -1.0995 -1.0948 -1.8322
 5917SOL    HW229214   2.840   1.153   5.957  0.5156  0.1597 -0.4325
 5918SOL     OW29215   2.255   3.022  16.818 -0.3153  0.4935  0.1873
 5918SOL    HW129216   2.262   3.008  16.912 -3.0979 -1.2189  0.1386
 5918SOL    HW229217   2.165   3.050  16.800 -0.2424 -0.6382 -1.9442
 5919SOL     OW29218   1.664   1.873   3.029  0.5168 -0.2731  0.3028
 5919SOL    HW129219   1.687   1.812   2.960  0.3244  0.6850 -0.6073
 5919SOL    HW229220   1.732   1.940   3.021 -1.3513  1.8241  1.7657
 5920SOL     OW29221   1.897   1.816   6.923  0.3065  0.0460  0.1324
 5920SOL    HW129222   1.894   1.883   6.854 -2.0171 -1.8817 -1.6375
 5920SOL    HW229223   1.834   1.857   6.983 -0.5676 -1.9564  0.5767
 5921SOL     OW29224   1.013   3.461   0.775  0.2248 -0.3734  0.2694
 5921SOL    HW129225   0.970   3.433   0.695 -0.7584  2.2722 -0.1306
 5921SOL    HW229226   1.102   3.436   0.749  1.3730  0.4369  3.3570
 5922SOL     OW29227   1.859   1.547   6.955 -0.8465  0.2980  0.5299
 5922SOL    HW129228   1.902   1.632   6.957 -2.4985  1.1076  2.0500
 5922SOL    HW229229   1.814   1.554   6.871 -0.2919  1.3312  0.3286
 5923SOL     OW29230   1.442   1.059  17.203  0.6211  0.2312 -0.2382
 5923SOL    HW129231   1.471   0.983  17.254 -1.7554  0.2844  1.1948
 5923SOL    HW229232   1.498   1.131  17.232  2.7143 -2.2211  1.8206
 5924SOL     OW29233   3.955   3.785  11.403  0.3314 -0.4064  0.0854
 5924SOL    HW129234   3.922   3.842  11.334  1.7128  0.3893  0.0906
 5924SOL    HW229235   3.903   3.708  11.379  1.2589 -1.2138  0.6258
 5925SOL     OW29236   3.883   3.520  12.999 -0.0288 -0.7885  0.3070
 5925SOL    HW129237   3.975   3.547  12.989 -0.0821 -0.0511  1.8111
 5925SOL    HW229238   3.848   3.608  13.009  2.7033  0.1512  1.6465
 5926SOL     OW29239   2.038   0.326  13.555  0.5667 -0.0425  0.5483
 5926SOL    HW129240   2.042   0.301  13.648 -0.7126 -1.4761  0.2105
 5926SOL    HW229241   1.994   0.410  13.569  0.9243  0.0975  0.8372
 5927SOL     OW29242   2.999   2.051   6.446  0.2665  0.0483  0.0911
 5927SOL    HW129243   2.929   2.075   6.385  0.1083 -2.4564 -0.7112
 5927SOL    HW229244   2.987   2.127   6.503  1.6720  2.0429 -2.2639
 5928SOL     OW29245   3.331   1.230   2.875 -0.8121 -0.1093 -0.2250
 5928SOL    HW129246   3.291   1.317   2.874 -0.2346  0.1551 -2.4443
 5928SOL    HW229247   3.381   1.236   2.793  0.9011 -1.9649  0.6887
 5929SOL     OW29248   0.789   2.116   9.675 -0.9396 -0.0270 -0.4178
 5929SOL    HW129249   0.849   2.132   9.748  0.0293  1.0992 -1.4780
 5929SOL    HW229250   0.700   2.128   9.709 -0.7760 -2.7407  0.9490
 5930SOL     OW29251   3.232   0.880   3.332  0.4291  0.1021 -0.0852
 5930SOL    HW129252   3.195   0.958   3.291  0.1222  0.6157  1.1627
 5930SOL    HW229253   3.298   0.848   3.270  1.7556  1.2742  0.7189
 5931SOL     OW29254   1.689   2.779   3.224 -0.3877  0.1510  0.2826
 5931SOL    HW129255   1.749   2.786   3.149 -0.8142 -1.0609 -0.1685
 5931SOL    HW229256   1.732   2.710   3.273 -0.4199  2.1836  3.1282
 5932SOL     OW29257   0.649   0.377   5.787 -0.2593 -0.2142 -0.0768
 5932SOL    HW129258   0.684   0.345   5.869 -0.6530  1.6564  0.8332
 5932SOL    HW229259   0.590   0.439   5.831 -0.3951 -0.5481  0.2023
 5933SOL     OW29260   2.877   2.511  13.355  0.6787  0.1743 -0.5278
 5933SOL    HW129261   2.796   2.563  13.358 -0.6923 -1.8458 -1.9000
 5933SOL    HW229262   2.924   2.548  13.280 -0.0033  1.3156 -0.3964
 5934SOL     OW29263   1.522   3.648   8.314 -0.5337  0.1716  0.7183
 5934SOL    HW129264   1.500   3.560   8.284  0.0143  1.1270 -2.4285
 5934SOL    HW229265   1.455   3.698   8.268 -0.6052  0.7513  1.4496
 5935SOL     OW29266   2.115   3.652   4.270 -0.4345  0.8624  0.0094
 5935SOL    HW129267   2.117   3.715   4.342 -2.1076 -0.2143  0.9900
 5935SOL    HW229268   2.032   3.667   4.225 -0.4791  0.6037  0.0044
 5936SOL     OW29269   3.119   4.440   0.825  0.3613 -0.3120 -0.4292
 5936SOL    HW129270   3.027   4.420   0.806 -0.5322  2.2813  1.1179
 5936SOL    HW229271   3.155   4.433   0.737  1.8959  0.5330  0.1306
 5937SOL     OW29272   1.368   1.205   3.553  0.1574 -0.3029 -0.7409
 5937SOL    HW129273   1.406   1.118   3.553  3.1986  1.0274  0.9970
 5937SOL    HW229274   1.278   1.179   3.532 -0.5960  1.0570  0.7660
 5938SOL     OW29275   2.714   1.002  15.918 -0.1979  0.0295 -0.6624
 5938SOL    HW129276   2.710   0.910  15.895  3.5023 -0.6890  1.4991
 5938SOL    HW229277   2.683   1.046  15.838 -2.9653 -0.1718  0.3284
 5939SOL     OW29278   2.014   2.393   7.441  0.9094 -0.1760 -0.5765
 5939SOL    HW129279   2.078   2.464   7.441 -1.8062  2.2920  0.6016
 5939SOL    HW229280   2.058   2.323   7.392  0.5242  0.9111 -2.5015
 5940SOL     OW29281   4.566   4.139   5.606  0.2911 -0.6323  0.1330
 5940SOL    HW129282   4.547   4.145   5.513  1.8893 -0.9435 -0.2187
 5940SOL    HW229283   4.480   4.124   5.644  0.1670  1.3969  0.6366
 5941SOL     OW29284   2.356   1.641  10.947 -0.1672  0.0176 -0.0164
 5941SOL    HW129285   2.398   1.727  10.955 -0.2741  0.0332  0.3436
 5941SOL    HW229286   2.264   1.667  10.938 -0.7078 -2.6530 -2.0423
 5942SOL     OW29287   3.357   2.604  12.643  0.1654 -0.3613  0.3942
 5942SOL    HW129288   3.269   2.597  12.607  0.4201 -0.2760 -0.2530
 5942SOL    HW229289   3.406   2.568  12.569 -1.8116 -1.3826 -0.3935
 5943SOL     OW29290   3.115   3.610  12.128  0.2073  0.1124 -0.1381
 5943SOL    HW129291   3.028   3.603  12.090  0.1110 -0.5228  0.2008
 5943SOL    HW229292   3.120   3.705  12.134 -1.4339  0.3143 -1.7680
 5944SOL     OW29293   2.824   4.553   1.486 -0.8066 -0.0649  0.1960
 5944SOL    HW129294   2.739   4.597   1.474 -0.8431 -0.8270 -2.2048
 5944SOL    HW229295   2.886   4.589   1.423 -1.8309 -3.1317 -2.5448
 5945SOL     OW29296   2.120   1.422   5.976 -0.0432 -0.4503 -0.2067
 5945SOL    HW129297   2.170   1.341   5.990  0.8665  0.1071 -0.2308
 5945SOL    HW229298   2.087   1.407   5.888 -2.6341 -0.2595  0.7363
 5946SOL     OW29299   0.024   1.394   3.369 -0.8598 -0.2104  0.2510
 5946SOL    HW129300   0.088   1.456   3.405 -1.1354  1.5045 -2.2106
 5946SOL    HW229301   0.078   1.316   3.360 -0.1600  0.3507 -0.5169
 5947SOL     OW29302   4.009   2.100   6.140 -0.6382 -0.0757  0.2240
 5947SOL    HW129303   3.915   2.097   6.153 -0.6548 -2.9101 -0.5003
 5947SOL    HW229304   4.018   2.036   6.070  1.8251 -0.1843  0.6338
 5948SOL     OW29305   0.917   0.520   8.393 -0.0884  0.0068  0.6423
 5948SOL    HW129306   0.923   0.613   8.417 -0.4914 -0.1258  1.2658
 5948SOL    HW229307   0.971   0.476   8.458 -0.4997  0.1161  1.0654
 5949SOL     OW29308   3.258   2.480   5.261  0.1271 -0.3973 -0.1640
 5949SOL    HW129309   3.255   2.572   5.288  0.2539 -0.2353 -0.6921
 5949SOL    HW229310   3.211   2.481   5.177 -0.0306 -1.1124 -0.0790
 5950SOL     OW29311   3.993   4.584   4.089 -0.0238 -0.7680  0.0789
 5950SOL    HW129312   3.969   4.673   4.065  0.6652 -0.3487  0.9853
 5950SOL    HW229313   3.990   4.534   4.007 -0.1104 -0.5487 -0.0495
 5951SOL     OW29314   4.165   2.775   4.755  0.1172  0.0464  0.5283
 5951SOL    HW129315   4.189   2.857   4.799  0.4194  0.7412 -0.9446
 5951SOL    HW229316   4.119   2.808   4.678 -2.5239 -2.5132  1.0574
 5952SOL     OW29317   2.947   0.848  13.327 -0.4894 -0.1316 -0.5797
 5952SOL    HW129318   2.979   0.847  13.417 -0.6324 -2.1099 -0.5499
 5952SOL    HW229319   2.958   0.757  13.298  3.3529  0.3253 -0.4619
 5953SOL     OW29320   0.778   0.225  12.646  0.5981 -0.1600 -0.4974
 5953SOL    HW129321   0.868   0.248  12.623  1.3762 -2.2037  0.4646
 5953SOL    HW229322   0.747   0.220  12.556 -2.2815 -0.2028  0.4936
 5954SOL     OW29323   2.510   1.490   8.644 -0.0428  0.0311 -0.0481
 5954SOL    HW129324   2.488   1.549   8.716  2.1954  1.0691 -0.2001
 5954SOL    HW229325   2.605   1.502   8.646  0.0387 -1.2499  3.3306
 5955SOL     OW29326   3.098   3.000   2.347 -0.7103 -0.1186 -0.1490
 5955SOL    HW129327   3.121   2.995   2.439  1.1740 -0.7776 -0.6577
 5955SOL    HW229328   3.176   3.046   2.316 -0.2383  0.1094  1.4261
 5956SOL     OW29329   1.348   1.512   5.647 -0.2256  0.2539  0.3448
 5956SOL    HW129330   1.409   1.490   5.718 -0.2840 -1.2080 -0.0590
 5956SOL    HW229331   1.406   1.573   5.600  0.3930  0.4033  1.2956
 5957SOL     OW29332   2.767   2.871   3.804 -0.2869 -0.2368 -0.0938
 5957SOL    HW129333   2.852   2.912   3.789 -0.1382 -1.2509 -1.9836
 5957SOL    HW229334   2.709   2.906   3.735  1.3037 -0.3663 -1.4867
 5958SOL     OW29335   4.288   3.875   3.421 -0.0798 -0.0675  0.2783
 5958SOL    HW129336   4.245   3.922   3.492  0.9436 -0.3032  1.0620
 5958SOL    HW229337   4.285   3.789   3.462 -0.5784 -1.5514 -2.8945
 5959SOL     OW29338   0.818   3.590   8.667  0.6206 -0.6134  0.0182
 5959SOL    HW129339   0.746   3.549   8.715 -0.4739 -0.8437 -1.8136
 5959SOL    HW229340   0.783   3.679   8.658 -0.3052 -1.1320 -1.5151
 5960SOL     OW29341   2.445   2.730   6.892  0.4768 -0.2040 -0.1721
 5960SOL    HW129342   2.451   2.654   6.950 -2.6426  0.5016  1.0798
 5960SOL    HW229343   2.412   2.799   6.949  0.8125  0.5044 -0.8463
 5961SOL     OW29344   2.350   1.378   9.221 -0.4601  0.0690  0.0291
 5961SOL    HW129345   2.418   1.423   9.170 -0.2276 -0.0287  0.2515
 5961SOL    HW229346   2.310   1.333   9.147 -1.0345  0.4731  0.0935
 5962SOL     OW29347   0.477   1.664   5.211 -0.1143  0.8613  0.0670
 5962SOL    HW129348   0.512   1.699   5.293  0.5916 -0.9907  0.5626
 5962SOL    HW229349   0.387   1.696   5.222 -1.2874 -2.3250 -0.3073
 5963SOL     OW29350   1.352   3.406   3.179 -0.3101 -0.6567 -0.2467
 5963SOL    HW129351   1.356   3.443   3.267  0.7295 -1.0305 -0.1267
 5963SOL    HW229352   1.326   3.488   3.137  0.3633 -0.1770  0.2657
 5964SOL     OW29353   1.331   1.025   4.689  0.1106  0.6444  0.0417
 5964SOL    HW129354   1.296   1.008   4.601  1.4625 -1.8552 -0.0203
 5964SOL    HW229355   1.354   0.937   4.719 -0.4107  1.1830  1.9461
 5965SOL     OW29356   3.467   4.342   4.629  0.8553 -0.0474 -0.0529
 5965SOL    HW129357   3.514   4.281   4.573  0.5851 -2.3509  2.2612
 5965SOL    HW229358   3.525   4.389   4.688  2.3806 -1.4385 -0.4497
 5966SOL     OW29359   0.389   0.284   0.338  0.1547 -0.3321  0.4922
 5966SOL    HW129360   0.358   0.209   0.389 -0.2068 -1.9301 -2.0963
 5966SOL    HW229361   0.475   0.252   0.311  0.0067 -1.0872  0.9072
 5967SOL     OW29362   2.689   4.239   5.739  0.1589 -0.4970 -0.9963
 5967SOL    HW129363   2.696   4.315   5.682 -2.3729 -1.0361 -2.0471
 5967SOL    HW229364   2.783   4.224   5.739 -0.1085 -2.1554  0.3076
 5968SOL     OW29365   1.197   0.970   4.452  0.5804 -0.0835  0.1146
 5968SOL    HW129366   1.251   0.975   4.373  0.1950  0.8667 -0.0868
 5968SOL    HW229367   1.112   1.002   4.424  0.2210 -0.2689  0.9882
 5969SOL     OW29368   2.088   0.129  14.718  0.0758  0.6443 -0.1975
 5969SOL    HW129369   2.176   0.098  14.696 -0.3979 -0.0189 -1.1427
 5969SOL    HW229370   2.096   0.212  14.765 -1.3559  0.5275  0.2682
 5970SOL     OW29371   3.685   3.141  13.519  0.0678 -0.2266  0.1068
 5970SOL    HW129372   3.686   3.213  13.582  0.4715 -1.8466  1.9600
 5970SOL    HW229373   3.649   3.196  13.449 -0.9922  0.3552  1.1034
 5971SOL     OW29374   4.640   1.252  17.502  0.6328  0.1399 -0.2066
 5971SOL    HW129375   4.671   1.283  17.587  0.9379 -1.0227  0.1044
 5971SOL    HW229376   4.706   1.185  17.487 -0.0130 -0.9076  1.7058
 5972SOL     OW29377   0.027   1.448   6.747 -0.4343  0.8880 -0.1128
 5972SOL    HW129378   0.030   1.513   6.678  0.3781  2.0944  1.0490
 5972SOL    HW229379   0.081   1.379   6.708  1.4318  1.5858  1.1784
 5973SOL     OW29380   3.629   1.535   4.676  0.2338  0.1133  0.3263
 5973SOL    HW129381   3.661   1.624   4.692 -1.5299  1.1656 -2.0166
 5973SOL    HW229382   3.536   1.553   4.664  0.4751 -0.4456 -2.2469
 5974SOL     OW29383   2.357   4.551   6.909 -0.0336 -0.0336 -0.3593
 5974SOL    HW129384   2.398   4.468   6.935 -2.9078 -1.6700 -0.9879
 5974SOL    HW229385   2.264   4.528   6.911  0.3697 -1.7936 -0.9950
 5975SOL     OW29386   0.364   1.788  11.294  0.1072 -0.1524 -0.2233
 5975SOL    HW129387   0.365   1.875  11.334 -1.0442 -1.5652  2.8740
 5975SOL    HW229388   0.269   1.773  11.299  0.1985 -1.9660 -3.9436
 5976SOL     OW29389   4.594   1.123  15.843  0.3217 -0.1197 -0.4116
 5976SOL    HW129390   4.593   1.156  15.933 -0.0907  0.7053 -0.7132
 5976SOL    HW229391   4.561   1.200  15.797  0.1288  0.1329  0.1455
 5977SOL     OW29392   0.126   3.781   1.361  0.0346 -0.6881  0.0880
 5977SOL    HW129393   0.198   3.802   1.421 -1.3030 -0.3693  1.5909
 5977SOL    HW229394   0.103   3.703   1.410 -0.1523 -1.9339 -2.0206
 5978SOL     OW29395   3.709   0.947   1.511 -0.1573 -0.6565  0.0575
 5978SOL    HW129396   3.793   0.922   1.549  0.3152  1.0731  0.1484
 5978SOL    HW229397   3.675   0.995   1.587 -1.0612  0.2527 -0.9317
 5979SOL     OW29398   4.090   2.848   5.484  0.3934  0.2302 -0.2778
 5979SOL    HW129399   4.001   2.841   5.452  0.1753  1.2408  0.0875
 5979SOL    HW229400   4.081   2.892   5.569 -0.3193  0.9623 -0.7407
 5980SOL     OW29401   1.607   2.513   8.974 -0.3270 -0.7576 -0.1002
 5980SOL    HW129402   1.517   2.507   9.005 -0.9088 -1.8162 -1.9608
 5980SOL    HW229403   1.657   2.438   9.008  1.4794 -0.0201 -1.1264
 5981SOL     OW29404   1.738   0.719   5.053 -0.1596 -0.2540 -0.4655
 5981SOL    HW129405   1.701   0.631   5.060  0.4159 -0.3740  1.3333
 5981SOL    HW229406   1.737   0.721   4.958 -3.0630 -1.2285 -0.4288
 5982SOL     OW29407   2.691   4.264   0.348 -0.3304 -0.8243 -0.1527
 5982SOL    HW129408   2.731   4.323   0.284  0.0222 -1.0848 -0.1658
 5982SOL    HW229409   2.741   4.186   0.324 -2.3864 -2.1974  0.0112
 5983SOL     OW29410   1.873   3.506   1.688 -0.3190  0.0950 -0.5031
 5983SOL    HW129411   1.876   3.500   1.592  0.3784  2.2823 -0.6321
 5983SOL    HW229412   1.794   3.558   1.704 -0.9114 -0.6646 -0.9608
 5984SOL     OW29413   3.935   4.351   7.025 -0.1825 -0.0232  0.1007
 5984SOL    HW129414   4.003   4.297   7.065 -0.1889  0.2923  0.5342
 5984SOL    HW229415   3.932   4.431   7.077  0.0508 -0.3739  0.6569
 5985SOL     OW29416   0.928   2.932   4.722  0.3990 -0.3043  0.0548
 5985SOL    HW129417   0.896   3.016   4.691 -0.1382 -0.1118  1.1525
 5985SOL    HW229418   0.866   2.874   4.678 -1.2463  0.7151  1.0363
 5986SOL     OW29419   1.118   0.245   1.222  0.5142  0.3446  0.2311
 5986SOL    HW129420   1.026   0.249   1.247  0.0329 -0.4411 -1.4066
 5986SOL    HW229421   1.145   0.336   1.214  1.1988  0.0618 -0.7519
 5987SOL     OW29422   1.388   0.278   0.917 -0.6548 -0.0689  0.4217
 5987SOL    HW129423   1.476   0.292   0.881 -1.2172 -0.7007 -1.2249
 5987SOL    HW229424   1.333   0.263   0.840 -1.1281  1.9828  0.3719
 5988SOL     OW29425   2.223   2.645  15.216  0.3148  0.0288 -0.4036
 5988SOL    HW129426   2.271   2.657  15.298 -1.5322  0.2531  0.6492
 5988SOL    HW229427   2.243   2.726  15.169 -0.7764  0.6038  0.1145
 5989SOL     OW29428   0.864   1.247  10.026 -0.5625 -0.0809  0.4644
 5989SOL    HW129429   0.841   1.311  10.093 -0.7670 -0.8757  1.1508
 5989SOL    HW229430   0.910   1.179  10.075 -1.9026 -1.5983 -0.3838
 5990SOL     OW29431   2.835   4.312   1.386 -0.6161 -0.4517  0.3659
 5990SOL    HW129432   2.887   4.325   1.306  0.7885 -0.8085  1.2057
 5990SOL    HW229433   2.813   4.396   1.425 -0.1675  1.1082 -2.7268
 5991SOL     OW29434   1.890   2.808   0.729 -0.4513  0.3454 -0.1403
 5991SOL    HW129435   1.954   2.832   0.663 -0.7373 -1.1191 -0.9491
 5991SOL    HW229436   1.943   2.801   0.809  0.4032 -0.1950 -0.7533
 5992SOL     OW29437   1.669   3.229   6.364 -0.3893  0.2937 -0.0452
 5992SOL    HW129438   1.655   3.298   6.300  3.8301 -0.7742 -2.1711
 5992SOL    HW229439   1.723   3.169   6.312 -0.8184 -0.8710  0.8561
 5993SOL     OW29440   2.017   4.704   2.380  0.2979 -0.0915 -0.1832
 5993SOL    HW129441   2.072   4.635   2.343  1.8212  0.3679  1.2232
 5993SOL    HW229442   1.932   4.660   2.381 -0.0543  0.6055  0.5514
 5994SOL     OW29443   4.358   2.672   7.373 -0.5043 -0.0373 -0.4547
 5994SOL    HW129444   4.361   2.578   7.392 -3.8932 -0.0202  0.2036
 5994SOL    HW229445   4.353   2.704   7.464  2.4662 -1.0599  0.0746
 5995SOL     OW29446   1.924   3.049   4.116 -0.5056 -0.1206  0.0181
 5995SOL    HW129447   1.982   3.028   4.043 -1.0031  0.0607 -0.4292
 5995SOL    HW229448   1.907   3.136   4.081 -0.1777 -0.1236 -0.1517
 5996SOL     OW29449   3.843   3.328   9.392  0.4078  0.6996 -0.1912
 5996SOL    HW129450   3.856   3.411   9.345 -0.7853  1.5279  0.9463
 5996SOL    HW229451   3.861   3.360   9.480  1.0455  1.2336 -0.5061
 5997SOL     OW29452   2.176   1.641   3.212 -0.3182 -0.2453  0.0279
 5997SOL    HW129453   2.113   1.713   3.205  1.9845  1.8017  0.2974
 5997SOL    HW229454   2.120   1.569   3.182 -0.0120  0.1223 -1.4097
 5998SOL     OW29455   1.214   2.222   2.273  0.6301 -0.4823  0.6061
 5998SOL    HW129456   1.191   2.314   2.282 -0.5455 -0.6547 -0.5923
 5998SOL    HW229457   1.274   2.196   2.343 -0.0700  1.5940  1.9653
 5999SOL     OW29458   4.188   0.922   8.652  0.1597  0.6731  0.1836
 5999SOL    HW129459   4.200   0.827   8.659  1.8844  0.7257 -1.8922
 5999SOL    HW229460   4.114   0.916   8.592  0.3086  0.0699  0.0606
 6000SOL     OW29461   3.141   1.232   6.495 -0.6752 -0.0527  0.4798
 6000SOL    HW129462   3.210   1.170   6.517 -0.0716  0.8051  0.9712
 6000SOL    HW229463   3.082   1.173   6.446  1.1510 -0.1142 -1.6708
 6001SOL     OW29464   3.092   3.742   5.196  0.9691  0.1410 -0.1350
 6001SOL    HW129465   3.112   3.651   5.216 -0.8579 -0.2140  0.1153
 6001SOL    HW229466   2.997   3.736   5.183  0.7936  1.9703  0.2600
 6002SOL     OW29467   0.161   0.771   8.544 -0.2443  0.8193  0.0701
 6002SOL    HW129468   0.158   0.697   8.483  2.4863 -0.0202  0.9514
 6002SOL    HW229469   0.216   0.745   8.618 -0.0700 -1.3846 -0.8360
 6003SOL     OW29470   0.462   1.310   3.652 -0.0808  0.0491 -0.9422
 6003SOL    HW129471   0.497   1.239   3.707  1.6006  0.8150 -1.0223
 6003SOL    HW229472   0.537   1.309   3.592 -0.8357 -3.0545 -1.8423
 6004SOL     OW29473   3.140   2.355   7.842  0.0038 -0.5919  0.7523
 6004SOL    HW129474   3.154   2.447   7.865 -0.7639 -0.6124  1.3179
 6004SOL    HW229475   3.165   2.341   7.751 -1.6135  2.3226 -0.1406
 6005SOL     OW29476   2.688   1.220   5.345 -0.0634 -0.3513 -0.1778
 6005SOL    HW129477   2.736   1.287   5.395  0.7714  0.7490 -2.4395
 6005SOL    HW229478   2.608   1.271   5.334 -0.0608 -0.1573  0.6834
 6006SOL     OW29479   3.826   0.326   6.120 -0.2215  0.8783 -0.0092
 6006SOL    HW129480   3.839   0.418   6.140 -1.1251  0.5737  1.8965
 6006SOL    HW229481   3.916   0.292   6.118 -0.1493  1.0236  0.7712
 6007SOL     OW29482   1.235   1.123  15.938 -0.2387 -0.1215 -0.0229
 6007SOL    HW129483   1.331   1.116  15.946 -0.2934 -2.6885 -1.3948
 6007SOL    HW229484   1.215   1.083  15.853  1.5839 -1.5303  0.1938
 6008SOL     OW29485   4.318   1.148   0.930 -0.0508 -0.3766 -0.1825
 6008SOL    HW129486   4.223   1.145   0.917 -0.0576  2.4396 -0.8018
 6008SOL    HW229487   4.341   1.151   0.837  2.0527  0.2297  0.3828
 6009SOL     OW29488   3.699   2.662  12.234  0.4093  0.0483 -0.4991
 6009SOL    HW129489   3.611   2.658  12.197  0.8233  0.3900 -1.5078
 6009SOL    HW229490   3.709   2.757  12.233 -1.2162  0.2461  2.0263
 6010SOL     OW29491   3.390   2.573   4.220  0.0312  0.2651  0.1819
 6010SOL    HW129492   3.417   2.612   4.137  0.0769  0.0276  0.0850
 6010SOL    HW229493   3.463   2.608   4.271  0.7893 -0.8020 -0.1652
 6011SOL     OW29494   2.675   3.874   1.439  0.3323 -0.1473  0.0386
 6011SOL    HW129495   2.747   3.842   1.493 -0.1043  0.7749  1.1995
 6011SOL    HW229496   2.678   3.811   1.368  0.5606  0.0995 -0.1693
 6012SOL     OW29497   0.378   3.628   8.565 -0.1334  0.8449 -0.2539
 6012SOL    HW129498   0.368   3.583   8.481 -0.2055  1.9215 -0.8168
 6012SOL    HW229499   0.295   3.602   8.604 -0.6337  0.4277 -1.6058
 6013SOL     OW29500   1.226   2.238   5.576 -0.1921  0.3976  0.2402
 6013SOL    HW129501   1.133   2.259   5.572 -0.1133  0.7628  0.3386
 6013SOL    HW229502   1.233   2.187   5.657 -0.2494  1.6159  1.0187
 6014SOL     OW29503   4.209   0.779  11.664  0.0822  0.3368  0.2980
 6014SOL    HW129504   4.163   0.698  11.642  1.4310 -0.1950 -0.5997
 6014SOL    HW229505   4.149   0.846  11.631 -1.4505 -0.9117  0.5815
 6015SOL     OW29506   3.662   2.696  17.281  0.5767  0.0070  0.3913
 6015SOL    HW129507   3.621   2.611  17.298 -2.4642  1.6175  1.1271
 6015SOL    HW229508   3.615   2.749  17.346  0.1766 -0.5764  0.5718
 6016SOL     OW29509   3.779   1.136   1.913 -0.4114  0.5433 -0.1855
 6016SOL    HW129510   3.701   1.099   1.870 -0.3507 -0.6964  0.7811
 6016SOL    HW229511   3.771   1.220   1.869 -1.8622  0.6622  0.3070
 6017SOL     OW29512   2.362   0.073   7.022 -0.7388 -0.0684 -0.2075
 6017SOL    HW129513   2.267   0.064   7.024 -0.9087  1.7904 -0.1658
 6017SOL    HW229514   2.390   4.720   6.969  0.7002  1.3083 -1.4243
 6018SOL     OW29515   3.446   0.933   5.213 -0.4494  0.5794  0.3305
 6018SOL    HW129516   3.474   0.859   5.267 -2.2231 -0.1493  0.2588
 6018SOL    HW229517   3.525   0.986   5.224 -0.7406  1.0640  0.1128
 6019SOL     OW29518   3.657   1.481  17.559  0.9687 -0.4321 -0.6420
 6019SOL    HW129519   3.752   1.474  17.570  0.8921  3.8797  2.6832
 6019SOL    HW229520   3.619   1.421  17.624  2.3341 -1.3068 -0.6438
 6020SOL     OW29521   4.532   3.737   3.563  0.1261  0.1926  0.3819
 6020SOL    HW129522   4.438   3.734   3.580  0.1373 -1.0219  0.1829
 6020SOL    HW229523   4.532   3.707   3.472 -3.5588 -0.5106  0.6467
 6021SOL     OW29524   2.525   1.274   2.199  0.3052 -0.1000 -0.0604
 6021SOL    HW129525   2.518   1.266   2.294 -1.7828  0.7914 -0.1431
 6021SOL    HW229526   2.612   1.234   2.195  1.1194  1.6487  0.1808
 6022SOL     OW29527   2.427   4.239  11.263  0.1680  0.0019 -0.4442
 6022SOL    HW129528   2.412   4.167  11.325  0.8429 -0.1833 -0.4988
 6022SOL    HW229529   2.335   4.252  11.237  0.4937 -0.4158 -1.8031
 6023SOL     OW29530   2.468   3.445   9.052  0.1211  0.1088  0.5054
 6023SOL    HW129531   2.516   3.409   9.127  1.8035  2.7818  0.7017
 6023SOL    HW229532   2.435   3.367   9.007 -3.5606  2.6176 -1.1679
 6024SOL     OW29533   3.100   3.561   0.146 -0.3307  0.6820  0.6635
 6024SOL    HW129534   3.092   3.528   0.236  0.9939  0.5674  0.7477
 6024SOL    HW229535   3.013   3.537   0.115 -0.3411 -0.3353  1.4697
 6025SOL     OW29536   2.262   2.725   5.072  0.2508 -0.3462 -0.2654
 6025SOL    HW129537   2.243   2.679   4.990 -1.1633  1.4829 -0.9793
 6025SOL    HW229538   2.190   2.788   5.070 -0.7051 -1.3407  4.0707
 6026SOL     OW29539   3.326   3.213   3.501  0.4238  0.1096 -0.5792
 6026SOL    HW129540   3.358   3.260   3.424  1.4471 -0.6627 -0.6368
 6026SOL    HW229541   3.323   3.128   3.458  1.1617 -0.3535  0.2638
 6027SOL     OW29542   0.965   3.725   2.672  0.1200  0.4308 -0.1570
 6027SOL    HW129543   0.963   3.657   2.604  1.5522  0.1458  0.0771
 6027SOL    HW229544   0.893   3.782   2.646  1.2221  1.6503 -0.5726
 6028SOL     OW29545   0.310   3.960   2.951  0.0631 -0.0450 -0.2305
 6028SOL    HW129546   0.273   4.048   2.959 -1.8935 -0.6460 -2.4555
 6028SOL    HW229547   0.274   3.902   3.018  1.1755 -1.4281 -0.8370
 6029SOL     OW29548   0.471   1.010   8.815  0.3788 -0.1447 -0.1806
 6029SOL    HW129549   0.386   1.034   8.851 -0.6726  0.0711 -2.8564
 6029SOL    HW229550   0.476   0.915   8.826 -0.3374  0.0899  2.1523
 6030SOL     OW29551   1.085   2.458   2.597  0.1569  0.1012 -0.2627
 6030SOL    HW129552   0.999   2.441   2.559 -0.4521 -1.0753  1.6503
 6030SOL    HW229553   1.125   2.372   2.585 -1.6094 -1.0580  2.2226
 6031SOL     OW29554   0.098   1.756   9.277  0.1751  0.6554  0.0964
 6031SOL    HW129555   0.106   1.785   9.368 -1.2075  2.6706 -0.4287
 6031SOL    HW229556   0.048   1.823   9.230  0.8643  2.4240  1.8643
 6032SOL     OW29557   1.485   2.043   5.984  0.1019 -0.1282  0.1926
 6032SOL    HW129558   1.447   2.048   5.896 -1.3988 -1.8272  0.7291
 6032SOL    HW229559   1.409   2.080   6.029 -0.3774 -1.3987  0.4581
 6033SOL     OW29560   2.637   0.423   2.480 -0.2989  0.4637 -0.2388
 6033SOL    HW129561   2.716   0.424   2.535 -1.5073  1.5961  1.4854
 6033SOL    HW229562   2.644   0.341   2.432  1.1336  1.3831 -1.5720
 6034SOL     OW29563   0.615   3.029  15.557  0.2463 -0.6042 -0.1546
 6034SOL    HW129564   0.622   2.934  15.551  2.2982 -0.6331  2.3001
 6034SOL    HW229565   0.707   3.050  15.574  1.0995 -1.1034 -4.2525
 6035SOL     OW29566   4.065   4.498   2.155 -0.2498 -0.0225  0.6555
 6035SOL    HW129567   4.124   4.572   2.169 -0.7785  0.7928 -1.3961
 6035SOL    HW229568   4.091   4.458   2.072 -2.0184  1.2433 -0.5251
 6036SOL     OW29569   4.378   0.689   5.475  0.2347  0.0253 -0.2091
 6036SOL    HW129570   4.322   0.619   5.442 -3.0599  2.5586 -0.0602
 6036SOL    HW229571   4.426   0.642   5.543 -1.7420 -0.4436  0.8518
 6037SOL     OW29572   3.308   3.100   2.217 -0.5319 -0.2297 -0.3841
 6037SOL    HW129573   3.321   3.149   2.298  1.3685 -1.4146  0.0217
 6037SOL    HW229574   3.388   3.050   2.203  0.7309  1.6845  0.0063
 6038SOL     OW29575   2.997   4.028  11.320  0.3091  0.0564  0.8429
 6038SOL    HW129576   3.047   4.045  11.241 -2.6496 -0.3322 -1.1127
 6038SOL    HW229577   2.907   4.015  11.290  0.5544 -0.6150  0.3903
 6039SOL     OW29578   3.889   0.894   1.733 -0.0654  0.1792 -0.1116
 6039SOL    HW129579   3.984   0.887   1.746 -0.2313 -1.3657  0.3366
 6039SOL    HW229580   3.856   0.918   1.819  1.3689 -0.7624  0.7166
 6040SOL     OW29581   0.507   2.578   8.571  0.0036  0.5421 -0.2144
 6040SOL    HW129582   0.419   2.590   8.606  0.5791 -0.0476  1.4277
 6040SOL    HW229583   0.543   2.531   8.646 -0.2163  0.3943 -0.2024
 6041SOL     OW29584   1.648   1.006   5.023  0.0792  0.6438 -0.0600
 6041SOL    HW129585   1.678   0.919   5.049  0.2846  0.6995 -0.1126
 6041SOL    HW229586   1.556   0.986   5.003 -0.1742  0.7286  1.0221
 6042SOL     OW29587   4.119   2.825  15.435  0.0425  0.0922 -0.1700
 6042SOL    HW129588   4.080   2.818  15.522  0.3564  1.8443  0.1245
 6042SOL    HW229589   4.039   2.825  15.382  0.7048 -0.6590 -1.1741
 6043SOL     OW29590   3.788   2.262  13.978 -0.0338  0.2891 -0.4120
 6043SOL    HW129591   3.735   2.294  13.905 -0.6378 -0.3627 -0.2590
 6043SOL    HW229592   3.742   2.309  14.048 -1.6325  0.2512 -1.4264
 6044SOL     OW29593   1.431   2.187   9.128  0.3291 -0.5751  0.0373
 6044SOL    HW129594   1.462   2.276   9.114 -0.5333 -0.7984 -3.2484
 6044SOL    HW229595   1.395   2.162   9.043 -2.3028 -0.1850  1.0344
 6045SOL     OW29596   4.138   4.308   2.712  0.3175  0.1689 -0.1345
 6045SOL    HW129597   4.172   4.281   2.797 -1.8124  2.9547  1.5700
 6045SOL    HW229598   4.059   4.355   2.738 -0.1538 -1.1886  0.8983
 6046SOL     OW29599   4.578   3.222   7.329 -0.0132 -0.3194 -0.0037
 6046SOL    HW129600   4.508   3.156   7.330  1.5377 -1.9820 -0.7855
 6046SOL    HW229601   4.575   3.251   7.237  0.1554 -0.8496 -0.1762
 6047SOL     OW29602   1.195   2.153   8.535  0.1363  0.6647 -0.4247
 6047SOL    HW129603   1.112   2.112   8.509  0.3009 -0.2666  0.5147
 6047SOL    HW229604   1.253   2.082   8.564 -2.3449  0.3214  3.7042
 6048SOL     OW29605   4.357   4.000   6.648  0.2072  0.7296  0.2903
 6048SOL    HW129606   4.275   4.038   6.681  0.4554  1.6763 -0.1673
 6048SOL    HW229607   4.329   3.912   6.622 -0.4735  0.9310  0.3404
 6049SOL     OW29608   0.872   0.157   8.254  0.4651  0.3339 -0.2522
 6049SOL    HW129609   0.801   0.106   8.291 -1.0569  1.6759 -1.2703
 6049SOL    HW229610   0.824   0.227   8.208  3.5434  0.9278 -2.5552
 6050SOL     OW29611   1.589   0.383   6.201  0.0783  0.6678  0.6388
 6050SOL    HW129612   1.607   0.329   6.278  1.6789 -0.5825 -0.6049
 6050SOL    HW229613   1.497   0.408   6.205 -0.5174 -1.3105 -0.9533
 6051SOL     OW29614   4.227   2.132   8.315 -0.6614  0.1807  0.0210
 6051SOL    HW129615   4.165   2.090   8.374 -0.6663 -0.1831 -0.2415
 6051SOL    HW229616   4.248   2.204   8.373  0.9217 -2.4395  2.7123
 6052SOL     OW29617   0.469   0.998   7.236 -0.0692  0.2981 -0.3729
 6052SOL    HW129618   0.399   1.033   7.181  0.7844  0.8452 -1.1226
 6052SOL    HW229619   0.530   1.072   7.236 -0.6984  0.8027 -2.6976
 6053SOL     OW29620   2.990   0.901   4.147  0.0577 -0.2003 -0.3578
 6053SOL    HW129621   3.029   0.884   4.062 -0.2111  0.2303 -0.5706
 6053SOL    HW229622   3.034   0.983   4.169 -1.0301 -0.3187  2.2288
 6054SOL     OW29623   0.086   4.586   0.968  0.0851 -0.1852  0.1467
 6054SOL    HW129624   0.094   4.680   0.958  1.0308 -0.3061 -0.1747
 6054SOL    HW229625   0.038   4.569   0.886  1.5250 -1.5849 -0.4189
 6055SOL     OW29626   1.130   1.499  16.473 -0.1482  0.1216 -0.1831
 6055SOL    HW129627   1.077   1.491  16.394 -1.9081 -2.7762  1.3286
 6055SOL    HW229628   1.128   1.412  16.511  0.5716  0.5322  0.8013
 6056SOL     OW29629   0.731   0.690  13.028 -0.3620 -0.5748 -0.2152
 6056SOL    HW129630   0.808   0.730  12.986  1.3664 -2.0348  1.5342
 6056SOL    HW229631   0.666   0.736  12.975 -0.7890  0.8327  1.5283
 6057SOL     OW29632   1.755   3.794   9.016 -0.0956  0.4047  0.0158
 6057SOL    HW129633   1.849   3.779   9.003 -0.4839 -1.2177 -1.0860
 6057SOL    HW229634   1.755   3.824   9.106 -1.8541  2.9584 -0.8372
 6058SOL     OW29635   1.714   0.828   8.744 -0.2536  0.2269  0.5959
 6058SOL    HW129636   1.727   0.780   8.826  2.4160  2.5560  1.5366
 6058SOL    HW229637   1.622   0.808   8.729 -0.2542  0.7829 -0.1230
 6059SOL     OW29638   1.541   0.997   3.478 -0.3404  0.0208 -0.4205
 6059SOL    HW129639   1.630   1.001   3.442 -0.0184  3.0412  0.7316
 6059SOL    HW229640   1.523   0.905   3.459 -0.6380 -0.5929  2.7704
 6060SOL     OW29641   4.287   2.582   1.257 -0.1994 -0.0358 -0.2546
 6060SOL    HW129642   4.311   2.600   1.348  2.9917  1.2078 -1.3406
 6060SOL    HW229643   4.344   2.646   1.214  1.8017 -0.3222  1.9641
 6061SOL     OW29644   3.474   1.129   3.344 -0.6479 -0.1132  0.2590
 6061SOL    HW129645   3.403   1.065   3.338  1.0894 -2.0143 -0.1705
 6061SOL    HW229646   3.459   1.170   3.259 -0.2929  1.5072  0.9836
 6062SOL     OW29647   0.088   4.328   4.257 -0.0842 -0.1565  1.0565
 6062SOL    HW129648   0.163   4.280   4.293  0.6170  0.2108  0.0983
 6062SOL    HW229649   0.067   4.290   4.171  0.6335 -0.9234  1.2160
 6063SOL     OW29650   2.368   0.542   4.763 -0.6841  0.2651  0.2647
 6063SOL    HW129651   2.446   0.581   4.723  0.9794 -1.5785  1.6291
 6063SOL    HW229652   2.405   0.458   4.793  0.7538  0.7128 -0.2650
 6064SOL     OW29653   2.467   3.085   2.337 -0.7441 -0.2327  0.1357
 6064SOL    HW129654   2.459   3.117   2.247  0.7724  1.1730  0.4899
 6064SOL    HW229655   2.552   3.042   2.335 -0.8905 -0.5497  0.7341
 6065SOL     OW29656   3.421   3.063   6.562 -0.3244  0.0729 -0.5914
 6065SOL    HW129657   3.466   2.978   6.564 -1.3699 -0.4143  2.1424
 6065SOL    HW229658   3.335   3.053   6.521 -1.5565 -0.2651  2.0509
 6066SOL     OW29659   1.593   1.734   4.127  0.5299  0.1882  0.0583
 6066SOL    HW129660   1.517   1.751   4.071 -0.4993 -0.2066  1.3386
 6066SOL    HW229661   1.642   1.815   4.113 -0.0621  0.4648 -0.4259
 6067SOL     OW29662   3.138   0.441   4.611  0.0639  0.1092 -0.2482
 6067SOL    HW129663   3.217   0.389   4.594 -0.7738 -0.6892 -1.7304
 6067SOL    HW229664   3.176   0.527   4.624 -0.8553  0.5782 -0.6980
 6068SOL     OW29665   4.395   3.633   7.899 -0.2244 -0.4839 -0.0690
 6068SOL    HW129666   4.433   3.655   7.814  2.3650  0.0435  1.2225
 6068SOL    HW229667   4.359   3.548   7.877 -0.8838 -0.6701  1.7430
 6069SOL     OW29668   3.131   1.965   3.893 -0.6148  0.0870 -0.0582
 6069SOL    HW129669   3.224   1.986   3.904 -0.6780 -0.2475  1.1924
 6069SOL    HW229670   3.117   1.964   3.799 -2.1664  3.4055  0.1346
 6070SOL     OW29671   2.340   0.737   4.537 -0.3580 -0.2967 -0.3712
 6070SOL    HW129672   2.431   0.714   4.550 -0.5796 -0.7351  0.3514
 6070SOL    HW229673   2.346   0.830   4.513  1.3449 -0.0114  1.2300
 6071SOL     OW29674   0.793   4.086   0.359 -0.4189 -0.4996  0.2907
 6071SOL    HW129675   0.733   4.011   0.350  0.6297 -1.3480  0.3096
 6071SOL    HW229676   0.830   4.059   0.443 -2.1311  1.0493  1.5358
 6072SOL     OW29677   1.963   1.881   7.927 -0.4206 -0.1610 -0.1479
 6072SOL    HW129678   2.039   1.889   7.869  1.5312 -0.5402  2.3194
 6072SOL    HW229679   2.003   1.902   8.012 -0.2272  0.1376 -0.3113
 6073SOL     OW29680   3.488   0.497   9.409  0.3743  0.1494 -0.0431
 6073SOL    HW129681   3.565   0.534   9.365  1.1838 -0.7413  0.6453
 6073SOL    HW229682   3.447   0.578   9.440  0.8810 -0.0813  1.2204
 6074SOL     OW29683   3.487   0.953   2.794 -0.2594 -0.1751 -0.3829
 6074SOL    HW129684   3.536   0.943   2.876 -0.7564 -0.7152 -0.1448
 6074SOL    HW229685   3.551   0.997   2.738 -0.9807  0.4207 -0.7330
 6075SOL     OW29686   2.561   0.344  11.387 -0.3972  0.8377 -0.5291
 6075SOL    HW129687   2.483   0.305  11.349  0.7414 -0.4102 -1.6100
 6075SOL    HW229688   2.563   0.315  11.478 -0.4661  0.7462 -0.5576
 6076SOL     OW29689   2.661   3.632  15.226 -0.1692  0.0984  0.1269
 6076SOL    HW129690   2.654   3.608  15.319 -0.2687 -2.9576 -0.6941
 6076SOL    HW229691   2.593   3.698  15.229  0.2641  0.5815 -0.9731
 6077SOL     OW29692   4.092   1.328   9.534  0.0273  0.0564 -0.0854
 6077SOL    HW129693   4.116   1.409   9.579  0.3396  1.6619 -3.1076
 6077SOL    HW229694   4.111   1.262   9.600  1.5390  2.7326  2.1515
 6078SOL     OW29695   0.656   4.131   7.328 -0.0508 -0.6669  0.2763
 6078SOL    HW129696   0.651   4.221   7.296 -0.2231 -0.9254 -0.4075
 6078SOL    HW229697   0.566   4.099   7.324 -1.7373  4.0439  0.2478
 6079SOL     OW29698   0.431   1.944   4.438  0.1018  0.2539  0.0009
 6079SOL    HW129699   0.379   2.023   4.425  1.1281  0.7805 -0.8912
 6079SOL    HW229700   0.360   1.884   4.463  0.4991  0.2091  1.0262
 6080SOL     OW29701   2.630   4.488   2.663 -0.5083 -0.5969 -0.4693
 6080SOL    HW129702   2.617   4.510   2.756 -0.2878 -1.7976 -0.1596
 6080SOL    HW229703   2.709   4.537   2.641 -0.5979 -0.1074  0.2716
 6081SOL     OW29704   3.517   2.080   6.008  0.0680  0.5849 -0.2906
 6081SOL    HW129705   3.506   2.139   5.934  0.2797 -0.9069 -1.4897
 6081SOL    HW229706   3.427   2.057   6.031  0.2389 -1.1605 -1.3797
 6082SOL     OW29707   2.956   0.355  10.878 -0.3208 -0.2302 -0.2914
 6082SOL    HW129708   2.993   0.269  10.856  0.3444 -0.2626  0.9218
 6082SOL    HW229709   2.918   0.319  10.958 -0.6785 -1.3265 -0.9600
 6083SOL     OW29710   3.366   1.849   4.113 -0.6652 -0.2885 -0.2441
 6083SOL    HW129711   3.381   1.787   4.042  3.5909  1.0602 -0.5056
 6083SOL    HW229712   3.414   1.927   4.084 -1.7237  0.1196 -0.9105
 6084SOL     OW29713   2.496   1.083  16.424  0.4235  0.1457  0.6954
 6084SOL    HW129714   2.564   1.026  16.459 -0.5270 -0.5256  1.4454
 6084SOL    HW229715   2.421   1.042  16.468 -0.0039 -0.8892 -0.9478
 6085SOL     OW29716   1.153   0.308  13.622 -0.0621  0.2818 -0.5562
 6085SOL    HW129717   1.075   0.319  13.569 -0.5011 -2.4879 -0.5034
 6085SOL    HW229718   1.198   0.235  13.579 -1.2219 -1.4434  1.1659
 6086SOL     OW29719   2.707   2.643  14.551 -0.6049 -0.0640 -0.0709
 6086SOL    HW129720   2.737   2.570  14.605 -2.5733 -1.1908 -0.4902
 6086SOL    HW229721   2.717   2.612  14.461 -2.3706  2.1315 -1.0211
 6087SOL     OW29722   1.935   2.844   2.743  0.5300  0.5372 -0.4428
 6087SOL    HW129723   2.014   2.889   2.714 -0.2368  2.6333  0.6710
 6087SOL    HW229724   1.886   2.853   2.662  0.5970  1.2664 -0.4036
 6088SOL     OW29725   1.279   4.593   0.491  0.7364 -1.0712 -0.8731
 6088SOL    HW129726   1.314   4.524   0.547  0.6280  0.1394  0.6909
 6088SOL    HW229727   1.327   4.566   0.412  0.0463  0.8940 -1.9525
 6089SOL     OW29728   1.711   2.630   6.703  0.0060  0.3073  0.2530
 6089SOL    HW129729   1.704   2.616   6.609 -2.8087 -1.7715  0.7786
 6089SOL    HW229730   1.803   2.642   6.725  0.8192 -2.7262 -1.5315
 6090SOL     OW29731   1.565   3.987   2.313  0.1093 -0.0665  0.2619
 6090SOL    HW129732   1.613   3.912   2.347 -1.3573 -0.5572  1.2414
 6090SOL    HW229733   1.517   3.948   2.240 -0.0827  0.0792  0.3102
 6091SOL     OW29734   3.722   0.237   8.222 -1.0255 -0.1177  0.1556
 6091SOL    HW129735   3.678   0.243   8.306 -1.5720 -3.1265  0.0952
 6091SOL    HW229736   3.672   0.164   8.186  0.1244  0.0611 -1.8403
 6092SOL     OW29737   3.688   2.489   6.372  0.9403  0.6599  0.3641
 6092SOL    HW129738   3.694   2.457   6.462 -2.4764 -2.0799 -0.3782
 6092SOL    HW229739   3.598   2.522   6.360  1.1697  1.0644 -0.2527
 6093SOL     OW29740   4.081   3.831   4.225  0.6955 -0.6120 -0.7581
 6093SOL    HW129741   4.086   3.747   4.181 -0.1544  0.0049 -2.0355
 6093SOL    HW229742   4.007   3.871   4.178 -1.0661  0.3618  2.8159
 6094SOL     OW29743   0.344   2.049  11.143 -0.1723  0.1808  0.6103
 6094SOL    HW129744   0.422   2.011  11.101 -1.6187 -0.6839 -1.2822
 6094SOL    HW229745   0.375   2.032  11.232  0.3936  1.5831  0.6805
 6095SOL     OW29746   2.646   3.476   6.331  0.1301 -0.4715 -0.6110
 6095SOL    HW129747   2.640   3.488   6.236  1.8059  0.4107 -0.6038
 6095SOL    HW229748   2.556   3.469   6.363  0.2916  2.2476  0.3712
 6096SOL     OW29749   4.224   2.118   3.984  0.2191  1.2518  0.1071
 6096SOL    HW129750   4.258   2.202   4.014  0.7809  1.3334 -0.7588
 6096SOL    HW229751   4.266   2.060   4.047  1.2085 -1.1698 -2.7600
 6097SOL     OW29752   0.572   1.223   2.838  0.0950  0.1357 -0.2947
 6097SOL    HW129753   0.506   1.291   2.849 -0.0376 -0.4099  2.3766
 6097SOL    HW229754   0.603   1.240   2.749 -1.1979  0.8583 -0.6110
 6098SOL     OW29755   1.139   2.014   4.975 -0.2522  0.9064 -0.3548
 6098SOL    HW129756   1.051   2.017   5.014  0.2533  0.7840  0.7945
 6098SOL    HW229757   1.197   1.981   5.043 -0.1637  0.5062 -0.6217
 6099SOL     OW29758   1.215   0.784  14.860  0.1161 -0.1594  0.2340
 6099SOL    HW129759   1.280   0.725  14.899 -2.5689 -1.7636  2.2924
 6099SOL    HW229760   1.136   0.752  14.905  0.4299 -1.3771 -0.0874
 6100SOL     OW29761   1.935   0.219   7.905  0.1058  0.0229 -0.3427
 6100SOL    HW129762   1.890   0.136   7.921  0.0214  0.4780  1.7987
 6100SOL    HW229763   1.975   0.234   7.991  2.6025 -2.4625 -1.0926
 6101SOL     OW29764   0.966   3.292  14.424  0.3191 -0.4624 -0.4976
 6101SOL    HW129765   0.966   3.278  14.519 -0.0829  1.4266 -0.2162
 6101SOL    HW229766   1.061   3.285  14.411  0.8229  0.5937  2.6264
 6102SOL     OW29767   2.810   2.968   6.068  0.3302 -0.1703  0.2928
 6102SOL    HW129768   2.715   2.961   6.064  0.4131 -2.3311  2.0220
 6102SOL    HW229769   2.836   3.048   6.113 -2.2591 -0.4417  2.2599
 6103SOL     OW29770   0.853   3.684  13.085 -0.2795 -0.0570 -0.6207
 6103SOL    HW129771   0.819   3.600  13.116  0.2953  0.6293  1.8722
 6103SOL    HW229772   0.866   3.730  13.168 -0.6552 -0.1842 -0.4905
 6104SOL     OW29773   0.975   4.420   6.105  0.0543 -0.2557  0.1953
 6104SOL    HW129774   0.911   4.385   6.168  0.4245 -0.4036  0.4855
 6104SOL    HW229775   0.927   4.410   6.022 -0.7664  1.0397  0.5228
 6105SOL     OW29776   0.736   4.379   4.659  0.8037 -0.4459  0.0973
 6105SOL    HW129777   0.784   4.316   4.605 -2.2327 -2.2893 -0.4179
 6105SOL    HW229778   0.799   4.451   4.669  2.1927 -1.5763 -0.5033
 6106SOL     OW29779   2.830   4.644   4.926 -0.4771  0.6327  0.4063
 6106SOL    HW129780   2.888   4.677   4.995 -1.5397 -1.1019  2.1456
 6106SOL    HW229781   2.848   4.551   4.937 -1.1397  0.4413 -0.1375
 6107SOL     OW29782   2.320   2.125   3.319 -0.4147 -0.1701 -0.2133
 6107SOL    HW129783   2.334   2.032   3.302  1.7131 -0.0074  0.5796
 6107SOL    HW229784   2.325   2.168   3.233  1.2448 -1.0181 -0.5559
 6108SOL     OW29785   0.181   0.817   1.322 -0.3314  0.2836  0.4448
 6108SOL    HW129786   0.107   0.877   1.331 -0.8902 -0.2661 -0.3881
 6108SOL    HW229787   0.200   0.833   1.229  0.0048 -2.7389 -0.0089
 6109SOL     OW29788   4.312   4.130   1.885  0.2962  0.5003  0.5285
 6109SOL    HW129789   4.262   4.107   1.964  0.2982  2.5663  1.1093
 6109SOL    HW229790   4.395   4.093   1.917  1.2809  2.0162 -0.2888
 6110SOL     OW29791   0.355   4.160   4.969  0.1424 -0.0618  0.7616
 6110SOL    HW129792   0.399   4.244   4.969  0.2769 -0.1351  1.3137
 6110SOL    HW229793   0.354   4.145   5.063 -1.8077 -1.6140  0.4900
 6111SOL     OW29794   1.797   3.307  11.771  0.0941  0.1140 -0.0790
 6111SOL    HW129795   1.835   3.393  11.789 -0.2861 -0.0531  1.5676
 6111SOL    HW229796   1.721   3.327  11.825 -1.6983 -0.5877 -2.3513
 6112SOL     OW29797   0.621   4.192   8.398 -0.4093 -0.0825 -0.0049
 6112SOL    HW129798   0.582   4.106   8.381  1.1777 -0.6717 -0.6510
 6112SOL    HW229799   0.675   4.194   8.319  1.5774 -0.7577  1.3225
 6113SOL     OW29800   3.988   1.945   3.028 -0.4153 -0.2534 -0.1563
 6113SOL    HW129801   3.892   1.940   3.031 -0.1857 -3.0648  2.6173
 6113SOL    HW229802   3.990   2.031   3.072 -0.2726  0.1555 -0.9702
 6114SOL     OW29803   1.771   3.280   7.649 -0.0836 -0.0076 -0.7965
 6114SOL    HW129804   1.696   3.337   7.632  0.0822  0.4041 -0.1338
 6114SOL    HW229805   1.722   3.201   7.629  0.7437 -1.3134  2.3068
 6115SOL     OW29806   1.400   3.809   8.102  0.9326 -0.8054  0.0215
 6115SOL    HW129807   1.474   3.866   8.126  0.0784  1.8433 -3.6958
 6115SOL    HW229808   1.321   3.860   8.088  0.1091 -1.7791  1.1391
 6116SOL     OW29809   2.602   2.380   7.111 -0.2119 -0.4198  0.8170
 6116SOL    HW129810   2.565   2.299   7.147  0.4464 -0.1995  1.9668
 6116SOL    HW229811   2.563   2.372   7.024  1.1770  2.4536 -0.0534
 6117SOL     OW29812   1.877   2.210   5.546  0.3921  0.1220  0.4013
 6117SOL    HW129813   1.858   2.296   5.583  0.1235 -0.7466  2.2700
 6117SOL    HW229814   1.971   2.199   5.553  0.2465 -0.6432  1.1765
 6118SOL     OW29815   0.830   3.015  13.762  0.3857  0.4228  0.6863
 6118SOL    HW129816   0.850   2.976  13.677  2.5931  0.5845  1.1256
 6118SOL    HW229817   0.778   3.090  13.732  2.1151  1.1766 -0.4754
 6119SOL     OW29818   4.068   2.950   6.610  0.1247  0.1245  0.0550
 6119SOL    HW129819   4.048   2.948   6.704  1.8999 -0.6924  0.4135
 6119SOL    HW229820   4.022   3.033   6.596  0.5440  0.1417 -1.1932
 6120SOL     OW29821   0.206   0.293   7.897 -0.7884  0.2396 -0.3457
 6120SOL    HW129822   0.164   0.370   7.858  0.5822  0.0473 -2.2011
 6120SOL    HW229823   0.266   0.268   7.827  0.3935  1.8693  0.0824
 6121SOL     OW29824   2.979   0.562   0.220 -0.2909  0.1603  0.4170
 6121SOL    HW129825   3.050   0.562   0.156 -1.3559 -0.8751 -0.7625
 6121SOL    HW229826   3.030   0.499   0.270 -1.3131 -0.8384  0.2089
 6122SOL     OW29827   1.671   4.052   4.385 -0.1043  0.3435 -0.8919
 6122SOL    HW129828   1.629   4.027   4.303 -0.0026 -1.7223 -0.3325
 6122SOL    HW229829   1.590   4.083   4.426  0.1497  0.1886 -0.2654
 6123SOL     OW29830   0.500   2.805   5.887 -0.1128 -0.2202  0.2285
 6123SOL    HW129831   0.474   2.840   5.801 -0.6300  0.4666  0.6616
 6123SOL    HW229832   0.433   2.848   5.940  1.0240 -1.7517  2.9121
 6124SOL     OW29833   1.499   3.046  13.285 -0.2260  0.3163  0.1036
 6124SOL    HW129834   1.475   3.064  13.376  0.2730  1.7287 -0.0416
 6124SOL    HW229835   1.462   2.960  13.263  0.7948  0.1605 -0.9970
 6125SOL     OW29836   2.243   0.483   5.510 -0.3290 -0.6291 -0.5791
 6125SOL    HW129837   2.289   0.556   5.552  2.2452 -3.8592  2.3317
 6125SOL    HW229838   2.154   0.516   5.500 -0.0512  1.0249  2.3362
 6126SOL     OW29839   3.458   4.355  16.490 -0.0764 -0.4115  0.0757
 6126SOL    HW129840   3.364   4.372  16.499  0.0469 -0.1031  0.7636
 6126SOL    HW229841   3.470   4.380  16.398 -0.6197 -1.0105 -0.1664
 6127SOL     OW29842   1.802   0.118  14.751 -0.1533  0.8844  0.5925
 6127SOL    HW129843   1.885   0.148  14.713 -1.2242  1.0128 -1.6244
 6127SOL    HW229844   1.822   0.130  14.844  2.1985  1.3211  0.0398
 6128SOL     OW29845   2.818   3.498   1.176 -0.2255 -0.2203  0.0158
 6128SOL    HW129846   2.809   3.480   1.083  0.2559  0.4716 -0.1640
 6128SOL    HW229847   2.912   3.499   1.195 -0.1894  1.0346 -0.2443
 6129SOL     OW29848   2.145   0.380  15.307  0.6641 -0.0920 -0.1560
 6129SOL    HW129849   2.192   0.297  15.312  0.6726 -0.0114  0.9879
 6129SOL    HW229850   2.154   0.405  15.215  0.8786  0.5130  0.0305
 6130SOL     OW29851   3.439   1.000   5.683  0.4759 -0.0078  0.0552
 6130SOL    HW129852   3.402   1.073   5.633 -0.1703 -1.3250 -1.4025
 6130SOL    HW229853   3.367   0.938   5.669 -0.8381  1.2836  1.1237
 6131SOL     OW29854   1.896   1.871   3.319  0.0841 -0.4026 -0.5694
 6131SOL    HW129855   1.967   1.883   3.382 -1.2126  1.4314  0.5037
 6131SOL    HW229856   1.949   1.885   3.240  0.1130  0.3783 -0.4035
 6132SOL     OW29857   1.301   3.608  15.250  0.3086  0.1643 -0.3353
 6132SOL    HW129858   1.262   3.543  15.192  2.4875 -2.3225  0.9336
 6132SOL    HW229859   1.226   3.667  15.246  0.3005  0.1676 -0.1698
 6133SOL     OW29860   0.647   1.657  16.166  0.0621  0.8920 -0.3052
 6133SOL    HW129861   0.662   1.564  16.184 -2.2581  0.7503  0.9143
 6133SOL    HW229862   0.739   1.683  16.153  0.9672 -0.8858  2.6483
 6134SOL     OW29863   2.884   1.037  17.281 -0.5390  0.3024  0.1979
 6134SOL    HW129864   2.900   1.041  17.186  0.0265  1.8348  0.3543
 6134SOL    HW229865   2.882   1.131  17.298 -2.5979  0.6353 -1.7914
 6135SOL     OW29866   1.045   0.575   2.014 -0.0711 -0.4583 -0.5995
 6135SOL    HW129867   1.110   0.515   2.051  0.4637  0.0875 -0.6526
 6135SOL    HW229868   1.004   0.521   1.946 -1.1836 -1.3967  0.8461
 6136SOL     OW29869   0.196   0.851   3.231 -0.3329  0.0575 -0.3394
 6136SOL    HW129870   0.169   0.759   3.241  2.7273 -0.5957  1.7687
 6136SOL    HW229871   0.129   0.894   3.284 -1.5876  0.6908 -2.4271
 6137SOL     OW29872   3.181   4.690  17.356  0.1732 -0.0540 -0.0864
 6137SOL    HW129873   3.231   0.050  17.354  1.2756 -0.7210 -0.5321
 6137SOL    HW229874   3.238   4.629  17.309  0.7104  0.4825 -0.1339
 6138SOL     OW29875   2.781   1.570   3.774  0.8245 -0.1910 -0.2035
 6138SOL    HW129876   2.814   1.486   3.807  0.3997 -0.1088  0.4315
 6138SOL    HW229877   2.831   1.622   3.837  0.6193  1.5276 -1.4885
 6139SOL     OW29878   3.254   4.605   5.845 -0.4293 -0.4051 -0.4543
 6139SOL    HW129879   3.195   4.529   5.840 -2.2476  0.8181  2.2489
 6139SOL    HW229880   3.198   4.676   5.813 -1.5690 -0.2240  1.9239
 6140SOL     OW29881   4.022   0.396   4.080 -0.2086 -0.1286  0.4004
 6140SOL    HW129882   3.963   0.429   4.012  1.1641  0.0026 -0.7164
 6140SOL    HW229883   4.013   0.302   4.063  1.4798  0.1245 -1.7712
 6141SOL     OW29884   1.528   2.809  15.646  0.2334  0.1424 -0.3198
 6141SOL    HW129885   1.573   2.855  15.575 -0.7807 -1.2439 -1.8582
 6141SOL    HW229886   1.501   2.874  15.711  1.7901  2.3148 -1.8601
 6142SOL     OW29887   2.538   4.047  11.088 -0.6409 -0.0913 -0.2112
 6142SOL    HW129888   2.492   4.059  11.171 -2.0957 -1.0020 -0.8825
 6142SOL    HW229889   2.480   4.090  11.026  0.3259 -0.9904 -1.7601
 6143SOL     OW29890   1.002   0.366  12.558  0.3593  0.2126  0.3385
 6143SOL    HW129891   1.083   0.323  12.530  0.2115 -1.0973  1.9338
 6143SOL    HW229892   0.969   0.387  12.470  1.9142 -2.3911 -0.8598
 6144SOL     OW29893   1.617   0.690   7.197  0.8565  0.4976 -0.2779
 6144SOL    HW129894   1.662   0.736   7.268  3.9139 -1.1144 -1.1978
 6144SOL    HW229895   1.617   0.602   7.236 -0.3159  1.0288  0.9194
 6145SOL     OW29896   1.309   0.175   8.588  0.2676  0.1108 -0.2037
 6145SOL    HW129897   1.242   0.178   8.520  1.8800 -0.2768 -1.8024
 6145SOL    HW229898   1.320   0.081   8.599  1.2656  0.1961 -0.5331
 6146SOL     OW29899   2.633   2.408   9.658  0.1677  0.4427 -0.2664
 6146SOL    HW129900   2.570   2.452   9.716  0.2660 -0.0931  0.2445
 6146SOL    HW229901   2.629   2.467   9.583  0.1959  2.5827  1.4070
 6147SOL     OW29902   1.747   1.028  16.709 -0.1785 -0.8663  0.0246
 6147SOL    HW129903   1.821   0.975  16.738  1.8229  1.8661 -0.1577
 6147SOL    HW229904   1.690   1.024  16.786  1.0577 -2.6532  0.8401
 6148SOL     OW29905   0.480   3.007   3.682 -0.2729 -0.5751 -0.0323
 6148SOL    HW129906   0.431   2.928   3.658  0.6228 -1.0183 -0.4147
 6148SOL    HW229907   0.563   2.967   3.708  0.5460  0.3823 -1.1587
 6149SOL     OW29908   4.341   2.260  12.319 -0.4278 -0.2264  0.6488
 6149SOL    HW129909   4.338   2.311  12.400  1.2141 -1.9768  1.8035
 6149SOL    HW229910   4.361   2.336  12.265 -1.4633 -0.2412  0.2374
 6150SOL     OW29911   2.374   4.516   7.849 -0.2681  0.8331  0.2466
 6150SOL    HW129912   2.339   4.429   7.868 -0.2216  0.4760 -1.2343
 6150SOL    HW229913   2.409   4.512   7.760 -0.4253  0.8694  0.1821
 6151SOL     OW29914   4.664   3.933   3.312  0.1390 -0.1590  0.4267
 6151SOL    HW129915   4.607   3.974   3.247  0.5361  0.4131  0.4302
 6151SOL    HW229916   0.007   4.003   3.308 -0.9079  0.8677  1.0031
 6152SOL     OW29917   1.803   2.477   5.879  0.0805  0.1492  0.1540
 6152SOL    HW129918   1.794   2.386   5.908 -1.9134  0.0459 -0.7963
 6152SOL    HW229919   1.718   2.489   5.837  0.5053  2.1724 -0.1369
 6153SOL     OW29920   3.180   4.112   8.936  0.1818  0.1598  0.5439
 6153SOL    HW129921   3.236   4.081   9.008  2.6485  1.8753 -0.6519
 6153SOL    HW229922   3.110   4.048   8.949  1.5211 -1.8394 -2.1356
 6154SOL     OW29923   4.720   1.916   2.574 -0.1153 -0.1324  0.3877
 6154SOL    HW129924   0.009   1.978   2.647  3.6987  1.0962 -1.2406
 6154SOL    HW229925   0.035   1.837   2.612  3.5451  1.5162  0.2761
 6155SOL     OW29926   3.252   4.622   1.815 -0.3658 -0.3366 -0.0132
 6155SOL    HW129927   3.185   4.595   1.752 -0.3655  0.6736 -0.4545
 6155SOL    HW229928   3.275   4.534   1.845 -3.2632 -0.7197  0.9969
 6156SOL     OW29929   0.274   2.895   6.028 -0.5221 -0.6275 -0.2998
 6156SOL    HW129930   0.271   2.986   6.057 -1.1851 -0.6509 -0.2930
 6156SOL    HW229931   0.199   2.866   6.080 -0.9589  0.5099 -0.3070
 6157SOL     OW29932   4.071   1.142   1.861 -0.9304 -0.3064 -0.4288
 6157SOL    HW129933   3.979   1.148   1.887  0.1370  2.2450  2.7783
 6157SOL    HW229934   4.082   1.215   1.800  1.5940  1.7004  2.4014
 6158SOL     OW29935   2.990   2.289  14.506  0.1133 -0.3464  0.4853
 6158SOL    HW129936   2.988   2.342  14.426 -0.1527  0.3960  0.9829
 6158SOL    HW229937   2.953   2.204  14.482 -1.0893  1.2134 -3.1593
 6159SOL     OW29938   1.847   0.017   8.042 -0.1564  0.7638  0.3820
 6159SOL    HW129939   1.802   4.654   8.047 -0.3495  0.8732  0.4956
 6159SOL    HW229940   1.819   0.052   8.127 -0.3081  0.9154  0.2682
 6160SOL     OW29941   0.089   2.596   0.331 -0.3401 -0.3457  0.0347
 6160SOL    HW129942   0.148   2.555   0.267 -1.0316 -3.3506  1.3128
 6160SOL    HW229943   0.013   2.615   0.276  0.8995  0.8724 -1.2596
 6161SOL     OW29944   3.691   4.165   4.169  0.0282 -0.4503 -0.0082
 6161SOL    HW129945   3.728   4.253   4.170 -1.0757  0.0567 -2.3733
 6161SOL    HW229946   3.759   4.106   4.202  0.5329  0.0569 -0.1525
 6162SOL     OW29947   3.154   1.370   6.771 -0.1486 -0.3552  0.3285
 6162SOL    HW129948   3.135   1.358   6.677 -0.5401 -2.5436  0.6870
 6162SOL    HW229949   3.246   1.343   6.771  0.3625  1.4225  2.4165
 6163SOL     OW29950   2.508   1.429   8.371 -0.1315  0.2712  0.0863
 6163SOL    HW129951   2.527   1.484   8.447  3.0313 -0.5596 -0.0752
 6163SOL    HW229952   2.548   1.346   8.400 -1.8956  0.0770  1.9449
 6164SOL     OW29953   0.512   2.358   9.910  0.3578 -0.5351  0.1586
 6164SOL    HW129954   0.496   2.297   9.982  0.8265  0.1220  0.8128
 6164SOL    HW229955   0.574   2.427   9.934 -1.3558  1.5287 -1.3167
 6165SOL     OW29956   2.091   3.144   8.148  0.1461  0.2466  0.6664
 6165SOL    HW129957   2.031   3.204   8.105 -1.4055 -0.1196  2.3040
 6165SOL    HW229958   2.041   3.064   8.131 -0.0533  0.3328  0.8380
 6166SOL     OW29959   2.402   2.347   8.381  0.3043 -0.1875 -0.2518
 6166SOL    HW129960   2.327   2.408   8.377 -1.6496 -2.5642  0.1673
 6166SOL    HW229961   2.467   2.393   8.434 -0.5200  0.9565 -0.2162
 6167SOL     OW29962   1.237   1.719   7.567  0.0984  0.1049  0.4207
 6167SOL    HW129963   1.287   1.799   7.581 -0.5945  0.7507 -0.8671
 6167SOL    HW229964   1.174   1.730   7.639  0.2331  0.0315  0.5504
 6168SOL     OW29965   3.870   2.050   5.467 -0.7757 -0.0431  0.4355
 6168SOL    HW129966   3.800   2.082   5.410 -1.6399 -1.3426  0.7675
 6168SOL    HW229967   3.822   2.037   5.549  0.5322 -0.0554  1.1960
 6169SOL     OW29968   3.182   0.648   5.862 -0.1067  0.2165  0.3223
 6169SOL    HW129969   3.272   0.668   5.838  0.4034 -0.7871  1.4159
 6169SOL    HW229970   3.192   0.556   5.885 -1.5915 -0.3562 -1.2730
 6170SOL     OW29971   1.411   2.726  11.709  0.9255 -0.0198 -0.4838
 6170SOL    HW129972   1.430   2.811  11.670  1.7687  0.1856  0.3875
 6170SOL    HW229973   1.336   2.701  11.655 -0.4294  0.0561  1.3366
 6171SOL     OW29974   0.150   1.694   3.266  0.8405 -0.4563 -0.0753
 6171SOL    HW129975   0.110   1.781   3.277 -0.1786 -0.8461 -0.7523
 6171SOL    HW229976   0.232   1.701   3.314  0.9958 -0.0180 -0.4004
 6172SOL     OW29977   3.287   2.557   9.209  0.4027 -0.2356 -0.7927
 6172SOL    HW129978   3.255   2.550   9.119  1.7196 -0.5712 -1.2278
 6172SOL    HW229979   3.308   2.467   9.234  0.0692 -0.2776 -0.6595
 6173SOL     OW29980   4.239   1.733   7.159 -0.3146 -0.2060  0.1664
 6173SOL    HW129981   4.222   1.683   7.079 -0.1403  0.3798 -0.2379
 6173SOL    HW229982   4.207   1.677   7.229  0.5712  1.6294  2.0506
 6174SOL     OW29983   3.003   2.685   8.246  0.7487 -0.5561 -0.0300
 6174SOL    HW129984   2.942   2.681   8.319  0.5417  2.4533 -0.0369
 6174SOL    HW229985   3.081   2.638   8.275  0.6269 -0.5235  0.3507
 6175SOL     OW29986   3.441   4.551   8.700  0.4378 -0.0596 -0.5508
 6175SOL    HW129987   3.501   4.564   8.774  0.7238 -0.1809 -0.7644
 6175SOL    HW229988   3.373   4.594   8.752  0.3728 -0.6478 -0.1430
 6176SOL     OW29989   2.047   2.686   2.200 -0.0745  0.0129 -0.0952
 6176SOL    HW129990   2.129   2.725   2.170  1.3131 -2.1398  0.9180
 6176SOL    HW229991   1.993   2.690   2.121 -2.1642  1.1229  1.3978
 6177SOL     OW29992   0.734   1.855   4.551  0.0474 -0.4955 -0.1183
 6177SOL    HW129993   0.812   1.804   4.531 -0.0939 -0.4989 -0.6887
 6177SOL    HW229994   0.671   1.799   4.505  0.0882 -1.2873  0.7779
 6178SOL     OW29995   1.086   4.396  14.724  0.2851 -0.5859 -0.2992
 6178SOL    HW129996   1.067   4.336  14.796  1.1134 -1.8173 -1.1043
 6178SOL    HW229997   1.127   4.461  14.780  0.0754 -0.0419 -0.7798
 6179SOL     OW29998   1.209   3.521  15.500 -0.3499  0.1925  1.0346
 6179SOL    HW129999   1.275   3.581  15.536  0.6719 -1.3364  1.7008
 6179SOL    HW230000   1.235   3.536  15.409 -0.3152 -1.5981  0.7436
 6180SOL     OW30001   4.508   2.150   8.643  0.1036  0.3429  0.5511
 6180SOL    HW130002   4.570   2.190   8.583  1.8742 -0.0174  2.1612
 6180SOL    HW230003   4.431   2.157   8.586  1.8013 -1.6925 -1.9614
 6181SOL     OW30004   2.279   1.341   7.689  0.7132 -0.8105  0.4988
 6181SOL    HW130005   2.190   1.364   7.717  1.0772  0.5531  0.5306
 6181SOL    HW230006   2.257   1.308   7.603 -2.8943  0.9825  0.7145
 6182SOL     OW30007   4.577   2.722   4.417 -0.4140 -0.4367  0.9023
 6182SOL    HW130008   4.646   2.675   4.464 -0.3337  0.1556  1.3734
 6182SOL    HW230009   4.519   2.746   4.489  0.1069  1.2297  0.7483
 6183SOL     OW30010   1.732   0.023   7.539  0.3403  0.2031 -0.0619
 6183SOL    HW130011   1.675   0.057   7.471  0.6290 -2.2681 -1.5366
 6183SOL    HW230012   1.784   0.099   7.566 -0.4713  0.4474  0.7946
 6184SOL     OW30013   2.680   0.704   7.885 -0.2257  0.0885  0.0046
 6184SOL    HW130014   2.769   0.715   7.919 -0.3230 -0.9514  0.6033
 6184SOL    HW230015   2.682   0.651   7.805 -1.1036 -0.9285  0.6513
 6185SOL     OW30016   1.054   3.745   3.454  0.1994 -0.3112  0.2448
 6185SOL    HW130017   1.063   3.836   3.483 -0.3240  0.2000 -1.2037
 6185SOL    HW230018   0.960   3.730   3.462 -0.2957  1.7411 -1.8986
 6186SOL     OW30019   2.353   2.820   3.567  0.1620  0.7320  0.3811
 6186SOL    HW130020   2.270   2.857   3.540 -0.7412 -1.2661  0.3685
 6186SOL    HW230021   2.401   2.811   3.485  1.3109 -1.0092  1.2139
 6187SOL     OW30022   3.040   4.668   5.104  0.2230 -0.1596 -0.7889
 6187SOL    HW130023   3.125   4.684   5.144 -0.6474 -1.6009  1.6025
 6187SOL    HW230024   3.055   4.604   5.034  1.1414 -3.5517  2.5232
 6188SOL     OW30025   2.637   2.247   8.592  0.1741 -0.6787  0.6889
 6188SOL    HW130026   2.662   2.185   8.661  0.6954 -1.0159  0.1984
 6188SOL    HW230027   2.682   2.220   8.512 -1.0998  1.5718 -0.7949
 6189SOL     OW30028   2.349   4.128   5.171 -0.6716 -0.2518  0.3694
 6189SOL    HW130029   2.441   4.149   5.155 -1.1372 -0.1614 -2.1547
 6189SOL    HW230030   2.353   4.106   5.264 -3.0160 -1.4548  0.1829
 6190SOL     OW30031   2.987   4.230   6.208  0.4757 -0.5433 -0.0624
 6190SOL    HW130032   2.963   4.298   6.271 -0.1894  1.2728 -2.2821
 6190SOL    HW230033   2.900   4.226   6.168  0.9512  0.2388 -1.1750
 6191SOL     OW30034   0.432   1.621  12.037 -0.5623  0.0149  0.1259
 6191SOL    HW130035   0.431   1.587  11.947  2.1352  0.7125 -0.1895
 6191SOL    HW230036   0.358   1.679  12.054 -1.9618 -1.6430 -0.2302
 6192SOL     OW30037   1.996   1.649   8.238 -0.6133 -0.2112 -0.5228
 6192SOL    HW130038   2.088   1.635   8.262 -0.2910  1.0560 -1.0406
 6192SOL    HW230039   1.965   1.699   8.313 -1.9408 -0.2600 -1.0332
 6193SOL     OW30040   4.167   4.569  13.092 -0.1605  0.1831  0.1102
 6193SOL    HW130041   4.117   4.649  13.106 -1.2110 -0.5707  0.6930
 6193SOL    HW230042   4.123   4.539  13.012  1.0162 -0.4084 -0.3194
 6194SOL     OW30043   1.385   1.922   6.261 -0.2045  0.0117 -0.3841
 6194SOL    HW130044   1.330   1.982   6.210  1.2112  1.9071  0.3448
 6194SOL    HW230045   1.453   1.972   6.304  1.7284 -2.6864 -0.3164
 6195SOL     OW30046   1.647   0.409   9.050  0.3169 -0.0372  0.1793
 6195SOL    HW130047   1.579   0.357   9.007 -0.9618  1.7998  0.0041
 6195SOL    HW230048   1.610   0.418   9.138 -1.0366  0.5717 -0.4603
 6196SOL     OW30049   2.123   0.202  13.144 -0.2003 -0.0964  0.6910
 6196SOL    HW130050   2.161   0.119  13.174  1.6373  1.3446  2.3454
 6196SOL    HW230051   2.192   0.233  13.084 -1.0881  1.6643  0.5824
 6197SOL     OW30052   1.763   3.546   2.753 -0.3186 -0.2073  0.0031
 6197SOL    HW130053   1.754   3.543   2.848  3.3179 -0.7841  0.3649
 6197SOL    HW230054   1.796   3.633   2.731  0.8467  0.0612  2.7829
 6198SOL     OW30055   0.753   1.500   2.963  0.2810  0.2528 -0.2052
 6198SOL    HW130056   0.846   1.523   2.962 -0.1434  2.0171  1.0592
 6198SOL    HW230057   0.744   1.443   2.886  0.4313 -1.7010  1.2123
 6199SOL     OW30058   0.525   2.536   5.856  0.7117  0.6123  0.0764
 6199SOL    HW130059   0.469   2.500   5.925  2.8067 -2.5321  0.0976
 6199SOL    HW230060   0.516   2.630   5.874 -1.3651  0.4910 -0.2207
 6200SOL     OW30061   0.809   0.095   0.519  0.1302  0.2922  0.0048
 6200SOL    HW130062   0.827   0.007   0.485  0.4580  0.0955  0.6849
 6200SOL    HW230063   0.809   0.069   0.612 -1.3012 -0.6096 -0.2340
 6201SOL     OW30064   3.002   2.408  10.255  0.8291  0.3515  0.0527
 6201SOL    HW130065   3.054   2.329  10.271  0.0921 -0.6292 -2.3393
 6201SOL    HW230066   3.034   2.436  10.169  0.9164 -1.1760 -0.4188
 6202SOL     OW30067   1.787   4.060   3.669 -0.2413  0.2379  0.3199
 6202SOL    HW130068   1.754   4.103   3.748  0.7338  0.2311  0.7285
 6202SOL    HW230069   1.772   3.971   3.700 -1.9971 -0.1110 -1.4864
 6203SOL     OW30070   1.851   3.772  10.239  0.1914  0.1691  0.3036
 6203SOL    HW130071   1.916   3.784  10.308  0.8782 -1.4896 -0.0581
 6203SOL    HW230072   1.795   3.709  10.284 -0.2736  1.7646  1.9418
 6204SOL     OW30073   1.050   0.104   4.615 -0.3260  0.5283  0.1504
 6204SOL    HW130074   1.049   0.009   4.602 -2.4862  0.3677  1.4131
 6204SOL    HW230075   0.970   0.130   4.661 -2.1656 -1.4755 -1.8860
 6205SOL     OW30076   0.269   0.591   8.327  0.5880 -0.1996 -0.1599
 6205SOL    HW130077   0.298   0.529   8.393 -2.4664  0.7882  2.0822
 6205SOL    HW230078   0.299   0.546   8.248  0.6768  2.2292 -1.5022
 6206SOL     OW30079   4.007   1.671  10.423 -0.8927  0.3823  0.3133
 6206SOL    HW130080   4.088   1.664  10.373 -0.2370 -0.9593  1.5788
 6206SOL    HW230081   4.052   1.697  10.503 -1.2379  0.8425  0.3561
 6207SOL     OW30082   1.411   4.099   4.465 -0.5222  0.5318 -0.4783
 6207SOL    HW130083   1.323   4.099   4.503 -0.4442  0.2767 -0.2993
 6207SOL    HW230084   1.395   4.157   4.390 -0.5531  1.7700  0.4785
 6208SOL     OW30085   3.175   0.272  16.378 -0.4400  0.3658 -0.0886
 6208SOL    HW130086   3.186   0.358  16.418  1.1934 -0.8655  2.1554
 6208SOL    HW230087   3.266   0.253  16.354 -0.7068  0.5042 -1.2179
 6209SOL     OW30088   0.832   1.815   9.673 -0.7832 -0.0564 -0.2946
 6209SOL    HW130089   0.762   1.875   9.701  0.0398  0.4626  0.6214
 6209SOL    HW230090   0.858   1.771   9.754 -1.1939  0.9679  0.3865
 6210SOL     OW30091   0.315   3.020   9.155 -0.6504  0.1710  0.4949
 6210SOL    HW130092   0.408   3.043   9.152  0.4313 -4.4191 -1.4279
 6210SOL    HW230093   0.301   3.011   9.249  1.6320  0.0238  0.8167
 6211SOL     OW30094   0.433   0.009  16.553  0.0473  0.2197  0.6214
 6211SOL    HW130095   0.457   0.101  16.539  0.3561 -0.1746 -1.4907
 6211SOL    HW230096   0.409   4.704  16.464  1.1593 -0.8991  0.6665
 6212SOL     OW30097   4.365   3.381   4.097  0.3183  0.1547  0.1086
 6212SOL    HW130098   4.306   3.338   4.035  0.8014 -1.8628  1.0375
 6212SOL    HW230099   4.346   3.330   4.175 -2.1153  1.7366  0.5389
 6213SOL     OW30100   2.959   0.181   4.340 -0.2572 -0.0730 -0.1073
 6213SOL    HW130101   2.977   0.264   4.297 -4.1402  1.2050  0.7224
 6213SOL    HW230102   3.038   0.142   4.303  0.0010 -1.5922  2.0402
 6214SOL     OW30103   1.367   2.230  10.862 -0.3719  0.0955  0.5565
 6214SOL    HW130104   1.278   2.253  10.889  0.6534  2.7326  1.7664
 6214SOL    HW230105   1.419   2.283  10.924 -0.9207  1.0969  0.1680
 6215SOL     OW30106   0.275   3.324   1.620 -0.1788 -0.7924 -0.0537
 6215SOL    HW130107   0.294   3.236   1.590 -3.3102 -1.2241 -0.7342
 6215SOL    HW230108   0.369   3.344   1.621 -0.3520 -0.0534  1.5942
 6216SOL     OW30109   2.847   3.497   5.589 -0.3457  0.2166  0.0029
 6216SOL    HW130110   2.898   3.545   5.654  0.2038  2.9074 -2.4332
 6216SOL    HW230111   2.913   3.485   5.521  2.6928 -1.6694  3.2845
 6217SOL     OW30112   3.348   2.288   6.488  0.3610 -0.1533 -0.1666
 6217SOL    HW130113   3.438   2.263   6.468  0.4745 -0.2558  0.4812
 6217SOL    HW230114   3.312   2.215   6.538  0.6849 -0.5866 -0.5689
 6218SOL     OW30115   0.855   0.708   2.139  0.5396  0.2008 -0.5949
 6218SOL    HW130116   0.814   0.644   2.197 -0.2475 -1.2619 -2.7711
 6218SOL    HW230117   0.930   0.670   2.094  1.1032  1.4459 -0.7144
 6219SOL     OW30118   1.974   3.964   4.067 -0.5397 -0.6752  0.7035
 6219SOL    HW130119   1.987   4.057   4.050 -2.4514 -0.1632  2.0143
 6219SOL    HW230120   2.031   3.933   3.997 -2.7831 -0.2849 -1.3154
 6220SOL     OW30121   1.287   0.327  14.575 -0.5335 -0.1307  0.3233
 6220SOL    HW130122   1.376   0.292  14.572 -0.2629  0.3565  2.2065
 6220SOL    HW230123   1.266   0.319  14.482 -1.2899 -0.2227  0.5054
 6221SOL     OW30124   2.111   2.599  10.421 -0.6458  0.3368  0.1524
 6221SOL    HW130125   2.137   2.575  10.510 -0.3896  1.1249  0.2914
 6221SOL    HW230126   2.194   2.637  10.393 -0.4030 -1.3638 -1.4515
 6222SOL     OW30127   3.206   2.631   5.988  0.4626  0.4158  0.7964
 6222SOL    HW130128   3.177   2.657   5.901 -0.6635 -1.2969  0.6686
 6222SOL    HW230129   3.134   2.671   6.037  0.4394  2.5944 -1.0032
 6223SOL     OW30130   2.064   3.360   6.121  0.1241 -0.0986 -0.6026
 6223SOL    HW130131   2.029   3.338   6.207  0.1801  1.2260 -0.2453
 6223SOL    HW230132   2.158   3.346   6.134  0.1468  0.3588 -0.2711
 6224SOL     OW30133   2.402   1.498  11.340  0.3478  0.1440  1.0677
 6224SOL    HW130134   2.395   1.498  11.435 -1.1538  1.5937  0.9508
 6224SOL    HW230135   2.330   1.442  11.311  0.5955  0.3964 -0.0218
 6225SOL     OW30136   3.716   0.011   6.204  0.0437  0.6698  0.6146
 6225SOL    HW130137   3.742   0.085   6.149  0.6414  0.5393  0.7284
 6225SOL    HW230138   3.799   4.687   6.199 -1.7928 -2.6377  0.9342
 6226SOL     OW30139   0.643   3.202  16.316 -0.7692 -0.1875  0.0845
 6226SOL    HW130140   0.669   3.163  16.399 -1.6482  0.2036  0.5456
 6226SOL    HW230141   0.721   3.213  16.262  0.2797 -0.7597  1.5029
 6227SOL     OW30142   0.384   2.261   5.344  0.2701 -0.8106  0.0919
 6227SOL    HW130143   0.333   2.338   5.369  1.0775 -0.0346 -0.6465
 6227SOL    HW230144   0.426   2.243   5.429 -1.3042 -2.4766  0.5088
 6228SOL     OW30145   0.383   3.015  11.217 -0.4049  0.1656  0.1973
 6228SOL    HW130146   0.372   2.921  11.228  0.5136 -0.0241 -0.5737
 6228SOL    HW230147   0.412   3.040  11.305  2.8732 -0.8508 -0.6041
 6229SOL     OW30148   1.816   1.827  16.871  0.1178  0.1655 -0.7934
 6229SOL    HW130149   1.762   1.885  16.818 -1.4704 -0.0017  0.6443
 6229SOL    HW230150   1.884   1.809  16.806  1.7422  2.2673  0.3341
 6230SOL     OW30151   0.915   2.678  13.752  0.5113  0.3178  0.9775
 6230SOL    HW130152   1.004   2.709  13.734  0.3516 -0.0388 -0.4213
 6230SOL    HW230153   0.918   2.601  13.695 -2.3249  2.1278 -1.6046
 6231SOL     OW30154   1.215   3.013   2.958 -1.1461  0.0059 -0.5320
 6231SOL    HW130155   1.283   3.069   2.996 -0.6917  0.4936 -2.0917
 6231SOL    HW230156   1.270   2.943   2.923  2.2180  2.4365 -0.1191
 6232SOL     OW30157   0.051   2.818   5.436 -0.2030  0.1058  1.0627
 6232SOL    HW130158   0.133   2.779   5.406 -1.2682  0.6785 -2.6164
 6232SOL    HW230159   0.068   2.909   5.412  0.8969 -0.1597  0.8408
 6233SOL     OW30160   2.702   2.161   2.920  0.0276  0.5453  0.5924
 6233SOL    HW130161   2.713   2.244   2.876 -0.0199  0.8339  1.1237
 6233SOL    HW230162   2.791   2.143   2.949  0.0720  0.6299  0.5050
 6234SOL     OW30163   3.710   4.380  10.332 -0.0647  0.5665  0.1711
 6234SOL    HW130164   3.746   4.453  10.383  1.1280 -0.7822  1.2446
 6234SOL    HW230165   3.794   4.362  10.291  0.7107 -0.0922  2.0762
 6235SOL     OW30166   1.521   1.711   4.791  0.2036 -0.5308  0.0042
 6235SOL    HW130167   1.467   1.741   4.718  0.8222  1.2926  0.3071
 6235SOL    HW230168   1.583   1.657   4.743  0.0968  0.0029 -0.7289
 6236SOL     OW30169   3.215   1.722   2.422  0.0153 -0.2682  0.6854
 6236SOL    HW130170   3.275   1.794   2.404 -0.8597  1.1435  3.4730
 6236SOL    HW230171   3.230   1.659   2.351  0.0640 -0.7130  1.0888
 6237SOL     OW30172   0.750   3.583   1.293 -0.2014  0.1686  0.3888
 6237SOL    HW130173   0.729   3.671   1.263 -1.6737  0.0892  1.1920
 6237SOL    HW230174   0.845   3.574   1.296 -0.1854  0.6370  1.2703
 6238SOL     OW30175   2.885   1.599  14.887 -0.1945 -0.7978 -0.3567
 6238SOL    HW130176   2.799   1.568  14.860 -1.2615  0.7691  1.2236
 6238SOL    HW230177   2.901   1.676  14.832  5.4196 -2.7056 -1.4024
 6239SOL     OW30178   2.460   2.345   6.216  0.1437  0.5777  0.2651
 6239SOL    HW130179   2.487   2.271   6.271 -2.2213  1.5293  2.7243
 6239SOL    HW230180   2.391   2.304   6.165 -1.1869  3.2562 -0.0647
 6240SOL     OW30181   2.167   0.454   3.204 -0.1921 -0.0370 -0.3362
 6240SOL    HW130182   2.210   0.369   3.214  1.0967  0.9210  2.0892
 6240SOL    HW230183   2.110   0.458   3.280  2.4877 -0.1480  1.6904
 6241SOL     OW30184   4.010   1.645   6.864  0.3030  0.5430  0.0595
 6241SOL    HW130185   4.007   1.583   6.791 -0.8908  1.1860 -0.4293
 6241SOL    HW230186   4.106   1.647   6.871  0.1951  0.6638  1.5391
 6242SOL     OW30187   0.946   1.207   1.816 -0.1500 -0.1814 -0.7108
 6242SOL    HW130188   0.949   1.301   1.834 -0.1055 -0.1550 -0.8614
 6242SOL    HW230189   0.982   1.174   1.898  1.8223 -0.3157 -1.6309
 6243SOL     OW30190   0.867   1.373   3.869 -0.2287 -0.3249  0.2853
 6243SOL    HW130191   0.904   1.457   3.843 -0.1373 -0.0964  1.1665
 6243SOL    HW230192   0.772   1.388   3.867  0.1152  2.3908  4.1866
 6244SOL     OW30193   0.493   3.566  17.473 -0.0511 -0.2642 -0.3782
 6244SOL    HW130194   0.457   3.644  17.516 -1.4947 -0.8786 -0.4736
 6244SOL    HW230195   0.559   3.535  17.535  0.3136 -1.5772 -1.4209
 6245SOL     OW30196   4.529   2.454   4.699  0.7163  0.3338 -0.3303
 6245SOL    HW130197   4.608   2.494   4.661  0.2992 -0.5682 -2.1317
 6245SOL    HW230198   4.553   2.365   4.673 -0.0355 -0.4391  1.6461
 6246SOL     OW30199   4.466   4.521  17.107 -0.0339 -0.9247  0.0900
 6246SOL    HW130200   4.549   4.512  17.061 -0.9521  2.2880 -2.1563
 6246SOL    HW230201   4.411   4.551  17.035 -0.7876 -2.2312  0.1128
 6247SOL     OW30202   1.518   0.210  14.476  0.1834 -0.3735  0.8768
 6247SOL    HW130203   1.566   0.277  14.426 -0.4386 -0.6394 -0.0891
 6247SOL    HW230204   1.578   0.136  14.479  0.0567 -0.6112 -1.9851
 6248SOL     OW30205   4.559   3.897   1.353 -0.2941  0.0344  0.2063
 6248SOL    HW130206   4.593   3.977   1.393 -2.8844  2.3082 -2.1151
 6248SOL    HW230207   4.486   3.879   1.412  0.6936 -0.7378  1.1799
 6249SOL     OW30208   3.452   1.012   4.437 -0.8394  0.7106  0.0516
 6249SOL    HW130209   3.504   0.932   4.439 -1.8868 -0.0090 -1.4027
 6249SOL    HW230210   3.483   1.053   4.517 -2.7401 -0.3663  1.3544
 6250SOL     OW30211   0.473   3.436   4.981 -0.1033 -0.1375 -0.3196
 6250SOL    HW130212   0.456   3.423   5.074  0.5164  0.4211 -0.1275
 6250SOL    HW230213   0.547   3.496   4.996  0.7404 -1.4132  0.6071
 6251SOL     OW30214   1.466   2.084   5.678  0.4177  0.3415  0.6699
 6251SOL    HW130215   1.538   2.022   5.670  0.6829  0.3891  2.5527
 6251SOL    HW230216   1.412   2.059   5.603  1.6133  0.0814 -0.0996
 6252SOL     OW30217   0.929   1.817  16.377 -0.3295 -0.4176 -0.5447
 6252SOL    HW130218   0.968   1.893  16.420 -0.3634  0.3466 -1.8659
 6252SOL    HW230219   0.841   1.841  16.406  0.7886 -1.0742  3.4708
 6253SOL     OW30220   2.449   2.060  14.729  0.2635  0.1699  0.4913
 6253SOL    HW130221   2.486   2.012  14.803 -0.9012  0.6961  1.4275
 6253SOL    HW230222   2.532   2.063  14.682  1.0269 -0.9756  1.7708
 6254SOL     OW30223   3.874   3.098   3.261 -0.5802  0.3020  0.6228
 6254SOL    HW130224   3.931   3.059   3.194 -0.8399  0.5677  0.2507
 6254SOL    HW230225   3.856   3.181   3.217  0.5915  0.6136  0.7428
 6255SOL     OW30226   1.168   0.813   1.133  0.1561 -0.3585 -0.2030
 6255SOL    HW130227   1.211   0.878   1.078 -0.2097  0.5832  0.6292
 6255SOL    HW230228   1.090   0.858   1.165 -0.1910 -1.7247  0.8907
 6256SOL     OW30229   0.930   3.011   5.594  0.3568 -0.1125 -0.4727
 6256SOL    HW130230   0.985   3.043   5.522 -2.8439  3.9666 -1.1319
 6256SOL    HW230231   0.849   3.059   5.577 -0.9249 -1.3852  1.9681
 6257SOL     OW30232   0.450   4.031   2.256  0.0045 -0.1166 -0.2683
 6257SOL    HW130233   0.505   4.017   2.179  0.1827  1.0113 -0.3379
 6257SOL    HW230234   0.393   3.954   2.265 -0.9124  0.5527 -0.4150
 6258SOL     OW30235   0.203   3.336   0.020  0.0842  0.0053 -0.2252
 6258SOL    HW130236   0.294   3.308   0.011  0.7819  2.1571  0.1175
 6258SOL    HW230237   0.217   3.410   0.080  1.8405 -0.7224  0.2461
 6259SOL     OW30238   3.163   3.159  12.946 -0.5618  0.0638 -0.3353
 6259SOL    HW130239   3.195   3.209  12.871  0.4284 -1.3837 -0.8547
 6259SOL    HW230240   3.141   3.235  13.001  0.3332  0.3068 -0.3158
 6260SOL     OW30241   3.686   4.093   2.549 -0.3088  0.4588 -0.1388
 6260SOL    HW130242   3.735   4.166   2.511  2.4150 -0.1442  2.2743
 6260SOL    HW230243   3.683   4.111   2.643  3.0400  0.1016  0.0238
 6261SOL     OW30244   1.793   2.727  16.109  0.0534  0.0694  0.1075
 6261SOL    HW130245   1.783   2.638  16.074 -2.8576  0.7356 -0.7466
 6261SOL    HW230246   1.862   2.758  16.050 -0.2097 -2.6568 -1.6342
 6262SOL     OW30247   3.292   3.991   5.614 -0.2857 -0.3393 -0.1306
 6262SOL    HW130248   3.370   4.045   5.600  0.8984 -1.4538  2.2108
 6262SOL    HW230249   3.258   4.026   5.696 -0.9340 -0.0322 -0.5266
 6263SOL     OW30250   1.702   0.550   6.470 -0.2509 -0.0966  0.0786
 6263SOL    HW130251   1.619   0.505   6.454  0.0261 -0.6628  0.2608
 6263SOL    HW230252   1.670   0.602   6.544 -2.6000  0.0949 -1.0730
 6264SOL     OW30253   0.204   3.468   6.013 -0.3931 -0.0848  0.3550
 6264SOL    HW130254   0.225   3.560   6.032  0.3159 -0.2770  0.5011
 6264SOL    HW230255   0.266   3.437   5.947 -1.1755 -3.0861  1.0454
 6265SOL     OW30256   1.456   4.121   3.867  0.3365  0.4022  0.2884
 6265SOL    HW130257   1.484   4.192   3.810 -0.4232  1.1893  0.9089
 6265SOL    HW230258   1.367   4.097   3.842 -0.2640  1.0239  1.8353
 6266SOL     OW30259   4.412   3.804   1.582  0.1081 -0.2244 -0.2769
 6266SOL    HW130260   4.407   3.710   1.569  0.2320 -0.1319 -1.0075
 6266SOL    HW230261   4.329   3.819   1.627 -0.2059 -3.3320  0.1255
 6267SOL     OW30262   4.473   0.937   7.070 -0.7895 -0.3709  0.4077
 6267SOL    HW130263   4.394   0.884   7.068 -0.4893 -0.8558  1.1849
 6267SOL    HW230264   4.539   0.876   7.104  0.0954  0.2606 -0.1573
 6268SOL     OW30265   3.934   3.914   7.254  0.0652  0.4108  0.1883
 6268SOL    HW130266   3.863   3.893   7.315  1.3185 -2.6800  0.5894
 6268SOL    HW230267   3.980   3.970   7.317 -1.8989  0.2361  1.7987
 6269SOL     OW30268   2.777   3.513   2.594  0.3794 -0.1653 -0.2579
 6269SOL    HW130269   2.867   3.504   2.565 -0.0097  0.9719 -1.8248
 6269SOL    HW230270   2.771   3.420   2.615  1.5427  0.3284  2.3696
 6270SOL     OW30271   3.050   0.295   5.619  0.5174  0.4621 -0.0968
 6270SOL    HW130272   2.965   0.311   5.579  0.4398 -1.2003 -0.5680
 6270SOL    HW230273   3.041   0.335   5.706 -0.4786  0.6051 -0.2684
 6271SOL     OW30274   0.581   1.927   9.856 -0.1765  0.6255 -0.3503
 6271SOL    HW130275   0.494   1.898   9.830 -0.7557  1.6137  0.5072
 6271SOL    HW230276   0.567   1.982   9.933 -1.6900  0.5232 -0.5595
 6272SOL     OW30277   0.448   2.444  13.661  0.0591  0.7175 -0.5711
 6272SOL    HW130278   0.513   2.420  13.594 -0.9381 -2.2148 -0.4588
 6272SOL    HW230279   0.480   2.529  13.691 -0.1599  0.1598  1.2369
 6273SOL     OW30280   2.814   2.855   7.909 -0.3662 -0.1404  0.4267
 6273SOL    HW130281   2.885   2.793   7.927  1.0420  1.5688  0.8601
 6273SOL    HW230282   2.843   2.946   7.920 -2.1537  0.6485 -1.4428
 6274SOL     OW30283   2.936   1.523   2.736 -0.5400  0.2339 -0.3981
 6274SOL    HW130284   3.008   1.490   2.789  1.5218  1.2562 -2.5688
 6274SOL    HW230285   2.978   1.600   2.697  0.0553  1.1777  2.0739
 6275SOL     OW30286   4.640   0.550   5.918  0.0756  0.3206  0.3347
 6275SOL    HW130287   0.008   0.519   5.923 -0.0455 -0.3370 -1.8009
 6275SOL    HW230288   4.620   0.521   6.007  0.0588 -0.4876  0.0717
 6276SOL     OW30289   3.746   2.811   7.046 -0.0454  0.8393  0.5750
 6276SOL    HW130290   3.762   2.730   7.094 -2.8833 -0.6226 -0.9705
 6276SOL    HW230291   3.665   2.843   7.086 -1.2197 -0.3880 -0.8392
 6277SOL     OW30292   0.523   2.253   7.794 -0.0008  0.7518  0.0224
 6277SOL    HW130293   0.569   2.330   7.760 -1.8090  1.0343 -1.8501
 6277SOL    HW230294   0.494   2.206   7.715  1.7650 -0.1326 -0.1030
 6278SOL     OW30295   2.346   3.345   2.074 -0.6721  0.1697  0.0192
 6278SOL    HW130296   2.316   3.255   2.063 -3.1587  1.2378 -1.9752
 6278SOL    HW230297   2.377   3.356   1.984 -2.2848  0.0944 -0.5549
 6279SOL     OW30298   0.330   0.920   3.027  0.2644  1.1141  0.5426
 6279SOL    HW130299   0.255   0.948   2.974 -0.8135  1.5985  2.3244
 6279SOL    HW230300   0.280   0.875   3.095  2.0290 -2.3754 -0.4785
 6280SOL     OW30301   3.459   2.722   6.018  0.8096  0.6045  0.3359
 6280SOL    HW130302   3.369   2.691   6.007  1.2909 -0.0659 -1.6706
 6280SOL    HW230303   3.443   2.807   5.977  0.0091  1.0010  1.4552
 6281SOL     OW30304   2.005   1.979  13.587  0.0570  0.2342 -0.4913
 6281SOL    HW130305   1.969   2.061  13.554  0.4152 -0.4903 -2.6797
 6281SOL    HW230306   2.099   1.994  13.590 -0.0060  0.7616 -1.1120
 6282SOL     OW30307   1.233   3.527   6.170  0.1608 -0.1794  0.4216
 6282SOL    HW130308   1.279   3.553   6.090 -0.5535 -0.0030  0.0703
 6282SOL    HW230309   1.298   3.473   6.214  0.7696 -0.0562 -0.3229
 6283SOL     OW30310   2.956   4.103   1.492 -0.0028  0.4395 -0.4078
 6283SOL    HW130311   2.892   4.172   1.472 -2.6266 -1.4835  1.2922
 6283SOL    HW230312   3.032   4.158   1.510 -0.8825  1.0306  1.5750
 6284SOL     OW30313   3.911   2.891  12.007  0.5945  0.2454 -0.2640
 6284SOL    HW130314   3.888   2.965  11.950  0.8314 -1.0100 -1.9912
 6284SOL    HW230315   3.854   2.899  12.084 -0.6041 -0.8242 -1.0208
 6285SOL     OW30316   0.884   2.826   5.314  0.3006 -0.4627  0.2987
 6285SOL    HW130317   0.802   2.872   5.296  0.4629  0.1236  1.0285
 6285SOL    HW230318   0.858   2.746   5.361 -1.3573 -0.3242 -0.3893
 6286SOL     OW30319   3.570   4.097   5.384 -0.0962 -0.5060  0.0101
 6286SOL    HW130320   3.512   4.051   5.323  1.1123 -2.6280  0.4487
 6286SOL    HW230321   3.647   4.041   5.372  0.4104  0.5626 -1.6809
 6287SOL     OW30322   0.883   1.860  11.321 -0.4112  0.7501  0.3017
 6287SOL    HW130323   0.794   1.852  11.355 -0.7562  0.6839 -0.6112
 6287SOL    HW230324   0.935   1.853  11.401  0.4802 -0.9609 -0.4188
 6288SOL     OW30325   4.420   2.334   3.133  0.3385 -0.6109 -0.4010
 6288SOL    HW130326   4.455   2.246   3.145  0.2310 -1.0659 -3.4623
 6288SOL    HW230327   4.499   2.381   3.160  0.9464 -2.1256  0.4643
 6289SOL     OW30328   4.456   0.493   3.801 -0.2774 -0.2619 -0.5123
 6289SOL    HW130329   4.406   0.568   3.833  1.4974 -1.2828  4.5114
 6289SOL    HW230330   4.407   0.415   3.825  0.2176 -0.8148 -1.2867
 6290SOL     OW30331   3.539   2.784   3.432  0.2809  0.2099 -0.7485
 6290SOL    HW130332   3.627   2.816   3.412  0.3595 -0.3732 -1.3145
 6290SOL    HW230333   3.522   2.716   3.367 -0.6720 -1.4442  1.1943
 6291SOL     OW30334   4.161   1.212   8.538 -0.1165 -0.3310 -0.1033
 6291SOL    HW130335   4.126   1.153   8.604 -0.3972 -1.4447 -1.2469
 6291SOL    HW230336   4.183   1.292   8.586  1.5508 -1.2059  0.5874
 6292SOL     OW30337   2.413   2.361  11.772 -0.2769 -0.0353 -0.4539
 6292SOL    HW130338   2.385   2.357  11.864  2.5132  2.3990  0.5105
 6292SOL    HW230339   2.333   2.335  11.727  0.1864 -0.4724 -1.0149
 6293SOL     OW30340   4.610   2.200   3.903  0.2510 -0.0403 -0.3033
 6293SOL    HW130341   4.681   2.205   3.966 -0.4481 -1.2205  0.5766
 6293SOL    HW230342   4.557   2.271   3.941 -0.4067 -0.3562 -0.6284
 6294SOL     OW30343   4.255   3.516   2.292  0.0548  0.0361  0.1577
 6294SOL    HW130344   4.334   3.519   2.239 -0.4669 -0.8443 -0.6643
 6294SOL    HW230345   4.289   3.514   2.382  0.7529  2.0827 -0.0519
 6295SOL     OW30346   0.639   3.507   3.819  0.0694 -0.7678  0.1545
 6295SOL    HW130347   0.641   3.540   3.729  0.8864 -0.7488  0.1811
 6295SOL    HW230348   0.714   3.449   3.829  1.2607  0.5947 -0.8508
 6296SOL     OW30349   2.367   3.704   6.092  0.2751  0.4395 -0.2284
 6296SOL    HW130350   2.342   3.760   6.165 -1.2990 -0.2732 -0.2236
 6296SOL    HW230351   2.324   3.749   6.019 -2.6058 -2.1392 -0.1171
 6297SOL     OW30352   3.241   4.354   6.588  0.0647 -0.2010  0.1769
 6297SOL    HW130353   3.222   4.278   6.533 -0.2313 -1.0740  1.4974
 6297SOL    HW230354   3.212   4.321   6.673 -2.4639 -1.5587 -1.2341
 6298SOL     OW30355   0.635   3.881   5.115  0.2327  0.2713  0.3143
 6298SOL    HW130356   0.678   3.801   5.144 -2.8627 -0.7958  1.9938
 6298SOL    HW230357   0.556   3.842   5.076 -0.9799  1.5916  1.4367
 6299SOL     OW30358   2.503   4.210   8.310  0.1177  0.6241  0.0647
 6299SOL    HW130359   2.500   4.203   8.405  0.3661  0.9943  0.1018
 6299SOL    HW230360   2.580   4.266   8.305  0.2711  0.4913  1.0421
 6300SOL     OW30361   2.011   0.411   2.296  0.1966  0.0559  0.4211
 6300SOL    HW130362   1.959   0.479   2.252  1.2145 -0.3055 -1.3209
 6300SOL    HW230363   2.009   0.344   2.228 -0.6770 -0.0106  0.5150
 6301SOL     OW30364   2.866   4.088  12.879 -0.1454 -0.3723  0.6825
 6301SOL    HW130365   2.830   4.020  12.821  0.7108 -2.2099  2.2949
 6301SOL    HW230366   2.958   4.071  12.859 -0.6229  0.2680 -2.0677
 6302SOL     OW30367   3.849   2.226   7.275 -0.3377 -0.0502  0.0538
 6302SOL    HW130368   3.942   2.233   7.254 -0.7268  1.9111 -1.0077
 6302SOL    HW230369   3.869   2.213   7.368  2.6075  1.6979 -0.3104
 6303SOL     OW30370   4.691   0.831   5.150 -0.3491 -0.1783  0.1821
 6303SOL    HW130371   4.690   0.916   5.195 -0.2811  0.8542 -1.7525
 6303SOL    HW230372   0.053   0.799   5.184  1.0814  1.9909 -1.3029
 6304SOL     OW30373   1.805   3.432   8.677  0.5077  0.1035 -0.2340
 6304SOL    HW130374   1.794   3.338   8.692  3.5746 -0.3397 -0.7871
 6304SOL    HW230375   1.770   3.470   8.758  0.7731  1.2212 -0.6415
 6305SOL     OW30376   3.247   3.894   6.302  0.2592  0.2947 -0.5890
 6305SOL    HW130377   3.292   3.841   6.367 -1.9474  1.2274  1.6733
 6305SOL    HW230378   3.165   3.847   6.288  1.2983 -1.3941 -0.9548
 6306SOL     OW30379   4.516   3.756   5.691 -0.0009 -0.3165  0.3717
 6306SOL    HW130380   4.607   3.784   5.685  0.1830 -0.8636  0.6545
 6306SOL    HW230381   4.514   3.684   5.629  0.2965  0.1804 -0.2190
 6307SOL     OW30382   0.892   3.293  13.957 -0.1728 -0.1582 -0.4194
 6307SOL    HW130383   0.941   3.368  13.992 -0.2401  0.0742 -0.8318
 6307SOL    HW230384   0.804   3.309  13.993  1.0046  0.3412  2.3051
 6308SOL     OW30385   1.046   0.176   0.952  0.8451  0.0569 -0.1507
 6308SOL    HW130386   1.080   0.233   1.020 -1.7908  1.7375 -0.2362
 6308SOL    HW230387   1.101   0.200   0.878 -0.4689 -0.0397 -1.1606
 6309SOL     OW30388   0.904   2.124   3.670 -0.1977  0.1982  0.0773
 6309SOL    HW130389   0.951   2.042   3.661 -1.3622 -0.1869 -2.4413
 6309SOL    HW230390   0.866   2.146   3.585 -1.4949 -0.1120  0.5730
 6310SOL     OW30391   0.936   0.019   3.621  0.1486  0.4378 -0.0538
 6310SOL    HW130392   0.932   0.115   3.624 -0.1441  0.4126  0.2720
 6310SOL    HW230393   1.019   0.019   3.669  0.8085  2.6378 -1.1278
 6311SOL     OW30394   2.777   0.012   0.873  0.1253  0.0054  0.1053
 6311SOL    HW130395   2.739   4.653   0.906 -1.5010  0.8297  0.2254
 6311SOL    HW230396   2.800   0.055   0.955  2.4644 -1.0002 -0.0266
 6312SOL     OW30397   2.295   2.265   6.810 -0.2099  0.1703 -0.4679
 6312SOL    HW130398   2.212   2.257   6.764  0.8963  2.4449 -2.8625
 6312SOL    HW230399   2.348   2.213   6.749  1.1387  0.0822  0.7658
 6313SOL     OW30400   0.431   0.514   0.453  0.5154  0.3151 -0.1584
 6313SOL    HW130401   0.494   0.467   0.509  1.2054 -0.7764 -1.8578
 6313SOL    HW230402   0.413   0.438   0.399  0.3491  0.9287 -0.9594
 6314SOL     OW30403   4.619   3.308   2.326 -0.3713 -0.1179  0.3501
 6314SOL    HW130404   4.683   3.335   2.261 -1.9312  1.3383 -0.5750
 6314SOL    HW230405   4.659   3.347   2.404 -0.5783  1.8512 -0.5378
 6315SOL     OW30406   1.501   3.212   8.949 -0.5144  0.7400  0.1436
 6315SOL    HW130407   1.491   3.298   8.991  1.2073  0.4969  1.0427
 6315SOL    HW230408   1.538   3.162   9.022 -0.0556 -2.5087 -2.3671
 6316SOL     OW30409   3.857   0.301   5.764 -0.3022 -0.2386 -0.1502
 6316SOL    HW130410   3.857   0.218   5.811 -0.2060 -1.1764 -1.8402
 6316SOL    HW230411   3.950   0.323   5.775 -0.2971 -0.2014 -0.2695
 6317SOL     OW30412   2.868   1.909   9.442 -0.1421  0.3335  0.3011
 6317SOL    HW130413   2.788   1.857   9.454 -1.1410  2.0024  0.9134
 6317SOL    HW230414   2.885   1.950   9.527  1.4964 -0.3972  0.3183
 6318SOL     OW30415   0.705   4.418  15.271  0.5502 -0.9605 -0.3253
 6318SOL    HW130416   0.748   4.423  15.356  1.6034  1.4949 -0.9998
 6318SOL    HW230417   0.742   4.340  15.229  1.5956 -1.2755  1.1824
 6319SOL     OW30418   4.718   0.888   4.708  0.1937 -0.0502  0.3154
 6319SOL    HW130419   0.013   0.982   4.720  1.5541 -0.2347 -0.1689
 6319SOL    HW230420   4.664   0.892   4.629  0.6901  0.7448  0.0087
 6320SOL     OW30421   3.514   0.978   1.312  0.3643 -0.1351  0.2996
 6320SOL    HW130422   3.482   0.889   1.324 -1.3210  0.3147 -0.8726
 6320SOL    HW230423   3.593   0.975   1.367  0.7946  2.7555 -0.1357
 6321SOL     OW30424   2.797   2.174  10.171  0.3194  0.0830 -0.2537
 6321SOL    HW130425   2.876   2.182  10.118 -1.1682  0.1818 -2.4575
 6321SOL    HW230426   2.820   2.118  10.244 -0.9300  0.2956  0.3159
 6322SOL     OW30427   3.883   2.470   9.540 -0.5390 -0.3979 -0.0692
 6322SOL    HW130428   3.972   2.464   9.575  0.4220  0.2108 -2.4125
 6322SOL    HW230429   3.881   2.545   9.480 -0.8051  0.2960  0.8110
 6323SOL     OW30430   4.708   2.837  13.226  0.1734 -0.2395 -0.3013
 6323SOL    HW130431   0.007   2.860  13.317  3.2439 -0.5437 -0.9589
 6323SOL    HW230432   0.067   2.847  13.176  0.3903  0.2477  0.1399
 6324SOL     OW30433   4.534   3.542   0.057 -0.1754 -0.1407  0.3718
 6324SOL    HW130434   4.581   3.524   0.139 -1.8738  0.5466  1.5194
 6324SOL    HW230435   4.563   3.472  17.690 -0.0950 -0.0808  0.3400
 6325SOL     OW30436   1.864   4.224   0.679 -0.4146  0.1284  0.4108
 6325SOL    HW130437   1.897   4.160   0.617  0.7182  1.0632  0.0625
 6325SOL    HW230438   1.807   4.276   0.622  0.4595  0.6599  0.0251
 6326SOL     OW30439   1.152   0.117  13.289  0.3161  0.5391 -0.0256
 6326SOL    HW130440   1.230   0.120  13.344  0.7599 -1.5468 -0.5548
 6326SOL    HW230441   1.127   0.026  13.306  0.2539  0.8030  1.3513
 6327SOL     OW30442   1.928   1.596   5.441 -0.1470 -0.1222  0.0993
 6327SOL    HW130443   1.950   1.508   5.409 -0.7087  0.1798 -1.1161
 6327SOL    HW230444   1.943   1.657   5.369 -1.0011 -2.0459 -1.7102
 6328SOL     OW30445   3.917   0.205   6.789  0.6505 -0.6894  0.2233
 6328SOL    HW130446   3.950   0.196   6.700 -0.6732 -0.9899 -0.2240
 6328SOL    HW230447   3.847   0.269   6.775  0.8369 -0.4688  0.2887
 6329SOL     OW30448   1.665   0.334  11.161  0.4098  0.0068  0.3036
 6329SOL    HW130449   1.660   0.429  11.172 -2.8580 -0.1677  0.2206
 6329SOL    HW230450   1.755   0.324  11.191 -0.4174 -0.4619  2.6191
 6330SOL     OW30451   4.331   2.652   3.172  0.2356 -0.3910  0.5051
 6330SOL    HW130452   4.349   2.573   3.121  2.2589 -1.2024  2.4622
 6330SOL    HW230453   4.325   2.719   3.104 -1.2402  0.3652  1.3918
 6331SOL     OW30454   1.716   2.653   4.834  0.3844  0.1188  0.2899
 6331SOL    HW130455   1.623   2.647   4.855  0.4776 -0.5723  0.5045
 6331SOL    HW230456   1.749   2.716   4.898 -0.2184  1.2780 -0.5470
 6332SOL     OW30457   3.616   2.145   5.639 -0.2227 -0.1393 -0.4845
 6332SOL    HW130458   3.634   2.147   5.733 -4.4067  1.6533  0.3041
 6332SOL    HW230459   3.668   2.216   5.603 -0.3771  0.7295  0.9956
 6333SOL     OW30460   1.039   3.448   5.875 -0.5081 -0.4094 -0.3566
 6333SOL    HW130461   1.062   3.540   5.867 -1.0084 -0.3499 -1.1039
 6333SOL    HW230462   1.076   3.423   5.790 -0.2135  0.3832 -0.4539
 6334SOL     OW30463   1.405   4.060   6.520  0.1161  0.4990 -0.0565
 6334SOL    HW130464   1.354   4.070   6.601  0.4037  1.2722  0.0233
 6334SOL    HW230465   1.372   4.136   6.472 -1.6125  0.4586  1.0641
 6335SOL     OW30466   0.119   1.410   7.020 -0.2436  0.3909  0.1825
 6335SOL    HW130467   0.095   1.490   6.973 -1.4088  0.4238  0.8297
 6335SOL    HW230468   0.082   1.359   6.947  1.1762 -1.8104  1.0291
 6336SOL     OW30469   1.812   0.282   3.548  0.5457 -0.0726 -0.3120
 6336SOL    HW130470   1.876   0.346   3.518  0.9878 -0.3787 -0.0262
 6336SOL    HW230471   1.773   0.263   3.462 -0.7432 -0.3678  0.3312
 6337SOL     OW30472   2.163   2.911   3.183  0.3020  0.1158 -0.1723
 6337SOL    HW130473   2.185   2.843   3.119  0.9872 -0.0381  0.2249
 6337SOL    HW230474   2.244   2.962   3.180  0.8871 -0.7625  0.5269
 6338SOL     OW30475   3.189   4.589   6.483 -0.0270  0.3536 -0.4445
 6338SOL    HW130476   3.185   4.509   6.534 -1.6027 -0.3585 -1.6653
 6338SOL    HW230477   3.224   4.636   6.558 -0.6195 -1.6692  1.0855
 6339SOL     OW30478   0.045   3.366   9.367  0.4716  0.2341  0.3390
 6339SOL    HW130479   0.107   3.437   9.360 -0.4901  1.2166  1.8034
 6339SOL    HW230480   0.058   3.342   9.459  0.6153 -0.7543  0.0648
 6340SOL     OW30481   3.262   2.280  13.065 -0.0548  0.7243 -0.3917
 6340SOL    HW130482   3.217   2.338  13.126 -1.9882 -3.4931  2.2588
 6340SOL    HW230483   3.255   2.321  12.979 -0.1525 -0.6958 -1.0709
 6341SOL     OW30484   2.734   0.434   9.573 -0.2308 -0.2567 -0.4478
 6341SOL    HW130485   2.741   0.342   9.600  1.0667  0.4260  1.5107
 6341SOL    HW230486   2.666   0.418   9.507  1.4104 -1.1466 -1.9424
 6342SOL     OW30487   2.160   1.791  16.374 -0.7429  0.3216 -0.6144
 6342SOL    HW130488   2.115   1.711  16.401 -1.3191  1.4036  1.7069
 6342SOL    HW230489   2.102   1.818  16.303 -0.0781 -0.1790 -1.3365
 6343SOL     OW30490   2.272   1.924   8.504 -0.0721 -0.1114 -0.1393
 6343SOL    HW130491   2.318   1.995   8.459 -1.2284  0.3222 -0.6450
 6343SOL    HW230492   2.339   1.863   8.536 -0.5229  0.3233  1.5983
 6344SOL     OW30493   2.506   3.837  13.615 -0.5762  0.1627 -0.0100
 6344SOL    HW130494   2.490   3.901  13.685 -2.1082  0.4563 -0.6387
 6344SOL    HW230495   2.417   3.819  13.585 -0.0287  0.0577 -1.5476
 6345SOL     OW30496   2.304   4.199   3.273 -0.1111  0.3349 -0.3173
 6345SOL    HW130497   2.238   4.161   3.215 -0.6851 -0.3822  0.8038
 6345SOL    HW230498   2.359   4.122   3.280  1.5716  1.5720 -0.0347
 6346SOL     OW30499   0.636   2.310   7.242  0.1624  0.8159  0.2553
 6346SOL    HW130500   0.588   2.227   7.243 -0.4828  1.1941  0.2529
 6346SOL    HW230501   0.655   2.310   7.148  0.8906 -0.6736  0.4044
 6347SOL     OW30502   0.913   0.212  10.467 -0.1189  0.1165 -0.2216
 6347SOL    HW130503   0.879   0.300  10.484  0.9095  0.3542  0.5695
 6347SOL    HW230504   0.987   0.207  10.528 -1.6186 -1.8389  1.3985
 6348SOL     OW30505   0.000   1.204   7.273 -0.5699 -0.2517 -0.6156
 6348SOL    HW130506   0.022   1.119   7.311  0.8230  0.0273 -0.7818
 6348SOL    HW230507   0.031   1.184   7.184 -2.1387 -0.1787 -1.1730
 6349SOL     OW30508   1.969   3.702   1.309  0.0384 -0.3213 -0.8065
 6349SOL    HW130509   2.047   3.670   1.263 -0.7785 -2.2127 -0.8905
 6349SOL    HW230510   1.936   3.617   1.338 -3.3452  1.4767  0.4985
 6350SOL     OW30511   2.585   3.328  10.199 -0.2438 -0.3241  0.0246
 6350SOL    HW130512   2.492   3.310  10.180  0.1044 -0.0614 -1.8908
 6350SOL    HW230513   2.586   3.277  10.280 -0.1778 -0.0007  0.2271
 6351SOL     OW30514   3.040   3.999   2.513 -0.7733  0.1145  0.0059
 6351SOL    HW130515   3.043   3.995   2.608  1.4064  1.8327  0.0002
 6351SOL    HW230516   3.100   4.073   2.508 -0.6432 -0.0068 -0.2479
 6352SOL     OW30517   0.184   4.435   8.237 -0.1360  0.4610  0.3104
 6352SOL    HW130518   0.185   4.345   8.205  1.3663  0.6957 -0.3007
 6352SOL    HW230519   0.145   4.477   8.161  0.1107 -1.8334 -1.0820
 6353SOL     OW30520   0.679   0.195   6.590 -0.8849  0.0087  0.6938
 6353SOL    HW130521   0.670   0.194   6.685 -0.7257 -0.6320  0.7006
 6353SOL    HW230522   0.617   0.129   6.559 -1.1514  0.7021 -0.2395
 6354SOL     OW30523   0.785   3.469   4.134 -0.7966  0.0876  0.3344
 6354SOL    HW130524   0.829   3.405   4.078 -0.1227  1.2458 -0.4584
 6354SOL    HW230525   0.694   3.445   4.115 -0.7095  0.9018 -1.0743
 6355SOL     OW30526   3.399   1.708   3.612  0.6577  0.0436  0.2887
 6355SOL    HW130527   3.305   1.718   3.627 -0.0718 -2.6791 -2.4846
 6355SOL    HW230528   3.411   1.638   3.548 -1.0454 -0.0325  0.0587
 6356SOL     OW30529   1.104   2.799   1.778  0.5391 -0.6693  0.2632
 6356SOL    HW130530   1.182   2.763   1.819  3.0875  3.2672 -1.0590
 6356SOL    HW230531   1.149   2.871   1.732 -0.1334 -1.6626 -1.9363
 6357SOL     OW30532   2.619   0.623   2.312 -0.2663  0.2217 -0.0273
 6357SOL    HW130533   2.601   0.536   2.348  0.4427 -0.4513 -1.2848
 6357SOL    HW230534   2.604   0.688   2.381  1.0318 -1.5814  1.9647
 6358SOL     OW30535   2.895   1.614   6.701  0.8988  0.0259  0.6176
 6358SOL    HW130536   2.869   1.694   6.656  0.8995 -0.0121  0.5494
 6358SOL    HW230537   2.933   1.572   6.624 -0.4026 -1.1934  0.6276
 6359SOL     OW30538   2.871   2.120   3.757 -0.1703  0.6470  0.2658
 6359SOL    HW130539   2.916   2.037   3.740 -1.0186  0.2170  0.1409
 6359SOL    HW230540   2.779   2.095   3.762 -0.1149  0.4068  0.0736
 6360SOL     OW30541   2.772   0.039  17.542  0.1354  0.3802  0.6175
 6360SOL    HW130542   2.725   0.069  17.619  0.4709 -0.9340  1.3423
 6360SOL    HW230543   2.864   0.040  17.569  0.1321  0.3658  0.6297
 6361SOL     OW30544   2.697   1.731   7.010 -0.5362 -0.0192 -0.2805
 6361SOL    HW130545   2.632   1.681   7.059 -1.4795  1.0247 -0.4893
 6361SOL    HW230546   2.785   1.698   7.027 -0.0549  0.9331 -0.9367
 6362SOL     OW30547   4.031   2.842  12.308 -0.4597  0.0425 -0.0821
 6362SOL    HW130548   3.938   2.837  12.285  0.4234 -4.3354 -2.6207
 6362SOL    HW230549   4.037   2.869  12.400 -1.8551 -0.3263  0.1206
 6363SOL     OW30550   1.997   1.630   3.473  0.2008 -0.1204  0.1937
 6363SOL    HW130551   1.992   1.557   3.412 -2.6112 -0.6808  1.0921
 6363SOL    HW230552   1.916   1.614   3.522 -0.6339 -0.9102 -1.4485
 6364SOL     OW30553   0.969   0.602   7.668  0.3768 -0.4280 -0.5971
 6364SOL    HW130554   0.942   0.514   7.695  0.7945  0.1120  1.5531
 6364SOL    HW230555   1.061   0.587   7.649  0.5713 -0.4937  0.3722
 6365SOL     OW30556   1.719   3.722  17.358 -0.3935  0.3406 -0.1281
 6365SOL    HW130557   1.683   3.729  17.447 -1.2010  0.2561 -0.4477
 6365SOL    HW230558   1.649   3.669  17.320  0.6864 -0.6286 -0.7441
 6366SOL     OW30559   3.900   2.528  16.069  0.1675  0.2948  0.2533
 6366SOL    HW130560   3.836   2.507  16.000  0.1411  0.9424  0.0751
 6366SOL    HW230561   3.916   2.443  16.109 -2.3410 -0.9706 -1.4052
 6367SOL     OW30562   1.316   3.932   5.233  0.1698 -0.0385  0.1685
 6367SOL    HW130563   1.327   3.841   5.206 -2.1368  0.2696 -1.8038
 6367SOL    HW230564   1.227   3.943   5.200 -0.4000 -0.8778  1.4470
 6368SOL     OW30565   0.273   4.652   4.075 -0.4015 -0.1127 -0.2408
 6368SOL    HW130566   0.300   4.573   4.121  1.4739  0.8077  0.2582
 6368SOL    HW230567   0.202   4.612   4.025  0.5682  0.0266 -1.7232
 6369SOL     OW30568   0.157   3.565   8.750 -0.8183 -0.1409  0.1272
 6369SOL    HW130569   0.106   3.532   8.824 -1.9643 -0.1033 -0.6444
 6369SOL    HW230570   0.129   3.506   8.680  0.0189 -1.3378  0.7987
 6370SOL     OW30571   3.561   0.879   9.555  0.7197 -0.3238 -0.2411
 6370SOL    HW130572   3.518   0.794   9.558 -1.9138  0.9632 -1.3490
 6370SOL    HW230573   3.481   0.932   9.554  1.2771  0.5258 -0.0886
 6371SOL     OW30574   2.139   4.035  15.989  0.2999  0.1838  0.4403
 6371SOL    HW130575   2.177   4.016  15.903 -1.0539  0.7661 -0.2853
 6371SOL    HW230576   2.203   4.100  16.018 -1.3535  2.1693 -0.3798
 6372SOL     OW30577   4.393   1.697   3.019  0.7170 -0.0105 -0.3623
 6372SOL    HW130578   4.309   1.701   2.975  1.2578 -0.0247 -1.3960
 6372SOL    HW230579   4.439   1.778   2.998 -0.3275  1.0230  1.4183
 6373SOL     OW30580   2.829   2.150   9.188 -0.1609 -0.5152 -0.2219
 6373SOL    HW130581   2.815   2.186   9.276 -3.0329  1.3378 -1.4376
 6373SOL    HW230582   2.917   2.115   9.201 -0.8129 -1.8599  0.5549
 6374SOL     OW30583   1.436   1.908   3.262  0.1408 -0.5288 -0.2282
 6374SOL    HW130584   1.417   1.947   3.347  0.2645  2.6924 -1.6907
 6374SOL    HW230585   1.458   1.818   3.286 -0.2509 -0.4256  0.5313
 6375SOL     OW30586   4.334   2.163  15.622 -0.8046 -0.2673  0.1469
 6375SOL    HW130587   4.367   2.204  15.541 -1.9619  1.1010  0.3674
 6375SOL    HW230588   4.414   2.138  15.668 -0.8406  0.0028  0.3531
 6376SOL     OW30589   3.626   1.889   8.874  0.7216  0.2519  0.1703
 6376SOL    HW130590   3.691   1.826   8.843  1.3422  0.5182  0.9542
 6376SOL    HW230591   3.643   1.963   8.817 -1.4178 -0.2421 -1.1146
 6377SOL     OW30592   2.483   2.565  12.090  0.4003  0.2292  0.7136
 6377SOL    HW130593   2.469   2.648  12.045 -2.1950 -0.0836  0.9439
 6377SOL    HW230594   2.550   2.595  12.152 -0.4669 -1.2019  2.3420
 6378SOL     OW30595   2.742   0.699   0.270 -0.8519  0.2398 -0.2313
 6378SOL    HW130596   2.817   0.639   0.265  1.1654  2.5750  1.8611
 6378SOL    HW230597   2.684   0.625   0.251  0.5574 -0.7452 -0.7212
 6379SOL     OW30598   0.486   1.027   2.231  0.5148 -0.5276  0.0251
 6379SOL    HW130599   0.478   1.094   2.163  1.8024 -0.1835  0.2099
 6379SOL    HW230600   0.570   0.987   2.209  0.9369  0.6251 -0.4531
 6380SOL     OW30601   4.286   2.209   3.375  0.3356  0.2281  0.1401
 6380SOL    HW130602   4.257   2.118   3.368  2.7067 -0.5521  0.5275
 6380SOL    HW230603   4.356   2.212   3.310  0.6633  2.1720  0.5846
 6381SOL     OW30604   3.103   3.403  13.059 -0.2666  0.1122  0.1359
 6381SOL    HW130605   3.124   3.486  13.017 -0.9599  1.1082  1.7964
 6381SOL    HW230606   3.031   3.439  13.110  0.0146  1.1876 -0.2322
 6382SOL     OW30607   3.428   0.717  10.915 -0.5788  0.7060 -0.2030
 6382SOL    HW130608   3.479   0.787  10.956  1.7098 -0.1585 -1.5659
 6382SOL    HW230609   3.338   0.751  10.917 -0.6456  0.4637  0.8917
 6383SOL     OW30610   2.049   3.189   3.121  0.0641  0.1579 -0.0508
 6383SOL    HW130611   2.116   3.206   3.055 -0.6820  1.3868 -0.4891
 6383SOL    HW230612   2.060   3.096   3.141  1.1678  0.0814 -1.0250
 6384SOL     OW30613   2.827   3.699  14.562  0.0984  0.1768  0.4351
 6384SOL    HW130614   2.864   3.673  14.646 -3.6557 -0.9850  1.7586
 6384SOL    HW230615   2.746   3.647  14.569  0.1649  0.1422  0.9437
 6385SOL     OW30616   4.211   3.137  14.126 -0.2007 -0.1322  0.0303
 6385SOL    HW130617   4.300   3.102  14.132  0.5693  1.7097 -0.7123
 6385SOL    HW230618   4.215   3.187  14.045 -2.2707 -2.3290 -1.4366
 6386SOL     OW30619   4.446   3.603  10.132  0.1294  0.4318  0.2068
 6386SOL    HW130620   4.367   3.602  10.186  2.4008 -0.6820  3.4633
 6386SOL    HW230621   4.462   3.690  10.095 -0.1135  0.9639  1.3552
 6387SOL     OW30622   3.803   3.526   5.189  0.4384  0.3507  0.4175
 6387SOL    HW130623   3.742   3.560   5.256  0.2512 -0.9942  0.9240
 6387SOL    HW230624   3.865   3.483   5.248  1.3333 -0.2330 -0.9473
 6388SOL     OW30625   4.418   1.830   4.011  0.2912 -0.0942 -0.3633
 6388SOL    HW130626   4.331   1.833   3.972 -0.9737 -2.0948  2.3400
 6388SOL    HW230627   4.446   1.921   4.004  1.6016 -0.4982 -0.2955
 6389SOL     OW30628   0.371   0.010   9.149 -0.2380  0.0743  0.6720
 6389SOL    HW130629   0.455   0.009   9.196 -0.5816  2.6491  1.3769
 6389SOL    HW230630   0.330   0.079   9.203  1.6406  1.9120 -0.2539
 6390SOL     OW30631   4.609   2.748   0.208 -0.3621  0.1909  0.2070
 6390SOL    HW130632   4.621   2.790   0.122 -1.1861 -1.3488 -0.6580
 6390SOL    HW230633   4.516   2.766   0.223  0.1712 -1.1634  5.0841
 6391SOL     OW30634   1.408   0.749   3.539 -0.2374  0.9088 -0.2400
 6391SOL    HW130635   1.453   0.748   3.623 -1.1262  0.4811  0.2310
 6391SOL    HW230636   1.442   0.671   3.494 -1.0114 -0.4251  1.4480
 6392SOL     OW30637   0.364   0.104   6.877 -0.1713 -0.1696  0.7098
 6392SOL    HW130638   0.358   0.200   6.873 -2.3693 -0.3782 -1.1411
 6392SOL    HW230639   0.441   0.089   6.931  0.8423 -0.5502 -0.8650
 6393SOL     OW30640   3.528   4.376   7.941  0.3687  0.3133  0.5395
 6393SOL    HW130641   3.443   4.386   7.984  0.8658  0.6247  1.4663
 6393SOL    HW230642   3.533   4.286   7.908 -0.7996  0.1896  0.7038
 6394SOL     OW30643   1.260   2.072  16.507 -0.1156  0.8787  0.1914
 6394SOL    HW130644   1.349   2.049  16.481 -1.8028 -3.1249 -1.9511
 6394SOL    HW230645   1.278   2.133  16.579  0.2744 -0.3610  1.1609
 6395SOL     OW30646   2.271   2.397  12.003 -0.7639 -0.3534 -0.3455
 6395SOL    HW130647   2.344   2.456  12.024 -1.7317  0.7051  0.0233
 6395SOL    HW230648   2.252   2.373  12.093 -1.7238  2.7185  0.2626
 6396SOL     OW30649   3.683   1.412   3.533  0.3356 -0.3047 -0.2607
 6396SOL    HW130650   3.661   1.401   3.626 -0.5943 -0.9119 -0.5634
 6396SOL    HW230651   3.777   1.432   3.537 -0.3148  2.5225  1.3339
 6397SOL     OW30652   4.196   3.876   9.953  0.1224  0.0096 -0.1642
 6397SOL    HW130653   4.169   3.873   9.861 -0.5396 -0.7581  0.0522
 6397SOL    HW230654   4.172   3.789   9.984  0.9727 -0.6825 -1.4580
 6398SOL     OW30655   1.174   2.844   4.854 -0.0851  0.4986  0.1757
 6398SOL    HW130656   1.136   2.907   4.793  1.0374  0.4203 -0.5983
 6398SOL    HW230657   1.098   2.804   4.896 -0.6082  1.8528  0.5168
 6399SOL     OW30658   1.405   0.933   6.948  1.1016  0.2187  0.4042
 6399SOL    HW130659   1.450   0.855   6.917  2.4157  1.5113 -0.9175
 6399SOL    HW230660   1.459   1.004   6.914  2.1648 -1.0998 -0.6277
 6400SOL     OW30661   0.953   2.004   0.422 -0.2424  0.0029  0.1223
 6400SOL    HW130662   0.913   2.072   0.477 -1.1806 -0.0678 -0.4863
 6400SOL    HW230663   0.972   2.053   0.342 -0.6388  0.8434  0.5316
 6401SOL     OW30664   0.033   3.693   4.646 -0.6994  0.5500 -0.5236
 6401SOL    HW130665   0.076   3.769   4.687 -2.1257  2.1027 -1.9002
 6401SOL    HW230666   4.680   3.670   4.700 -0.5111  0.0020 -0.5008
 6402SOL     OW30667   0.351   2.649   7.971  0.1182  0.3184  0.2403
 6402SOL    HW130668   0.277   2.701   8.002  1.5763  1.9647  0.9527
 6402SOL    HW230669   0.412   2.722   7.982  1.5129 -0.4553 -2.4387
 6403SOL     OW30670   2.043   1.669   5.037 -0.2336 -0.0438  0.0821
 6403SOL    HW130671   1.985   1.733   4.997  1.7890  1.0755 -1.0611
 6403SOL    HW230672   1.987   1.591   5.044  0.8872 -0.6926  1.9042
 6404SOL     OW30673   4.716   3.654   3.106 -0.2316 -0.3110  0.1771
 6404SOL    HW130674   0.009   3.580   3.048  0.0003  0.8247 -1.1984
 6404SOL    HW230675   4.662   3.706   3.047  1.5136 -0.0971 -1.2402
 6405SOL     OW30676   0.369   4.476   1.037  0.1872  0.3765 -0.0284
 6405SOL    HW130677   0.350   4.382   1.028  0.3233  0.4941 -1.4826
 6405SOL    HW230678   0.285   4.522   1.043 -0.3826 -0.4139 -1.8977
 6406SOL     OW30679   3.004   2.322  14.794  0.3228 -0.5526  0.4174
 6406SOL    HW130680   2.951   2.242  14.798  1.5823 -1.3372  1.3338
 6406SOL    HW230681   3.009   2.342  14.700 -3.2441  0.6767  0.4855
 6407SOL     OW30682   2.002   3.934   7.550 -0.0328  0.1080 -0.0708
 6407SOL    HW130683   1.935   4.001   7.566 -2.2817 -1.6044 -2.2824
 6407SOL    HW230684   1.964   3.868   7.607 -0.3201  1.2853  1.1047
 6408SOL     OW30685   0.892   1.034  17.098  0.2161  0.4776 -0.2338
 6408SOL    HW130686   0.974   1.077  17.120  0.1058  0.3950  0.3462
 6408SOL    HW230687   0.855   0.981  17.169 -2.1129  0.9367 -1.1072
 6409SOL     OW30688   4.164   4.328  13.790  0.4154  0.3433  0.0196
 6409SOL    HW130689   4.191   4.343  13.699  0.1454 -0.1057 -0.1329
 6409SOL    HW230690   4.210   4.394  13.842  3.3655  0.2955 -2.5346
 6410SOL     OW30691   3.532   4.159   5.641 -0.0201 -0.5700 -0.6722
 6410SOL    HW130692   3.565   4.244   5.669  2.0951 -2.2947  2.1248
 6410SOL    HW230693   3.560   4.151   5.550  1.1424 -1.7630 -0.2122
 6411SOL     OW30694   1.389   0.123   9.414  0.1983  0.5305 -0.2193
 6411SOL    HW130695   1.435   0.102   9.495 -0.7767  1.2564  0.5312
 6411SOL    HW230696   1.447   0.099   9.342 -0.3849 -3.3610  0.6035
 6412SOL     OW30697   4.371   4.149  14.434 -0.6047  0.7492  0.1485
 6412SOL    HW130698   4.286   4.129  14.394 -0.1569 -1.7266  0.4703
 6412SOL    HW230699   4.435   4.098  14.383 -1.4663  1.6306 -1.8304
 6413SOL     OW30700   3.678   3.810  13.701 -0.5378 -0.3465 -0.8869
 6413SOL    HW130701   3.715   3.736  13.750  2.0300  0.9679 -0.8491
 6413SOL    HW230702   3.592   3.799  13.741  0.8170 -2.2233  1.4903
 6414SOL     OW30703   3.786   0.687   1.209  0.1997  0.1306  0.0321
 6414SOL    HW130704   3.864   0.664   1.259 -1.6016 -0.7703  2.4455
 6414SOL    HW230705   3.731   0.615   1.238  0.7669  0.2925  1.5207
 6415SOL     OW30706   2.733   0.992   4.414 -0.0210 -0.5657  0.5090
 6415SOL    HW130707   2.703   0.918   4.361 -1.1838 -0.2892  0.7823
 6415SOL    HW230708   2.673   1.060   4.385  0.3631  0.3871  1.9342
 6416SOL     OW30709   2.146   0.579  11.440  0.2616 -0.5404  0.2339
 6416SOL    HW130710   2.217   0.515  11.444  0.1897 -0.6367 -0.0034
 6416SOL    HW230711   2.098   0.567  11.522  2.1796  0.9611  1.5605
 6417SOL     OW30712   4.063   0.689   7.298  0.1950 -0.4099  0.0155
 6417SOL    HW130713   3.993   0.630   7.326 -1.7064  1.6688 -0.3430
 6417SOL    HW230714   4.074   0.670   7.205 -1.3378  1.8839 -0.6442
 6418SOL     OW30715   2.227   4.124   6.131  0.5092  0.3078  0.0240
 6418SOL    HW130716   2.202   4.213   6.108  3.5962  1.1018 -0.2263
 6418SOL    HW230717   2.307   4.141   6.180  0.1764  0.8412  0.3859
 6419SOL     OW30718   0.672   4.415   5.565  0.3502  0.0510 -0.7268
 6419SOL    HW130719   0.677   4.471   5.488  2.5538 -1.4384 -1.6833
 6419SOL    HW230720   0.585   4.443   5.592  0.7932  1.4291 -0.7212
 6420SOL     OW30721   3.256   3.099   6.893  0.2693  0.3797 -0.0279
 6420SOL    HW130722   3.327   3.134   6.839 -2.3047 -0.1587 -3.7418
 6420SOL    HW230723   3.228   3.019   6.848 -2.7938  2.1326 -1.2596
 6421SOL     OW30724   3.007   4.166   1.889  0.5203 -0.2612  0.4894
 6421SOL    HW130725   3.024   4.076   1.860 -0.2182  1.1263 -4.1724
 6421SOL    HW230726   3.057   4.160   1.970  0.9477 -1.7996  0.1175
 6422SOL     OW30727   0.843   2.386   0.367 -0.2385  0.0272 -0.3115
 6422SOL    HW130728   0.905   2.459   0.364 -0.2430  0.0147 -0.6342
 6422SOL    HW230729   0.766   2.425   0.409  0.0342  0.8468 -0.5801
 6423SOL     OW30730   2.888   4.262   0.813  0.8450 -0.4134  0.1743
 6423SOL    HW130731   2.888   4.219   0.728  1.0200 -0.9589  0.4446
 6423SOL    HW230732   2.796   4.271   0.838  1.2101  0.8137  1.0908
 6424SOL     OW30733   0.691   2.625   3.757  0.4842 -0.5485  0.1411
 6424SOL    HW130734   0.782   2.631   3.785  0.1298  1.8658  0.8368
 6424SOL    HW230735   0.659   2.552   3.811 -1.6788  1.6674  1.8904
 6425SOL     OW30736   3.141   4.148   4.844 -0.4861 -0.2064 -0.1664
 6425SOL    HW130737   3.077   4.220   4.843  0.3813  0.4858 -3.6110
 6425SOL    HW230738   3.098   4.083   4.900 -0.8311  0.4142  0.2847
 6426SOL     OW30739   1.173   2.847  17.378  0.3713  0.0741  0.6970
 6426SOL    HW130740   1.194   2.759  17.411 -1.1915  0.3510  2.3790
 6426SOL    HW230741   1.078   2.836  17.386  0.0869  1.1883 -0.9985
 6427SOL     OW30742   1.809   4.637   3.396 -0.3127 -0.5954  0.3463
 6427SOL    HW130743   1.861   4.575   3.345  1.7171  2.7492 -1.6395
 6427SOL    HW230744   1.814   4.719   3.347  1.2218  0.0872  1.6684
 6428SOL     OW30745   3.617   4.485  13.250  0.3153 -0.4990 -0.5452
 6428SOL    HW130746   3.642   4.553  13.313 -1.0816  0.0369 -0.5609
 6428SOL    HW230747   3.693   4.471  13.194  0.5557  1.8794 -0.8347
 6429SOL     OW30748   0.522   2.729   7.406  0.7206 -0.1366  0.8513
 6429SOL    HW130749   0.576   2.771   7.339  1.5114 -1.0177  0.9437
 6429SOL    HW230750   0.466   2.670   7.354 -0.0536  2.2915 -1.1148
 6430SOL     OW30751   0.807   2.634   1.341  0.8706  0.5287 -0.0541
 6430SOL    HW130752   0.891   2.613   1.299 -0.1632  0.0686 -1.9039
 6430SOL    HW230753   0.755   2.610   1.264 -0.5784 -0.7150  1.3107
 6431SOL     OW30754   3.089   4.152  16.849 -0.0750  0.1568 -0.4530
 6431SOL    HW130755   3.144   4.090  16.801  1.0894  1.5342 -0.9109
 6431SOL    HW230756   3.068   4.207  16.773 -3.0464  0.2039  0.3930
 6432SOL     OW30757   3.003   3.220   5.730  0.3586  0.3623 -0.0523
 6432SOL    HW130758   2.913   3.214   5.696 -0.0839  0.3277  1.1118
 6432SOL    HW230759   3.003   3.143   5.786 -0.2066  0.6616  0.3698
 6433SOL     OW30760   4.260   2.218   1.426 -0.3317  0.3233  0.0427
 6433SOL    HW130761   4.243   2.132   1.464 -0.7265  0.6309  0.5613
 6433SOL    HW230762   4.207   2.229   1.347  1.3240 -0.2025 -1.1413
 6434SOL     OW30763   1.856   4.346   4.552 -0.8010  0.2707 -0.2223
 6434SOL    HW130764   1.776   4.356   4.603  0.1633 -2.3089  1.8444
 6434SOL    HW230765   1.912   4.391   4.615  0.5026  0.3421 -1.4333
 6435SOL     OW30766   1.791   2.479   2.618  0.2181  0.4185 -0.2655
 6435SOL    HW130767   1.884   2.487   2.639  0.0552  0.3576  0.4832
 6435SOL    HW230768   1.800   2.421   2.543 -2.1099 -0.6255  0.2438
 6436SOL     OW30769   2.433   2.156   3.883 -0.3079 -0.0561  0.0868
 6436SOL    HW130770   2.426   2.196   3.796  1.4160  0.3505  0.1352
 6436SOL    HW230771   2.470   2.224   3.938  0.7728  0.3254 -1.0986
 6437SOL     OW30772   3.144   0.464   0.023 -0.0078  0.0468 -0.2050
 6437SOL    HW130773   3.085   0.397   0.057  1.4607 -1.1241  0.0455
 6437SOL    HW230774   3.225   0.415   0.041  1.4285  2.8836  1.2068
 6438SOL     OW30775   4.497   1.880   9.551  0.2788  0.5741  0.4307
 6438SOL    HW130776   4.575   1.919   9.512  0.2863 -1.0642 -1.1937
 6438SOL    HW230777   4.518   1.787   9.542 -0.1833  0.4170  0.9862
 6439SOL     OW30778   0.970   2.347  16.672  0.0270 -0.2370  0.4867
 6439SOL    HW130779   1.033   2.275  16.675 -0.9318 -1.1108  0.0109
 6439SOL    HW230780   0.909   2.294  16.724 -0.6253 -1.9104 -1.9404
 6440SOL     OW30781   1.389   1.860  10.713 -0.2519  0.1147  0.1461
 6440SOL    HW130782   1.312   1.807  10.690  1.2889 -1.4429 -1.4234
 6440SOL    HW230783   1.361   1.855  10.805 -1.5371  2.3492 -0.1346
 6441SOL     OW30784   0.082   3.184   3.140  0.2225  0.6245  0.1642
 6441SOL    HW130785   0.016   3.204   3.074 -2.0380  0.8966  2.5204
 6441SOL    HW230786   0.077   3.089   3.131 -2.2485  0.8462 -0.7398
 6442SOL     OW30787   1.000   1.436   7.016  0.5983  0.3571 -0.4552
 6442SOL    HW130788   1.050   1.516   7.032  0.2254  0.2479  1.2140
 6442SOL    HW230789   1.060   1.363   7.034  0.4782  0.5575  0.7526
 6443SOL     OW30790   2.868   1.304   4.902 -0.5371 -0.3230  0.0570
 6443SOL    HW130791   2.773   1.302   4.911 -0.3886  0.4608  1.9320
 6443SOL    HW230792   2.888   1.264   4.817 -0.1483 -1.0617  0.4971
 6444SOL     OW30793   2.771   2.891   8.866  0.4069 -0.3717  0.2802
 6444SOL    HW130794   2.864   2.872   8.858  0.7974  0.7484  2.3153
 6444SOL    HW230795   2.758   2.868   8.957  0.0222 -0.6944  0.1423
 6445SOL     OW30796   3.775   0.410   3.963  0.0084 -0.3358  0.4778
 6445SOL    HW130797   3.771   0.504   3.944  1.8171 -0.1337  1.1196
 6445SOL    HW230798   3.697   0.400   4.017  0.8917  3.0846  2.3981
 6446SOL     OW30799   4.303   0.806   3.209 -0.2474  0.2824 -0.5426
 6446SOL    HW130800   4.391   0.772   3.190 -0.2000  1.4955 -2.4597
 6446SOL    HW230801   4.296   0.789   3.303  2.9740 -0.9931 -0.5223
 6447SOL     OW30802   2.126   1.495   9.021  0.6480 -0.3632 -0.1959
 6447SOL    HW130803   2.173   1.412   9.014  1.3346 -0.0197  0.2688
 6447SOL    HW230804   2.053   1.474   9.080  1.1653 -2.0498 -0.1748
 6448SOL     OW30805   2.795   0.884   9.409 -0.3204 -0.7468  0.4614
 6448SOL    HW130806   2.806   0.970   9.368  0.3058 -1.0886 -0.0855
 6448SOL    HW230807   2.887   0.859   9.416 -0.5015 -0.4734  3.5046
 6449SOL     OW30808   1.242   1.607   8.462 -0.1498 -0.3727 -0.4461
 6449SOL    HW130809   1.286   1.624   8.379  3.2742 -0.8485  1.2487
 6449SOL    HW230810   1.226   1.513   8.454 -3.9520  0.4955 -2.7365
 6450SOL     OW30811   0.982   1.112   8.179 -0.5538  0.1465 -0.6386
 6450SOL    HW130812   0.930   1.141   8.255  1.0199  0.7590  0.2030
 6450SOL    HW230813   1.005   1.020   8.194 -1.7800  0.0136  0.4412
 6451SOL     OW30814   1.977   2.814   5.364 -0.0465  0.6564 -0.0436
 6451SOL    HW130815   1.977   2.830   5.270 -0.4179  0.6273 -0.0490
 6451SOL    HW230816   2.017   2.728   5.375  1.4195  1.3417 -0.0743
 6452SOL     OW30817   0.160   0.223   3.372  0.1589 -0.1230 -0.3871
 6452SOL    HW130818   0.172   0.132   3.401  3.0646  0.0171 -1.0993
 6452SOL    HW230819   0.082   0.219   3.318 -0.1803  0.5254  0.0576
 6453SOL     OW30820   3.101   1.209   8.098 -0.0012  0.6632  0.2988
 6453SOL    HW130821   3.006   1.220   8.091 -0.1139 -0.6754 -0.2350
 6453SOL    HW230822   3.108   1.130   8.045  0.6299  0.6618  0.3833
 6454SOL     OW30823   0.382   2.058   9.607 -0.2372 -0.0649  0.1622
 6454SOL    HW130824   0.395   2.016   9.522 -2.4287 -0.0394 -0.1699
 6454SOL    HW230825   0.377   1.981   9.663 -0.8460  0.1340  0.3754
 6455SOL     OW30826   0.049   3.557   6.868 -0.6695 -0.1847 -0.3903
 6455SOL    HW130827   4.719   3.479   6.884 -0.5788  0.3945  2.6641
 6455SOL    HW230828   4.702   3.623   6.862 -0.5949 -0.3354 -2.9249
 6456SOL     OW30829   3.152   3.803   1.543  0.4691  0.1727  0.3792
 6456SOL    HW130830   3.204   3.842   1.473 -0.7282  1.1162  0.0177
 6456SOL    HW230831   3.214   3.734   1.566 -0.0097  0.0368  1.2706
 6457SOL     OW30832   1.915   3.304  11.519 -0.6808 -0.3300  0.3295
 6457SOL    HW130833   1.859   3.296  11.597 -0.6950 -1.1162  0.2414
 6457SOL    HW230834   1.988   3.356  11.552 -0.2457 -0.2412 -0.7731
 6458SOL     OW30835   0.248   2.041   5.166 -0.1933 -0.1195  0.2942
 6458SOL    HW130836   0.321   2.101   5.156 -0.7090  0.5914  0.8034
 6458SOL    HW230837   0.270   1.999   5.249 -0.7899 -1.2725 -0.1243
 6459SOL     OW30838   1.887   0.232  12.777  0.5185 -0.1649  0.1606
 6459SOL    HW130839   1.872   0.252  12.870  1.8299  0.5920  0.2087
 6459SOL    HW230840   1.841   0.148  12.770 -0.4251  0.4910 -1.5394
 6460SOL     OW30841   1.480   1.419   8.250 -0.4122  0.1835 -0.2221
 6460SOL    HW130842   1.451   1.510   8.255 -0.2799  0.0818  2.5679
 6460SOL    HW230843   1.520   1.421   8.164 -3.1557 -2.5560 -1.5604
 6461SOL     OW30844   4.709   0.538  14.758  0.0140  0.2038  0.8101
 6461SOL    HW130845   0.027   0.480  14.694  0.0501  0.2496  0.7912
 6461SOL    HW230846   0.057   0.541  14.823  0.5316 -0.8658  0.2954
 6462SOL     OW30847   4.077   3.474  11.913 -0.2521 -0.1937 -0.6073
 6462SOL    HW130848   4.070   3.559  11.957  1.3585  0.2253 -1.1398
 6462SOL    HW230849   3.989   3.438  11.917 -0.5230  0.8006  2.1940
 6463SOL     OW30850   0.081   0.251   4.691 -0.0141 -0.0153 -0.1778
 6463SOL    HW130851   0.145   0.253   4.620  1.0008  1.7648  0.7858
 6463SOL    HW230852   0.017   0.190   4.654  1.9048 -1.3257 -1.3673
 6464SOL     OW30853   1.949   2.235  15.705 -0.8537  0.0619  0.6838
 6464SOL    HW130854   1.911   2.269  15.623  0.5799 -1.4405 -0.6029
 6464SOL    HW230855   1.976   2.311  15.755 -0.2075 -0.4861  1.1564
 6465SOL     OW30856   4.052   2.418   1.945  0.0526 -0.2948 -0.3256
 6465SOL    HW130857   4.067   2.513   1.948 -0.5713 -0.2917  3.3521
 6465SOL    HW230858   3.957   2.410   1.939 -0.0078  0.4910 -0.4457
 6466SOL     OW30859   4.199   3.856  17.309 -0.1354  0.0571 -0.3391
 6466SOL    HW130860   4.200   3.948  17.333  1.8567 -0.0070 -0.1577
 6466SOL    HW230861   4.160   3.823  17.391  0.7079 -2.7054 -1.0316
 6467SOL     OW30862   1.791   3.761   3.890  0.4021 -0.4051  0.0234
 6467SOL    HW130863   1.865   3.812   3.858  0.5951 -0.5888  0.1824
 6467SOL    HW230864   1.718   3.813   3.856  1.6744  2.6944  2.0375
 6468SOL     OW30865   3.394   3.763   7.583  0.4690 -0.2880  0.5770
 6468SOL    HW130866   3.382   3.754   7.678  0.8560  1.5716  0.8154
 6468SOL    HW230867   3.334   3.691   7.563 -0.1206  0.2915  0.2446
 6469SOL     OW30868   2.568   4.644  12.906 -0.4387  0.6708 -0.3582
 6469SOL    HW130869   2.544   4.552  12.915 -0.7536  0.8539  0.5909
 6469SOL    HW230870   2.515   4.675  12.979 -1.0429 -3.6180  0.9999
 6470SOL     OW30871   0.091   1.504   9.441  0.1391 -0.3214 -0.1042
 6470SOL    HW130872   0.124   1.438   9.380  1.8863  1.4644 -1.0635
 6470SOL    HW230873   0.096   1.585   9.391 -0.0832 -0.2375  0.0067
 6471SOL     OW30874   3.753   4.284  17.280  0.6799 -0.3419 -0.5566
 6471SOL    HW130875   3.679   4.263  17.337  1.7855 -0.1573  0.9538
 6471SOL    HW230876   3.729   4.371  17.248 -2.3729 -0.2391  2.0270
 6472SOL     OW30877   3.679   0.609   9.229 -0.4124 -0.1034  0.1862
 6472SOL    HW130878   3.659   0.686   9.175  0.8889  0.0643 -0.0590
 6472SOL    HW230879   3.726   0.549   9.171 -1.7562 -1.0625  0.1048
 6473SOL     OW30880   4.470   2.941   7.971  0.1944  0.3513 -0.6355
 6473SOL    HW130881   4.382   2.967   7.944  0.6593  2.6290  0.0063
 6473SOL    HW230882   4.463   2.954   8.065  0.1288 -2.3564 -0.2711
 6474SOL     OW30883   1.502   0.578   7.970 -0.4544 -0.1000  0.3397
 6474SOL    HW130884   1.528   0.486   7.967  2.2366  0.6332  1.4701
 6474SOL    HW230885   1.580   0.617   8.008  1.0345 -0.1758 -2.6190
 6475SOL     OW30886   4.648   4.703  14.254 -0.4277 -0.1586 -0.2633
 6475SOL    HW130887   4.621   4.615  14.228  0.7439 -1.1049  1.7478
 6475SOL    HW230888   4.720   4.685  14.313 -2.3921  1.0202  2.4680
 6476SOL     OW30889   2.968   2.555   7.432  0.4464 -0.2056 -0.5516
 6476SOL    HW130890   3.014   2.546   7.349 -1.2385  2.9369 -1.8314
 6476SOL    HW230891   3.039   2.562   7.497  0.2306  3.6923 -0.7147
 6477SOL     OW30892   2.398   3.853   4.014  0.6766 -0.0195 -0.7179
 6477SOL    HW130893   2.352   3.937   4.011  1.3907  0.4793  1.9994
 6477SOL    HW230894   2.329   3.800   4.053  0.4038  0.6559 -0.2891
 6478SOL     OW30895   1.733   3.973   7.892  0.7971 -0.0385  0.6487
 6478SOL    HW130896   1.695   3.898   7.847  1.9911  0.2633 -0.8660
 6478SOL    HW230897   1.741   4.027   7.814 -0.5693 -0.8435 -0.0470
 6479SOL     OW30898   2.189   2.862   7.154 -0.3051  0.3134 -0.2519
 6479SOL    HW130899   2.226   2.950   7.146 -2.6927  1.3204  0.0626
 6479SOL    HW230900   2.238   2.822   7.227  2.1399  2.1704 -0.8586
 6480SOL     OW30901   3.664   2.249   6.973  0.3364 -0.3318 -0.2581
 6480SOL    HW130902   3.746   2.299   6.978  1.0081 -1.6030  1.6368
 6480SOL    HW230903   3.685   2.169   6.925  0.9644 -0.1478 -0.2893
 6481SOL     OW30904   1.317   2.615  12.456  0.3762 -0.9210  0.0478
 6481SOL    HW130905   1.249   2.682  12.461  0.9077 -0.5008  1.4977
 6481SOL    HW230906   1.339   2.626  12.363 -0.2493  2.8489  0.3102
 6482SOL     OW30907   0.082   2.915   4.298  0.2387  0.2236 -0.0256
 6482SOL    HW130908   0.004   2.874   4.336  0.4797  1.1205  1.4381
 6482SOL    HW230909   0.115   2.969   4.370 -2.1010  0.7236  0.6851
 6483SOL     OW30910   1.007   2.420   3.418  0.2939  0.2255  0.1576
 6483SOL    HW130911   0.916   2.396   3.432 -0.5713  3.4082 -0.1314
 6483SOL    HW230912   1.004   2.433   3.323  0.4831 -0.5738  0.0412
 6484SOL     OW30913   2.227   2.180   4.238  0.1160 -0.4523  0.3007
 6484SOL    HW130914   2.223   2.100   4.187 -1.9830 -0.0937 -0.0706
 6484SOL    HW230915   2.288   2.233   4.185  2.1400 -2.8574  0.2332
 6485SOL     OW30916   3.742   2.144   2.080  0.0401 -0.5181  0.3637
 6485SOL    HW130917   3.705   2.170   2.164  0.7795 -0.2700  0.6093
 6485SOL    HW230918   3.682   2.191   2.022 -0.8287 -0.7701  1.0583
 6486SOL     OW30919   2.065   2.872   6.186  0.5076  0.3704  0.0906
 6486SOL    HW130920   2.077   2.778   6.196  1.4073  0.7350  2.3763
 6486SOL    HW230921   2.146   2.903   6.226  0.0234  1.4429  0.2310
 6487SOL     OW30922   1.411   4.229  15.111  1.0869  0.1346 -0.1983
 6487SOL    HW130923   1.434   4.318  15.137  0.7894 -0.4705  2.1339
 6487SOL    HW230924   1.373   4.202  15.195  0.2023  2.2646  0.0741
 6488SOL     OW30925   4.608   3.622   1.237 -0.1935  0.2152 -0.3909
 6488SOL    HW130926   4.513   3.624   1.239 -0.1995 -0.6731  0.0245
 6488SOL    HW230927   4.617   3.716   1.257  0.6554  0.5246 -2.2306
 6489SOL     OW30928   0.999   3.804   7.989  0.1467 -0.1470 -0.3089
 6489SOL    HW130929   0.905   3.803   8.004  0.2354 -2.2216  0.1391
 6489SOL    HW230930   1.030   3.853   8.066 -1.2114  0.3041 -0.0549
 6490SOL     OW30931   4.374   0.659  11.916 -0.1839 -0.1265 -0.8131
 6490SOL    HW130932   4.282   0.673  11.893 -0.1234  0.4754 -0.7009
 6490SOL    HW230933   4.366   0.628  12.006  0.1628  2.6849  0.1856
 6491SOL     OW30934   2.784   0.702   0.537 -0.9791 -0.3598  0.2142
 6491SOL    HW130935   2.787   0.607   0.530  1.8936 -0.3779  1.6812
 6491SOL    HW230936   2.752   0.714   0.448 -0.0255 -1.2723 -0.2503
 6492SOL     OW30937   1.816   4.503   7.493  0.4298 -0.3768  0.8261
 6492SOL    HW130938   1.900   4.523   7.534  1.1082  1.2832 -1.4049
 6492SOL    HW230939   1.773   4.589   7.501  1.4426  0.1166  0.9511
 6493SOL     OW30940   2.567   1.184   8.956 -0.0185 -0.5594 -0.2503
 6493SOL    HW130941   2.488   1.136   8.931 -0.9267  1.8772 -2.0968
 6493SOL    HW230942   2.639   1.146   8.904 -0.5216 -0.1455 -1.2527
 6494SOL     OW30943   3.631   0.282   8.482 -0.0421  0.0898 -0.0074
 6494SOL    HW130944   3.549   0.289   8.433 -0.1758 -3.6456 -0.2832
 6494SOL    HW230945   3.619   0.191   8.509  1.9165 -0.7198 -1.8967
 6495SOL     OW30946   3.413   1.210  12.610  0.2384  0.1788 -0.1251
 6495SOL    HW130947   3.456   1.211  12.696 -2.6820 -2.5841  1.3493
 6495SOL    HW230948   3.334   1.262  12.620  0.1909 -0.1668  1.3372
 6496SOL     OW30949   3.612   2.923   6.250  0.2043 -0.5242  0.2884
 6496SOL    HW130950   3.668   3.001   6.243  2.3031 -2.1082 -0.5707
 6496SOL    HW230951   3.563   2.927   6.168 -0.6760  1.2756  0.8898
 6497SOL     OW30952   3.583   4.328   6.068  0.1628  0.1437  0.4900
 6497SOL    HW130953   3.512   4.357   6.011 -0.3630  0.5673  1.3501
 6497SOL    HW230954   3.531   4.322   6.148 -1.3950 -0.7994 -0.6043
 6498SOL     OW30955   0.017   1.778   6.709  0.6071  0.8740 -0.1392
 6498SOL    HW130956   0.092   1.811   6.659  1.4810  0.2724  0.7744
 6498SOL    HW230957   0.045   1.760   6.799  1.4091  0.5713 -0.4458
 6499SOL     OW30958   2.920   1.688  16.234 -0.0505  0.5733  0.1635
 6499SOL    HW130959   2.880   1.633  16.167 -0.7669 -0.4075  1.4033
 6499SOL    HW230960   2.935   1.631  16.309  0.9246  1.3841  0.5808
 6500SOL     OW30961   3.479   3.405   1.730  1.0015 -0.5327 -0.5915
 6500SOL    HW130962   3.422   3.373   1.660  0.2306 -1.9657  0.6821
 6500SOL    HW230963   3.470   3.331   1.791 -0.1531 -1.5325 -1.9757
 6501SOL     OW30964   2.028   2.651   1.548  0.1622 -0.4013  0.2744
 6501SOL    HW130965   1.994   2.697   1.471 -1.7228 -0.9139  0.8160
 6501SOL    HW230966   2.120   2.675   1.559 -0.4195  0.3549  3.4607
 6502SOL     OW30967   1.884   3.195   3.648 -0.0670  0.2786 -0.2698
 6502SOL    HW130968   1.819   3.250   3.691 -0.6132  0.0531 -0.8100
 6502SOL    HW230969   1.963   3.248   3.646  0.2436 -0.1554  0.5714
 6503SOL     OW30970   2.659   3.671   5.490  0.7982 -0.4094 -0.7059
 6503SOL    HW130971   2.745   3.656   5.531 -0.4771 -2.1998  1.3408
 6503SOL    HW230972   2.611   3.590   5.510  0.3654  0.7101  2.8886
 6504SOL     OW30973   3.872   2.560   2.871  0.1777 -0.0599 -0.2812
 6504SOL    HW130974   3.899   2.601   2.953  0.7174  0.1405 -0.5552
 6504SOL    HW230975   3.954   2.520   2.841 -0.3048 -0.0899 -1.5897
 6505SOL     OW30976   3.765   1.308   3.128  0.4230  0.6012  0.1983
 6505SOL    HW130977   3.808   1.385   3.167 -1.1589  1.8296 -0.4594
 6505SOL    HW230978   3.748   1.253   3.204  1.3509  0.0278 -0.0008
 6506SOL     OW30979   2.697   2.582  12.259  0.3420  0.3127  0.0517
 6506SOL    HW130980   2.788   2.611  12.256  0.8442 -1.4168 -1.0520
 6506SOL    HW230981   2.701   2.494  12.295 -1.6228 -0.0178 -0.5073
 6507SOL     OW30982   3.497   3.260  13.960 -0.1753 -0.1716  0.1425
 6507SOL    HW130983   3.441   3.190  13.926 -0.1980  0.5538 -1.3114
 6507SOL    HW230984   3.493   3.237  14.052  0.5754  1.1500  0.5098
 6508SOL     OW30985   0.467   3.059   2.683 -0.0286  0.4572  0.2350
 6508SOL    HW130986   0.430   2.995   2.622  0.3554  0.2253  0.2519
 6508SOL    HW230987   0.491   2.993   2.747 -0.5493  0.7996  0.7863
 6509SOL     OW30988   0.105   0.042   7.165 -0.3580 -0.2497  0.2766
 6509SOL    HW130989   0.162   4.689   7.149  0.5343  0.8392 -1.7695
 6509SOL    HW230990   0.100   0.045   7.260 -2.0137 -0.3522  0.1965
 6510SOL     OW30991   3.492   0.029   1.770 -0.2815  0.2615  0.4385
 6510SOL    HW130992   3.450   0.115   1.778 -1.8033 -0.2247 -2.1726
 6510SOL    HW230993   3.412   4.700   1.772  0.1146 -0.3798  0.1055
 6511SOL     OW30994   3.256   3.555   5.398 -0.0731 -0.0019  0.8446
 6511SOL    HW130995   3.185   3.494   5.419  0.2766  0.2254  2.6719
 6511SOL    HW230996   3.248   3.620   5.467 -2.6790 -1.1130  1.6014
 6512SOL     OW30997   2.776   0.763   9.893 -0.5101  0.4480  0.0344
 6512SOL    HW130998   2.860   0.796   9.861  0.1042  0.0170  1.1821
 6512SOL    HW230999   2.804   0.716   9.972 -1.3978  0.5846  0.4228
 6513SOL     OW31000   0.291   3.172   4.929  0.3159  0.2773  0.5421
 6513SOL    HW131001   0.306   3.266   4.924 -0.1622  0.2774 -0.6905
 6513SOL    HW231002   0.247   3.158   4.845 -1.8805 -2.2002  2.0849
 6514SOL     OW31003   3.938   2.502   8.397 -0.1921 -0.3888  0.1518
 6514SOL    HW131004   3.998   2.477   8.327 -1.2207 -0.1881 -0.7995
 6514SOL    HW231005   4.000   2.545   8.455  0.4143  0.2517 -0.9767
 6515SOL     OW31006   3.987   4.342   6.248  0.0046  0.4184  0.5959
 6515SOL    HW131007   3.893   4.340   6.265 -0.2654 -0.8086 -1.0518
 6515SOL    HW231008   4.008   4.329   6.340  1.9675 -0.3843  0.0307
 6516SOL     OW31009   4.318   1.832  10.407 -0.5278  0.2730  0.2172
 6516SOL    HW131010   4.402   1.868  10.437 -1.8238  1.9484  1.8584
 6516SOL    HW231011   4.331   1.832  10.313  1.2758 -0.7388  0.4533
 6517SOL     OW31012   4.144   0.494   3.444  0.3017  0.4366 -0.8409
 6517SOL    HW131013   4.239   0.506   3.446  0.2699 -0.0021  3.0845
 6517SOL    HW231014   4.119   0.561   3.508  0.3577 -0.0625 -0.3003
 6518SOL     OW31015   3.063   3.455   8.065 -0.1973  0.2471 -0.2726
 6518SOL    HW131016   2.995   3.388   8.057  0.4275 -0.4358  0.1943
 6518SOL    HW231017   3.130   3.435   8.000  0.2098  0.5340  0.0577
 6519SOL     OW31018   0.028   2.405   5.454  0.4893 -0.3062 -0.5138
 6519SOL    HW131019   4.693   2.333   5.429  0.2717 -0.4077  0.2631
 6519SOL    HW231020   0.081   2.415   5.375 -1.4682  2.2620 -1.5043
 6520SOL     OW31021   1.003   3.804   4.954  0.2238  0.4368 -0.1884
 6520SOL    HW131022   0.969   3.890   4.981  1.3648  0.6344  0.6064
 6520SOL    HW231023   1.022   3.806   4.860  0.2720 -1.4505 -0.2075
 6521SOL     OW31024   1.503   2.331  11.641  0.0146 -0.0999 -0.5943
 6521SOL    HW131025   1.522   2.254  11.587  0.7987 -0.2151 -0.1437
 6521SOL    HW231026   1.430   2.303  11.697 -0.3917  0.2552 -0.9436
 6522SOL     OW31027   3.825   2.694   6.284  0.2261  0.1737  0.2820
 6522SOL    HW131028   3.797   2.605   6.305  0.4933 -0.6151 -2.7211
 6522SOL    HW231029   3.747   2.743   6.256 -2.4559 -3.2730  1.7392
 6523SOL     OW31030   3.620   3.420   3.481 -0.0923 -0.0726 -0.0380
 6523SOL    HW131031   3.663   3.336   3.495  0.0992 -0.0049 -0.2235
 6523SOL    HW231032   3.526   3.419   3.500  0.0491 -3.4697  0.3449
 6524SOL     OW31033   4.267   0.791   7.603  0.3125 -0.3817  0.0922
 6524SOL    HW131034   4.334   0.836   7.552 -0.4979 -0.8705 -1.4041
 6524SOL    HW231035   4.333   0.756   7.663 -1.7929 -1.1080  2.0008
 6525SOL     OW31036   1.297   4.539   7.830  0.3055 -0.0918  0.3321
 6525SOL    HW131037   1.353   4.564   7.757  1.1313  1.7878  1.6114
 6525SOL    HW231038   1.342   4.574   7.907 -1.1734  1.9730  0.2526
 6526SOL     OW31039   0.518   0.155   8.328  0.2378 -0.4266  0.4080
 6526SOL    HW131040   0.566   0.218   8.382 -1.1735  1.3397 -0.3604
 6526SOL    HW231041   0.566   0.074   8.341  0.1201 -0.7914 -1.5272
 6527SOL     OW31042   2.626   3.106   5.106 -0.0193  0.2963  0.1239
 6527SOL    HW131043   2.691   3.148   5.162  1.3345  1.3438 -2.2721
 6527SOL    HW231044   2.661   3.107   5.017  0.2219  0.3156  0.2202
 6528SOL     OW31045   3.271   1.543   8.325 -0.5469  0.0725 -0.3193
 6528SOL    HW131046   3.295   1.633   8.343  0.6123 -0.1604 -0.7541
 6528SOL    HW231047   3.353   1.498   8.344 -0.6889  0.5604  1.4777
 6529SOL     OW31048   3.736   2.373   1.236  0.0242 -0.0450 -0.2788
 6529SOL    HW131049   3.720   2.465   1.259  0.7222 -0.1695  0.6881
 6529SOL    HW231050   3.779   2.371   1.150  0.3152  2.1034 -0.1919
 6530SOL     OW31051   1.267   3.369   2.112 -0.0243  0.3618  0.7906
 6530SOL    HW131052   1.239   3.435   2.049  0.1836  0.3734  0.7111
 6530SOL    HW231053   1.253   3.420   2.193 -0.1858 -0.2372  1.1390
 6531SOL     OW31054   4.657   2.619   7.335  0.2817 -0.4456 -0.4466
 6531SOL    HW131055   4.569   2.618   7.296 -0.0856  0.3128  0.3592
 6531SOL    HW231056   4.640   2.555   7.404 -0.6831  2.4881  2.0523
 6532SOL     OW31057   1.307   2.847   5.831 -0.1366 -0.0873 -0.3444
 6532SOL    HW131058   1.291   2.817   5.921 -0.1361  0.1318 -0.2718
 6532SOL    HW231059   1.267   2.933   5.844  0.4071  0.3146 -1.4157
 6533SOL     OW31060   3.457   3.827   8.500 -0.1684 -0.2546  0.0718
 6533SOL    HW131061   3.461   3.734   8.520  0.9579 -0.1029  0.5402
 6533SOL    HW231062   3.434   3.832   8.408 -0.0835  2.5208  0.1787
 6534SOL     OW31063   2.057   3.906   2.484 -0.4326  0.2034  0.3982
 6534SOL    HW131064   1.996   3.945   2.421 -1.0145  2.0325  2.0941
 6534SOL    HW231065   2.079   3.983   2.536  0.5965 -0.4911  0.9984
 6535SOL     OW31066   4.442   0.995   5.940  0.3333  0.2374 -0.7405
 6535SOL    HW131067   4.516   0.941   5.913  0.5360  0.7452 -1.2068
 6535SOL    HW231068   4.363   0.950   5.910 -0.9351  2.8639 -1.3717
 6536SOL     OW31069   0.095   0.149   0.977 -0.0212  0.7665 -0.2671
 6536SOL    HW131070   0.048   0.233   0.983 -2.0653 -0.3812 -0.2931
 6536SOL    HW231071   0.183   0.187   0.975  0.8030 -1.1509  0.2553
 6537SOL     OW31072   4.166   1.355   5.804 -0.5779 -0.1368 -0.0110
 6537SOL    HW131073   4.182   1.428   5.745 -0.3125 -0.5392 -0.4302
 6537SOL    HW231074   4.257   1.330   5.819 -0.8598 -0.5211  1.0750
 6538SOL     OW31075   0.050   0.445  12.663 -0.2448 -0.1192  0.0666
 6538SOL    HW131076   4.692   0.407  12.625 -0.7006 -0.6303  1.5331
 6538SOL    HW231077   0.041   0.412  12.752  0.8561 -0.3966  0.0681
 6539SOL     OW31078   0.847   2.471   5.008  0.8285  0.1577  0.3270
 6539SOL    HW131079   0.880   2.503   4.924 -0.5809 -0.6300 -0.5289
 6539SOL    HW231080   0.788   2.543   5.033  0.7508  0.6683 -1.3478
 6540SOL     OW31081   0.473   3.170   0.278 -0.1977 -0.1851 -0.0025
 6540SOL    HW131082   0.489   3.165   0.183  1.0530 -1.9519  0.2869
 6540SOL    HW231083   0.387   3.212   0.274  0.2643  0.7347 -0.1114
 6541SOL     OW31084   2.795   3.981   2.964 -0.1678 -0.1354  0.4257
 6541SOL    HW131085   2.707   3.967   2.999 -0.2302 -1.3052 -0.1925
 6541SOL    HW231086   2.818   3.894   2.930  3.1145 -0.1418  2.6855
 6542SOL     OW31087   1.047   2.443   8.617 -0.4728  0.0983  0.4416
 6542SOL    HW131088   0.960   2.404   8.624 -0.6912  0.8478  1.7692
 6542SOL    HW231089   1.019   2.533   8.596 -1.1175 -0.0344  0.7354
 6543SOL     OW31090   3.255   0.226   4.971 -0.0166 -0.3656 -0.1998
 6543SOL    HW131091   3.310   0.162   4.925 -0.1830  0.8680 -2.1427
 6543SOL    HW231092   3.293   0.309   4.941 -1.7786  0.6628  0.4067
 6544SOL     OW31093   0.914   2.826  17.416  0.0685 -0.2601 -0.6940
 6544SOL    HW131094   0.831   2.793  17.382 -0.2045 -1.2129  0.9189
 6544SOL    HW231095   0.938   2.761  17.482  1.9481 -1.0774 -2.1753
 6545SOL     OW31096   0.240   1.358   8.962 -0.1781  0.1871  0.3163
 6545SOL    HW131097   0.290   1.413   8.902 -0.6199  0.5691  0.3004
 6545SOL    HW231098   0.298   1.283   8.974 -0.1146  0.2491  0.4031
 6546SOL     OW31099   1.510   2.896   4.560  0.4160  0.6038 -0.7517
 6546SOL    HW131100   1.582   2.957   4.570  1.2089 -0.4053 -0.3309
 6546SOL    HW231101   1.435   2.938   4.602  1.4018  0.4349  1.1529
 6547SOL     OW31102   2.533   3.822   8.527 -0.2025  0.4529 -0.0326
 6547SOL    HW131103   2.462   3.837   8.465  1.5249  1.6157 -1.7120
 6547SOL    HW231104   2.523   3.895   8.588  1.9960  1.4567 -0.8808
 6548SOL     OW31105   2.250   1.927   6.059 -0.3425  0.0266  0.1373
 6548SOL    HW131106   2.176   1.898   6.114  0.4383  1.4880  1.9556
 6548SOL    HW231107   2.275   1.839   6.030  0.4328  0.8826 -1.7465
 6549SOL     OW31108   3.260   3.201   4.601  0.4294  0.0432 -0.7007
 6549SOL    HW131109   3.326   3.247   4.549 -1.8370  0.0602 -3.5173
 6549SOL    HW231110   3.269   3.112   4.567  1.1813 -0.2870  0.3567
 6550SOL     OW31111   0.350   1.742   5.772  0.2657  0.0158 -0.2809
 6550SOL    HW131112   0.427   1.747   5.829 -0.9038  2.7951  1.0575
 6550SOL    HW231113   0.344   1.647   5.759 -1.1161  0.2031 -1.0384
 6551SOL     OW31114   1.776   2.553  15.594 -0.1503 -0.0062  0.3887
 6551SOL    HW131115   1.812   2.501  15.521 -0.8660 -2.0566  1.4952
 6551SOL    HW231116   1.843   2.618  15.616  0.0008 -0.2473  0.6474
 6552SOL     OW31117   4.317   1.329   2.926 -0.6707 -0.6274 -0.5070
 6552SOL    HW131118   4.354   1.274   2.858 -1.6032 -0.1338 -1.4181
 6552SOL    HW231119   4.223   1.311   2.921 -0.6373 -0.6745 -0.9563
 6553SOL     OW31120   2.817   0.035   6.772 -0.1609 -0.2440  0.0663
 6553SOL    HW131121   2.764   0.096   6.823  0.8618  2.2041 -1.8241
 6553SOL    HW231122   2.773   4.679   6.805 -1.4932  0.3919 -0.2110
 6554SOL     OW31123   0.553   0.825   3.759 -0.0560 -0.1301 -0.0385
 6554SOL    HW131124   0.461   0.837   3.735 -0.1141  0.5674  0.5177
 6554SOL    HW231125   0.587   0.811   3.671 -2.0304 -0.6972 -0.7077
 6555SOL     OW31126   0.143   3.014   7.234  0.4866 -0.7018 -0.3259
 6555SOL    HW131127   0.173   2.924   7.234 -0.5917 -1.0573 -0.6305
 6555SOL    HW231128   0.088   3.027   7.156 -2.3595  1.2070  2.0112
 6556SOL     OW31129   4.157   0.407   0.407  0.1280  0.5820  0.6274
 6556SOL    HW131130   4.143   0.326   0.356  0.9735  0.6088  0.3544
 6556SOL    HW231131   4.249   0.401   0.432 -0.2624 -1.2806  1.6025
 6557SOL     OW31132   2.172   3.363   6.772  0.6254 -0.2425 -0.5272
 6557SOL    HW131133   2.160   3.450   6.809 -0.6898 -0.8017  0.3520
 6557SOL    HW231134   2.087   3.349   6.731  0.4351  0.7342 -0.4635
 6558SOL     OW31135   2.029   3.136   9.129  0.7524  0.1576  0.5334
 6558SOL    HW131136   2.030   3.087   9.047 -1.5352 -0.4673  0.8812
 6558SOL    HW231137   2.061   3.071   9.192  0.2390 -0.0625  0.5660
 6559SOL     OW31138   1.189   2.082   3.759  0.4205  0.0974  0.1598
 6559SOL    HW131139   1.134   2.149   3.799 -2.3334 -1.2304 -1.3738
 6559SOL    HW231140   1.269   2.108   3.805  0.2360 -0.8676  1.0229
 6560SOL     OW31141   1.282   3.023   2.101 -0.8944  0.4506 -0.0135
 6560SOL    HW131142   1.271   3.117   2.093  0.3284  0.5953 -0.0486
 6560SOL    HW231143   1.366   3.016   2.146 -1.8504 -0.6284  1.6348
 6561SOL     OW31144   2.545   3.174   9.071  0.0326 -0.6031 -0.6808
 6561SOL    HW131145   2.488   3.131   9.134 -1.1024 -0.7710 -1.8024
 6561SOL    HW231146   2.491   3.169   8.992  1.7053  1.7164 -1.9592
 6562SOL     OW31147   4.311   1.115   4.467 -0.8282  0.5351 -0.7614
 6562SOL    HW131148   4.349   1.154   4.546  0.8079 -2.6393  0.0095
 6562SOL    HW231149   4.380   1.140   4.405 -1.2306  3.9632  0.1744
 6563SOL     OW31150   1.194   2.702   2.675 -0.0772  0.0449  0.3290
 6563SOL    HW131151   1.235   2.719   2.590 -1.6928 -0.5849 -0.5699
 6563SOL    HW231152   1.148   2.620   2.655  0.7568  0.0527 -1.6283
 6564SOL     OW31153   1.725   3.039   3.332 -0.4599 -0.5829  0.0071
 6564SOL    HW131154   1.680   2.959   3.304  2.1801 -1.3094 -2.1366
 6564SOL    HW231155   1.781   3.001   3.401  0.9162  1.5081  0.0368
 6565SOL     OW31156   2.796   3.186   8.446  0.0269  0.4474 -0.3370
 6565SOL    HW131157   2.755   3.261   8.489  1.8267  1.3779 -0.2394
 6565SOL    HW231158   2.726   3.140   8.401  0.9705 -1.3023 -0.0117
 6566SOL     OW31159   3.714   3.508   1.649 -0.0254 -0.5628  0.1520
 6566SOL    HW131160   3.682   3.523   1.560 -1.3475 -1.4086  0.4705
 6566SOL    HW231161   3.632   3.475   1.686  0.0552 -2.9316 -1.7639
 6567SOL     OW31162   0.754   2.438  14.047 -0.0990  0.0052 -0.0705
 6567SOL    HW131163   0.696   2.446  14.123  0.4606 -2.4973  0.6104
 6567SOL    HW231164   0.784   2.529  14.049  1.0797 -0.4653  3.2206
 6568SOL     OW31165   1.964   0.290   6.980  0.2965 -0.3670  0.0110
 6568SOL    HW131166   1.947   0.203   7.017  1.0874 -0.4854  0.1135
 6568SOL    HW231167   2.052   0.314   7.011  0.9749  0.0228 -2.1930
 6569SOL     OW31168   3.062   0.621   9.391 -0.2698 -0.2448  0.2122
 6569SOL    HW131169   3.001   0.627   9.464  0.2957  4.3659  0.3009
 6569SOL    HW231170   3.097   0.709   9.398  0.3058 -0.6095  1.7799
 6570SOL     OW31171   2.118   1.237   8.455 -0.1744 -0.0330 -0.1164
 6570SOL    HW131172   2.087   1.327   8.466 -0.4044 -0.0651 -0.5033
 6570SOL    HW231173   2.186   1.242   8.523  0.0239 -0.5069 -0.2762
 6571SOL     OW31174   3.783   3.546   5.834 -0.0879 -0.0491 -0.1166
 6571SOL    HW131175   3.747   3.626   5.797  2.1189 -0.4225 -3.0261
 6571SOL    HW231176   3.708   3.503   5.876  0.4227 -0.2301  0.6216
 6572SOL     OW31177   0.571   4.283   3.668  0.2273  0.2487 -0.0007
 6572SOL    HW131178   0.503   4.318   3.611 -0.4913  2.1743  2.0404
 6572SOL    HW231179   0.644   4.331   3.630 -0.4218  0.2991 -1.1655
 6573SOL     OW31180   0.886   4.397   8.303 -0.3372 -0.2669  0.3417
 6573SOL    HW131181   0.964   4.430   8.258  0.5223 -1.3010  1.0591
 6573SOL    HW231182   0.818   4.393   8.236  0.8376  1.0844 -0.9399
 6574SOL     OW31183   3.850   0.842   8.876 -0.0834  0.3367  0.2179
 6574SOL    HW131184   3.863   0.761   8.827 -0.6395  0.1921  0.3044
 6574SOL    HW231185   3.812   0.905   8.814 -0.9605  1.1351  1.5670
 6575SOL     OW31186   4.044   2.137   2.770  0.2523  0.1353  0.2064
 6575SOL    HW131187   3.956   2.100   2.776 -0.6778  2.1174 -1.0699
 6575SOL    HW231188   4.091   2.078   2.711  0.7443 -1.1292  1.8751
 6576SOL     OW31189   2.102   2.923   3.448  0.3746  0.2356  0.4324
 6576SOL    HW131190   2.096   2.907   3.354  2.3798  0.6765  0.2481
 6576SOL    HW231191   2.155   3.002   3.443  0.9782 -0.3724 -2.9886
 6577SOL     OW31192   3.396   3.410   3.057 -0.0902 -0.7060  0.3162
 6577SOL    HW131193   3.489   3.408   3.032 -0.0441 -1.2976  0.5246
 6577SOL    HW231194   3.366   3.492   3.019  1.3953 -1.5005 -2.6223
 6578SOL     OW31195   0.416   3.417   9.781  0.5393 -0.4258  0.3405
 6578SOL    HW131196   0.479   3.346   9.793 -1.0418 -2.2042 -1.7837
 6578SOL    HW231197   0.448   3.463   9.704 -0.1625  0.0279  0.3215
 6579SOL     OW31198   3.242   2.579   6.794  0.2840 -0.5043 -0.4928
 6579SOL    HW131199   3.329   2.579   6.833 -0.8281  3.1594  2.0900
 6579SOL    HW231200   3.206   2.660   6.832 -0.4483 -0.9168 -0.3029
 6580SOL     OW31201   3.051   3.026   2.065  0.0678 -0.3925 -0.6017
 6580SOL    HW131202   3.137   3.028   2.025  0.4239  0.9364  0.2339
 6580SOL    HW231203   3.072   3.021   2.158 -0.6362  0.9979 -0.3802
 6581SOL     OW31204   2.985   4.113   6.667  0.0253 -0.4853 -0.1088
 6581SOL    HW131205   2.919   4.152   6.610 -0.9500  2.0176  2.7001
 6581SOL    HW231206   2.993   4.021   6.641 -1.5907 -0.2736 -1.3498
 6582SOL     OW31207   4.331   3.572   1.299  0.0673 -0.1781 -0.4412
 6582SOL    HW131208   4.373   3.561   1.385 -3.2664 -0.9379  1.0902
 6582SOL    HW231209   4.246   3.609   1.324  1.1605  1.4745  0.8282
 6583SOL     OW31210   0.753   2.589   6.102  0.3988 -0.4816  0.2135
 6583SOL    HW131211   0.761   2.682   6.079 -1.3455  0.2069  2.5099
 6583SOL    HW231212   0.714   2.545   6.026 -0.2587  0.6715 -0.1289
 6584SOL     OW31213   2.030   3.019   8.885 -0.5102  0.2639 -0.3178
 6584SOL    HW131214   1.976   2.949   8.848  1.2778  0.3372 -3.0806
 6584SOL    HW231215   2.092   3.034   8.813  0.2829  0.5504  0.4157
 6585SOL     OW31216   2.159   1.908   7.591 -0.6016 -0.3211  0.0567
 6585SOL    HW131217   2.155   1.966   7.667 -1.7642  0.9629 -0.9858
 6585SOL    HW231218   2.069   1.918   7.559 -0.5622 -0.0357  0.0330
 6586SOL     OW31219   2.421   1.107   3.045 -0.7281 -0.1192  0.0735
 6586SOL    HW131220   2.463   1.193   3.042  0.3803 -0.7290 -1.3518
 6586SOL    HW231221   2.426   1.086   3.139  0.0423  2.3342  0.5687
 6587SOL     OW31222   3.385   0.822   8.844 -0.0540  0.1155  0.3076
 6587SOL    HW131223   3.423   0.825   8.756  0.8074 -1.7786  0.6257
 6587SOL    HW231224   3.396   0.916   8.863 -1.3726  0.3903 -0.2919
 6588SOL     OW31225   4.409   4.484   7.356 -0.1761 -0.3186 -0.0858
 6588SOL    HW131226   4.456   4.406   7.326 -1.4775 -0.7902 -0.8825
 6588SOL    HW231227   4.486   4.520   7.401 -0.7846  0.9720 -0.0732
 6589SOL     OW31228   0.583   3.554  10.865  0.2517  0.5993  0.0350
 6589SOL    HW131229   0.627   3.584  10.785  1.7681  0.7905  0.9261
 6589SOL    HW231230   0.657   3.572  10.923  1.0315 -3.1618  0.1823
 6590SOL     OW31231   0.587   4.435   1.238  0.2667 -0.9457  0.4979
 6590SOL    HW131232   0.633   4.515   1.267 -0.9458 -0.6037  1.4925
 6590SOL    HW231233   0.515   4.463   1.183  0.8090  0.5118  0.5241
 6591SOL     OW31234   0.085   0.580  11.832  0.6030 -0.4139 -0.3188
 6591SOL    HW131235   0.095   0.558  11.924 -1.1634 -1.0133 -0.2833
 6591SOL    HW231236   4.717   0.549  11.834  1.0206 -1.5269  0.7523
 6592SOL     OW31237   1.967   1.271   9.990 -0.2351 -0.3283  0.0931
 6592SOL    HW131238   2.050   1.232   9.963  0.8113  3.7473 -2.6601
 6592SOL    HW231239   1.928   1.205  10.047 -1.5967  0.1610 -0.2855
 6593SOL     OW31240   3.102   2.499   4.785  0.5110  0.1586  0.6430
 6593SOL    HW131241   3.067   2.585   4.808  0.3357  0.2215  0.1494
 6593SOL    HW231242   3.113   2.509   4.690 -3.2694  1.1661  0.2925
 6594SOL     OW31243   3.433   0.192  12.719 -0.2379  0.4975 -0.3135
 6594SOL    HW131244   3.403   0.134  12.789  0.5447  1.0543  0.4923
 6594SOL    HW231245   3.501   0.238  12.770 -0.8602 -0.3669  1.2791
 6595SOL     OW31246   3.445   2.560   0.485 -0.2065 -0.4067 -0.0935
 6595SOL    HW131247   3.376   2.548   0.550  0.0964  1.6878  0.6003
 6595SOL    HW231248   3.402   2.596   0.407  1.8716 -0.2494 -1.1806
 6596SOL     OW31249   4.463   0.674   7.755 -0.0814 -0.5001 -0.6434
 6596SOL    HW131250   4.462   0.672   7.851 -0.2267 -1.7359 -0.6703
 6596SOL    HW231251   4.558   0.677   7.744  0.0036 -1.8001 -0.3209
 6597SOL     OW31252   0.879   0.367  14.942  0.1856 -0.5989 -0.2420
 6597SOL    HW131253   0.833   0.315  15.009 -2.6764  0.4672 -1.4047
 6597SOL    HW231254   0.819   0.371  14.868  1.2899  2.0487 -0.9939
 6598SOL     OW31255   2.632   1.370  16.652 -0.8324  0.2157 -0.0569
 6598SOL    HW131256   2.554   1.421  16.633 -2.2003 -2.2148 -0.9909
 6598SOL    HW231257   2.588   1.293  16.688  1.1589 -0.4157  1.0804
 6599SOL     OW31258   0.366   4.516   2.107  0.8096  0.6087  0.5344
 6599SOL    HW131259   0.374   4.454   2.181 -1.5788 -2.1072 -1.4809
 6599SOL    HW231260   0.315   4.462   2.046  0.8471  0.0755  0.9667
 6600SOL     OW31261   1.918   1.205   6.247  0.3724 -0.0625  0.2220
 6600SOL    HW131262   1.958   1.145   6.184  0.8436 -2.2644  2.6177
 6600SOL    HW231263   1.860   1.252   6.186  0.6146  0.0084  0.0441
 6601SOL     OW31264   0.715   3.215  11.017  0.1792 -0.4069 -0.0376
 6601SOL    HW131265   0.712   3.276  10.943 -0.7213 -1.8286 -1.1882
 6601SOL    HW231266   0.727   3.129  10.976  1.4764 -1.4946  2.6699
 6602SOL     OW31267   2.205   3.576   8.634 -0.2781  0.3017  0.5385
 6602SOL    HW131268   2.135   3.514   8.655 -0.9779  0.7226 -0.5577
 6602SOL    HW231269   2.264   3.533   8.572  0.3550  1.6476  0.2079
 6603SOL     OW31270   4.604   2.832   8.462 -0.1053 -0.1139  0.0951
 6603SOL    HW131271   4.691   2.864   8.485  0.5690 -2.8811  1.4071
 6603SOL    HW231272   4.552   2.912   8.465  0.4866  0.3611 -2.5626
 6604SOL     OW31273   1.271   4.594  11.813 -0.1491  0.5276  0.2453
 6604SOL    HW131274   1.199   4.639  11.769  0.2251  1.5340  0.6718
 6604SOL    HW231275   1.243   4.611  11.903 -0.8291  0.1716  0.1080
 6605SOL     OW31276   2.629   2.837   2.408 -0.2388  0.0174 -0.5928
 6605SOL    HW131277   2.615   2.848   2.314  1.5490  0.7601 -0.7595
 6605SOL    HW231278   2.672   2.751   2.412  0.7180  0.5036 -0.4731
 6606SOL     OW31279   2.424   0.756   2.582  0.8770  0.0326 -0.4032
 6606SOL    HW131280   2.373   0.694   2.634  0.6555 -0.3266 -1.0578
 6606SOL    HW231281   2.365   0.768   2.508 -0.2874 -0.4821  0.4518
 6607SOL     OW31282   3.107   0.604   5.516 -0.0715  0.1676 -0.3098
 6607SOL    HW131283   3.077   0.520   5.481 -1.4965  1.0852 -1.2645
 6607SOL    HW231284   3.028   0.655   5.530  0.5355  0.7677  0.9931
 6608SOL     OW31285   3.992   0.612   5.934 -0.0695 -0.1904  0.0860
 6608SOL    HW131286   3.987   0.702   5.902 -1.0162  0.3013  1.6272
 6608SOL    HW231287   3.898   0.594   5.926 -0.1379 -0.2225  0.9804
 6609SOL     OW31288   4.029   3.561   5.955 -0.3106  0.1813 -0.2175
 6609SOL    HW131289   3.937   3.554   5.930 -0.8349  0.7362  1.5108
 6609SOL    HW231290   4.021   3.625   6.027 -2.4420  1.0931 -1.2699
 6610SOL     OW31291   0.790   1.766   5.865 -0.0815  0.5041  0.0620
 6610SOL    HW131292   0.743   1.788   5.946  0.0463  0.3722  0.1703
 6610SOL    HW231293   0.847   1.695   5.895  0.7422  1.3452  0.4874
 6611SOL     OW31294   2.206   3.447   1.612  0.0152 -0.2937 -0.6150
 6611SOL    HW131295   2.167   3.376   1.561  0.7911 -1.5057  0.4851
 6611SOL    HW231296   2.144   3.455   1.684  0.0339 -0.8564 -0.5373
 6612SOL     OW31297   1.452   3.271   7.962  0.2441  0.2513 -0.1731
 6612SOL    HW131298   1.445   3.177   7.945 -0.9557 -0.4720  4.2051
 6612SOL    HW231299   1.428   3.300   7.874 -0.1927  0.1282 -0.0953
 6613SOL     OW31300   2.205   1.410   0.211 -0.2298  0.1297  0.1537
 6613SOL    HW131301   2.260   1.482   0.181 -1.8207  0.3123 -2.2991
 6613SOL    HW231302   2.123   1.457   0.221 -0.2310  0.0006  0.7581
 6614SOL     OW31303   0.936   1.165   6.810 -0.7587  0.2902 -0.0782
 6614SOL    HW131304   0.957   1.200   6.724  0.2138 -0.9851 -0.3640
 6614SOL    HW231305   1.014   1.112   6.826 -3.0078 -1.8873  3.6908
 6615SOL     OW31306   3.403   0.206  16.281  0.9337  0.1564  0.2868
 6615SOL    HW131307   3.466   0.222  16.352  0.0006 -0.7152  1.2900
 6615SOL    HW231308   3.446   0.135  16.234  0.6016 -0.4891  0.9587
 6616SOL     OW31309   0.728   4.610   7.144  0.3317  0.1679 -0.6711
 6616SOL    HW131310   0.822   4.604   7.125  0.5726  1.4409  0.1120
 6616SOL    HW231311   0.716   4.538   7.206 -0.7564  0.7316 -0.2239
 6617SOL     OW31312   4.307   3.177   2.968 -0.6896 -0.3112 -0.4004
 6617SOL    HW131313   4.249   3.133   2.905  1.2285  0.4265 -2.6469
 6617SOL    HW231314   4.330   3.100   3.020 -0.6201 -0.8430 -1.2097
 6618SOL     OW31315   0.830   2.377  17.163 -0.1908 -0.1820  0.0538
 6618SOL    HW131316   0.914   2.412  17.191 -0.3250 -0.3925  0.7166
 6618SOL    HW231317   0.838   2.404  17.071 -1.3141  1.4596  0.4357
 6619SOL     OW31318   3.031   0.354   9.844 -0.0622  0.4321 -0.3273
 6619SOL    HW131319   3.017   0.271   9.889  0.4302  0.6159  0.1671
 6619SOL    HW231320   3.032   0.415   9.918 -0.6145  0.3711 -0.2730
 6620SOL     OW31321   2.842   3.777   5.095  0.4415  0.1878 -0.3500
 6620SOL    HW131322   2.855   3.704   5.034 -2.5649  0.4160 -1.2567
 6620SOL    HW231323   2.848   3.852   5.036  1.4337  0.0005 -0.4929
 6621SOL     OW31324   1.774   0.971  13.786  0.5398 -0.5921 -1.0266
 6621SOL    HW131325   1.739   1.021  13.712 -1.5771 -0.9410 -0.2484
 6621SOL    HW231326   1.858   0.936  13.757 -0.5126 -1.4122 -3.1754
 6622SOL     OW31327   4.443   2.540   2.851  0.5877 -0.9827 -0.1440
 6622SOL    HW131328   4.410   2.488   2.778 -1.3204 -0.3931  0.3091
 6622SOL    HW231329   4.507   2.598   2.809 -1.1636  1.6482  0.8045
 6623SOL     OW31330   3.422   0.872  13.314  0.4047 -0.3643  0.3034
 6623SOL    HW131331   3.463   0.949  13.352 -1.1475  1.0445 -0.8665
 6623SOL    HW231332   3.334   0.894  13.282 -1.3027 -0.7031  4.7842
 6624SOL     OW31333   2.771   1.299   6.380  0.1563  0.1694  0.2804
 6624SOL    HW131334   2.786   1.319   6.472 -1.5167  2.6811  0.0309
 6624SOL    HW231335   2.846   1.242   6.363 -0.3723 -0.7385  1.0232
 6625SOL     OW31336   1.145   4.634   3.954  0.9322  0.1571 -0.2811
 6625SOL    HW131337   1.196   4.655   4.032  3.0154 -2.0181 -1.0526
 6625SOL    HW231338   1.170   4.702   3.892 -0.7247  0.3856 -0.7209
 6626SOL     OW31339   2.110   0.705   2.629 -0.0565 -0.1961  0.4055
 6626SOL    HW131340   2.052   0.629   2.622  0.4042 -0.3970 -1.2628
 6626SOL    HW231341   2.154   0.697   2.545 -0.7993 -1.0212  0.0891
 6627SOL     OW31342   4.384   1.063   7.286  0.1192 -0.0886  0.4923
 6627SOL    HW131343   4.465   1.048   7.334  0.4937 -1.9365 -0.7356
 6627SOL    HW231344   4.406   1.010   7.210 -0.1355  1.1865 -0.4702
 6628SOL     OW31345   0.180   4.116   7.884  0.6561  0.0408  0.3822
 6628SOL    HW131346   0.177   4.199   7.837 -1.6130 -0.6790 -0.7439
 6628SOL    HW231347   0.258   4.083   7.839 -0.3897 -1.3327 -0.4070
 6629SOL     OW31348   0.380   2.346   9.665  0.2251 -0.6896  0.2132
 6629SOL    HW131349   0.434   2.370   9.740  2.0482  1.0212 -1.6612
 6629SOL    HW231350   0.389   2.251   9.667  0.2501 -0.6923 -0.1862
 6630SOL     OW31351   1.550   1.514   2.519 -0.0003  0.6020 -0.0076
 6630SOL    HW131352   1.558   1.523   2.424  0.3131  0.2258 -0.0164
 6630SOL    HW231353   1.457   1.535   2.512 -0.7165 -1.7147  2.5803
 6631SOL     OW31354   0.059   0.909   0.219  0.7062  0.4264  0.2950
 6631SOL    HW131355   0.096   0.851   0.285 -0.9991 -0.5241  0.4273
 6631SOL    HW231356   0.129   0.974   0.214  0.5517  0.5678 -0.0709
 6632SOL     OW31357   0.074   3.011  13.694 -0.6715  0.0274  0.2382
 6632SOL    HW131358   0.154   3.040  13.738 -1.2988  1.9806  0.0940
 6632SOL    HW231359   0.011   3.016  13.765 -1.3923 -0.7655 -0.3392
 6633SOL     OW31360   1.715   1.994   5.568 -0.4329  0.0362  0.3011
 6633SOL    HW131361   1.747   1.970   5.655  1.7505 -0.2254 -0.5881
 6633SOL    HW231362   1.766   2.074   5.555 -0.1279 -0.3356 -0.7995
 6634SOL     OW31363   1.098   3.827   1.847 -0.2649  0.4460 -0.4084
 6634SOL    HW131364   1.157   3.900   1.826  2.4969 -1.9001 -0.8049
 6634SOL    HW231365   1.026   3.884   1.875 -0.9494 -0.2093 -0.8470
 6635SOL     OW31366   2.256   0.736   1.018 -0.1796  0.1542  0.1761
 6635SOL    HW131367   2.277   0.825   1.046 -2.2363  0.2453  1.4355
 6635SOL    HW231368   2.172   0.761   0.979  1.3395  0.7865 -2.7012
 6636SOL     OW31369   3.590   2.007   3.318 -0.5104  0.2278 -0.8958
 6636SOL    HW131370   3.596   1.982   3.410 -1.2388 -1.5617 -1.3374
 6636SOL    HW231371   3.497   2.026   3.317 -0.3418  1.0446 -0.3834
 6637SOL     OW31372   3.404   2.620   6.282 -0.7031 -0.5866 -0.3503
 6637SOL    HW131373   3.331   2.670   6.318 -0.5955 -1.1391  0.6540
 6637SOL    HW231374   3.449   2.664   6.209  1.1134 -2.4776 -0.3895
 6638SOL     OW31375   2.742   0.543   7.667 -0.2088  0.2943 -0.6251
 6638SOL    HW131376   2.697   0.506   7.590 -1.0545 -0.1355  0.0776
 6638SOL    HW231377   2.802   0.470   7.683 -1.7227 -0.7063  0.5345
 6639SOL     OW31378   4.273   0.131  15.291  0.7565 -0.0856 -0.8864
 6639SOL    HW131379   4.233   0.125  15.205  0.2402 -0.9587 -0.5863
 6639SOL    HW231380   4.237   0.209  15.332  0.1199  0.2233 -2.0478
 6640SOL     OW31381   2.668   4.565   1.735 -0.2762 -0.4016 -0.0314
 6640SOL    HW131382   2.715   4.482   1.743 -0.0623 -0.1483  1.3423
 6640SOL    HW231383   2.627   4.543   1.651  2.6564 -0.6580 -1.3941
 6641SOL     OW31384   3.195   2.046  13.606  0.3549  0.0570  0.1051
 6641SOL    HW131385   3.191   2.125  13.659 -2.0329  2.3894 -3.5104
 6641SOL    HW231386   3.123   2.053  13.543  1.1315  0.9368 -0.6890
 6642SOL     OW31387   1.402   4.589  14.601 -0.7600  0.1972  0.3124
 6642SOL    HW131388   1.375   4.632  14.520 -1.3472  0.4532  0.6487
 6642SOL    HW231389   1.494   4.619  14.604 -1.1140  1.4415 -1.1613
 6643SOL     OW31390   4.582   1.860   2.139  0.1987  0.1021  0.1134
 6643SOL    HW131391   4.512   1.891   2.082  2.1621  0.4592 -2.0897
 6643SOL    HW231392   4.548   1.777   2.172  0.7528 -0.2716 -0.2601
 6644SOL     OW31393   2.824   3.190   7.287 -0.2191 -0.1773 -0.2825
 6644SOL    HW131394   2.895   3.254   7.276 -0.2844 -0.3137 -1.5008
 6644SOL    HW231395   2.762   3.231   7.227  0.0529  0.8932  0.1547
 6645SOL     OW31396   1.264   1.433   2.858  0.5249 -0.2382 -0.3306
 6645SOL    HW131397   1.283   1.432   2.952 -1.3761  1.3842  0.0717
 6645SOL    HW231398   1.207   1.356   2.852 -0.0532  0.1582 -0.0055
 6646SOL     OW31399   1.613   2.301   3.834  0.1337  0.7072 -0.0604
 6646SOL    HW131400   1.702   2.331   3.851  0.7229 -2.3649  2.3154
 6646SOL    HW231401   1.581   2.387   3.806 -1.2365 -0.2365 -1.3919
 6647SOL     OW31402   1.755   4.454   8.020 -0.1323 -0.4975 -0.3553
 6647SOL    HW131403   1.767   4.361   8.001 -1.3629 -0.4209 -1.5292
 6647SOL    HW231404   1.770   4.455   8.115  0.6434  0.9041 -0.5009
 6648SOL     OW31405   0.567   1.146  13.838  0.3597 -0.0810 -0.6117
 6648SOL    HW131406   0.643   1.185  13.882  1.1287 -0.5263 -1.5584
 6648SOL    HW231407   0.503   1.160  13.909  0.5219 -2.2531 -0.0409
 6649SOL     OW31408   2.572   0.611   2.006 -0.4560  0.0285 -0.2335
 6649SOL    HW131409   2.534   0.642   2.088  0.2633 -0.4458  0.2778
 6649SOL    HW231410   2.494   0.587   1.956 -0.2258 -0.5246 -0.3262
 6650SOL     OW31411   3.427   3.679   6.392  0.1145  0.2934 -0.5941
 6650SOL    HW131412   3.514   3.703   6.422  0.1719 -2.6486  1.6050
 6650SOL    HW231413   3.406   3.604   6.448  2.1391  0.1226 -0.0610
 6651SOL     OW31414   1.327   3.824   2.549 -0.1638 -0.4103  0.3118
 6651SOL    HW131415   1.356   3.909   2.584  0.4575 -0.4957 -0.0069
 6651SOL    HW231416   1.247   3.857   2.506 -1.4518  0.3110  3.2311
 6652SOL     OW31417   2.221   4.317  16.333  0.2144 -0.1887 -0.3251
 6652SOL    HW131418   2.180   4.404  16.333  0.2441 -0.1788 -1.6562
 6652SOL    HW231419   2.300   4.336  16.282  0.5217 -1.9404 -0.4891
 6653SOL     OW31420   0.154   0.384   5.961  0.0448  0.6507  0.1171
 6653SOL    HW131421   0.143   0.311   5.900 -2.2883  0.0946  1.2083
 6653SOL    HW231422   0.248   0.393   5.946  0.4813 -0.3669  2.1969
 6654SOL     OW31423   0.497   1.493   7.911 -0.4465 -0.2332  0.3010
 6654SOL    HW131424   0.589   1.488   7.934 -0.4747 -0.5775  0.3363
 6654SOL    HW231425   0.481   1.400   7.895  2.4122 -0.3919 -1.7480
 6655SOL     OW31426   0.477   0.515   7.155  0.2299 -0.0590 -0.3014
 6655SOL    HW131427   0.396   0.560   7.181 -0.6727 -2.6888  1.3726
 6655SOL    HW231428   0.543   0.550   7.215  0.7598 -0.6943 -0.5205
 6656SOL     OW31429   2.152   4.374   4.252  0.0850 -0.2928 -0.0449
 6656SOL    HW131430   2.185   4.445   4.197 -1.0021  0.7571  0.6495
 6656SOL    HW231431   2.237   4.341   4.281  1.2309  2.1165 -0.6973
 6657SOL     OW31432   1.522   2.117  16.446 -0.3455  0.1373 -0.2714
 6657SOL    HW131433   1.553   2.206  16.427  1.8125 -1.0442 -2.1380
 6657SOL    HW231434   1.598   2.065  16.423  0.7286  1.0118  1.2607
 6658SOL     OW31435   0.540   2.747   9.176 -0.1237  0.4033 -0.3904
 6658SOL    HW131436   0.474   2.809   9.209  0.1482  1.1461 -1.2289
 6658SOL    HW231437   0.613   2.800   9.144  0.0280  0.6067  0.2899
 6659SOL     OW31438   0.743   4.222   3.879  0.5269  0.3890 -0.2192
 6659SOL    HW131439   0.668   4.225   3.818  0.2181 -1.2087  0.0982
 6659SOL    HW231440   0.732   4.315   3.898 -0.3050  0.7148 -2.2486
 6660SOL     OW31441   3.211   3.572   8.536  0.5702 -0.6036  0.5309
 6660SOL    HW131442   3.294   3.526   8.521  0.6299 -0.3423  0.0563
 6660SOL    HW231443   3.198   3.575   8.442 -2.0419  1.5054  0.9717
 6661SOL     OW31444   2.118   2.720   8.274  0.3472  0.4779 -0.2361
 6661SOL    HW131445   2.100   2.787   8.208 -0.1323 -1.0316 -1.6315
 6661SOL    HW231446   2.197   2.767   8.300 -0.5432  2.2007 -0.5774
 6662SOL     OW31447   1.748   4.568  13.324 -0.2431 -0.2971  0.0724
 6662SOL    HW131448   1.754   4.505  13.396 -3.2166  1.0259  1.4874
 6662SOL    HW231449   1.741   4.518  13.242  1.8260 -0.8833  0.2723
 6663SOL     OW31450   1.409   4.523   1.860 -0.0945  0.0440 -0.2334
 6663SOL    HW131451   1.440   4.461   1.794  0.5295 -1.5374  1.5454
 6663SOL    HW231452   1.488   4.547   1.908 -0.7252  0.0133  0.8418
 6664SOL     OW31453   1.474   3.023  10.526  0.0554 -0.4413  0.3275
 6664SOL    HW131454   1.554   3.031  10.475  0.4248 -0.1056  0.9642
 6664SOL    HW231455   1.463   2.934  10.559  1.2740 -1.0764 -0.9793
 6665SOL     OW31456   4.686   1.661   7.198 -0.5566  0.2260 -0.1851
 6665SOL    HW131457   4.669   1.571   7.223 -0.3533  0.4678  0.8161
 6665SOL    HW231458   0.055   1.668   7.226  0.0434 -1.1208 -1.8650
 6666SOL     OW31459   2.130   1.567   6.617 -0.4444  0.3348 -0.4212
 6666SOL    HW131460   2.178   1.550   6.698 -1.4967  2.0835  0.5513
 6666SOL    HW231461   2.194   1.537   6.552  0.4824  2.0405 -0.2920
 6667SOL     OW31462   4.207   4.272  12.643 -0.4086  0.3230 -0.2202
 6667SOL    HW131463   4.256   4.317  12.574 -1.2268  0.4371 -0.7179
 6667SOL    HW231464   4.116   4.295  12.627 -0.6771 -0.4281  0.2498
 6668SOL     OW31465   0.956   0.282   3.691  0.2236 -0.2639 -0.2189
 6668SOL    HW131466   0.882   0.343   3.690  2.3327  2.3311  1.3027
 6668SOL    HW231467   1.025   0.332   3.735 -0.1388  3.0910 -3.3636
 6669SOL     OW31468   1.793   4.594   5.587 -0.2068  0.0180  0.1828
 6669SOL    HW131469   1.737   4.516   5.590 -0.1498 -0.0504 -0.7574
 6669SOL    HW231470   1.754   4.648   5.519  2.8621  3.1071  0.9005
 6670SOL     OW31471   1.631   1.809  11.564  0.4308 -0.5359 -0.1631
 6670SOL    HW131472   1.566   1.879  11.574  2.0171  0.8684  0.2822
 6670SOL    HW231473   1.587   1.743  11.618 -1.4213  1.6937  1.1061
 6671SOL     OW31474   3.097   1.788   0.281  0.3309  0.2703  0.0451
 6671SOL    HW131475   3.185   1.750   0.268  1.0981  1.6570  1.2049
 6671SOL    HW231476   3.075   1.802   0.189  3.9240  0.9671 -0.7039
 6672SOL     OW31477   4.442   0.798   6.747 -0.1831  0.3910 -0.8262
 6672SOL    HW131478   4.437   0.891   6.772 -1.4444 -0.4337  1.9563
 6672SOL    HW231479   4.383   0.804   6.672 -0.1310 -1.4476 -1.0109
 6673SOL     OW31480   0.781   3.008  10.858 -0.4250  0.4200  0.1445
 6673SOL    HW131481   0.860   3.046  10.820 -0.4494  0.3677  0.0416
 6673SOL    HW231482   0.776   2.929  10.804  3.8383 -0.2703  0.7421
 6674SOL     OW31483   3.112   0.699   8.430  0.1247  0.6762  0.1057
 6674SOL    HW131484   3.089   0.710   8.523 -0.8268 -0.0791 -0.0412
 6674SOL    HW231485   3.128   0.604   8.425  0.7509  0.7726  0.2455
 6675SOL     OW31486   1.527   0.435   1.609  0.3255  0.5885  0.1963
 6675SOL    HW131487   1.536   0.362   1.670 -0.4334  1.0802  0.8958
 6675SOL    HW231488   1.553   0.393   1.527  2.7453 -1.2804  1.9126
 6676SOL     OW31489   0.617   3.496   8.436  0.7986  1.0205 -0.3773
 6676SOL    HW131490   0.627   3.514   8.530  1.3795  0.6345 -0.3600
 6676SOL    HW231491   0.527   3.468   8.423  0.4985  0.3249  3.0963
 6677SOL     OW31492   0.879   3.918   8.354  0.2898 -0.7843  0.1892
 6677SOL    HW131493   0.855   3.953   8.439 -3.2195 -1.2106 -0.6171
 6677SOL    HW231494   0.890   3.826   8.378  1.4225 -0.5558  0.5638
 6678SOL     OW31495   3.013   3.799   0.314 -0.2527  0.7955 -0.3505
 6678SOL    HW131496   2.941   3.736   0.319 -0.6750  1.3050 -0.0265
 6678SOL    HW231497   3.063   3.785   0.395 -1.2917 -2.5764 -0.3084
 6679SOL     OW31498   2.981   1.451   1.131 -0.5481  0.4799  0.4219
 6679SOL    HW131499   2.992   1.362   1.165 -0.6045 -0.3424 -1.6930
 6679SOL    HW231500   2.938   1.423   1.050  1.0554 -0.6101 -0.0586
 6680SOL     OW31501   1.763   2.980   4.902 -0.4304 -0.2710  0.1681
 6680SOL    HW131502   1.708   2.994   4.825 -1.1456  1.2347  0.9478
 6680SOL    HW231503   1.834   3.043   4.898  0.4675 -1.1550  2.2012
 6681SOL     OW31504   2.602   2.032  13.764  0.5190  0.6294  0.2266
 6681SOL    HW131505   2.600   2.066  13.853 -2.4754 -1.1299  0.8243
 6681SOL    HW231506   2.691   1.997  13.753  2.1565  4.2465  1.9391
 6682SOL     OW31507   2.087   3.574   5.441  0.2886  0.3568  0.1064
 6682SOL    HW131508   2.082   3.478   5.442  2.5076  0.2430  0.8996
 6682SOL    HW231509   2.099   3.586   5.535  1.5300 -1.6678  0.2092
 6683SOL     OW31510   1.891   0.923   6.082 -0.6993  0.4032 -0.2954
 6683SOL    HW131511   1.950   0.856   6.117  0.6529  0.3062 -2.7598
 6683SOL    HW231512   1.855   0.882   6.003 -0.2834 -0.8558  0.1646
 6684SOL     OW31513   3.205   1.002   5.090  0.0723 -0.3855 -0.1395
 6684SOL    HW131514   3.289   0.978   5.129  1.8182  1.4524 -2.7116
 6684SOL    HW231515   3.167   0.917   5.069 -1.7051  0.0484  1.3714
 6685SOL     OW31516   2.833   3.317   6.399  0.0083  0.2633 -0.0927
 6685SOL    HW131517   2.784   3.272   6.467 -1.4384  1.9448 -0.0138
 6685SOL    HW231518   2.768   3.382   6.373  2.4039  2.7406  0.1270
 6686SOL     OW31519   2.072   4.311   5.526 -0.1674 -0.1661 -0.6319
 6686SOL    HW131520   2.009   4.272   5.586 -1.1286  3.2874  0.6091
 6686SOL    HW231521   2.157   4.307   5.570  0.0434  1.0636 -0.9344
 6687SOL     OW31522   0.211   3.926  14.112 -0.6066 -0.3012  0.5918
 6687SOL    HW131523   0.207   3.877  14.194 -0.1578  2.1506  2.0615
 6687SOL    HW231524   0.140   3.884  14.062 -0.6276  0.4725 -0.0113
 6688SOL     OW31525   2.481   0.897  16.975 -0.7351 -0.2412 -0.6123
 6688SOL    HW131526   2.414   0.871  16.912  0.1349 -3.6100 -0.1562
 6688SOL    HW231527   2.505   0.983  16.943 -0.2826  0.0096  0.3925
 6689SOL     OW31528   1.638   2.419   4.558 -0.1806 -0.2642  0.4623
 6689SOL    HW131529   1.572   2.486   4.538  1.4364  0.4339 -2.4925
 6689SOL    HW231530   1.623   2.409   4.652 -2.7095  1.7627  0.2626
 6690SOL     OW31531   4.705   1.173   1.043  0.0526 -0.1474  0.0579
 6690SOL    HW131532   4.705   1.264   1.073  2.0663 -0.0804 -0.1396
 6690SOL    HW231533   0.037   1.190   0.966 -1.2588  0.3640 -0.7570
 6691SOL     OW31534   3.041   4.586   9.881  0.0313 -0.1292 -0.0177
 6691SOL    HW131535   3.059   4.508   9.935  1.3849 -0.8945 -1.5844
 6691SOL    HW231536   3.102   4.653   9.912 -1.7145  1.1833  0.6095
 6692SOL     OW31537   3.928   0.891  16.789 -0.2819  0.2959  0.2094
 6692SOL    HW131538   3.983   0.849  16.723 -1.1586  1.3887 -1.2185
 6692SOL    HW231539   3.891   0.968  16.747 -0.3611 -1.2199 -2.4932
 6693SOL     OW31540   2.073   4.047   8.383 -0.0049  0.5435 -0.4970
 6693SOL    HW131541   2.063   4.031   8.289 -2.6324 -0.0201 -0.1319
 6693SOL    HW231542   1.988   4.088   8.397 -0.1932  0.0909 -0.3271
 6694SOL     OW31543   3.863   2.803  15.312 -1.0234 -0.2030 -0.9634
 6694SOL    HW131544   3.857   2.792  15.217 -0.6167 -0.3863 -0.9697
 6694SOL    HW231545   3.811   2.883  15.319  0.5876  0.5594  2.1609
 6695SOL     OW31546   0.138   1.861   6.286  0.4435  0.6014 -0.0342
 6695SOL    HW131547   0.180   1.945   6.269 -2.9318  2.6751  1.8425
 6695SOL    HW231548   0.132   1.821   6.199  0.9970  0.8090 -0.1669
 6696SOL     OW31549   0.535   4.453   8.347  0.3437 -0.1222  0.2858
 6696SOL    HW131550   0.577   4.403   8.277  2.1367  2.0887 -0.2174
 6696SOL    HW231551   0.546   4.387   8.416  1.4058 -0.2140  0.0355
 6697SOL     OW31552   1.603   2.567   3.041 -0.1796 -0.2939  0.7702
 6697SOL    HW131553   1.581   2.476   3.061  1.1202 -0.8302 -0.2492
 6697SOL    HW231554   1.670   2.591   3.105  0.4244  2.2202 -0.7716
 6698SOL     OW31555   2.809   3.825   0.061 -0.6172  0.2809 -0.3487
 6698SOL    HW131556   2.889   3.812   0.011 -0.0913 -0.2679  0.6363
 6698SOL    HW231557   2.824   3.759   0.128 -1.3878  2.8002  2.2988
 6699SOL     OW31558   4.667   3.449   2.930  0.6490  0.4177  0.0788
 6699SOL    HW131559   0.033   3.428   2.898 -0.0284 -0.1801 -1.3863
 6699SOL    HW231560   4.631   3.361   2.939 -0.4542  0.9379  0.7195
 6700SOL     OW31561   3.237   1.420   5.799  0.7324  0.0387  0.1352
 6700SOL    HW131562   3.159   1.365   5.795 -0.6763  1.9695  1.0818
 6700SOL    HW231563   3.267   1.395   5.886  0.1198 -0.3598  0.2323
 6701SOL     OW31564   4.217   4.001   3.661 -0.0278 -0.0776  0.3252
 6701SOL    HW131565   4.133   4.038   3.634 -0.9379 -1.1159  1.7441
 6701SOL    HW231566   4.221   4.032   3.751 -1.6942  2.8872 -0.6233
 6702SOL     OW31567   2.903   0.709   7.081 -0.0588  0.6345  0.0421
 6702SOL    HW131568   2.931   0.628   7.037 -0.7734  1.0296 -1.1384
 6702SOL    HW231569   2.917   0.697   7.174 -0.3704 -0.9339 -0.1005
 6703SOL     OW31570   4.606   2.177   0.821 -0.3747  0.2512 -0.6704
 6703SOL    HW131571   4.673   2.245   0.821 -0.9967  0.8632 -0.6949
 6703SOL    HW231572   4.556   2.198   0.899  1.2940  0.2636  0.3989
 6704SOL     OW31573   0.782   0.183   7.921  0.1946 -0.4584  0.1065
 6704SOL    HW131574   0.732   0.263   7.937  2.7122  1.2392 -0.3876
 6704SOL    HW231575   0.720   0.124   7.964 -1.0435  0.7212 -0.0661
 6705SOL     OW31576   3.883   1.091   8.974 -0.0617 -0.0784  0.6193
 6705SOL    HW131577   3.869   1.116   8.882 -1.2045 -0.2831  0.7446
 6705SOL    HW231578   3.872   0.996   8.978 -0.5056 -0.0321  0.4348
 6706SOL     OW31579   3.769   3.481  12.138 -0.2627 -0.3491 -0.2574
 6706SOL    HW131580   3.790   3.412  12.075  1.4221 -1.1597  1.1850
 6706SOL    HW231581   3.846   3.461  12.192  1.2258  1.8748 -1.5483
 6707SOL     OW31582   3.724   4.164   6.282 -0.2605 -0.4814  0.4748
 6707SOL    HW131583   3.676   4.171   6.200  0.9041  1.1045 -0.0628
 6707SOL    HW231584   3.673   4.229   6.331  1.8101  1.8904 -0.5530
 6708SOL     OW31585   1.155   4.620  10.718  0.3825  0.0049 -0.1376
 6708SOL    HW131586   1.063   4.634  10.740  1.0483  2.1569  1.2235
 6708SOL    HW231587   1.152   4.527  10.693 -2.9710  0.2322 -0.6821
 6709SOL     OW31588   2.593   3.700   8.078  0.2323 -0.7325 -0.0350
 6709SOL    HW131589   2.618   3.735   7.992  0.6217  0.6245  0.6348
 6709SOL    HW231590   2.521   3.638   8.063 -2.0863  0.8661  4.6228
 6710SOL     OW31591   1.648   4.151  15.871  0.3449 -0.4986 -1.1471
 6710SOL    HW131592   1.740   4.178  15.863  0.5556 -0.7622  0.4173
 6710SOL    HW231593   1.637   4.163  15.965 -0.4564 -0.5736 -1.2348
 6711SOL     OW31594   0.760   3.702  10.685  0.1372  0.3322  0.3101
 6711SOL    HW131595   0.735   3.765  10.753 -3.3720  0.5684 -1.1621
 6711SOL    HW231596   0.851   3.686  10.709  0.7914 -1.7707 -3.6622
 6712SOL     OW31597   1.666   3.005   2.565 -0.0821 -0.0366  0.6433
 6712SOL    HW131598   1.727   3.064   2.520 -2.6528  2.0527 -0.1779
 6712SOL    HW231599   1.709   2.920   2.560  1.1374  0.4243  3.7030
 6713SOL     OW31600   0.971   4.624   4.858  0.3263 -0.1906 -0.4043
 6713SOL    HW131601   0.898   4.663   4.810 -0.6543 -1.6959 -0.1475
 6713SOL    HW231602   1.029   4.593   4.789  1.1268 -1.0828  0.6663
 6714SOL     OW31603   3.782   2.662   1.551  0.4792  0.3118 -0.0490
 6714SOL    HW131604   3.850   2.714   1.508  1.0338 -0.1358  0.2752
 6714SOL    HW231605   3.736   2.634   1.472  1.8348  1.0008 -1.0929
 6715SOL     OW31606   2.901   0.652   9.604  0.5674 -0.4105 -0.1425
 6715SOL    HW131607   2.842   0.580   9.581  1.2027 -1.2939  1.0129
 6715SOL    HW231608   2.844   0.728   9.611 -0.2493 -0.9637 -0.7173
 6716SOL     OW31609   2.179   1.066  11.471 -0.6385 -0.2597  0.3017
 6716SOL    HW131610   2.217   1.063  11.558  2.0937 -0.7845 -0.9014
 6716SOL    HW231611   2.169   0.974  11.446 -4.0896  0.4643 -0.9741
 6717SOL     OW31612   1.439   0.572   2.227  0.1246  0.3478  0.2051
 6717SOL    HW131613   1.388   0.549   2.305  1.0749 -1.6759  0.2485
 6717SOL    HW231614   1.407   0.522   2.152  1.7636 -0.5290  0.0773
 6718SOL     OW31615   2.187   3.612   6.303 -0.1255 -0.0877  0.6995
 6718SOL    HW131616   2.197   3.583   6.213  0.9700  0.6910  0.5688
 6718SOL    HW231617   2.263   3.572   6.346  1.3762  2.7392  0.6984
 6719SOL     OW31618   0.472   3.024  10.646  0.1533 -0.0157  0.2262
 6719SOL    HW131619   0.453   3.066  10.563  0.3345 -0.9417 -0.2875
 6719SOL    HW231620   0.512   3.094  10.698  1.0003  0.0874 -0.5596
 6720SOL     OW31621   2.538   0.668   8.133 -1.1304 -1.2141  0.4455
 6720SOL    HW131622   2.543   0.751   8.181 -2.1239 -0.8942 -0.0061
 6720SOL    HW231623   2.584   0.690   8.052  1.5443  0.2812  2.3700
 6721SOL     OW31624   2.551   4.430  12.232 -0.5965 -0.0450 -0.0612
 6721SOL    HW131625   2.639   4.405  12.204  0.2418  1.2630  1.4184
 6721SOL    HW231626   2.574   4.479  12.311 -3.8930 -2.2876  2.2734
 6722SOL     OW31627   0.273   4.523   9.020  0.0278  0.0783  0.2470
 6722SOL    HW131628   0.269   4.569   8.936 -1.6530 -0.4690  0.0189
 6722SOL    HW231629   0.306   4.597   9.071 -0.9473  0.5590  0.1798
 6723SOL     OW31630   1.278   0.636  11.858 -0.3200 -0.1023 -0.6974
 6723SOL    HW131631   1.332   0.583  11.800  1.5403  0.1293  0.8085
 6723SOL    HW231632   1.277   0.714  11.803  0.9164 -0.7392 -1.6290
 6724SOL     OW31633   0.429   0.131  17.536  0.0700  0.0315 -0.2307
 6724SOL    HW131634   0.517   0.098  17.515 -0.2115 -1.1966  0.4806
 6724SOL    HW231635   0.439   0.218  17.499 -0.0391  1.4140  2.9982
 6725SOL     OW31636   1.228   3.382   6.482  0.0089 -0.5005  0.1386
 6725SOL    HW131637   1.223   3.338   6.567 -2.4518 -1.4043 -0.4805
 6725SOL    HW231638   1.317   3.412   6.462  0.4010 -0.6101  1.7098
 6726SOL     OW31639   3.200   2.035   2.429 -0.4158  0.1688  0.1211
 6726SOL    HW131640   3.171   2.007   2.342 -0.4850  0.6185  0.0002
 6726SOL    HW231641   3.226   2.124   2.403  0.5705 -0.3169 -0.5924
 6727SOL     OW31642   3.603   1.994  10.053  0.3724 -0.2543  0.3576
 6727SOL    HW131643   3.612   1.947  10.136 -1.0842 -1.9889 -0.4640
 6727SOL    HW231644   3.632   1.929   9.989  1.5082  0.7318 -0.1068
 6728SOL     OW31645   2.976   4.217  10.975  0.1463  0.3284 -0.5153
 6728SOL    HW131646   2.991   4.312  10.971 -0.6721  0.6006  2.5598
 6728SOL    HW231647   3.065   4.184  10.963  0.3414  0.4617  0.5668
 6729SOL     OW31648   1.031   1.383  14.155  0.8791  0.4711 -0.1776
 6729SOL    HW131649   1.108   1.331  14.182 -1.1340 -2.2697  0.3218
 6729SOL    HW231650   1.017   1.338  14.072  0.4815  0.8588 -0.3159
 6730SOL     OW31651   3.832   1.558   3.947 -0.0281 -0.5640 -0.4161
 6730SOL    HW131652   3.857   1.650   3.945 -1.2135 -0.2283  0.6111
 6730SOL    HW231653   3.872   1.518   4.025  1.8308  1.1775 -0.4780
 6731SOL     OW31654   1.562   4.339   2.931  0.0344  0.4832 -0.2363
 6731SOL    HW131655   1.494   4.301   2.986  0.9111  2.0609  1.9594
 6731SOL    HW231656   1.598   4.371   3.014  0.9129 -2.8257  0.6476
 6732SOL     OW31657   0.514   1.151   3.914  0.7748  0.0885 -0.3595
 6732SOL    HW131658   0.536   1.161   4.006 -3.2973 -2.8887  0.9349
 6732SOL    HW231659   0.567   1.083   3.872 -0.6967 -1.3356  0.0535
 6733SOL     OW31660   2.361   3.246   8.876  0.1753 -0.1082  0.1114
 6733SOL    HW131661   2.418   3.224   8.802  1.4379 -0.2473  1.1052
 6733SOL    HW231662   2.287   3.288   8.833  0.1819  0.2560  0.4537
 6734SOL     OW31663   4.405   4.211   7.150  0.4343  0.2698 -0.5345
 6734SOL    HW131664   4.318   4.186   7.119  1.0899 -2.4226 -0.1936
 6734SOL    HW231665   4.406   4.183   7.241  0.0352  0.1045 -0.5785
 6735SOL     OW31666   1.289   2.150   2.966  0.2742 -0.6590  0.5388
 6735SOL    HW131667   1.359   2.184   3.021 -1.0326  1.6256  0.7730
 6735SOL    HW231668   1.325   2.064   2.943  0.1311 -0.1263 -1.6355
 6736SOL     OW31669   3.275   0.239   2.437  0.3642  0.5458 -0.3892
 6736SOL    HW131670   3.281   0.335   2.434 -2.0002  0.6942  0.0253
 6736SOL    HW231671   3.347   0.218   2.377  0.2595 -1.7177  0.2904
 6737SOL     OW31672   1.936   4.481   3.248  0.3438 -0.1949  0.4556
 6737SOL    HW131673   1.954   4.446   3.161  1.2244 -1.3019  1.0792
 6737SOL    HW231674   1.996   4.433   3.305 -0.1079 -1.2609  0.0510
 6738SOL     OW31675   4.246   1.656  10.597  0.7178  0.2491  0.0640
 6738SOL    HW131676   4.304   1.676  10.671  1.2074  2.4995 -0.9375
 6738SOL    HW231677   4.269   1.723  10.532 -1.3977  3.9496  3.1047
 6739SOL     OW31678   1.886   1.093   4.667  0.3422 -0.5178 -0.3746
 6739SOL    HW131679   1.922   1.179   4.648 -1.3717 -0.5718 -3.7742
 6739SOL    HW231680   1.793   1.103   4.647 -0.4046 -0.5337  3.0385
 6740SOL     OW31681   2.220   4.108  15.171 -0.6894  0.0661  0.0252
 6740SOL    HW131682   2.165   4.038  15.135  0.6862 -0.3383 -1.3437
 6740SOL    HW231683   2.280   4.044  15.210 -1.0281  1.2551  2.4882
 6741SOL     OW31684   0.536   2.868   7.981 -0.3948  0.2033  0.1515
 6741SOL    HW131685   0.575   2.889   7.896 -0.5431 -1.1757 -0.2681
 6741SOL    HW231686   0.605   2.820   8.028  2.4398  2.2275 -1.9674
 6742SOL     OW31687   3.955   4.618   6.148 -0.4904  0.1718  0.5683
 6742SOL    HW131688   4.029   4.665   6.108  0.6873 -2.1666  0.0136
 6742SOL    HW231689   3.987   4.532   6.174 -0.9669 -0.8832 -2.3492
 6743SOL     OW31690   3.139   2.974   4.403  0.0365 -0.1838 -0.3990
 6743SOL    HW131691   3.204   2.937   4.461 -1.3523  0.5460  1.6307
 6743SOL    HW231692   3.172   2.931   4.324 -2.8522 -0.4423 -1.4828
 6744SOL     OW31693   1.218   1.160   0.527 -0.4532 -0.2056 -0.2159
 6744SOL    HW131694   1.159   1.233   0.511  0.1349  0.4004  0.3956
 6744SOL    HW231695   1.228   1.129   0.437  1.7900 -2.5534  0.8374
 6745SOL     OW31696   2.866   2.471  12.613  0.9403 -0.0035 -0.2785
 6745SOL    HW131697   2.825   2.410  12.552 -0.1869  0.2264  0.2528
 6745SOL    HW231698   2.792   2.523  12.644  1.1102 -0.3574  0.7528
 6746SOL     OW31699   1.688   2.284   8.431 -0.0849  0.0991  0.2005
 6746SOL    HW131700   1.655   2.215   8.487 -2.0450  0.2191 -0.8005
 6746SOL    HW231701   1.672   2.354   8.494 -0.7014  0.9415 -0.8726
 6747SOL     OW31702   2.300   3.748  12.783 -0.3625 -0.4702  0.1159
 6747SOL    HW131703   2.236   3.797  12.835 -0.5574  0.6892 -1.2014
 6747SOL    HW231704   2.249   3.726  12.704  1.3411  2.4627 -1.8034
 6748SOL     OW31705   3.559   0.969   4.718 -0.4934 -0.1406  0.1885
 6748SOL    HW131706   3.625   0.964   4.787 -0.2217  0.3021 -0.0337
 6748SOL    HW231707   3.613   1.034   4.673 -3.7740  0.9087 -2.2512
 6749SOL     OW31708   1.790   2.258  15.019 -0.0466 -0.3003  0.1020
 6749SOL    HW131709   1.823   2.196  15.084  0.9968  1.0884  0.9089
 6749SOL    HW231710   1.766   2.334  15.072 -1.6911 -0.4692 -0.4078
 6750SOL     OW31711   4.084   1.955  13.646  0.1037  0.4118 -0.2486
 6750SOL    HW131712   4.042   2.007  13.577 -2.2715 -1.3712 -0.1643
 6750SOL    HW231713   4.029   1.877  13.641  2.3301 -1.1699 -0.3456
 6751SOL     OW31714   3.360   3.477   6.561 -0.1693  0.1677  0.0559
 6751SOL    HW131715   3.281   3.453   6.512 -0.8463  0.2538  1.1019
 6751SOL    HW231716   3.319   3.514   6.639 -0.1802 -0.9011  0.5574
 6752SOL     OW31717   1.002   4.039   7.211  0.1717  0.1035 -0.4948
 6752SOL    HW131718   1.031   3.948   7.202  0.1974  0.0146  0.4983
 6752SOL    HW231719   1.066   4.065   7.277 -1.4474 -2.1076  1.9749
 6753SOL     OW31720   1.858   0.990   9.134 -0.4447  0.2891 -0.0143
 6753SOL    HW131721   1.859   1.049   9.059  2.3658  2.1376  1.4244
 6753SOL    HW231722   1.798   1.055   9.172  0.4496  1.7127 -1.0349
 6754SOL     OW31723   4.415   3.896   9.719  0.7009 -0.0107  0.5226
 6754SOL    HW131724   4.415   3.806   9.750  0.6911  0.6434  2.3818
 6754SOL    HW231725   4.379   3.947   9.792 -0.7905  1.6568 -1.3682
 6755SOL     OW31726   0.493   3.299  10.794  0.6532  0.3195  0.3423
 6755SOL    HW131727   0.434   3.267  10.862 -0.4449  0.0233 -0.7337
 6755SOL    HW231728   0.496   3.394  10.808 -0.2048  0.6885 -1.9932
 6756SOL     OW31729   0.955   1.035   5.808  0.2553 -0.3605 -0.2632
 6756SOL    HW131730   0.971   0.962   5.748 -2.4344 -0.8677 -0.3591
 6756SOL    HW231731   0.861   1.031   5.823  0.2388 -0.4006 -0.3756
 6757SOL     OW31732   1.497   3.922  15.293 -0.6385 -0.0685  0.4152
 6757SOL    HW131733   1.512   3.830  15.317  0.9420 -0.0151 -0.4194
 6757SOL    HW231734   1.507   3.923  15.198  1.7351 -1.3689  0.6622
 6758SOL     OW31735   4.302   2.090   9.066  0.1974  0.0134 -0.0463
 6758SOL    HW131736   4.387   2.085   9.108  0.3284  3.1486  0.0713
 6758SOL    HW231737   4.243   2.050   9.130  2.7100 -0.2541  2.1081
 6759SOL     OW31738   3.601   2.003  12.257  0.2698  0.1149  0.2458
 6759SOL    HW131739   3.506   2.005  12.270  0.0375  3.0403 -1.9431
 6759SOL    HW231740   3.599   2.079  12.199 -1.8466  0.2490  0.4702
 6760SOL     OW31741   4.255   4.219   2.963  0.0429 -0.0529 -0.3838
 6760SOL    HW131742   4.219   4.132   2.947 -0.4298 -0.0693  0.8160
 6760SOL    HW231743   4.339   4.202   2.920 -0.5796 -2.8713 -0.4993
 6761SOL     OW31744   0.761   2.171   3.452 -0.1685  0.1594  0.0626
 6761SOL    HW131745   0.715   2.112   3.393 -0.5515  0.7875 -0.2802
 6761SOL    HW231746   0.689   2.215   3.499 -2.1086 -3.0396  0.0703
 6762SOL     OW31747   4.586   0.465   8.506 -0.1041  0.0579  0.1260
 6762SOL    HW131748   4.544   0.551   8.506 -2.3835 -1.0589  1.8897
 6762SOL    HW231749   4.626   0.462   8.594  1.4456  0.9427 -0.5475
 6763SOL     OW31750   3.051   4.127   7.942  0.5481  0.0180 -0.2585
 6763SOL    HW131751   3.112   4.054   7.933 -0.8081 -1.2070  0.5245
 6763SOL    HW231752   3.001   4.095   8.018 -0.0423 -1.6122 -1.3426
 6764SOL     OW31753   3.934   2.946   4.667 -0.2140  0.1571 -0.5006
 6764SOL    HW131754   4.005   3.007   4.646  0.3775 -0.8517 -1.4583
 6764SOL    HW231755   3.865   3.000   4.629 -0.5876  0.8451  1.1601
 6765SOL     OW31756   2.777   3.351   0.929  0.1506  0.0535 -0.1912
 6765SOL    HW131757   2.858   3.321   0.887  0.1157  0.9101 -0.8721
 6765SOL    HW231758   2.724   3.276   0.955  0.0407  0.1480 -0.1435
 6766SOL     OW31759   1.463   1.024   9.140 -0.2003  0.2644  0.6079
 6766SOL    HW131760   1.514   0.944   9.127  0.4360  0.5106  1.5554
 6766SOL    HW231761   1.379   0.994   9.175 -0.3513 -0.2362 -0.1752
 6767SOL     OW31762   4.066   4.276   3.999  0.0391 -0.4329  0.3406
 6767SOL    HW131763   4.095   4.364   3.975  0.4988 -0.0985  2.1310
 6767SOL    HW231764   4.020   4.266   3.916 -0.0080  2.2690  0.0517
 6768SOL     OW31765   4.572   2.660   9.102  0.5454 -0.7061 -0.1679
 6768SOL    HW131766   4.591   2.685   9.193  1.1413 -0.8634 -0.2489
 6768SOL    HW231767   4.654   2.699   9.071  2.3416 -2.3105  2.5476
 6769SOL     OW31768   3.040   1.070   7.694  0.4050 -0.0830 -0.1099
 6769SOL    HW131769   3.050   1.165   7.701  1.6557 -0.2673  0.5731
 6769SOL    HW231770   3.098   1.036   7.762 -1.7297 -1.0975  1.2144
 6770SOL     OW31771   2.656   3.758   7.729  0.3328 -0.5870 -0.1457
 6770SOL    HW131772   2.635   3.851   7.716 -1.0148 -0.7662  0.6675
 6770SOL    HW231773   2.567   3.726   7.712 -0.5936  1.7815  0.1371
 6771SOL     OW31774   3.808   4.110   3.326  0.2999  0.9650  0.1801
 6771SOL    HW131775   3.750   4.175   3.366  0.6940  2.2732 -1.3586
 6771SOL    HW231776   3.759   4.028   3.331  0.7791  0.6426 -0.3781
 6772SOL     OW31777   3.327   3.859   4.264 -0.2924 -0.4195 -0.1899
 6772SOL    HW131778   3.295   3.888   4.349  3.5181  1.5228  0.5735
 6772SOL    HW231779   3.275   3.779   4.263  1.3619 -1.4844  1.6099
 6773SOL     OW31780   3.361   3.329   1.259  0.3503 -0.0279  0.1338
 6773SOL    HW131781   3.350   3.249   1.209  1.4835 -0.8498  1.2067
 6773SOL    HW231782   3.331   3.388   1.189  1.0599  0.9149  0.6345
 6774SOL     OW31783   2.478   4.543  16.440 -0.2165 -0.5051  0.3225
 6774SOL    HW131784   2.449   4.506  16.524 -1.4513  1.6277  0.8603
 6774SOL    HW231785   2.389   4.567  16.413  0.2944 -1.6554 -2.2916
 6775SOL     OW31786   1.491   0.799   2.598  0.0807  0.0007 -0.2499
 6775SOL    HW131787   1.437   0.878   2.593  0.5184  0.3922  1.3370
 6775SOL    HW231788   1.497   0.787   2.503  1.3079 -0.0270 -0.1590
 6776SOL     OW31789   0.358   2.279   4.724  0.2608  0.0162  0.4541
 6776SOL    HW131790   0.288   2.300   4.785 -0.0989  2.9347 -0.9382
 6776SOL    HW231791   0.371   2.185   4.732  2.9508  0.2018 -1.7328
 6777SOL     OW31792   3.705   4.120   0.554 -0.5113  0.3252  0.5355
 6777SOL    HW131793   3.648   4.196   0.570 -0.3135  1.0892 -2.4421
 6777SOL    HW231794   3.792   4.145   0.585 -0.8255  0.3202  1.4340
 6778SOL     OW31795   3.581   4.043  13.508  0.8248 -0.1672  0.3342
 6778SOL    HW131796   3.496   3.998  13.510  0.6836  0.1589  1.9722
 6778SOL    HW231797   3.556   4.133  13.489 -1.6818 -0.2848  3.0172
 6779SOL     OW31798   3.998   4.387   6.766 -0.0085  0.8452  0.5672
 6779SOL    HW131799   3.998   4.482   6.755  1.5763  1.0880  2.8525
 6779SOL    HW231800   3.956   4.378   6.851 -1.7388  1.4189 -0.2111
 6780SOL     OW31801   2.259   4.652   7.566 -0.1726  0.3966  0.3774
 6780SOL    HW131802   2.344   4.622   7.536 -0.6921 -0.5866 -0.0985
 6780SOL    HW231803   2.269   0.025   7.564  1.1959  0.2233 -0.6800
 6781SOL     OW31804   2.118   0.984   7.769  0.1257  0.1316  0.1549
 6781SOL    HW131805   2.158   1.013   7.851  0.2741  1.2867 -0.3261
 6781SOL    HW231806   2.032   1.003   7.806 -0.3249  1.0380 -1.3822
 6782SOL     OW31807   4.721   0.620   9.948 -0.4386 -0.1381 -0.2284
 6782SOL    HW131808   0.070   0.645  10.007 -0.0857  0.7716 -1.0625
 6782SOL    HW231809   4.668   0.697   9.931 -0.5636 -0.1199  0.2339
 6783SOL     OW31810   2.907   3.087   1.832  0.2933  0.1709  0.5991
 6783SOL    HW131811   2.938   3.045   1.912  0.9488  0.7005  0.6284
 6783SOL    HW231812   2.932   3.178   1.851  1.2674 -0.1917  1.0756
 6784SOL     OW31813   4.447   1.215   4.662  0.0954  0.3516  0.1016
 6784SOL    HW131814   4.540   1.222   4.683 -0.7200  0.2890  3.7828
 6784SOL    HW231815   4.423   1.176   4.747  1.5701 -0.2740  0.2312
 6785SOL     OW31816   1.424   3.056   7.204  0.0388 -0.3562 -0.4808
 6785SOL    HW131817   1.348   3.012   7.242 -0.2030  0.5700  0.1259
 6785SOL    HW231818   1.406   3.075   7.112  1.3644 -0.2745 -0.7251
 6786SOL     OW31819   4.299   2.845   9.093  0.2709  0.2159 -0.4732
 6786SOL    HW131820   4.380   2.817   9.135  1.1374  0.9207 -1.6807
 6786SOL    HW231821   4.238   2.772   9.099  1.2584 -0.4383  1.4111
 6787SOL     OW31822   0.552   2.904  16.256 -0.1972 -0.5131  0.4215
 6787SOL    HW131823   0.580   2.977  16.312 -2.5981  0.6320  0.1502
 6787SOL    HW231824   0.487   2.948  16.201 -0.3914 -0.6546  0.5362
 6788SOL     OW31825   3.021   1.660   7.218  0.1912 -0.3518 -0.0452
 6788SOL    HW131826   2.962   1.589   7.193 -0.2478 -0.0565  0.1450
 6788SOL    HW231827   3.040   1.685   7.128  0.0870 -1.7311 -0.4491
 6789SOL     OW31828   1.675   1.645   0.950  0.4246 -0.1353 -0.3599
 6789SOL    HW131829   1.630   1.575   0.902 -0.0159  0.1457 -0.3606
 6789SOL    HW231830   1.638   1.639   1.038  1.2863  0.6830  0.0609
 6790SOL     OW31831   0.256   4.585   3.163  0.1837 -0.4169 -0.3295
 6790SOL    HW131832   0.270   4.535   3.083 -0.3014  1.1141 -1.3696
 6790SOL    HW231833   0.168   4.562   3.192  0.4266  0.9300  1.5091
 6791SOL     OW31834   2.169   3.471  14.894  0.2780  0.3691 -0.4023
 6791SOL    HW131835   2.197   3.541  14.834 -1.0845  0.1788 -1.2650
 6791SOL    HW231836   2.102   3.527  14.932  1.7905 -0.4906  3.4462
 6792SOL     OW31837   1.842   1.643   0.457  0.4480  0.6528 -0.0282
 6792SOL    HW131838   1.884   1.705   0.516 -1.1453  1.6109  0.1149
 6792SOL    HW231839   1.772   1.701   0.426  0.6429 -0.4237 -2.5326
 6793SOL     OW31840   1.735   0.383   6.910 -0.5078  0.4561 -0.6672
 6793SOL    HW131841   1.823   0.381   6.947 -0.4018  1.1916 -0.8874
 6793SOL    HW231842   1.695   0.433   6.981  2.2815  2.1464 -0.2936
 6794SOL     OW31843   0.304   4.360  14.926 -0.0964 -0.2455  0.2137
 6794SOL    HW131844   0.355   4.331  15.001  0.5408 -0.5145 -0.3197
 6794SOL    HW231845   0.352   4.436  14.893  1.5168 -1.1503  0.5090
 6795SOL     OW31846   4.497   1.377   3.234  0.0087 -0.3051 -0.1857
 6795SOL    HW131847   4.566   1.353   3.296 -1.2519 -1.8807  0.6251
 6795SOL    HW231848   4.442   1.302   3.259  0.8319 -0.4372  1.2559
 6796SOL     OW31849   3.504   2.150  13.295 -0.2482  0.4112 -0.3681
 6796SOL    HW131850   3.498   2.077  13.357  2.0370 -0.7016 -1.4503
 6796SOL    HW231851   3.413   2.179  13.295 -1.1560 -2.3063 -3.9014
 6797SOL     OW31852   4.084   0.978   7.265 -0.0768  0.0866 -0.3195
 6797SOL    HW131853   4.178   0.958   7.270 -0.0603  0.3532  0.4255
 6797SOL    HW231854   4.047   0.893   7.287 -1.9989  1.1079  0.3604
 6798SOL     OW31855   1.980   3.872   8.610  0.0229 -0.0410 -0.6476
 6798SOL    HW131856   2.066   3.835   8.630 -0.7070 -1.5880 -0.3551
 6798SOL    HW231857   2.002   3.935   8.541 -1.0800 -0.6396 -1.5421
 6799SOL     OW31858   2.898   1.738  17.395  0.3651  0.0234 -0.4585
 6799SOL    HW131859   2.910   1.801  17.324  0.5150 -2.8416 -2.9641
 6799SOL    HW231860   2.977   1.758  17.444  0.5903  1.8899 -1.5854
 6800SOL     OW31861   3.274   2.617   2.392 -0.3249 -0.0536  0.4150
 6800SOL    HW131862   3.336   2.566   2.445 -0.0822 -0.0159  0.1672
 6800SOL    HW231863   3.294   2.594   2.301  1.4928  0.4305  0.6914
 6801SOL     OW31864   4.698   0.748   6.420  0.4282  0.1763 -0.9525
 6801SOL    HW131865   4.709   0.816   6.353 -2.2923  0.6384 -0.9253
 6801SOL    HW231866   4.678   0.670   6.369  0.7367  0.0653 -0.9018
 6802SOL     OW31867   0.385   0.522   5.162  0.7264  0.7317 -0.0439
 6802SOL    HW131868   0.469   0.566   5.156  0.9660  0.4131  0.9772
 6802SOL    HW231869   0.385   0.501   5.256 -0.3912 -0.6508 -0.3469
 6803SOL     OW31870   1.717   2.835   4.068  0.0678  0.7053  0.6541
 6803SOL    HW131871   1.688   2.926   4.063 -2.5415 -0.0746  1.2730
 6803SOL    HW231872   1.799   2.831   4.117  0.3609 -1.2063  0.0008
 6804SOL     OW31873   0.977   4.357  11.646 -0.4563 -0.0296 -0.2922
 6804SOL    HW131874   0.917   4.285  11.667  0.8542 -0.4045  2.1389
 6804SOL    HW231875   0.951   4.423  11.711 -0.0058 -0.7806  0.6539
 6805SOL     OW31876   3.450   4.168   4.064 -0.0846 -0.1699 -0.5166
 6805SOL    HW131877   3.423   4.187   4.153 -0.0481 -0.0557 -0.5303
 6805SOL    HW231878   3.544   4.158   4.082 -0.0046 -0.0236 -0.8526
 6806SOL     OW31879   2.986   1.051   1.888  0.7494 -0.0574  0.5582
 6806SOL    HW131880   2.975   1.001   1.807  1.1385  0.6274  0.0875
 6806SOL    HW231881   3.000   0.986   1.957  0.2740  0.1902  0.8912
 6807SOL     OW31882   2.989   1.112   3.802  0.2930  0.4662 -0.5193
 6807SOL    HW131883   3.059   1.167   3.836  0.5066 -0.2928  0.2831
 6807SOL    HW231884   3.028   1.025   3.812 -1.8705 -0.5387 -0.7934
 6808SOL     OW31885   0.716   0.504   2.279 -0.0029  0.2603  0.1387
 6808SOL    HW131886   0.674   0.419   2.293  1.9060 -0.8197 -0.7790
 6808SOL    HW231887   0.644   0.567   2.279 -0.3771 -0.1589  1.7704
 6809SOL     OW31888   2.317   2.459  15.754  0.1186  0.2663 -0.3460
 6809SOL    HW131889   2.369   2.397  15.805 -1.4670 -0.5430  0.3093
 6809SOL    HW231890   2.387   2.500  15.704  1.9765 -1.8102  0.5301
 6810SOL     OW31891   1.200   4.615   3.642  0.2429  0.1557  0.7140
 6810SOL    HW131892   1.283   4.652   3.672  0.7190  0.5861 -1.1287
 6810SOL    HW231893   1.214   4.525   3.671 -0.7777 -0.1315  0.2866
 6811SOL     OW31894   0.323   0.134   6.604  0.2360 -0.1165  0.2712
 6811SOL    HW131895   0.345   0.054   6.555  1.9847 -0.8102  2.1817
 6811SOL    HW231896   0.352   0.092   6.685 -0.8989  0.3185  0.9038
 6812SOL     OW31897   2.077   0.799   4.297  0.4049  0.5902 -0.5641
 6812SOL    HW131898   2.111   0.874   4.248 -1.8928  0.8173 -1.8298
 6812SOL    HW231899   2.040   0.746   4.226 -1.0479  0.1327  0.5358
 6813SOL     OW31900   4.593   2.289   7.875 -0.2148  0.1425  0.0292
 6813SOL    HW131901   4.531   2.359   7.855 -2.8320 -2.2112 -0.0256
 6813SOL    HW231902   4.672   2.309   7.824 -0.3957 -3.2311 -1.5877
 6814SOL     OW31903   2.162   4.336   2.515  0.2980  0.2552  0.0452
 6814SOL    HW131904   2.181   4.417   2.563 -1.0869  0.2582  0.5958
 6814SOL    HW231905   2.249   4.325   2.477  0.2498 -0.7625  0.2382
 6815SOL     OW31906   3.462   3.873   1.988 -0.5988  0.5703 -0.3420
 6815SOL    HW131907   3.446   3.779   1.973  1.8822  0.1009 -0.1243
 6815SOL    HW231908   3.482   3.865   2.081 -1.8095  1.3540 -0.0292
 6816SOL     OW31909   4.068   3.428   2.638  0.4500  0.0760  0.0413
 6816SOL    HW131910   4.006   3.498   2.616  0.4921 -0.0240 -0.4060
 6816SOL    HW231911   4.151   3.475   2.627  0.2011  0.2979 -0.8839
 6817SOL     OW31912   4.223   3.778   6.603 -0.1868  0.1807  0.3815
 6817SOL    HW131913   4.218   3.775   6.508 -1.6091 -1.3549  0.5038
 6817SOL    HW231914   4.133   3.754   6.627 -0.2836  0.9899  0.8401
 6818SOL     OW31915   3.169   4.558   8.360  0.1043  0.7575  0.0373
 6818SOL    HW131916   3.214   4.474   8.349  0.9331  1.1120  0.7655
 6818SOL    HW231917   3.128   4.541   8.445 -1.0898  1.3454 -0.4219
 6819SOL     OW31918   2.112   2.248   2.827 -0.1025 -0.4574 -0.3228
 6819SOL    HW131919   2.164   2.272   2.750  0.5472  3.4481  1.3797
 6819SOL    HW231920   2.148   2.160   2.841 -0.4173 -0.0386  2.8849
 6820SOL     OW31921   2.256   3.167   6.378 -0.3526  0.0140 -0.0227
 6820SOL    HW131922   2.259   3.124   6.293 -1.2851  1.5027 -0.8047
 6820SOL    HW231923   2.167   3.201   6.385 -0.4324 -0.6372  2.1830
 6821SOL     OW31924   0.223   2.319  13.509  0.1686 -0.0683  0.2837
 6821SOL    HW131925   0.163   2.359  13.446  1.0181  0.3858 -0.2322
 6821SOL    HW231926   0.280   2.279  13.445  0.7461 -0.2804  0.9356
 6822SOL     OW31927   4.219   1.442   3.166 -0.4400 -0.4219  0.7135
 6822SOL    HW131928   4.265   1.396   3.096  0.2184  3.0938 -1.1155
 6822SOL    HW231929   4.146   1.381   3.180 -1.6478  0.5606 -1.4041
 6823SOL     OW31930   0.394   3.523   3.076 -0.2872 -0.0123 -0.0068
 6823SOL    HW131931   0.441   3.459   3.129 -0.5968 -0.4227 -0.2302
 6823SOL    HW231932   0.353   3.467   3.011  0.2676  0.7454 -1.0040
 6824SOL     OW31933   3.651   1.760   4.389  0.2551 -0.0399  0.0585
 6824SOL    HW131934   3.568   1.758   4.437 -0.4687 -2.8377 -1.3068
 6824SOL    HW231935   3.636   1.678   4.340 -0.5386 -1.2368  2.3127
 6825SOL     OW31936   2.059   2.079   4.843 -0.7455  0.4615 -0.9912
 6825SOL    HW131937   2.066   2.169   4.812  0.6646  0.4906 -0.5923
 6825SOL    HW231938   2.146   2.053   4.813 -1.5566 -1.6215 -1.5162
 6826SOL     OW31939   4.322   3.771   4.058  0.1669  0.7994 -0.0161
 6826SOL    HW131940   4.308   3.773   3.963  0.5110  3.0125 -0.0339
 6826SOL    HW231941   4.265   3.846   4.075 -2.0698 -0.4619 -1.8856
 6827SOL     OW31942   4.175   0.600   9.321 -0.0226  0.5200 -0.3054
 6827SOL    HW131943   4.224   0.657   9.380 -0.7618 -0.7340  1.5097
 6827SOL    HW231944   4.232   0.597   9.244  0.2165  0.3091 -0.1178
 6828SOL     OW31945   2.441   2.934   0.723 -0.3570 -0.6909  0.0561
 6828SOL    HW131946   2.486   2.884   0.792  1.5687 -0.3209 -0.9230
 6828SOL    HW231947   2.431   2.866   0.656 -1.8531  0.2455 -0.6489
 6829SOL     OW31948   3.779   3.650   7.209 -0.2875  0.0257 -0.0495
 6829SOL    HW131949   3.686   3.672   7.221 -0.1175  0.4768  0.3874
 6829SOL    HW231950   3.765   3.577   7.148  1.0996 -0.4334  0.1920
 6830SOL     OW31951   1.116   4.270  14.443 -0.6366  0.4724  1.1321
 6830SOL    HW131952   1.104   4.361  14.472 -3.6149  0.4607 -0.0223
 6830SOL    HW231953   1.135   4.224  14.524  1.5554 -2.0109 -0.7876
 6831SOL     OW31954   3.466   3.512   4.109 -0.5354 -0.3317  0.1867
 6831SOL    HW131955   3.380   3.532   4.145 -0.9244  2.5037 -2.2903
 6831SOL    HW231956   3.449   3.542   4.020 -2.9278  1.4631  1.2788
 6832SOL     OW31957   3.388   3.484  15.958  0.3088 -0.6231  0.3333
 6832SOL    HW131958   3.447   3.543  15.911 -1.0334  2.3832  2.4071
 6832SOL    HW231959   3.302   3.518  15.934  0.2736 -3.0595 -3.1720
 6833SOL     OW31960   1.147   3.518  10.595 -0.0082  0.1838 -0.1539
 6833SOL    HW131961   1.222   3.539  10.539  0.2902  0.6223  0.4050
 6833SOL    HW231962   1.105   3.466  10.526 -1.9728 -0.6387  1.6741
 6834SOL     OW31963   1.831   2.000   2.018 -0.0581 -0.0120  0.3227
 6834SOL    HW131964   1.774   2.020   2.091 -0.5776 -0.4042  0.0215
 6834SOL    HW231965   1.847   1.907   2.035  0.1780  0.0116  0.2301
 6835SOL     OW31966   4.248   1.696   8.141  0.0126  0.1355  0.1550
 6835SOL    HW131967   4.293   1.777   8.165 -0.0373  0.4115 -0.6863
 6835SOL    HW231968   4.297   1.627   8.185 -2.0380  1.1670  4.0822
 6836SOL     OW31969   2.412   0.995   4.725  0.0687  0.9328 -0.3345
 6836SOL    HW131970   2.416   1.044   4.642 -0.4702  1.7498  0.1260
 6836SOL    HW231971   2.345   1.046   4.771  0.7018  1.3626  0.1169
 6837SOL     OW31972   3.724   0.219  12.827  0.6643 -0.6635 -0.5386
 6837SOL    HW131973   3.712   0.198  12.734 -0.5863 -1.2511 -0.2493
 6837SOL    HW231974   3.809   0.262  12.826  0.1828  0.2945 -0.7136
 6838SOL     OW31975   3.533   0.765   4.504 -0.1220  0.0435  0.3187
 6838SOL    HW131976   3.490   0.680   4.511 -0.9203  0.2596 -1.8649
 6838SOL    HW231977   3.517   0.801   4.591 -0.2084 -0.0622  0.3449
 6839SOL     OW31978   0.919   3.599   0.992  0.1065 -0.1431 -0.8410
 6839SOL    HW131979   0.947   3.550   0.915 -0.1440 -0.0054 -1.0179
 6839SOL    HW231980   0.830   3.567   1.001  0.1136  1.0855  3.4626
 6840SOL     OW31981   2.304   1.999   8.767  0.4534 -0.2934  0.0990
 6840SOL    HW131982   2.252   2.067   8.725  2.5628 -0.5979 -3.0318
 6840SOL    HW231983   2.346   1.961   8.690 -0.9342 -1.5740 -0.0283
 6841SOL     OW31984   0.151   4.689   1.462 -0.4319 -0.0768 -0.4340
 6841SOL    HW131985   0.084   4.716   1.399 -1.3240 -0.6806  0.2459
 6841SOL    HW231986   0.233   0.006   1.431  0.1456 -0.1771  0.9569
 6842SOL     OW31987   4.522   4.028   4.393  0.6087 -0.0460 -0.7553
 6842SOL    HW131988   4.556   4.015   4.305  1.1049 -0.4580 -0.5035
 6842SOL    HW231989   4.527   4.122   4.412 -1.2461  0.5776 -3.2914
 6843SOL     OW31990   3.272   4.696   2.553  0.7170  0.0277  0.0510
 6843SOL    HW131991   3.234   0.061   2.554  2.7295  0.9183  0.6128
 6843SOL    HW231992   3.339   4.709   2.486  0.4521  0.9064 -0.0359
 6844SOL     OW31993   0.092   3.131   8.614  0.4856 -0.0247  0.0941
 6844SOL    HW131994   4.719   3.130   8.611  0.5422 -3.2570 -0.5920
 6844SOL    HW231995   0.101   3.225   8.632 -1.2801  0.4969 -1.7721
 6845SOL     OW31996   4.590   4.282   7.474  0.3039  0.6190  1.0060
 6845SOL    HW131997   4.600   4.265   7.567  1.5287  0.8345  0.9069
 6845SOL    HW231998   4.592   4.377   7.475  0.9128  0.6157 -0.0862
 6846SOL     OW31999   0.941   1.793   3.479  0.7965 -0.4044 -0.3247
 6846SOL    HW132000   0.916   1.793   3.387  0.2744  1.6061 -0.1878
 6846SOL    HW232001   1.022   1.743   3.474 -1.1467 -3.6697  1.0161
 6847SOL     OW32002   0.574   1.044   4.833  0.6641  0.2157 -0.3117
 6847SOL    HW132003   0.557   1.074   4.922 -0.5413  0.1739 -0.5258
 6847SOL    HW232004   0.554   0.951   4.834 -2.7929  0.9851 -0.2405
 6848SOL     OW32005   0.864   1.295  13.423  0.5705  0.5243  0.5412
 6848SOL    HW132006   0.911   1.302  13.506  0.2877 -1.0452  0.8508
 6848SOL    HW232007   0.932   1.306  13.357 -1.7996 -0.7150 -2.1275
 6849SOL     OW32008   1.909   0.981   1.626  0.0107 -0.9980 -0.4580
 6849SOL    HW132009   1.925   0.967   1.533  1.4359  0.5502 -0.4283
 6849SOL    HW232010   1.826   1.027   1.615 -0.1433 -1.6897 -2.1614
 6850SOL     OW32011   3.749   0.817   7.839 -0.0346 -0.0980  0.0442
 6850SOL    HW132012   3.761   0.729   7.804 -2.1936 -0.1514 -0.5257
 6850SOL    HW232013   3.699   0.862   7.771  0.5759  1.5699  0.6716
 6851SOL     OW32014   3.361   0.929   8.483  0.0178 -0.0180  0.2197
 6851SOL    HW132015   3.410   0.911   8.403 -3.5728 -3.6669 -1.1877
 6851SOL    HW232016   3.379   0.846   8.527  0.8981  0.2339  0.3371
 6852SOL     OW32017   4.232   4.594  17.536  0.2732 -0.2143 -0.1750
 6852SOL    HW132018   4.257   4.536  17.608  0.6599 -0.4851 -0.5306
 6852SOL    HW232019   4.316   4.632  17.512  0.4161 -0.3004  0.1888
 6853SOL     OW32020   3.511   4.133   7.848  0.2968 -0.1577 -0.6860
 6853SOL    HW132021   3.536   4.050   7.889  3.7391  0.9742 -0.4436
 6853SOL    HW232022   3.506   4.104   7.758 -1.1745 -0.4551 -0.5012
 6854SOL     OW32023   3.282   3.259   8.653  0.4885 -0.4032  0.6772
 6854SOL    HW132024   3.340   3.277   8.579  0.3070  0.6047  0.7914
 6854SOL    HW232025   3.196   3.262   8.611  0.4685  0.6862  0.7996
 6855SOL     OW32026   1.639   2.541   3.549 -0.3365 -0.0479 -0.2893
 6855SOL    HW132027   1.615   2.634   3.542 -3.8591 -1.0775 -1.9848
 6855SOL    HW232028   1.698   2.548   3.624  2.0557  0.1731 -2.2078
 6856SOL     OW32029   1.028   1.916  12.206  0.0017 -0.4330 -0.2147
 6856SOL    HW132030   0.932   1.917  12.198  0.0818  2.8861 -1.0260
 6856SOL    HW232031   1.051   1.828  12.178  2.0581  0.1389 -0.3287
 6857SOL     OW32032   3.962   1.361   6.325  0.2375 -0.1594  0.8904
 6857SOL    HW132033   4.031   1.424   6.303 -0.8554  0.9586  0.6385
 6857SOL    HW232034   3.919   1.413   6.393 -1.0264 -0.6011  0.4207
 6858SOL     OW32035   2.231   0.180  10.136 -0.6287 -0.1846  0.3936
 6858SOL    HW132036   2.165   0.177  10.067 -0.5949 -0.9512  0.3928
 6858SOL    HW232037   2.226   0.092  10.174  1.5480  0.1246  1.3869
 6859SOL     OW32038   3.244   1.110   1.311  0.4671 -0.5840  0.1491
 6859SOL    HW132039   3.279   1.188   1.354 -0.7268  1.0261 -1.7676
 6859SOL    HW232040   3.327   1.063   1.300  1.3484  1.5607 -2.4162
 6860SOL     OW32041   3.070   4.181  11.536  0.3575  0.1354 -0.5435
 6860SOL    HW132042   3.032   4.130  11.465  0.2371  0.7739 -0.9316
 6860SOL    HW232043   3.043   4.271  11.519 -2.3596 -0.5785 -0.0273
 6861SOL     OW32044   0.161   2.993  14.107  0.0429  0.2734  0.3930
 6861SOL    HW132045   0.109   2.916  14.084 -0.8287  0.8223  0.5446
 6861SOL    HW232046   0.149   2.997  14.202 -1.0996 -2.8772  0.3792
 6862SOL     OW32047   3.228   1.857   6.593 -0.4779 -0.4721 -0.5165
 6862SOL    HW132048   3.179   1.936   6.617  0.6015 -0.2535  0.9583
 6862SOL    HW232049   3.201   1.793   6.659 -2.0088 -0.6930 -1.3546
 6863SOL     OW32050   2.159   3.727   1.718  0.1188  0.0334 -0.4512
 6863SOL    HW132051   2.170   3.645   1.669 -1.2712  0.3728 -1.3155
 6863SOL    HW232052   2.230   3.780   1.680 -0.8365  0.9626 -0.9112
 6864SOL     OW32053   0.354   1.685  16.157 -0.0618 -0.2575 -0.0244
 6864SOL    HW132054   0.440   1.695  16.196 -0.4839  0.1096  0.8027
 6864SOL    HW232055   0.363   1.752  16.089 -1.4750 -1.3057 -1.2498
 6865SOL     OW32056   1.764   0.442  14.904  0.4550  0.6765  0.2907
 6865SOL    HW132057   1.817   0.365  14.882 -1.2326 -0.5328  0.4752
 6865SOL    HW232058   1.702   0.405  14.967  0.4612  0.6302  0.2695
 6866SOL     OW32059   3.501   4.550   4.236 -0.3997 -0.1831 -0.1625
 6866SOL    HW132060   3.553   4.629   4.222 -0.6350  0.0489  0.2811
 6866SOL    HW232061   3.456   4.591   4.310  2.7820  2.5296  0.2492
 6867SOL     OW32062   0.910   2.552   0.863  0.0126  0.0095  0.0400
 6867SOL    HW132063   0.828   2.594   0.889 -0.8908 -1.4195 -0.5059
 6867SOL    HW232064   0.973   2.598   0.919 -0.5826  0.1588  0.5827
 6868SOL     OW32065   3.874   2.553   9.057  0.0797 -0.8211  0.1436
 6868SOL    HW132066   3.959   2.514   9.077  1.0804  1.7946  0.9141
 6868SOL    HW232067   3.816   2.502   9.114 -1.4819  0.6487 -0.1252
 6869SOL     OW32068   0.848   1.526   8.195  0.2318  0.2771 -0.1473
 6869SOL    HW132069   0.827   1.602   8.248  1.5228 -0.2282  1.1105
 6869SOL    HW232070   0.938   1.555   8.177  0.3225 -0.1540 -0.4106
 6870SOL     OW32071   3.421   2.317   6.835  0.2996  0.1323  0.2046
 6870SOL    HW132072   3.479   2.246   6.862  0.6917  0.1896 -0.5053
 6870SOL    HW232073   3.337   2.271   6.830  0.5572  0.3514 -5.5582
 6871SOL     OW32074   1.802   4.151   8.485  0.1752 -0.2514  0.1740
 6871SOL    HW132075   1.772   4.102   8.562 -0.5485 -0.3061 -0.1431
 6871SOL    HW232076   1.814   4.241   8.515  2.0949  0.0240 -1.4375
 6872SOL     OW32077   4.276   2.476   0.269  0.3627  0.7093 -0.2340
 6872SOL    HW132078   4.183   2.497   0.269 -0.0262 -0.9591  0.5109
 6872SOL    HW232079   4.280   2.411   0.199  1.5049  0.7032 -0.1764
 6873SOL     OW32080   3.787   3.062   2.114 -0.0017  0.1348  0.3477
 6873SOL    HW132081   3.698   3.049   2.079 -1.1548  2.2396  2.4832
 6873SOL    HW232082   3.790   3.014   2.197  0.7725 -1.1892 -0.4614
 6874SOL     OW32083   1.463   4.195  16.308 -0.3124 -0.2943 -0.7640
 6874SOL    HW132084   1.527   4.233  16.248  0.4899 -1.2311 -0.5152
 6874SOL    HW232085   1.479   4.100  16.309  0.8167 -0.0731  1.2491
 6875SOL     OW32086   0.096   2.397  13.281 -0.1194 -0.1102 -0.3119
 6875SOL    HW132087   0.003   2.400  13.259 -0.2751 -0.9051  0.2248
 6875SOL    HW232088   0.128   2.344  13.208 -1.0911 -0.5202 -0.4378
 6876SOL     OW32089   0.649   4.682   7.660 -0.4359 -0.4265  0.1693
 6876SOL    HW132090   0.654   4.702   7.567  0.3491  1.7302  0.6665
 6876SOL    HW232091   0.742   4.678   7.684 -0.6889  1.4583  1.4723
 6877SOL     OW32092   2.168   3.063   8.627 -0.0041  0.1456  0.6691
 6877SOL    HW132093   2.164   3.102   8.540  1.2665  1.4002  1.1723
 6877SOL    HW232094   2.213   2.979   8.613 -2.5808 -1.2695  0.9161
 6878SOL     OW32095   2.219   0.149  17.050  0.9159  0.3783  0.0110
 6878SOL    HW132096   2.203   0.095  16.973  1.0155  1.0539 -0.4813
 6878SOL    HW232097   2.314   0.154  17.058  0.9351  1.1530 -0.6644
 6879SOL     OW32098   3.439   0.311   0.367 -0.0416 -0.3839  0.2388
 6879SOL    HW132099   3.390   0.386   0.401  1.2689 -0.7460  2.9153
 6879SOL    HW232100   3.520   0.330   0.414 -0.5209 -0.7473  1.2151
 6880SOL     OW32101   0.939   2.679  13.420 -0.9537 -0.5168 -0.1097
 6880SOL    HW132102   0.931   2.612  13.488 -1.3812 -1.4676 -1.1056
 6880SOL    HW232103   0.895   2.753  13.462  0.5706  0.5916 -0.4652
 6881SOL     OW32104   1.702   0.312   6.657 -0.0141 -0.2394  0.0604
 6881SOL    HW132105   1.709   0.325   6.752 -1.9484  0.5780  0.0812
 6881SOL    HW232106   1.735   0.396   6.625 -0.4321 -0.5557 -1.2032
 6882SOL     OW32107   3.001   1.419   4.354 -0.5503 -0.1942  0.7921
 6882SOL    HW132108   2.961   1.458   4.432 -0.0082  2.1324 -0.1049
 6882SOL    HW232109   3.059   1.366   4.409 -0.3246 -1.0235 -0.2562
 6883SOL     OW32110   1.630   1.820  13.581 -0.7953  0.1698 -0.7267
 6883SOL    HW132111   1.687   1.774  13.518  2.2071  0.1721  2.0039
 6883SOL    HW232112   1.677   1.901  13.602  0.5087 -0.9857  0.7863
 6884SOL     OW32113   0.568   1.176   4.406 -0.0899 -0.0876  0.3097
 6884SOL    HW132114   0.577   1.217   4.492  2.3203 -0.5352  0.2631
 6884SOL    HW232115   0.622   1.237   4.355 -1.6014  1.2663  0.3190
 6885SOL     OW32116   2.110   2.227   3.483 -0.2175 -0.3275  0.1743
 6885SOL    HW132117   2.187   2.198   3.433 -0.1056  3.2860 -1.7222
 6885SOL    HW232118   2.067   2.290   3.425  2.0973 -0.1722 -1.3889
 6886SOL     OW32119   3.585   1.351   6.476  0.0411  0.5421 -0.0923
 6886SOL    HW132120   3.612   1.269   6.516 -0.7065  0.4625  0.2376
 6886SOL    HW232121   3.624   1.417   6.534 -1.0336 -1.2656  2.6977
 6887SOL     OW32122   1.186   4.242   2.804 -0.0546 -0.4731 -0.6346
 6887SOL    HW132123   1.222   4.331   2.815 -1.6137  0.2801 -1.6784
 6887SOL    HW232124   1.167   4.233   2.710 -0.6606 -0.2991 -0.5300
 6888SOL     OW32125   3.714   4.622  13.513  0.0307 -0.1909  0.2389
 6888SOL    HW132126   3.687   4.696  13.568 -0.9287 -0.4225  0.0904
 6888SOL    HW232127   3.724   4.677  13.435  1.0709 -0.1718  0.3955
 6889SOL     OW32128   4.289   4.517   3.908  0.1188  0.2648 -0.3474
 6889SOL    HW132129   4.292   4.613   3.908  1.2268  0.2326  1.3820
 6889SOL    HW232130   4.276   4.502   3.814  0.2323  1.9882 -0.6397
 6890SOL     OW32131   1.279   0.294   1.801  0.0926  0.7539 -0.0291
 6890SOL    HW132132   1.371   0.296   1.778 -0.5738  1.4400 -2.5787
 6890SOL    HW232133   1.265   0.199   1.807 -1.0953  0.8675 -1.0614
 6891SOL     OW32134   1.930   0.142   3.237  0.7972  0.9780 -0.1132
 6891SOL    HW132135   1.862   0.208   3.223 -2.0924 -1.4604  2.2944
 6891SOL    HW232136   1.989   0.178   3.303 -0.1236  0.7987  0.8159
 6892SOL     OW32137   2.582   1.350   3.802 -0.3400  0.3007 -0.2674
 6892SOL    HW132138   2.652   1.343   3.868  0.1088  3.6266 -0.4223
 6892SOL    HW232139   2.547   1.436   3.824  2.5202  0.4661  3.7900
 6893SOL     OW32140   3.012   3.831  12.518  0.2499 -0.1642 -0.7307
 6893SOL    HW132141   2.976   3.905  12.469 -1.7381 -0.7282 -0.0985
 6893SOL    HW232142   2.981   3.757  12.467  1.3634 -1.9125  1.1480
 6894SOL     OW32143   3.257   1.952   9.675 -0.6220  0.0537 -0.7374
 6894SOL    HW132144   3.208   1.931   9.595  0.7714 -0.1163 -1.5563
 6894SOL    HW232145   3.221   2.041   9.682 -1.2617 -0.2020 -0.7845
 6895SOL     OW32146   1.510   3.410  14.434 -0.4828  0.2881  0.5327
 6895SOL    HW132147   1.443   3.412  14.366  1.4533 -0.0344 -1.3964
 6895SOL    HW232148   1.523   3.505  14.443 -0.7550  0.1218  2.6419
 6896SOL     OW32149   4.532   2.613  10.687 -0.3026  0.1465  0.2661
 6896SOL    HW132150   4.587   2.540  10.716 -2.3426 -1.3726  0.2579
 6896SOL    HW232151   4.599   2.660  10.637 -1.2915  0.2464 -0.9401
 6897SOL     OW32152   4.670   3.457  12.099 -0.3230 -0.2381  0.7025
 6897SOL    HW132153   0.001   3.454  12.178  2.1530  0.1098 -0.9543
 6897SOL    HW232154   4.585   3.487  12.132  0.4934  2.3336  0.4518
 6898SOL     OW32155   2.770   0.457   5.956  0.6647 -0.0690  0.1205
 6898SOL    HW132156   2.810   0.370   5.959 -0.8107 -0.7470 -0.0792
 6898SOL    HW232157   2.802   0.479   5.868 -0.2945 -1.8353 -0.6697
 6899SOL     OW32158   1.539   0.264   4.403  0.7452  0.1926 -0.5572
 6899SOL    HW132159   1.475   0.265   4.473  1.0830 -1.4749 -0.2318
 6899SOL    HW232160   1.488   0.248   4.324  2.0161 -1.4669 -1.0390
 6900SOL     OW32161   2.026   0.995  11.171 -0.1539 -0.2749  0.2368
 6900SOL    HW132162   2.048   0.973  11.080 -0.6381  0.9575 -0.1793
 6900SOL    HW232163   2.017   1.090  11.175 -1.4676 -0.3633 -0.6545
 6901SOL     OW32164   1.557   4.636   4.282 -0.0425  0.1091  0.1027
 6901SOL    HW132165   1.575   4.552   4.240 -1.8168  0.3934 -1.2209
 6901SOL    HW232166   1.627   4.694   4.251  0.6107 -1.9123 -2.1238
 6902SOL     OW32167   4.122   3.301  12.138  0.4561 -0.0342  0.0527
 6902SOL    HW132168   4.124   3.346  12.054 -0.7008 -2.3612 -1.2239
 6902SOL    HW232169   4.099   3.381  12.185 -1.8174 -1.0107  0.5996
 6903SOL     OW32170   1.831   4.095   7.665 -0.3564  0.2851 -0.8017
 6903SOL    HW132171   1.787   4.179   7.663 -0.5688  0.2021  0.4865
 6903SOL    HW232172   1.916   4.127   7.697 -0.1869 -0.6025 -0.3643
 6904SOL     OW32173   1.814   1.008   8.151  0.3232  0.5069  0.5047
 6904SOL    HW132174   1.843   0.979   8.238 -1.2490 -0.2248  0.7930
 6904SOL    HW232175   1.814   1.102   8.166 -1.0092  0.5674  0.1085
 6905SOL     OW32176   2.559   2.811  13.892 -0.7063 -0.5183  0.1862
 6905SOL    HW132177   2.623   2.773  13.952 -0.9293 -3.8244 -1.6904
 6905SOL    HW232178   2.601   2.884  13.847 -0.6550 -0.1135  0.8903
 6906SOL     OW32179   1.386   2.559   3.637 -0.1694  0.2704 -0.0464
 6906SOL    HW132180   1.463   2.533   3.586  0.1257 -1.1778  1.1349
 6906SOL    HW232181   1.315   2.509   3.596  0.2432  0.5069 -1.0458
 6907SOL     OW32182   4.121   2.608   5.214 -0.1642 -0.1848 -0.6755
 6907SOL    HW132183   4.071   2.689   5.222  0.0005 -0.1831  0.3102
 6907SOL    HW232184   4.128   2.589   5.120 -0.8762 -0.3512 -0.6985
 6908SOL     OW32185   4.428   1.558   9.500  1.4059  0.0926 -0.0651
 6908SOL    HW132186   4.492   1.543   9.569 -0.3140  0.3038  1.5778
 6908SOL    HW232187   4.386   1.474   9.481 -0.6689  1.0467  0.3142
 6909SOL     OW32188   3.804   4.612  17.537  0.2245 -0.2324  0.5849
 6909SOL    HW132189   3.797   4.708  17.535 -0.6707 -0.2222  4.0102
 6909SOL    HW232190   3.823   4.595  17.629  0.8121 -0.3507  0.4424
 6910SOL     OW32191   1.182   3.444  16.132  0.3373 -0.6300 -0.7486
 6910SOL    HW132192   1.247   3.401  16.077  1.8237 -1.5066  1.6901
 6910SOL    HW232193   1.218   3.517  16.183 -3.6026 -0.1460  1.3595
 6911SOL     OW32194   1.803   3.993  14.364 -0.2500 -0.6431  0.4695
 6911SOL    HW132195   1.866   4.059  14.334 -0.9973  0.4896  1.4123
 6911SOL    HW232196   1.861   3.919  14.380  1.5422  0.6567  0.0076
 6912SOL     OW32197   2.815   3.891  14.334  0.5576 -0.1532 -0.0982
 6912SOL    HW132198   2.839   3.837  14.408  1.0219  0.8069  0.4543
 6912SOL    HW232199   2.721   3.875  14.326  0.3217  0.2560  1.8122
 6913SOL     OW32200   1.821   0.199  14.156 -0.2032  0.1526  0.4573
 6913SOL    HW132201   1.843   0.219  14.246 -2.8010 -1.4312  1.4442
 6913SOL    HW232202   1.830   0.284  14.113  2.5173 -0.1689  0.4135
 6914SOL     OW32203   4.714   1.464  13.094  0.3995  0.0331 -0.2226
 6914SOL    HW132204   4.705   1.559  13.105  0.4356 -0.3002  2.5740
 6914SOL    HW232205   4.635   1.442  13.044 -0.1614 -0.1774  0.7708
 6915SOL     OW32206   4.563   4.628   7.040 -0.5098 -0.4145  0.1519
 6915SOL    HW132207   4.506   4.691   7.083 -0.9381 -0.0631 -0.9397
 6915SOL    HW232208   4.649   4.646   7.080 -0.1122 -1.8073 -0.0684
 6916SOL     OW32209   0.307   3.167  17.143 -0.2721  0.0227 -0.3063
 6916SOL    HW132210   0.249   3.150  17.068  0.4697 -2.5822 -0.2839
 6916SOL    HW232211   0.254   3.215  17.206 -0.0468 -0.4517  0.2372
 6917SOL     OW32212   4.572   3.534   8.100  0.0339 -0.1202 -0.1183
 6917SOL    HW132213   4.501   3.573   8.049  1.6036  2.7681 -0.0749
 6917SOL    HW232214   4.553   3.440   8.104  0.8264 -0.2689  0.2203
 6918SOL     OW32215   3.132   3.110   7.892 -0.3596 -0.6736 -0.3167
 6918SOL    HW132216   3.043   3.101   7.860 -0.7162  0.5066  0.3337
 6918SOL    HW232217   3.172   3.026   7.868 -0.1455 -0.8113  0.5129
 6919SOL     OW32218   0.257   3.308   8.867 -0.0021  0.2304 -0.6422
 6919SOL    HW132219   0.297   3.278   8.786  0.9687 -0.2236  0.0030
 6919SOL    HW232220   0.265   3.402   8.851  0.9609  0.7572  2.7591
 6920SOL     OW32221   2.845   4.369   4.997 -0.1088  0.0358  0.1291
 6920SOL    HW132222   2.880   4.361   5.086 -0.2890  0.9718  0.2938
 6920SOL    HW232223   2.870   4.286   4.958 -0.5501  0.0605 -0.2005
 6921SOL     OW32224   0.545   1.593   7.039  0.1764  0.1880  0.2349
 6921SOL    HW132225   0.537   1.623   6.949  2.5490  2.9951  0.9985
 6921SOL    HW232226   0.489   1.515   7.031 -0.6885  0.7262  0.9547
 6922SOL     OW32227   1.333   2.399   8.576 -0.4855  0.0958  0.0549
 6922SOL    HW132228   1.264   2.413   8.641 -2.0564  0.7250 -1.7556
 6922SOL    HW232229   1.322   2.305   8.566  1.8408 -0.4070  2.2320
 6923SOL     OW32230   2.687   1.261   2.821 -0.3247  0.4063  0.1135
 6923SOL    HW132231   2.727   1.274   2.735  0.2399  0.4467  0.3792
 6923SOL    HW232232   2.618   1.326   2.818  0.0483  0.7562 -0.7909
 6924SOL     OW32233   3.728   2.972   2.372  0.6206 -0.2030 -0.0029
 6924SOL    HW132234   3.683   2.927   2.443  0.5660 -0.1119  0.0210
 6924SOL    HW232235   3.727   3.065   2.394 -0.8062  0.4395 -2.7507
 6925SOL     OW32236   4.347   2.164   7.707  0.2159 -0.0542  0.2149
 6925SOL    HW132237   4.343   2.120   7.791  0.6633 -2.4645 -1.0121
 6925SOL    HW232238   4.437   2.144   7.680 -0.4357 -1.1011 -1.1783
 6926SOL     OW32239   3.829   0.303   3.115  0.6516  0.0899 -0.3042
 6926SOL    HW132240   3.905   0.303   3.174 -0.1157 -1.3196  0.6861
 6926SOL    HW232241   3.767   0.251   3.166  1.8058 -1.1037 -0.1095
 6927SOL     OW32242   0.651   3.245   9.756  0.0690 -0.0456 -0.2949
 6927SOL    HW132243   0.691   3.326   9.790 -1.2483  0.8876 -0.9456
 6927SOL    HW232244   0.634   3.190   9.832  2.2011  0.1591  0.3270
 6928SOL     OW32245   1.826   2.058  14.560  0.1175  0.0128 -0.5323
 6928SOL    HW132246   1.735   2.032  14.573 -0.0166  0.2112 -1.0862
 6928SOL    HW232247   1.820   2.152  14.545 -0.3121  0.0090 -0.3648
 6929SOL     OW32248   3.980   2.295   3.937 -0.2946 -0.1704 -0.2194
 6929SOL    HW132249   4.064   2.249   3.938 -1.0128 -1.4332  2.3420
 6929SOL    HW232250   3.933   2.240   3.875  0.0107  0.5990 -1.1450
 6930SOL     OW32251   3.838   2.472   7.016  0.0007 -0.7060  0.0982
 6930SOL    HW132252   3.932   2.458   7.002 -0.0755 -2.0912  1.0146
 6930SOL    HW232253   3.813   2.534   6.947  0.9969 -0.5457 -0.1281
 6931SOL     OW32254   4.330   4.515  13.910  0.0238 -0.2938 -0.0082
 6931SOL    HW132255   4.393   4.488  13.977 -1.0727 -1.5690  0.5143
 6931SOL    HW232256   4.389   4.553  13.846  0.1697 -1.3928 -0.5297
 6932SOL     OW32257   1.106   2.737   3.154  0.1178  0.0936  0.3500
 6932SOL    HW132258   1.177   2.778   3.204 -1.1326 -0.9139  2.9354
 6932SOL    HW232259   1.116   2.779   3.068 -1.2575  0.1842  0.2356
 6933SOL     OW32260   2.267   2.963   8.312  0.0472  0.6640 -0.3207
 6933SOL    HW132261   2.198   3.005   8.260  0.3981  0.4732 -0.9413
 6933SOL    HW232262   2.343   3.019   8.300  1.8013 -1.7913 -0.5661
 6934SOL     OW32263   1.869   0.927   2.591 -0.1261 -0.7586  0.1913
 6934SOL    HW132264   1.780   0.928   2.625  0.0787 -1.1520  0.7329
 6934SOL    HW232265   1.893   0.838   2.565  2.2748 -0.3727  1.0415
 6935SOL     OW32266   3.887   0.912  16.356  0.3495  0.2343 -0.1359
 6935SOL    HW132267   3.816   0.898  16.419 -0.8194 -0.5695 -1.6159
 6935SOL    HW232268   3.956   0.954  16.407  0.3926  0.8403 -0.6960
 6936SOL     OW32269   3.749   1.931   7.490 -0.1905 -0.1415  0.0279
 6936SOL    HW132270   3.843   1.917   7.478  0.1872 -0.5013  3.4068
 6936SOL    HW232271   3.749   2.015   7.535 -0.5952 -0.0956 -0.0541
 6937SOL     OW32272   0.205   2.130   6.232 -0.2084 -0.0771 -0.0785
 6937SOL    HW132273   0.278   2.142   6.294 -1.7660 -0.6949  1.8724
 6937SOL    HW232274   0.194   2.220   6.201  1.1976  0.1148 -0.0201
 6938SOL     OW32275   4.467   0.585   2.914 -0.1465  0.0583  0.7042
 6938SOL    HW132276   4.454   0.675   2.884  4.0316  0.8170  1.2477
 6938SOL    HW232277   4.526   0.597   2.988  0.4953  2.3296 -0.1643
 6939SOL     OW32278   1.451   3.091  10.220  0.3093 -0.1708 -0.3390
 6939SOL    HW132279   1.418   3.089  10.130  0.4706  1.0214 -0.4207
 6939SOL    HW232280   1.369   3.061  10.260 -0.1407  0.4366 -0.7924
 6940SOL     OW32281   0.616   4.069   4.111 -0.1388 -0.1639  0.5872
 6940SOL    HW132282   0.562   4.081   4.033 -1.7052 -0.9347  1.5677
 6940SOL    HW232283   0.648   3.980   4.092 -0.4446  0.2286 -1.7773
 6941SOL     OW32284   0.148   3.622  13.566 -0.2674 -0.4431  0.1328
 6941SOL    HW132285   0.175   3.530  13.570 -0.9038 -0.6265  0.1609
 6941SOL    HW232286   0.153   3.636  13.660  2.1620  2.4990 -0.4227
 6942SOL     OW32287   3.520   0.838   8.001  0.7867 -0.2423 -0.0556
 6942SOL    HW132288   3.611   0.842   7.972  0.1369 -1.0719 -2.1984
 6942SOL    HW232289   3.480   0.775   7.942  0.1932 -0.3859  0.4847
 6943SOL     OW32290   3.329   3.247   1.880  0.3094  0.1333 -0.0435
 6943SOL    HW132291   3.315   3.302   1.957 -0.8398  0.7546 -0.7017
 6943SOL    HW232292   3.245   3.237   1.835  0.5911  1.8127 -0.9489
 6944SOL     OW32293   0.265   4.638   8.785 -0.3298  0.0878  0.0984
 6944SOL    HW132294   0.179   4.619   8.748 -1.0674 -0.9977  2.4059
 6944SOL    HW232295   0.292   4.714   8.732 -0.8499  0.0516 -0.2218
 6945SOL     OW32296   0.188   4.628   9.489  0.0548 -0.0141  0.3414
 6945SOL    HW132297   0.259   4.663   9.543  1.0864 -1.3096 -0.1784
 6945SOL    HW232298   0.196   4.537   9.517  0.0572 -0.5037 -1.2919
 6946SOL     OW32299   0.523   3.640   4.004  0.5053 -0.2407  0.2949
 6946SOL    HW132300   0.506   3.553   4.040  0.6740  0.1329  1.2729
 6946SOL    HW232301   0.576   3.622   3.927  1.6444 -1.9321  1.4840
 6947SOL     OW32302   3.987   2.317   5.107 -0.3075  0.4964  0.4569
 6947SOL    HW132303   4.075   2.323   5.143  0.0576  1.5723 -0.6184
 6947SOL    HW232304   4.005   2.375   5.033  0.0536  1.6955  1.4862
 6948SOL     OW32305   1.826   2.275   4.407 -0.3434 -0.0669  0.1155
 6948SOL    HW132306   1.825   2.193   4.456  0.5110  0.0864  0.3897
 6948SOL    HW232307   1.763   2.332   4.451  0.4091  0.6222  0.3090
 6949SOL     OW32308   4.256   1.785   5.058  0.0440 -0.6197 -0.0681
 6949SOL    HW132309   4.242   1.715   5.122 -1.1609  1.7039  2.2101
 6949SOL    HW232310   4.166   1.809   5.039  0.1920 -0.8334 -1.0450
 6950SOL     OW32311   0.068   3.209  13.451  0.1258  0.2417  0.2799
 6950SOL    HW132312   0.124   3.275  13.492  0.7617  0.5702 -1.0970
 6950SOL    HW232313   0.017   3.173  13.523  0.1256  1.0059  0.6544
 6951SOL     OW32314   0.604   1.365   6.082  0.3818 -0.0452 -0.6619
 6951SOL    HW132315   0.623   1.281   6.123  0.4796  1.5134  2.5089
 6951SOL    HW232316   0.546   1.407   6.146  1.0275 -1.3059  0.7309
 6952SOL     OW32317   1.331   3.762   3.770  0.0915 -0.5641 -0.3885
 6952SOL    HW132318   1.283   3.704   3.830 -0.4201  0.4498  0.1869
 6952SOL    HW232319   1.260   3.810   3.727  0.2406 -0.0099 -0.0122
 6953SOL     OW32320   4.308   0.017   7.363  0.2702 -0.1192  0.3249
 6953SOL    HW132321   4.268   0.024   7.276 -2.9840  0.8197  1.8907
 6953SOL    HW232322   4.337   4.648   7.361  1.4593  0.2374  0.9283
 6954SOL     OW32323   2.719   0.404   7.401 -0.0148  0.1540  0.6120
 6954SOL    HW132324   2.726   0.327   7.344 -1.0045  0.5071  0.0136
 6954SOL    HW232325   2.812   0.402   7.425 -0.1414  1.9065  1.2282
 6955SOL     OW32326   2.333   0.931   6.022  0.5094 -0.2281 -0.0470
 6955SOL    HW132327   2.415   0.912   6.067 -0.3228 -0.3653  1.4313
 6955SOL    HW232328   2.278   0.868   6.070 -0.1381 -2.1445 -3.3372
 6956SOL     OW32329   1.175   0.536   3.584  0.2977  0.0854 -0.5336
 6956SOL    HW132330   1.229   0.608   3.551 -1.4723  1.0785 -1.2730
 6956SOL    HW232331   1.088   0.577   3.583 -0.2434 -1.0526 -0.6137
 6957SOL     OW32332   0.234   1.065  17.201  0.1886  0.1204  0.0376
 6957SOL    HW132333   0.329   1.063  17.213  0.2277  0.3267 -0.2467
 6957SOL    HW232334   0.212   0.979  17.167 -2.0467  1.1891 -1.1987
 6958SOL     OW32335   2.786   0.210  12.907  0.3479 -0.4293  0.1800
 6958SOL    HW132336   2.729   0.194  12.982  1.0481 -1.3143  0.5356
 6958SOL    HW232337   2.773   0.302  12.886  0.6047 -0.3411  0.3957
 6959SOL     OW32338   3.729   2.207  10.141 -0.6330  0.6019  0.3853
 6959SOL    HW132339   3.678   2.132  10.109  0.7057 -0.9822  1.9943
 6959SOL    HW232340   3.795   2.202  10.072 -2.5450 -1.5911 -1.3107
 6960SOL     OW32341   3.442   0.718   7.770 -0.4182 -0.0270  0.0833
 6960SOL    HW132342   3.466   0.801   7.728 -0.9896  1.4764  2.7405
 6960SOL    HW232343   3.354   0.698   7.737  0.8284 -3.5632 -1.0353
 6961SOL     OW32344   4.024   2.332   6.560 -0.2132  0.2030 -0.9497
 6961SOL    HW132345   4.017   2.285   6.644 -0.9309  1.6113 -0.2229
 6961SOL    HW232346   3.933   2.313   6.536 -0.2427 -0.2332 -0.5039
 6962SOL     OW32347   2.416   0.049   5.249  0.1681  0.4264 -0.4662
 6962SOL    HW132348   2.363   0.041   5.328 -2.2254  3.2658 -1.7477
 6962SOL    HW232349   2.361   0.107   5.196  0.9233  2.5062  1.0083
 6963SOL     OW32350   0.966   3.061   0.858 -0.5476 -0.0444 -0.7230
 6963SOL    HW132351   0.948   2.997   0.926 -0.9414 -0.0316 -0.8107
 6963SOL    HW232352   1.058   3.040   0.841  0.2577  0.8565  2.5566
 6964SOL     OW32353   0.881   2.189   8.151  0.0519  0.1980  0.0022
 6964SOL    HW132354   0.932   2.238   8.216 -3.6695  0.4577  2.7560
 6964SOL    HW232355   0.795   2.183   8.192  1.2329  3.4556  2.9516
 6965SOL     OW32356   0.057   3.188   6.492 -0.2197  0.1826  0.4326
 6965SOL    HW132357   4.719   3.232   6.433 -1.7096 -0.8187  1.2003
 6965SOL    HW232358   0.129   3.251   6.494 -0.9218  0.9967 -0.1305
 6966SOL     OW32359   4.160   1.455  13.146  0.3159  0.2204 -0.1106
 6966SOL    HW132360   4.068   1.474  13.162  0.6877  1.3804  0.6940
 6966SOL    HW232361   4.156   1.386  13.081  2.8396 -1.8314  1.9056
 6967SOL     OW32362   1.128   2.104  10.118  0.3158 -0.1673  0.4127
 6967SOL    HW132363   1.066   2.040  10.084  0.6510  0.8144 -2.0632
 6967SOL    HW232364   1.079   2.186  10.130  2.3374  0.8160  2.1292
 6968SOL     OW32365   2.427   0.422   6.860 -0.1403 -0.2416 -0.2463
 6968SOL    HW132366   2.369   0.496   6.844  1.5850  0.8122 -1.7373
 6968SOL    HW232367   2.392   0.350   6.808 -0.1533 -0.4009 -0.0139
 6969SOL     OW32368   0.740   4.440   0.677  0.7072  0.2297  0.4153
 6969SOL    HW132369   0.745   4.532   0.705 -0.0082 -0.1825  1.9183
 6969SOL    HW232370   0.766   4.390   0.755  0.5680 -0.4684  0.0110
 6970SOL     OW32371   2.723   2.687   6.198  0.0550 -0.5728  0.0590
 6970SOL    HW132372   2.757   2.604   6.230  1.9072  1.3151  3.0285
 6970SOL    HW232373   2.629   2.677   6.209  0.0647  0.2646  0.9574
 6971SOL     OW32374   1.855   0.296   9.371  0.0875 -0.1649  0.1526
 6971SOL    HW132375   1.924   0.317   9.434  0.4444 -1.3128  0.1487
 6971SOL    HW232376   1.782   0.292   9.433 -0.2630 -3.4752 -0.4536
 6972SOL     OW32377   4.613   3.723   5.442 -0.1571 -0.2299  0.5003
 6972SOL    HW132378   4.681   3.782   5.476 -2.1796  1.1430  2.2025
 6972SOL    HW232379   4.672   3.659   5.405 -1.3107 -0.6531 -0.5988
 6973SOL     OW32380   2.294   2.185  15.668 -0.3130 -0.1644  0.4392
 6973SOL    HW132381   2.257   2.273  15.667  1.9666  0.8198  1.4710
 6973SOL    HW232382   2.347   2.205  15.745  1.5404  3.0863 -1.6455
 6974SOL     OW32383   0.232   3.038   1.029 -0.0166  0.0367 -0.3037
 6974SOL    HW132384   0.304   3.049   0.967 -1.0584  0.2493 -1.4782
 6974SOL    HW232385   0.211   3.131   1.040  0.9452  0.1129  0.8963
 6975SOL     OW32386   0.925   1.163   6.081 -0.1792 -0.3430 -0.4159
 6975SOL    HW132387   0.854   1.205   6.033  0.1505 -1.3313 -1.7828
 6975SOL    HW232388   0.886   1.079   6.105  2.0236 -0.5574  2.3899
 6976SOL     OW32389   2.123   4.709   9.151 -0.3194  0.1268 -0.5875
 6976SOL    HW132390   2.196   4.647   9.152 -0.7108 -0.3428 -1.8151
 6976SOL    HW232391   2.046   4.662   9.181 -0.6271  1.1500  0.2475
 6977SOL     OW32392   3.813   1.765   3.653 -0.3591  0.4161 -0.0325
 6977SOL    HW132393   3.887   1.821   3.629  1.1171 -0.9916  1.2125
 6977SOL    HW232394   3.849   1.677   3.651  0.3827  0.7407 -0.8355
 6978SOL     OW32395   0.793   1.076   4.637 -0.0238  0.0409  0.2135
 6978SOL    HW132396   0.867   1.123   4.678 -1.0991  1.3375  0.6719
 6978SOL    HW232397   0.731   1.076   4.710 -0.1064  1.4369  0.1586
 6979SOL     OW32398   4.380   3.950   8.229  0.2112  0.3367  0.3196
 6979SOL    HW132399   4.445   3.919   8.167 -1.5351 -0.6756 -1.0295
 6979SOL    HW232400   4.413   4.039   8.231 -0.1912  0.4866  0.2560
 6980SOL     OW32401   0.605   1.270   4.658 -0.3608  0.3132  1.0148
 6980SOL    HW132402   0.621   1.344   4.717  2.8057 -1.1201  1.9194
 6980SOL    HW232403   0.591   1.196   4.717 -1.3255  0.0079  0.4130
 6981SOL     OW32404   0.835   1.970  14.679 -0.0978  0.5730  0.7090
 6981SOL    HW132405   0.741   1.985  14.671  0.2933  2.6843  0.1518
 6981SOL    HW232406   0.865   1.984  14.589  3.4701 -1.1932  1.6152
 6982SOL     OW32407   4.460   1.028   2.181  0.4986 -0.0796 -0.1111
 6982SOL    HW132408   4.518   1.072   2.119 -0.6560  0.5378 -0.7698
 6982SOL    HW232409   4.376   1.051   2.141 -0.3785 -0.3662  1.5568
 6983SOL     OW32410   3.234   2.564   7.976 -0.1379 -0.3009  0.1624
 6983SOL    HW132411   3.319   2.608   7.972  0.8058 -2.1988 -0.3262
 6983SOL    HW232412   3.257   2.492   8.035  0.2936  0.7265  1.2689
 6984SOL     OW32413   3.306   0.883   3.604 -0.1732  0.2939  0.2326
 6984SOL    HW132414   3.216   0.850   3.607 -0.1307  0.2145  0.5947
 6984SOL    HW232415   3.310   0.914   3.513  0.0636 -1.5033 -0.3630
 6985SOL     OW32416   0.119   1.924   3.393 -0.1165  0.0299 -0.2213
 6985SOL    HW132417   0.191   1.987   3.400 -0.8809  1.0282 -1.5762
 6985SOL    HW232418   0.052   1.980   3.431 -0.2529 -0.2205 -0.0944
 6986SOL     OW32419   1.888   2.406  12.599 -0.0143  0.7028  0.0195
 6986SOL    HW132420   1.817   2.441  12.545  0.0918  1.0224  0.0916
 6986SOL    HW232421   1.954   2.401  12.530 -2.5807  2.0180 -2.5411
 6987SOL     OW32422   3.877   1.331   8.600  0.6856 -0.1588  0.0704
 6987SOL    HW132423   3.803   1.374   8.642 -0.5530 -1.5993 -0.6325
 6987SOL    HW232424   3.889   1.256   8.658  3.8991 -2.0118 -2.9873
 6988SOL     OW32425   3.597   0.440  14.118 -0.5687  0.5783  0.1014
 6988SOL    HW132426   3.645   0.485  14.187 -0.7957 -0.8826  1.2068
 6988SOL    HW232427   3.552   0.517  14.081 -0.4062 -0.1519 -1.6285
 6989SOL     OW32428   3.519   1.161  16.137  0.1985  0.0073  0.2576
 6989SOL    HW132429   3.428   1.188  16.145  0.8542  1.6161  2.2316
 6989SOL    HW232430   3.540   1.143  16.228 -0.1033  0.3287  0.3873
 6990SOL     OW32431   3.618   2.093   7.207  0.1010 -0.0762  0.0445
 6990SOL    HW132432   3.623   2.118   7.115  0.6438  0.2267  0.1639
 6990SOL    HW232433   3.702   2.121   7.241  0.3112  1.5823 -1.8629
 6991SOL     OW32434   0.454   0.919  15.764 -0.3306 -0.3309 -0.4552
 6991SOL    HW132435   0.417   0.843  15.720 -1.5756 -0.8474  1.4933
 6991SOL    HW232436   0.392   0.987  15.738  2.2095  2.0716 -0.2472
 6992SOL     OW32437   0.005   2.867  13.481 -0.5034  0.6685 -0.2495
 6992SOL    HW132438   0.039   2.940  13.532  0.5743 -0.1968  0.2699
 6992SOL    HW232439   0.012   2.797  13.547  1.9285  0.1552 -1.0574
 6993SOL     OW32440   4.668   3.641   9.625 -0.1626  0.1726  0.0867
 6993SOL    HW132441   0.008   3.701   9.584  1.2753 -1.0445  0.4605
 6993SOL    HW232442   4.618   3.700   9.681  0.8348  0.6220  0.5083
 6994SOL     OW32443   2.555   0.457   1.362 -0.1406 -0.0359  0.2120
 6994SOL    HW132444   2.640   0.415   1.353 -0.6441 -0.8271 -0.8516
 6994SOL    HW232445   2.554   0.481   1.455 -1.1019 -1.4550  0.5702
 6995SOL     OW32446   1.432   2.988  15.848  0.4480  0.0083  0.2965
 6995SOL    HW132447   1.401   2.908  15.890 -0.3372 -0.4166 -1.0817
 6995SOL    HW232448   1.355   3.044  15.834 -0.8401 -1.5092  1.2686
 6996SOL     OW32449   4.159   1.524   6.207 -0.1482 -0.1368  0.2233
 6996SOL    HW132450   4.165   1.616   6.179  1.5291  0.2287  1.7871
 6996SOL    HW232451   4.236   1.525   6.264  2.3130  0.0771 -3.1291
 6997SOL     OW32452   1.552   0.153  17.455  0.6776  0.4819  0.2610
 6997SOL    HW132453   1.534   0.060  17.469  0.2477  0.1694 -2.2582
 6997SOL    HW232454   1.593   0.167  17.370  2.6803 -1.6289  0.8818
 6998SOL     OW32455   3.917   3.921   4.805 -0.0840 -0.3408 -0.1403
 6998SOL    HW132456   3.988   3.984   4.802  0.6401 -1.2815 -2.3565
 6998SOL    HW232457   3.949   3.859   4.871  1.0684  1.1637  0.6994
 6999SOL     OW32458   2.929   4.680   5.583 -0.2667  0.0159  0.2090
 6999SOL    HW132459   2.834   4.677   5.569 -0.1501 -1.2666 -0.3024
 6999SOL    HW232460   2.956   0.046   5.556  0.2230  0.1039  0.9820
 7000SOL     OW32461   2.035   4.525   7.641 -0.0060 -0.1523  0.4977
 7000SOL    HW132462   2.040   4.568   7.726 -0.6739 -0.5607  0.7455
 7000SOL    HW232463   2.102   4.582   7.606 -0.6864 -0.5503 -1.4341
 7001SOL     OW32464   2.205   1.997   2.843 -0.2361 -0.2739  0.5251
 7001SOL    HW132465   2.291   2.022   2.876 -0.7368 -0.1545  1.7691
 7001SOL    HW232466   2.233   1.920   2.794  1.8295 -0.9905  2.7970
 7002SOL     OW32467   0.175   1.459   8.141 -0.0494 -0.3948 -0.7199
 7002SOL    HW132468   0.267   1.466   8.167  0.0655 -1.4942 -0.8472
 7002SOL    HW232469   0.151   1.395   8.207 -1.4409  2.3212  1.4232
 7003SOL     OW32470   3.508   3.667  15.773  0.1805  0.4800 -0.0763
 7003SOL    HW132471   3.434   3.648  15.715 -0.0176 -2.3923  1.1222
 7003SOL    HW232472   3.581   3.666  15.711 -0.5370  1.5528 -0.9472
 7004SOL     OW32473   4.119   0.458  17.007 -0.5530  0.1846 -0.4251
 7004SOL    HW132474   4.174   0.478  17.083  0.1875 -2.2148 -0.3102
 7004SOL    HW232475   4.054   0.527  17.021 -0.4617  0.4487 -1.3168
 7005SOL     OW32476   2.110   3.891  13.953  0.4592 -0.1753 -0.6834
 7005SOL    HW132477   2.031   3.943  13.933 -0.9556 -1.8343  0.5655
 7005SOL    HW232478   2.067   3.835  14.018  1.8460 -0.6294 -0.1646
 7006SOL     OW32479   0.708   3.900  10.849  0.4823  0.1545  0.6763
 7006SOL    HW132480   0.748   3.957  10.914  0.6098  2.2489 -1.2532
 7006SOL    HW232481   0.617   3.898  10.878  0.0448  1.3060 -0.6143
 7007SOL     OW32482   2.761   2.429   5.500 -0.7364 -0.2570  0.0796
 7007SOL    HW132483   2.726   2.452   5.586 -0.7048 -1.0103  0.2977
 7007SOL    HW232484   2.835   2.371   5.517 -0.6880 -0.2295 -0.0348
 7008SOL     OW32485   2.395   3.340   1.808 -0.8130  0.9442 -0.0679
 7008SOL    HW132486   2.343   3.389   1.743 -0.9720 -1.2672 -1.6114
 7008SOL    HW232487   2.426   3.269   1.752 -0.1880  1.5714 -0.5152
 7009SOL     OW32488   0.249   2.614   8.641 -0.0939  0.4615 -0.6698
 7009SOL    HW132489   0.234   2.694   8.692  0.2678 -1.5472  2.6004
 7009SOL    HW232490   0.185   2.628   8.572  0.3178 -0.3394 -1.2095
 7010SOL     OW32491   1.538   3.466   0.881  0.1491 -0.2491 -0.0211
 7010SOL    HW132492   1.517   3.519   0.805  1.3499 -0.0238 -0.2007
 7010SOL    HW232493   1.632   3.485   0.878  0.2768 -0.7243  0.7071
 7011SOL     OW32494   1.454   3.720   5.452  0.0792  0.1179  0.3506
 7011SOL    HW132495   1.482   3.628   5.461 -0.6868  0.0897  2.2587
 7011SOL    HW232496   1.360   3.702   5.455  0.2522 -1.3941 -2.5055
 7012SOL     OW32497   1.004   2.116   2.977  0.9326  0.1960 -0.1198
 7012SOL    HW132498   1.097   2.132   2.989  1.6160 -1.2806 -3.2564
 7012SOL    HW232499   0.988   2.150   2.889 -1.7969 -0.0906  0.2436
 7013SOL     OW32500   0.791   3.183   6.282  0.5078  0.2667 -0.0769
 7013SOL    HW132501   0.879   3.217   6.267  0.4645  0.2156 -0.4701
 7013SOL    HW232502   0.746   3.203   6.199 -2.0645  0.4937  1.3644
 7014SOL     OW32503   3.340   4.714   5.528 -0.1957 -0.5026 -0.4797
 7014SOL    HW132504   3.351   4.619   5.523 -0.1338 -0.4032 -2.4637
 7014SOL    HW232505   3.277   4.718   5.600 -0.0989 -2.6285 -0.2969
 7015SOL     OW32506   4.701   3.510  17.383  0.4279 -0.6996  0.0470
 7015SOL    HW132507   4.668   3.597  17.361 -0.2944 -1.4326 -1.7001
 7015SOL    HW232508   0.068   3.536  17.408  1.1229 -1.6628 -1.4461
 7016SOL     OW32509   3.082   4.662   8.648  0.1203 -0.2898  0.3879
 7016SOL    HW132510   3.095   0.014   8.706 -0.2233 -0.2990  0.4757
 7016SOL    HW232511   3.130   4.597   8.699  1.2868  0.6396  0.4661
 7017SOL     OW32512   2.271   0.073   8.887  0.0047 -0.2509  0.1194
 7017SOL    HW132513   2.304   0.151   8.842  0.0794 -1.3093 -1.6580
 7017SOL    HW232514   2.249   0.102   8.976 -0.2993 -0.2707  0.0516
 7018SOL     OW32515   3.865   0.688   9.449  0.0072  0.2460  0.4059
 7018SOL    HW132516   3.930   0.617   9.455  2.0365  2.0241 -0.5261
 7018SOL    HW232517   3.833   0.673   9.360  1.5019 -1.9088  0.2384
 7019SOL     OW32518   1.052   0.106   7.915 -0.1097  0.4504  0.3073
 7019SOL    HW132519   1.070   0.076   8.005  0.3029  0.4589  0.2300
 7019SOL    HW232520   0.958   0.122   7.926 -0.0332  0.7446  0.5461
 7020SOL     OW32521   4.548   3.187   0.088 -0.0887 -0.0041  0.2156
 7020SOL    HW132522   4.472   3.158   0.037 -0.0830  0.3650 -0.0025
 7020SOL    HW232523   4.599   3.229   0.019 -1.2536  2.7449  1.0324
 7021SOL     OW32524   4.706   3.440   0.744 -0.1411 -0.6663 -0.3354
 7021SOL    HW132525   4.692   3.447   0.839 -2.4139 -2.0691 -0.5609
 7021SOL    HW232526   0.067   3.488   0.739 -0.6993  0.3039 -0.2528
 7022SOL     OW32527   3.986   1.259   5.124 -0.2694 -0.6524 -0.3481
 7022SOL    HW132528   4.071   1.261   5.080  0.6032 -2.1213  1.2892
 7022SOL    HW232529   3.931   1.222   5.055 -1.4901  0.2439  0.1355
 7023SOL     OW32530   1.842   3.403   2.286  0.5635  0.4512 -0.3242
 7023SOL    HW132531   1.916   3.442   2.333  0.9540 -0.9023  0.1880
 7023SOL    HW232532   1.897   3.337   2.244  0.5062 -0.0838  0.4250
 7024SOL     OW32533   1.804   0.172   1.404 -0.0662  0.5060  0.2484
 7024SOL    HW132534   1.877   0.149   1.348  0.8532  2.8637  0.4920
 7024SOL    HW232535   1.854   0.215   1.473  0.2313  0.2231  0.2062
 7025SOL     OW32536   3.002   0.024  17.128 -0.3261 -0.0029 -0.1243
 7025SOL    HW132537   3.074   4.704  17.175  0.1460 -0.3973 -1.1890
 7025SOL    HW232538   2.933   0.006  17.193 -0.8708 -0.5989 -0.8656
 7026SOL     OW32539   4.703   0.433   6.977 -0.1200 -0.1394 -0.3872
 7026SOL    HW132540   4.704   0.514   6.927 -1.4991 -1.6491 -2.8787
 7026SOL    HW232541   0.044   0.372   6.938  0.9529  0.9463 -0.3176
 7027SOL     OW32542   3.164   4.545   9.473  0.1968  0.0021 -0.0240
 7027SOL    HW132543   3.259   4.549   9.467  0.2739 -2.3620 -0.5372
 7027SOL    HW232544   3.143   4.638   9.481  0.0591 -0.0320  0.0247
 7028SOL     OW32545   4.022   1.065   6.469 -0.1697 -0.3632  0.1570
 7028SOL    HW132546   4.029   1.002   6.398  3.5463  1.7420 -1.3281
 7028SOL    HW232547   3.998   1.146   6.425  0.0189  0.3645  1.3894
 7029SOL     OW32548   4.387   3.058  11.423  0.1065  0.0743  0.3231
 7029SOL    HW132549   4.293   3.047  11.410  0.1861  1.3536 -1.2920
 7029SOL    HW232550   4.414   2.992  11.359 -2.2009 -1.4778  0.9373
 7030SOL     OW32551   1.567   4.583  17.675 -0.5730 -0.0898  0.3223
 7030SOL    HW132552   1.563   4.571  17.581  1.5805  0.4925  0.1591
 7030SOL    HW232553   1.498   4.524   0.014 -0.6217  0.3989  1.1878
 7031SOL     OW32554   3.848   4.105   3.068 -0.2311 -0.0380 -0.0184
 7031SOL    HW132555   3.852   4.201   3.066  0.3426 -0.1301 -2.5941
 7031SOL    HW232556   3.839   4.092   3.163  0.1233  2.2356  0.3211
 7032SOL     OW32557   1.539   1.896   2.577 -0.2447  0.2152 -0.3859
 7032SOL    HW132558   1.610   1.861   2.523  1.8411 -1.4680  3.4571
 7032SOL    HW232559   1.571   1.874   2.665  0.2796  0.0825 -0.6121
 7033SOL     OW32560   3.701   0.091   4.708  0.0659 -0.0726 -0.5894
 7033SOL    HW132561   3.750   0.109   4.628 -0.4007  0.0010 -0.8562
 7033SOL    HW232562   3.767   0.075   4.775  0.2567  0.6601 -0.6109
 7034SOL     OW32563   1.995   2.304   7.169  0.0035 -0.5295  0.1306
 7034SOL    HW132564   1.904   2.323   7.191  1.0133  0.5922  3.3847
 7034SOL    HW232565   1.987   2.210   7.155  0.7051 -0.8415  1.8174
 7035SOL     OW32566   0.986   0.228   0.378  0.4279 -0.0427 -0.5701
 7035SOL    HW132567   1.069   0.195   0.412  0.3117 -1.3069 -1.5165
 7035SOL    HW232568   0.934   0.165   0.427 -0.5045 -0.9864 -2.7600
 7036SOL     OW32569   3.523   0.330   2.375  0.0138  0.4492  0.4160
 7036SOL    HW132570   3.521   0.413   2.328 -2.5053 -0.3954 -0.9690
 7036SOL    HW232571   3.595   0.284   2.332 -0.7663 -0.5016  0.1206
 7037SOL     OW32572   3.082   0.681   1.983  0.3658 -0.3611 -0.2238
 7037SOL    HW132573   3.092   0.769   2.020 -0.0872  0.3425 -1.7477
 7037SOL    HW232574   3.116   0.635   2.060  0.0060  1.2529  0.8868
 7038SOL     OW32575   2.437   0.807   3.691 -0.3508  0.4781  0.8532
 7038SOL    HW132576   2.434   0.902   3.693  2.0904  0.5582 -0.2913
 7038SOL    HW232577   2.391   0.780   3.771 -0.6504 -2.2388 -0.2409
 7039SOL     OW32578   4.220   4.214   7.584  0.2731  0.5231 -0.5274
 7039SOL    HW132579   4.279   4.278   7.622 -0.0415  1.4882 -1.6524
 7039SOL    HW232580   4.161   4.201   7.658  0.7586  0.0780 -0.2149
 7040SOL     OW32581   1.700   0.143  16.466  0.5204 -0.0978 -0.4582
 7040SOL    HW132582   1.744   0.064  16.496  0.3665 -0.6167 -1.6386
 7040SOL    HW232583   1.698   0.128  16.372  1.9246  1.4627 -0.7340
 7041SOL     OW32584   3.047   0.412   9.210  0.6102 -0.0048 -0.0277
 7041SOL    HW132585   3.131   0.419   9.165 -0.0130 -1.9832 -1.4964
 7041SOL    HW232586   3.048   0.477   9.280  0.7504  0.6834 -0.6676
 7042SOL     OW32587   1.258   4.164  14.648 -0.1993  0.1374 -0.0147
 7042SOL    HW132588   1.270   4.175  14.742  0.4127 -0.6502  0.0059
 7042SOL    HW232589   1.348   4.154  14.614  0.1459  0.0982  0.9184
 7043SOL     OW32590   2.530   1.388  14.091 -0.1244  0.2288  0.2290
 7043SOL    HW132591   2.530   1.475  14.049 -0.9247 -0.0188 -0.2893
 7043SOL    HW232592   2.557   1.399  14.182 -1.8609 -0.7326  0.8633
 7044SOL     OW32593   2.618   1.784   9.426  0.1714  0.1457 -0.0534
 7044SOL    HW132594   2.652   1.735   9.351 -3.4286 -0.1702 -1.4788
 7044SOL    HW232595   2.600   1.707   9.479  0.6389  2.0038  2.7624
 7045SOL     OW32596   1.292   3.889   9.721  0.2079 -0.3137 -0.2419
 7045SOL    HW132597   1.275   3.796   9.732 -0.9876 -0.2003 -1.1229
 7045SOL    HW232598   1.386   3.879   9.704  0.5087  0.8533  0.7262
 7046SOL     OW32599   2.086   0.571   2.915 -0.1234  0.1039 -0.1516
 7046SOL    HW132600   2.122   0.616   2.839  0.9918 -1.0242 -0.2833
 7046SOL    HW232601   2.161   0.519   2.944  0.2345  1.7192  1.7846
 7047SOL     OW32602   0.765   0.223  11.894 -0.1180  0.3702 -0.6157
 7047SOL    HW132603   0.755   0.146  11.838  0.6474  0.0664 -0.3339
 7047SOL    HW232604   0.797   0.173  11.969 -2.0234  0.1831  0.0780
 7048SOL     OW32605   3.425   2.324   5.093  0.4149  0.2678  0.5350
 7048SOL    HW132606   3.426   2.386   5.166 -1.4927  2.5706 -1.4129
 7048SOL    HW232607   3.412   2.247   5.150 -0.6557 -1.3451 -1.9147
 7049SOL     OW32608   2.390   1.164  11.306  0.2384  0.2016  0.7091
 7049SOL    HW132609   2.314   1.146  11.362  0.0588 -0.8586  0.1274
 7049SOL    HW232610   2.439   1.082  11.300  0.4691  0.1360  3.1352
 7050SOL     OW32611   0.715   4.228   7.853 -0.0906 -0.3011  0.0555
 7050SOL    HW132612   0.798   4.274   7.844  0.5237 -1.6698 -1.1401
 7050SOL    HW232613   0.726   4.166   7.781  1.4488  0.2095 -0.1360
 7051SOL     OW32614   0.356   4.020   7.650  0.1895  0.2246 -0.0699
 7051SOL    HW132615   0.335   3.928   7.665 -2.6957  0.7289 -1.0931
 7051SOL    HW232616   0.357   4.019   7.554 -1.3059  1.4194 -0.0997
 7052SOL     OW32617   3.221   0.946   2.895 -0.6778 -0.5263  0.3634
 7052SOL    HW132618   3.316   0.940   2.880 -0.3226  2.9183  1.3506
 7052SOL    HW232619   3.211   1.041   2.890 -0.3514 -0.5764 -1.2592
 7053SOL     OW32620   0.738   2.321  13.807 -0.0943  0.1590 -0.3970
 7053SOL    HW132621   0.738   2.341  13.900 -2.9609 -2.6745  0.1857
 7053SOL    HW232622   0.643   2.313  13.802 -0.1420  0.8066 -0.6512
 7054SOL     OW32623   3.273   2.007  17.539 -0.5613 -0.1929  0.7103
 7054SOL    HW132624   3.270   2.011  17.635  1.7248  0.6583  0.7645
 7054SOL    HW232625   3.367   2.007  17.522 -0.9287 -0.9588 -1.2331
 7055SOL     OW32626   0.145   0.713   0.394 -0.2714  0.5817  0.0404
 7055SOL    HW132627   0.132   0.694   0.487  3.8466 -1.2604  0.2145
 7055SOL    HW232628   0.238   0.700   0.377 -0.2413  2.8333 -1.5686
 7056SOL     OW32629   1.161   3.246   9.366  0.4409  0.1721  0.1620
 7056SOL    HW132630   1.085   3.293   9.400  0.3335 -0.5346  0.8981
 7056SOL    HW232631   1.220   3.321   9.370 -0.0794  0.4501  2.5431
 7057SOL     OW32632   3.096   3.518  16.468  0.5325 -0.2982  0.2517
 7057SOL    HW132633   3.075   3.434  16.510 -0.5761 -0.8938 -1.5227
 7057SOL    HW232634   3.052   3.507  16.384  0.5340 -1.5304  0.4012
 7058SOL     OW32635   0.369   0.298   5.001 -0.5644 -0.4665 -0.1479
 7058SOL    HW132636   0.444   0.300   4.942  0.8427 -1.7165  1.6110
 7058SOL    HW232637   0.370   0.382   5.047  0.2742 -0.6350  0.1436
 7059SOL     OW32638   1.715   2.033   4.581 -0.3692 -0.5235 -0.1614
 7059SOL    HW132639   1.703   2.104   4.645  3.3508  0.1828 -0.2107
 7059SOL    HW232640   1.622   2.020   4.566 -0.3853  1.2685 -1.5888
 7060SOL     OW32641   1.436   4.000   5.951 -0.0329  0.2680  0.0269
 7060SOL    HW132642   1.362   3.996   5.890 -1.4851 -0.7632  1.9027
 7060SOL    HW232643   1.500   3.956   5.895  0.6302 -1.8254  2.4885
 7061SOL     OW32644   2.058   3.976   0.255  0.1795 -0.4194  0.3683
 7061SOL    HW132645   2.008   3.959   0.175  0.2397  0.6274  0.1061
 7061SOL    HW232646   2.144   3.998   0.220 -0.0081  1.4852  1.1227
 7062SOL     OW32647   1.756   2.097   3.438 -0.6037  0.3030 -0.1631
 7062SOL    HW132648   1.788   2.037   3.370  0.1039  0.0736  0.3712
 7062SOL    HW232649   1.767   2.034   3.509 -2.0888  0.5077  0.2542
 7063SOL     OW32650   0.746   4.642   5.983 -0.1752 -0.2760  0.3351
 7063SOL    HW132651   0.733   4.563   5.930 -0.6417  0.4042 -0.5664
 7063SOL    HW232652   0.825   4.690   5.958 -0.8915  0.3073 -0.8203
 7064SOL     OW32653   0.319   0.253   6.167 -0.0019  0.3727 -0.1953
 7064SOL    HW132654   0.335   0.209   6.083 -0.4493  0.8851 -0.5449
 7064SOL    HW232655   0.249   0.194   6.195  1.6827 -1.9857 -0.8958
 7065SOL     OW32656   1.492   3.306   2.283  0.4696  0.4870 -0.4406
 7065SOL    HW132657   1.507   3.214   2.261  2.3559  0.7051 -0.0487
 7065SOL    HW232658   1.430   3.329   2.214 -0.1643 -0.2719 -0.1239
 7066SOL     OW32659   4.657   3.885   4.168 -0.3601  0.0576  0.2151
 7066SOL    HW132660   4.719   3.887   4.241 -0.0234  0.6013 -0.0818
 7066SOL    HW232661   4.628   3.795   4.184 -1.1102  0.5079  1.3698
 7067SOL     OW32662   1.137   3.063   6.233 -0.0821  0.1330 -0.2519
 7067SOL    HW132663   1.108   3.150   6.262  0.9265 -0.0816  1.3967
 7067SOL    HW232664   1.130   3.079   6.139 -1.5856  0.3786 -0.0966
 7068SOL     OW32665   1.594   2.283  14.508  0.7686  0.1612 -0.0110
 7068SOL    HW132666   1.565   2.321  14.425  1.4415 -2.1422 -1.3010
 7068SOL    HW232667   1.689   2.288  14.516  0.5462  0.5466  2.3218
 7069SOL     OW32668   1.477   1.512   7.435  0.1300 -0.0991 -0.0927
 7069SOL    HW132669   1.538   1.571   7.479  0.0646  0.1387 -0.3156
 7069SOL    HW232670   1.391   1.549   7.459  0.9613  1.0228  1.1627
 7070SOL     OW32671   3.427   2.875   2.342  0.0971  0.3042  0.3176
 7070SOL    HW132672   3.360   2.814   2.371  0.4291  0.7378  1.9747
 7070SOL    HW232673   3.484   2.879   2.418 -0.5723 -0.7231  0.8612
 7071SOL     OW32674   1.179   4.372   2.089  0.0639  0.4608  0.2358
 7071SOL    HW132675   1.270   4.403   2.091 -0.0133  0.6819  0.3843
 7071SOL    HW232676   1.152   4.409   2.005  0.6234  1.0753  0.3219
 7072SOL     OW32677   1.418   4.640   3.796  0.1551  0.0059  0.4991
 7072SOL    HW132678   1.385   4.708   3.854  0.4696  0.1361  0.5292
 7072SOL    HW232679   1.493   4.691   3.763 -1.2297  1.4529 -0.3826
 7073SOL     OW32680   3.624   0.427   5.832  0.4410 -0.6815 -0.0079
 7073SOL    HW132681   3.709   0.389   5.805 -0.6052 -3.1404  0.1297
 7073SOL    HW232682   3.619   0.390   5.920  0.4817  0.1644  0.3473
 7074SOL     OW32683   1.868   3.707   4.169 -0.2738  0.4791  0.2215
 7074SOL    HW132684   1.873   3.682   4.076 -2.0666 -0.2208  0.3294
 7074SOL    HW232685   1.867   3.803   4.173  0.2681  0.4988  0.0257
 7075SOL     OW32686   0.747   0.550   0.489 -0.3688  0.2579 -0.6429
 7075SOL    HW132687   0.684   0.484   0.516 -0.7586  1.6289  1.8412
 7075SOL    HW232688   0.747   0.617   0.557 -1.5187  1.7512 -2.0886
 7076SOL     OW32689   3.039   3.901   3.542  0.1521  0.4693  0.0662
 7076SOL    HW132690   3.061   3.900   3.449 -0.3772  1.6957 -0.0699
 7076SOL    HW232691   2.948   3.930   3.538 -0.5082 -1.6851 -0.5381
 7077SOL     OW32692   4.621   2.595  12.945 -0.4513 -0.3767  0.0994
 7077SOL    HW132693   4.633   2.502  12.966 -2.7965 -0.6644  0.1541
 7077SOL    HW232694   4.709   2.628  12.925 -0.9473  0.7345 -0.2309
 7078SOL     OW32695   1.504   0.856   1.784 -0.4521 -0.3722 -0.3699
 7078SOL    HW132696   1.498   0.835   1.877 -0.2348 -0.5700 -0.3990
 7078SOL    HW232697   1.579   0.805   1.754  1.5926  2.9878 -0.9586
 7079SOL     OW32698   4.461   0.733   8.108  0.0731 -0.0522  0.5345
 7079SOL    HW132699   4.407   0.669   8.154  0.1320  0.0918  0.8016
 7079SOL    HW232700   4.537   0.722   8.165  0.3219  1.6477  0.5254
 7080SOL     OW32701   0.200   4.311   3.732  0.3321 -0.1431 -0.4385
 7080SOL    HW132702   0.271   4.315   3.796  1.2444 -0.9355 -1.3996
 7080SOL    HW232703   0.261   4.314   3.658 -0.9339 -2.3189 -1.5722
 7081SOL     OW32704   2.405   1.451   9.910  0.2458 -0.2920 -0.0663
 7081SOL    HW132705   2.377   1.483   9.824  0.0720 -1.3729 -0.4018
 7081SOL    HW232706   2.499   1.467   9.914 -0.0814  0.9783  2.7407
 7082SOL     OW32707   0.692   0.141  16.614 -0.1262  0.1935  0.2500
 7082SOL    HW132708   0.652   0.186  16.540  0.2733 -1.7691 -1.1788
 7082SOL    HW232709   0.700   0.051  16.581 -0.2555  0.6693 -1.0710
 7083SOL     OW32710   0.791   1.965   3.078 -0.5055 -0.3176  0.4424
 7083SOL    HW132711   0.733   1.958   3.002 -0.1749  3.2307 -0.1488
 7083SOL    HW232712   0.833   2.046   3.049 -1.6250 -0.2032 -0.8722
 7084SOL     OW32713   3.170   1.017  12.514 -0.6152  0.2099 -0.2405
 7084SOL    HW132714   3.253   0.989  12.554  0.0849  0.7254 -1.3283
 7084SOL    HW232715   3.138   0.931  12.484 -0.2461  0.3589 -1.0561
 7085SOL     OW32716   2.021   3.838   5.767 -0.3870  0.0047 -0.1607
 7085SOL    HW132717   2.090   3.846   5.833  0.9242 -0.9499 -1.4143
 7085SOL    HW232718   2.044   3.758   5.719 -0.1488 -0.3066  0.4651
 7086SOL     OW32719   2.189   4.384   6.047 -0.4135 -0.2185 -0.3472
 7086SOL    HW132720   2.275   4.419   6.070 -0.1075 -0.3996 -1.1899
 7086SOL    HW232721   2.132   4.455   6.077 -3.3465 -2.9552  0.5347
 7087SOL     OW32722   0.659   3.335   9.008 -0.5042 -0.3987  0.3038
 7087SOL    HW132723   0.620   3.422   9.015  2.9193  1.1399  0.2401
 7087SOL    HW232724   0.740   3.349   9.056 -1.3157  0.8837  1.2951
 7088SOL     OW32725   0.569   3.085   9.094 -0.1520 -0.5454  0.0514
 7088SOL    HW132726   0.647   3.030   9.089 -0.0795 -0.5686  1.4267
 7088SOL    HW232727   0.604   3.171   9.069 -1.7725  0.1708  0.2070
 7089SOL     OW32728   4.662   0.099   0.662 -0.0201  0.5660  0.1537
 7089SOL    HW132729   0.016   0.139   0.620 -2.3153  1.7071 -2.9151
 7089SOL    HW232730   4.684   0.006   0.655  0.0432  0.6264 -0.5035
 7090SOL     OW32731   1.431   3.455  14.742  0.3192 -0.2150  0.3693
 7090SOL    HW132732   1.505   3.511  14.763 -1.4604  2.2503  0.0495
 7090SOL    HW232733   1.415   3.409  14.824  0.5855 -1.4390 -0.2589
 7091SOL     OW32734   4.693   0.034   1.217  0.2782  0.0684 -0.0553
 7091SOL    HW132735   0.031   0.055   1.145 -0.9612 -0.5239 -1.2593
 7091SOL    HW232736   4.674   0.125   1.240 -0.9172 -0.5463  1.3864
 7092SOL     OW32737   1.519   0.544   3.414  0.0644  0.0267  0.1479
 7092SOL    HW132738   1.475   0.462   3.391  2.0904 -0.8660 -0.5242
 7092SOL    HW232739   1.578   0.544   3.339  0.5586 -0.9530  0.5340
 7093SOL     OW32740   0.549   0.083   8.055 -0.2190  0.1434 -0.1594
 7093SOL    HW132741   0.543   0.121   8.143  0.0901  0.9065 -0.4667
 7093SOL    HW232742   0.471   0.028   8.067  0.7381 -1.6415 -2.0900
 7094SOL     OW32743   0.617   0.539   5.579 -0.3376 -0.1884  0.1669
 7094SOL    HW132744   0.557   0.477   5.537  1.2860 -0.2633 -2.0576
 7094SOL    HW232745   0.637   0.490   5.659  2.8180 -1.2812 -1.3153
 7095SOL     OW32746   2.488   3.732   1.095  0.0977 -0.0325 -0.2394
 7095SOL    HW132747   2.535   3.694   1.021  1.2626  1.0905 -0.0666
 7095SOL    HW232748   2.560   3.748   1.155 -1.5761 -3.2412  2.6232
 7096SOL     OW32749   0.538   0.360  10.680  0.0667 -0.0106 -0.4867
 7096SOL    HW132750   0.574   0.364  10.769 -1.0362 -0.1271 -0.0405
 7096SOL    HW232751   0.448   0.339  10.706 -0.0825 -0.2732 -1.2052
 7097SOL     OW32752   1.390   1.626   3.885  0.7233  0.4031  0.9009
 7097SOL    HW132753   1.300   1.658   3.883 -0.0723 -1.8802  0.2145
 7097SOL    HW232754   1.375   1.535   3.860  0.0107  0.9402 -0.6103
 7098SOL     OW32755   0.485   3.896  12.893  0.7643  0.1880  0.3360
 7098SOL    HW132756   0.503   3.802  12.896 -0.8847 -0.1786 -1.2470
 7098SOL    HW232757   0.457   3.896  12.801 -0.4074  1.3719  0.6936
 7099SOL     OW32758   1.227   0.232   7.728  0.2279  0.5051  0.1679
 7099SOL    HW132759   1.175   0.166   7.773 -2.4926  1.0881 -2.1282
 7099SOL    HW232760   1.284   0.254   7.802 -0.6697 -0.0165  1.0136
 7100SOL     OW32761   1.841   2.932  12.793 -0.5304  0.8681  0.2622
 7100SOL    HW132762   1.906   2.993  12.758 -2.6394  1.7965 -1.9978
 7100SOL    HW232763   1.895   2.856  12.812 -2.1694 -0.5994 -1.0105
 7101SOL     OW32764   2.503   0.170  10.116 -0.4863  0.3865  0.5406
 7101SOL    HW132765   2.521   0.091  10.167 -0.0183  0.5186  0.5795
 7101SOL    HW232766   2.408   0.181  10.112 -0.3332  0.5599 -2.3482
 7102SOL     OW32767   1.914   1.990   2.433  0.0999 -0.1118 -0.1314
 7102SOL    HW132768   1.983   2.040   2.389 -0.0540  1.1322  1.0535
 7102SOL    HW232769   1.938   2.006   2.525 -0.8656 -2.9427  0.6329
 7103SOL     OW32770   0.230   2.576  10.141 -0.1057 -0.4397  0.3789
 7103SOL    HW132771   0.181   2.656  10.162  2.0575  0.7723  0.8326
 7103SOL    HW232772   0.312   2.604  10.100 -0.4583  0.9921  0.6479
 7104SOL     OW32773   4.163   2.508   8.253 -0.7859  0.0925  0.0942
 7104SOL    HW132774   4.229   2.544   8.194 -1.4503  0.8444 -0.1881
 7104SOL    HW232775   4.211   2.466   8.324  0.5306  2.0838  0.3594
 7105SOL     OW32776   0.798   3.299   6.825 -0.0586 -0.5842  0.0147
 7105SOL    HW132777   0.789   3.300   6.729 -1.6263  2.5107  0.2067
 7105SOL    HW232778   0.787   3.205   6.841 -0.6552 -0.1292  2.1810
 7106SOL     OW32779   3.243   0.774  11.262  0.1890  0.1119 -0.3668
 7106SOL    HW132780   3.173   0.797  11.323  2.4068 -0.0383  2.2741
 7106SOL    HW232781   3.202   0.712  11.204  2.1420  0.2282 -1.8812
 7107SOL     OW32782   1.241   4.372   7.623  0.4126 -0.7321  0.1475
 7107SOL    HW132783   1.307   4.319   7.667 -0.9960 -1.5877  1.2323
 7107SOL    HW232784   1.248   4.454   7.672 -0.2885  1.2562 -3.0836
 7108SOL     OW32785   1.593   0.536  10.694  0.5130  0.6299  0.3162
 7108SOL    HW132786   1.521   0.597  10.711  0.7819  1.1185 -0.3155
 7108SOL    HW232787   1.602   0.492  10.779 -1.9016 -1.2439 -0.3883
 7109SOL     OW32788   2.964   3.671   9.172 -0.3510 -0.1489 -1.0305
 7109SOL    HW132789   2.878   3.659   9.212  0.8760  1.0536  1.9634
 7109SOL    HW232790   3.012   3.591   9.196 -1.9872  0.2437  3.5604
 7110SOL     OW32791   0.500   1.354   7.485  0.1852 -0.1730 -0.5219
 7110SOL    HW132792   0.410   1.322   7.483  0.1117  0.1423 -2.1493
 7110SOL    HW232793   0.521   1.312   7.402 -0.5381 -0.7964 -0.3823
 7111SOL     OW32794   3.826   0.522   3.358  0.5202 -0.2513  0.0417
 7111SOL    HW132795   3.804   0.512   3.451 -1.2565 -1.7607 -0.5634
 7111SOL    HW232796   3.867   0.438   3.339  0.2919 -0.3758  0.1002
 7112SOL     OW32797   4.626   1.509  13.431  0.3847  0.0335 -0.1226
 7112SOL    HW132798   4.540   1.525  13.392  0.0357 -1.9545 -0.1725
 7112SOL    HW232799   4.680   1.459  13.369  0.7669 -1.7861  1.6730
 7113SOL     OW32800   3.855   4.137   8.464 -0.7582  0.1276  0.4085
 7113SOL    HW132801   3.890   4.049   8.480 -0.1148  0.0414 -1.4409
 7113SOL    HW232802   3.876   4.142   8.371  0.5224  0.8700  0.7402
 7114SOL     OW32803   2.348   3.436   6.435  0.1489  0.0507 -0.0333
 7114SOL    HW132804   2.384   3.419   6.522  0.7144  1.7769  0.0701
 7114SOL    HW232805   2.302   3.355   6.414  0.3776  0.1173 -0.7938
 7115SOL     OW32806   3.135   0.975   7.954 -0.4378  0.7111 -0.8189
 7115SOL    HW132807   3.040   0.964   7.941 -0.8262  1.3022  1.4601
 7115SOL    HW232808   3.146   0.887   7.992  0.6195  1.0614 -0.3319
 7116SOL     OW32809   2.067   4.300   3.454  0.1973 -0.1639 -0.4714
 7116SOL    HW132810   2.135   4.303   3.387  2.9691  0.5721  2.3720
 7116SOL    HW232811   2.032   4.213   3.436 -0.4795 -0.0332  0.2236
 7117SOL     OW32812   1.014   4.024   3.181 -0.7702  0.0849  0.2896
 7117SOL    HW132813   1.035   4.102   3.130 -0.4013 -1.1622 -1.4736
 7117SOL    HW232814   1.038   4.047   3.271 -1.6475  1.9160  0.0531
 7118SOL     OW32815   0.220   1.062  15.732  0.2441  0.3432 -0.4129
 7118SOL    HW132816   0.134   1.022  15.746 -1.1572  2.0621 -4.2674
 7118SOL    HW232817   0.188   1.147  15.704  0.8467  1.4945  2.3663
 7119SOL     OW32818   1.827   0.536   7.623 -0.0936 -0.4447  0.5589
 7119SOL    HW132819   1.822   0.601   7.553  0.9938 -1.1561 -0.1755
 7119SOL    HW232820   1.855   0.591   7.696 -2.2551 -0.3746  1.3375
 7120SOL     OW32821   2.945   0.642  12.743  0.3568 -0.1870  0.1062
 7120SOL    HW132822   2.985   0.556  12.729  0.1043 -0.3718  0.5370
 7120SOL    HW232823   2.964   0.680  12.657  1.2335 -0.8290  0.0078
 7121SOL     OW32824   4.460   0.486  14.462 -0.1095 -0.2562 -0.0676
 7121SOL    HW132825   4.457   0.457  14.553  0.0340 -1.8622 -0.5822
 7121SOL    HW232826   4.470   0.578  14.486  3.1726 -0.5668 -0.2565
 7122SOL     OW32827   4.537   3.371  10.307  0.0787 -0.0833 -0.1555
 7122SOL    HW132828   4.560   3.399  10.396  0.2599 -0.5943 -0.0410
 7122SOL    HW232829   4.518   3.457  10.270 -1.7499 -0.0765  0.7902
 7123SOL     OW32830   0.310   0.885   3.686  0.1018 -0.3035  0.1536
 7123SOL    HW132831   0.247   0.826   3.645  0.7557 -1.5362  0.9127
 7123SOL    HW232832   0.276   0.972   3.667  1.8682  0.4081  0.3168
 7124SOL     OW32833   2.096   3.982   2.012 -0.0345  0.2409  0.2915
 7124SOL    HW132834   2.006   4.013   2.022 -1.0674 -1.7564 -2.6523
 7124SOL    HW232835   2.137   4.061   2.046 -1.2740  0.9915  0.0528
 7125SOL     OW32836   4.401   4.222  12.871  0.4253 -0.6751 -0.4161
 7125SOL    HW132837   4.446   4.258  12.947 -0.1169 -2.9084  0.9693
 7125SOL    HW232838   4.472   4.166  12.839  0.0602 -0.8832 -0.8848
 7126SOL     OW32839   0.374   3.354   3.784 -0.3715  0.0033 -0.7256
 7126SOL    HW132840   0.438   3.422   3.809  0.9993 -1.9735  1.1424
 7126SOL    HW232841   0.397   3.355   3.691  2.2693 -1.4249 -0.0979
 7127SOL     OW32842   4.038   3.229  16.386 -0.5831 -0.3133  0.0835
 7127SOL    HW132843   3.990   3.224  16.303 -0.3530 -0.4373 -0.0393
 7127SOL    HW232844   4.003   3.311  16.422 -2.4225 -1.0781  0.0240
 7128SOL     OW32845   2.939   1.832   1.004  0.4289  0.2206 -0.0444
 7128SOL    HW132846   2.956   1.784   0.923  2.0832  0.6321  0.0728
 7128SOL    HW232847   2.933   1.922   0.972 -2.2300  0.6616  1.6858
 7129SOL     OW32848   1.432   0.788  10.736  0.4004 -0.2874  0.0067
 7129SOL    HW132849   1.432   0.809  10.643  1.0695  3.0607  0.7362
 7129SOL    HW232850   1.340   0.806  10.755  0.6050 -0.5203  1.2050
 7130SOL     OW32851   3.871   2.277   8.607 -0.1085  0.6035  0.0413
 7130SOL    HW132852   3.926   2.353   8.588  0.0744  0.4386 -0.0866
 7130SOL    HW232853   3.846   2.304   8.696  1.7207 -0.2376  0.8118
 7131SOL     OW32854   3.570   2.451   9.565  0.1298 -0.3207 -0.0066
 7131SOL    HW132855   3.647   2.503   9.589 -0.5410 -0.5879  2.7403
 7131SOL    HW232856   3.520   2.523   9.528  0.1387 -1.3921 -2.1292
 7132SOL     OW32857   3.690   4.479  14.415  0.2178  0.2650 -0.0081
 7132SOL    HW132858   3.748   4.436  14.352  1.6582  2.4257 -0.1758
 7132SOL    HW232859   3.702   4.413  14.483 -0.4701  2.3527  2.1274
 7133SOL     OW32860   3.718   3.910   7.429 -0.4427 -0.9048 -0.1068
 7133SOL    HW132861   3.661   3.982   7.402  3.0903  1.4161 -1.4411
 7133SOL    HW232862   3.732   3.935   7.520 -1.7739  1.3315 -0.5032
 7134SOL     OW32863   2.603   3.347   8.273 -0.3160  0.4070  0.1278
 7134SOL    HW132864   2.542   3.293   8.322  0.0076 -1.0035 -1.0369
 7134SOL    HW232865   2.577   3.430   8.315  0.5448  0.1241  1.2339
 7135SOL     OW32866   2.254   2.507   4.397  0.7649 -0.3622 -0.4439
 7135SOL    HW132867   2.253   2.602   4.404 -0.1250 -0.4874  0.9692
 7135SOL    HW232868   2.196   2.481   4.468  1.1798 -0.0215  0.0163
 7136SOL     OW32869   3.135   3.866   2.195 -0.0458  0.2848  0.6663
 7136SOL    HW132870   3.180   3.867   2.280 -0.6159 -3.1055  1.0297
 7136SOL    HW232871   3.046   3.843   2.224 -0.3670  0.2330 -0.3694
 7137SOL     OW32872   0.681   4.698   0.768  0.7189 -0.0283 -0.2135
 7137SOL    HW132873   0.602   4.683   0.820  1.7535 -0.1887  1.3450
 7137SOL    HW232874   0.713   0.061   0.799  1.1963  0.2351 -1.4229
 7138SOL     OW32875   3.490   1.818  13.058  0.1461  0.5292 -0.1611
 7138SOL    HW132876   3.426   1.854  12.996 -0.8973  0.6975  1.0106
 7138SOL    HW232877   3.577   1.856  13.047  0.4104 -0.8118 -2.5917
 7139SOL     OW32878   3.548   2.937   1.727  1.1388  0.0664  0.0735
 7139SOL    HW132879   3.484   2.974   1.666  3.3152 -1.0140 -2.8563
 7139SOL    HW232880   3.543   2.843   1.713 -0.9572  0.2436 -0.4446
 7140SOL     OW32881   3.881   3.053   6.883 -0.1091 -0.2501 -0.4820
 7140SOL    HW132882   3.837   2.998   6.948  0.9628  0.0157  0.4614
 7140SOL    HW232883   3.970   3.026   6.907  0.3406  1.4033 -0.2848
 7141SOL     OW32884   0.614   2.599   1.553 -0.1766  0.2911 -0.0518
 7141SOL    HW132885   0.657   2.524   1.513  0.7641 -0.4634  2.4037
 7141SOL    HW232886   0.523   2.573   1.540 -0.4992  1.7549 -0.7958
 7142SOL     OW32887   1.137   2.400   7.675 -0.1944 -0.4888  0.2985
 7142SOL    HW132888   1.139   2.307   7.655 -2.8813 -0.4189 -0.3456
 7142SOL    HW232889   1.124   2.397   7.770 -1.6663  0.4689  0.1268
 7143SOL     OW32890   2.238   2.115   9.278  0.8197 -0.8695 -0.5220
 7143SOL    HW132891   2.156   2.070   9.298 -0.3689  2.7447  2.7302
 7143SOL    HW232892   2.293   2.054   9.327 -0.9318 -2.5225 -0.6217
 7144SOL     OW32893   4.640   1.457  15.845  0.5713  0.0263  1.0200
 7144SOL    HW132894   4.707   1.522  15.867  2.4006 -1.3150 -0.6113
 7144SOL    HW232895   4.637   1.418  15.933 -0.7139 -2.1045  0.0213
 7145SOL     OW32896   1.705   1.106  16.213  0.1558 -0.0335  0.8132
 7145SOL    HW132897   1.715   1.116  16.119 -2.0240  0.8667  0.6693
 7145SOL    HW232898   1.782   1.067  16.255  0.8439  0.1999 -0.2284
 7146SOL     OW32899   1.409   1.474   7.853 -0.0079 -0.3985 -0.2159
 7146SOL    HW132900   1.331   1.504   7.901  0.8699 -2.6283  2.6314
 7146SOL    HW232901   1.387   1.387   7.820  0.3396 -0.4362 -0.3455
 7147SOL     OW32902   3.431   4.376   7.611  0.2522  0.6873  0.2986
 7147SOL    HW132903   3.352   4.404   7.565 -0.1078 -1.2867 -0.2806
 7147SOL    HW232904   3.420   4.284   7.635  0.5154  0.8936  1.1908
 7148SOL     OW32905   2.500   4.103   1.852  0.5426  0.3834 -0.0428
 7148SOL    HW132906   2.410   4.081   1.829  0.9579 -1.4981  0.1593
 7148SOL    HW232907   2.534   4.125   1.765  1.0224 -1.3766 -0.2904
 7149SOL     OW32908   0.662   2.146   7.531 -0.2087 -0.1318  0.3575
 7149SOL    HW132909   0.647   2.240   7.534 -2.8216 -0.5763  0.8245
 7149SOL    HW232910   0.740   2.153   7.476 -0.0639 -2.0762  0.3038
 7150SOL     OW32911   1.687   0.583  10.308  0.0040 -0.0493  0.0717
 7150SOL    HW132912   1.763   0.562  10.255 -0.5962 -0.3991 -0.6526
 7150SOL    HW232913   1.725   0.566  10.394  0.3219 -2.5031 -0.5525
 7151SOL     OW32914   3.885   3.318  14.485 -0.4621 -0.0031  0.3693
 7151SOL    HW132915   3.957   3.302  14.424  0.6836  0.6749  1.5440
 7151SOL    HW232916   3.824   3.364  14.428  0.9669  0.5825 -0.7069
 7152SOL     OW32917   4.395   1.894  11.727 -0.6992  0.4219  0.2223
 7152SOL    HW132918   4.316   1.842  11.712 -0.1776 -0.2483 -0.1872
 7152SOL    HW232919   4.409   1.922  11.636  0.2328  2.0146  0.8709
 7153SOL     OW32920   1.522   2.479  13.535 -0.2783 -0.0348  0.4151
 7153SOL    HW132921   1.431   2.454  13.552 -0.3770  1.0791  1.5639
 7153SOL    HW232922   1.525   2.560  13.483  2.4300 -0.5636 -0.2591
 7154SOL     OW32923   4.667   1.779   4.166 -0.0761 -0.0702 -0.8705
 7154SOL    HW132924   4.642   1.812   4.252  0.2722 -1.6425 -0.1727
 7154SOL    HW232925   4.581   1.781   4.123 -1.3164 -0.6820  1.5935
 7155SOL     OW32926   1.967   3.975   1.353  0.3916  0.4831  0.1003
 7155SOL    HW132927   2.045   4.004   1.305  0.1067 -0.8148 -1.1629
 7155SOL    HW232928   1.959   3.890   1.309 -0.7904  0.5329  0.2321
 7156SOL     OW32929   1.448   4.668   7.634  0.0724  0.3003  0.1785
 7156SOL    HW132930   1.455   0.040   7.615 -3.6026  0.5649  0.0799
 7156SOL    HW232931   1.535   4.631   7.626  0.0911  0.0226  1.6251
 7157SOL     OW32932   2.757   3.241   2.629 -0.8285 -0.4945  0.8151
 7157SOL    HW132933   2.824   3.176   2.608 -0.7348 -0.1840  0.1486
 7157SOL    HW232934   2.692   3.212   2.565  1.1721 -0.7233 -1.1120
 7158SOL     OW32935   3.327   1.394  16.369  0.4260 -0.0769 -0.1019
 7158SOL    HW132936   3.235   1.410  16.388  0.2195 -1.6743  0.2780
 7158SOL    HW232937   3.339   1.464  16.305  1.4870 -0.0065  0.1691
 7159SOL     OW32938   4.119   3.353   9.963  0.3532 -0.5091 -0.2917
 7159SOL    HW132939   4.083   3.264   9.964 -1.4900  0.1950 -2.7571
 7159SOL    HW232940   4.139   3.355  10.056 -0.3273 -0.1335 -0.1524
 7160SOL     OW32941   3.035   2.846   3.290  0.2772  0.0506 -0.4834
 7160SOL    HW132942   3.114   2.845   3.345  0.0653  2.8637 -0.1293
 7160SOL    HW232943   2.975   2.848   3.365 -0.2567 -0.9557 -0.8961
 7161SOL     OW32944   1.073   0.213  11.856  0.0618 -0.5634  0.0186
 7161SOL    HW132945   1.089   0.166  11.774  0.2038 -0.0825 -0.2318
 7161SOL    HW232946   1.067   0.140  11.918  3.1759 -0.1043  0.8296
 7162SOL     OW32947   1.370   0.522   4.100 -0.2006  0.2884  0.6732
 7162SOL    HW132948   1.307   0.495   4.033 -1.8305  2.3796  1.3722
 7162SOL    HW232949   1.444   0.462   4.089 -0.5661  0.1159 -0.9205
 7163SOL     OW32950   1.215   3.706   6.435  0.2220 -0.0705 -0.3360
 7163SOL    HW132951   1.195   3.753   6.353  2.4399  1.0663 -0.2278
 7163SOL    HW232952   1.243   3.617   6.416  1.1291 -0.2621  1.9799
 7164SOL     OW32953   4.341   4.289   8.709 -0.6013 -0.2926 -0.1315
 7164SOL    HW132954   4.360   4.295   8.616  0.1657 -0.8210 -0.0129
 7164SOL    HW232955   4.402   4.358   8.734 -0.7323 -0.1460 -0.2149
 7165SOL     OW32956   0.834   2.462   7.383 -0.6535  0.1293  0.3068
 7165SOL    HW132957   0.772   2.389   7.374  0.8637 -1.0489 -0.5699
 7165SOL    HW232958   0.860   2.437   7.472  1.1188  1.2007  0.0739
 7166SOL     OW32959   4.637   4.064  12.832 -0.0924  0.6823 -0.3958
 7166SOL    HW132960   4.666   3.983  12.790  0.0087  0.0052  0.9497
 7166SOL    HW232961   4.720   4.103  12.858  0.4909 -1.7561  1.4262
 7167SOL     OW32962   2.806   4.224   8.301 -0.0468 -0.2943  0.3491
 7167SOL    HW132963   2.771   4.243   8.214  2.4171  0.9039 -0.3870
 7167SOL    HW232964   2.893   4.260   8.285  0.5676 -1.6143  0.7589
 7168SOL     OW32965   2.856   0.410   0.515  0.0290 -0.7067 -0.7324
 7168SOL    HW132966   2.841   0.345   0.446 -3.1038 -2.0741  1.2551
 7168SOL    HW232967   2.896   0.358   0.585 -0.4095  0.7529  0.6001
 7169SOL     OW32968   3.823   2.910   9.293 -0.2824  0.3692 -0.5924
 7169SOL    HW132969   3.745   2.897   9.238 -1.4433  0.9125  0.9429
 7169SOL    HW232970   3.785   2.953   9.369  1.8964 -1.1565  1.3716
 7170SOL     OW32971   1.289   0.886   7.184  0.2297 -0.0835  0.3402
 7170SOL    HW132972   1.230   0.961   7.186 -0.0504 -0.2512 -1.9078
 7170SOL    HW232973   1.346   0.916   7.113  0.7062  0.9244  1.1353
 7171SOL     OW32974   1.721   3.451   3.410 -0.2342 -0.8268 -0.4882
 7171SOL    HW132975   1.671   3.497   3.477  0.1619  1.0728 -1.4669
 7171SOL    HW232976   1.800   3.506   3.408 -1.8055  1.5221  1.6102
 7172SOL     OW32977   2.616   2.604   4.122 -0.0622 -0.0434 -0.1356
 7172SOL    HW132978   2.588   2.566   4.205 -0.3176 -0.8330 -0.5868
 7172SOL    HW232979   2.541   2.627   4.068  0.2363 -1.9548 -1.3727
 7173SOL     OW32980   4.008   4.509  14.793  0.1428 -0.1514 -1.2257
 7173SOL    HW132981   3.939   4.451  14.827 -0.2250  0.9337 -0.1565
 7173SOL    HW232982   3.966   4.543  14.713 -0.9745  1.5387  0.0840
 7174SOL     OW32983   2.525   0.294   1.659  0.1954  0.0369  0.2761
 7174SOL    HW132984   2.613   0.282   1.623 -0.5583 -2.7971 -0.5506
 7174SOL    HW232985   2.521   0.389   1.675 -0.8757  0.4840 -2.5989
 7175SOL     OW32986   0.041   0.451   5.605 -0.3936 -0.1573  0.1617
 7175SOL    HW132987   0.039   0.473   5.512  2.1233  2.4600  0.7313
 7175SOL    HW232988   4.675   0.466   5.639  0.0649  0.0878  1.2494
 7176SOL     OW32989   3.550   2.304  13.586  0.2319 -0.2109  0.2522
 7176SOL    HW132990   3.610   2.238  13.553  1.6907  0.6617  1.1729
 7176SOL    HW232991   3.535   2.350  13.503 -1.1359  0.4449  0.8615
 7177SOL     OW32992   2.298   2.800   9.421  0.3968 -0.2072  0.3660
 7177SOL    HW132993   2.256   2.772   9.503  0.9121 -0.8356  0.4160
 7177SOL    HW232994   2.349   2.726   9.390 -1.5840 -1.4016 -0.0265
 7178SOL     OW32995   3.548   2.896   4.779 -0.5729 -0.4082 -0.0937
 7178SOL    HW132996   3.591   2.828   4.831  3.0218  1.0073 -1.2482
 7178SOL    HW232997   3.536   2.974   4.834  1.9899 -0.0850 -0.0038
 7179SOL     OW32998   3.762   4.004   7.673 -0.1721  0.6701 -0.2706
 7179SOL    HW132999   3.707   3.942   7.721 -0.7600  0.4638 -1.2231
 7179SOL    HW233000   3.844   3.953   7.675  0.6084  2.0797  3.3681
 7180SOL     OW33001   0.611   4.461   7.377 -0.3172 -0.4177 -0.1840
 7180SOL    HW133002   0.535   4.473   7.320 -0.8509  0.6417  0.7693
 7180SOL    HW233003   0.570   4.470   7.463  1.0634  0.6401  0.3640
 7181SOL     OW33004   1.614   2.786   0.547  0.5057  0.3158  0.2866
 7181SOL    HW133005   1.633   2.806   0.456 -0.5468  1.4146  0.3091
 7181SOL    HW233006   1.607   2.691   0.556 -1.2141  0.3695 -0.5780
 7182SOL     OW33007   3.019   2.789   2.755  0.1652  0.2557 -0.1903
 7182SOL    HW133008   3.055   2.701   2.764  0.1988  0.2192 -0.6894
 7182SOL    HW233009   3.056   2.839   2.828 -0.9956 -0.0362  0.6133
 7183SOL     OW33010   3.106   1.488  11.350  0.2200  0.0944  0.3597
 7183SOL    HW133011   3.036   1.424  11.334 -1.1881  1.7461 -0.0668
 7183SOL    HW233012   3.114   1.527  11.263 -0.1509 -2.4305 -0.8043
 7184SOL     OW33013   3.711   1.650  11.945 -0.1827  0.0157 -0.3890
 7184SOL    HW133014   3.683   1.677  12.033 -0.9191 -0.3560 -0.5113
 7184SOL    HW233015   3.732   1.558  11.959 -0.7890 -0.1355 -0.4535
 7185SOL     OW33016   3.407   3.912   3.199 -0.4776 -0.5885  0.0078
 7185SOL    HW133017   3.319   3.949   3.204 -1.3926 -2.6763 -0.5722
 7185SOL    HW233018   3.442   3.928   3.111 -0.3220  0.1829  0.2091
 7186SOL     OW33019   3.463   2.343   6.191  0.4240 -0.7684 -0.1659
 7186SOL    HW133020   3.394   2.319   6.128 -0.6255 -1.2527  1.1640
 7186SOL    HW233021   3.428   2.430   6.213  3.1440  0.6904 -1.6267
 7187SOL     OW33022   1.419   2.083   1.360  0.0686 -0.2140 -0.1035
 7187SOL    HW133023   1.387   2.005   1.405 -0.1276  0.6729  1.3047
 7187SOL    HW233024   1.362   2.150   1.397 -0.0484  0.5535 -1.6672
 7188SOL     OW33025   4.394   0.474  10.101  0.1852 -0.0540  0.1202
 7188SOL    HW133026   4.389   0.548  10.040  2.5252 -1.9112 -2.3398
 7188SOL    HW233027   4.432   0.523  10.173  1.4948 -0.3772 -0.3629
 7189SOL     OW33028   3.197   0.206   3.523 -0.1599 -0.2357  0.3023
 7189SOL    HW133029   3.265   0.176   3.583 -0.7256 -0.4933  0.8258
 7189SOL    HW233030   3.148   0.267   3.579 -1.1119  0.2016 -0.9975
 7190SOL     OW33031   3.615   0.584   2.315 -0.5372  0.4413 -0.3990
 7190SOL    HW133032   3.667   0.585   2.396 -0.9352  2.7021 -0.1760
 7190SOL    HW233033   3.637   0.670   2.279  0.2350 -0.2389 -1.5305
 7191SOL     OW33034   0.247   3.878   0.802  0.0333  0.1578 -0.7135
 7191SOL    HW133035   0.302   3.906   0.875  0.0661 -0.4401 -0.5052
 7191SOL    HW233036   0.160   3.884   0.842  0.8423  0.7095  0.9463
 7192SOL     OW33037   1.074   1.235  16.460 -0.4720  0.3935 -0.1556
 7192SOL    HW133038   1.010   1.183  16.509  0.4939 -1.3592 -0.7610
 7192SOL    HW233039   1.021   1.266  16.387  0.7775  0.6947 -0.9252
 7193SOL     OW33040   3.990   0.161   8.203 -0.0139 -0.2525 -0.2499
 7193SOL    HW133041   4.004   0.131   8.293  2.1297 -0.7658 -0.7720
 7193SOL    HW233042   3.902   0.199   8.200 -1.2208 -3.2488 -2.1840
 7194SOL     OW33043   2.034   1.384   8.044 -0.1502 -0.4545 -0.3004
 7194SOL    HW133044   1.943   1.360   8.060 -0.3786 -0.3578 -1.4560
 7194SOL    HW233045   2.045   1.458   8.104  1.6964 -1.1265  0.1720
 7195SOL     OW33046   2.870   1.436  15.102  0.2193  0.7888  0.4551
 7195SOL    HW133047   2.875   1.501  15.032 -0.3309  2.6455  2.1281
 7195SOL    HW233048   2.906   1.493  15.170 -1.9828  0.0820  2.2136
 7196SOL     OW33049   1.195   3.473   0.150  0.3392 -0.1064  0.0740
 7196SOL    HW133050   1.112   3.520   0.149  1.0745  1.1047 -2.5511
 7196SOL    HW233051   1.175   3.408   0.082 -0.7315 -1.3578  1.5558
 7197SOL     OW33052   1.322   2.540   4.488 -0.9050  0.4570  0.1004
 7197SOL    HW133053   1.328   2.445   4.490  0.4637  0.5538  0.9554
 7197SOL    HW233054   1.266   2.556   4.564 -2.6354  1.4070 -1.3759
 7198SOL     OW33055   2.712   1.197   7.633 -0.0184 -0.0388 -0.3712
 7198SOL    HW133056   2.724   1.158   7.546  0.5861  0.9083 -0.7140
 7198SOL    HW233057   2.654   1.273   7.627  0.2472  0.1856 -0.0851
 7199SOL     OW33058   0.972   2.410   6.191  0.5583 -0.4162  0.4758
 7199SOL    HW133059   0.990   2.371   6.105 -0.7143  1.1753 -0.4958
 7199SOL    HW233060   0.906   2.471   6.160  0.6666 -0.2124  0.6446
 7200SOL     OW33061   1.676   0.379   0.863  0.5203 -0.0948  0.1282
 7200SOL    HW133062   1.757   0.407   0.821  0.1352 -0.5207 -0.8883
 7200SOL    HW233063   1.703   0.308   0.921  0.3416 -0.9273 -0.8103
 7201SOL     OW33064   4.015   2.525   1.194  0.4684  0.2716 -0.2883
 7201SOL    HW133065   4.006   2.537   1.099  2.8657 -1.9624 -0.7902
 7201SOL    HW233066   4.110   2.533   1.207  0.5436 -1.5850  0.1966
 7202SOL     OW33067   3.051   0.093   8.090 -0.3323 -0.1979 -0.0579
 7202SOL    HW133068   2.991   0.046   8.149  0.9764  1.0330  2.2414
 7202SOL    HW233069   3.016   0.087   8.002 -3.0606  1.2959  0.9160
 7203SOL     OW33070   1.753   3.039   4.574  0.2161  0.9281 -0.0006
 7203SOL    HW133071   1.782   3.071   4.488 -1.7890  1.4564 -0.4704
 7203SOL    HW233072   1.836   2.996   4.594 -0.5951 -0.6980 -0.1699
 7204SOL     OW33073   2.772   4.666  13.121  0.0561 -0.0548 -0.1188
 7204SOL    HW133074   2.746   4.584  13.162  0.2889 -0.3208 -0.4921
 7204SOL    HW233075   2.702   4.671  13.056 -0.2654  1.6584  0.3708
 7205SOL     OW33076   4.327   4.154   5.775 -0.4659 -0.2046  0.0539
 7205SOL    HW133077   4.397   4.209   5.811 -0.5955  0.0676 -0.1093
 7205SOL    HW233078   4.263   4.215   5.739 -0.1030 -0.5052 -1.1215
 7206SOL     OW33079   3.704   3.953  14.259  0.1748 -0.3060 -0.1528
 7206SOL    HW133080   3.678   4.025  14.201 -1.9451  0.2015  1.4420
 7206SOL    HW233081   3.755   3.995  14.329 -1.9080 -1.5836  2.1108
 7207SOL     OW33082   3.875   0.885   5.434  0.0881 -0.3971  0.1008
 7207SOL    HW133083   3.886   0.790   5.425  0.6865 -0.6027  2.8299
 7207SOL    HW233084   3.805   0.901   5.497  0.7830  0.6593  0.6071
 7208SOL     OW33085   4.347   1.777   0.874 -0.4702  0.3971 -0.0588
 7208SOL    HW133086   4.368   1.800   0.784  0.5064 -0.2537 -0.0036
 7208SOL    HW233087   4.258   1.743   0.864 -0.3571 -0.0745  0.5270
 7209SOL     OW33088   0.920   3.279   1.968 -0.5739  0.1350 -0.3131
 7209SOL    HW133089   0.946   3.351   1.910  1.3728 -0.8276 -0.6322
 7209SOL    HW233090   0.974   3.205   1.940 -2.5726 -1.7961  0.9949
 7210SOL     OW33091   2.712   2.816   3.123 -0.3217 -0.3326 -0.1714
 7210SOL    HW133092   2.805   2.817   3.145 -0.5422 -0.4569  0.7525
 7210SOL    HW233093   2.702   2.740   3.066 -2.8737  0.1179 -0.3363
 7211SOL     OW33094   0.375   2.516   2.049 -0.6589 -0.3427  0.2200
 7211SOL    HW133095   0.387   2.510   2.144 -2.8712 -1.3445  0.4350
 7211SOL    HW233096   0.304   2.454   2.037 -0.1701 -1.0043  0.7269
 7212SOL     OW33097   0.623   2.055   2.873 -0.9249 -0.3693 -1.0378
 7212SOL    HW133098   0.541   2.086   2.911  1.6986  3.6458  1.3375
 7212SOL    HW233099   0.677   2.131   2.893  0.1028 -2.2082  3.1304
 7213SOL     OW33100   0.570   4.141   0.899 -0.2005  0.4633  0.0508
 7213SOL    HW133101   0.657   4.173   0.924 -0.3688 -0.1019  1.3088
 7213SOL    HW233102   0.539   4.123   0.987 -0.1561 -1.6768 -0.3672
 7214SOL     OW33103   2.354   4.650   8.555 -0.7521  0.0430 -0.2975
 7214SOL    HW133104   2.364   4.599   8.475 -0.8197 -0.4458  0.0091
 7214SOL    HW233105   2.290   4.590   8.594 -0.2569  0.2498  0.8493
 7215SOL     OW33106   4.130   0.402   8.167 -0.4150 -0.1517 -0.1229
 7215SOL    HW133107   4.129   0.394   8.071  1.6469 -1.6796  0.0044
 7215SOL    HW233108   4.086   0.320   8.191  1.4103 -0.8954  0.6254
 7216SOL     OW33109   2.311   0.784   7.862  0.0033  0.1681  0.1634
 7216SOL    HW133110   2.397   0.802   7.901 -0.6165  0.9934  1.1441
 7216SOL    HW233111   2.257   0.837   7.920  0.0442 -0.1318  0.4772
 7217SOL     OW33112   1.115   0.054  11.657 -0.1772  0.4297 -0.4451
 7217SOL    HW133113   1.044   0.043  11.593  0.9578 -2.2480 -1.2494
 7217SOL    HW233114   1.191   0.081  11.606 -0.5638  1.7309 -0.3305
 7218SOL     OW33115   0.061   3.438   8.268  0.2735 -0.7541  0.2100
 7218SOL    HW133116   4.715   3.455   8.203 -0.9455  2.4058  2.3183
 7218SOL    HW233117   0.070   3.353   8.224 -0.3600 -0.6244 -0.1731
 7219SOL     OW33118   2.341   2.324  14.809  0.2079  0.7046 -0.1219
 7219SOL    HW133119   2.386   2.240  14.810 -0.1746  0.5403  2.4705
 7219SOL    HW233120   2.350   2.361  14.721  1.0680  0.8874  0.0384
 7220SOL     OW33121   4.224   2.351   8.968 -0.1001  0.2156 -0.5682
 7220SOL    HW133122   4.268   2.267   8.963  1.4233  0.8353  2.3025
 7220SOL    HW233123   4.150   2.328   9.025  0.2739  1.0746  0.2665
 7221SOL     OW33124   2.420   4.639  17.591  0.3094  0.1748  0.3478
 7221SOL    HW133125   2.344   4.593  17.627 -0.7670 -0.2784 -2.5582
 7221SOL    HW233126   2.386   4.703  17.528 -0.8933 -0.8312 -0.0196
 7222SOL     OW33127   1.150   0.440  12.037 -0.0190  0.1101  0.7519
 7222SOL    HW133128   1.091   0.409  11.968  2.2524 -0.3387 -0.9898
 7222SOL    HW233129   1.235   0.433  11.993 -0.6206  0.4388 -0.4789
 7223SOL     OW33130   3.338   0.799   6.740  0.0303  0.3382  0.5807
 7223SOL    HW133131   3.270   0.794   6.672 -0.2653  1.0624  0.8221
 7223SOL    HW233132   3.315   0.882   6.782 -1.1670 -0.4476  1.4560
 7224SOL     OW33133   0.726   2.676   6.504 -0.0287  0.2073  0.1448
 7224SOL    HW133134   0.745   2.753   6.451 -1.2601 -0.1668 -0.8368
 7224SOL    HW233135   0.713   2.714   6.591 -0.2552 -1.0683  0.6723
 7225SOL     OW33136   1.187   2.118   5.295  0.6150  0.1982  0.4421
 7225SOL    HW133137   1.241   2.172   5.352 -0.9907  2.2524  0.0608
 7225SOL    HW233138   1.255   2.088   5.235 -1.3657  2.0814 -2.7575
 7226SOL     OW33139   2.479   0.302   6.316  0.3310 -0.2158 -0.3990
 7226SOL    HW133140   2.447   0.346   6.395  0.8072  0.5476 -0.6355
 7226SOL    HW233141   2.412   0.240   6.285  0.4440 -0.8134  0.5393
 7227SOL     OW33142   2.235   0.466   0.947 -0.2140 -0.0970 -0.8991
 7227SOL    HW133143   2.263   0.467   0.855  1.2210 -0.9761 -0.4775
 7227SOL    HW233144   2.245   0.557   0.975  1.9032 -0.3873 -0.7129
 7228SOL     OW33145   0.319   3.506   8.342 -0.8090  0.1995 -0.2529
 7228SOL    HW133146   0.346   3.465   8.259  0.2444 -0.0928  0.2434
 7228SOL    HW233147   0.252   3.444   8.371 -0.7751 -0.3402 -1.3150
 7229SOL     OW33148   2.053   0.918  12.453  0.2105  0.3891  0.5208
 7229SOL    HW133149   2.116   0.963  12.508  0.8631  0.4308 -0.2651
 7229SOL    HW233150   2.050   0.976  12.377  2.1216 -0.0592  0.1159
 7230SOL     OW33151   4.285   3.448   7.358  0.3873  0.1306 -0.6854
 7230SOL    HW133152   4.197   3.477   7.331 -0.2858 -3.1417 -1.9940
 7230SOL    HW233153   4.334   3.433   7.277  1.1019  0.8285 -0.3851
 7231SOL     OW33154   3.868   3.130   3.794  0.2461 -0.3363 -0.3605
 7231SOL    HW133155   3.799   3.144   3.728 -1.1214 -0.3694  1.0683
 7231SOL    HW233156   3.947   3.147   3.743 -0.7928  0.9533 -1.5762
 7232SOL     OW33157   0.951   2.750   5.044 -0.2804  0.2045  0.2858
 7232SOL    HW133158   0.992   2.669   5.073 -3.4961 -1.2360  0.7982
 7232SOL    HW233159   0.927   2.788   5.129 -1.5865 -2.3123  1.0234
 7233SOL     OW33160   3.053   1.106   0.753  0.2719 -0.1938  0.5154
 7233SOL    HW133161   3.121   1.050   0.788 -2.3170 -3.2759  0.5799
 7233SOL    HW233162   2.994   1.041   0.715 -0.4378 -0.2023  1.6520
 7234SOL     OW33163   2.571   0.135   0.058  0.5605 -0.3968 -0.2255
 7234SOL    HW133164   2.559   0.112   0.151 -0.3110  0.0493 -0.2342
 7234SOL    HW233165   2.498   0.082   0.026 -0.4593  0.6443  0.3813
 7235SOL     OW33166   3.747   4.320  14.637  0.1475  0.3157  0.2877
 7235SOL    HW133167   3.669   4.360  14.673  0.8347  2.2940 -0.4107
 7235SOL    HW233168   3.799   4.302  14.715  1.8358  0.9983 -0.6733
 7236SOL     OW33169   4.019   2.114   5.774 -0.3018  0.1145 -0.2543
 7236SOL    HW133170   3.997   2.194   5.727 -1.5645 -1.3349 -2.1641
 7236SOL    HW233171   4.110   2.099   5.748 -0.2707 -0.6408  0.2854
 7237SOL     OW33172   4.085   0.583   7.008 -0.1663 -0.0066  0.1252
 7237SOL    HW133173   3.990   0.584   6.993 -0.0676 -2.3775 -0.6342
 7237SOL    HW233174   4.117   0.580   6.918  0.6214  0.3442  0.3986
 7238SOL     OW33175   1.230   1.451  11.351  0.5380  0.1061  0.2737
 7238SOL    HW133176   1.176   1.418  11.423  0.3982 -1.1250 -0.3910
 7238SOL    HW233177   1.284   1.372  11.345  0.4094  0.0209  0.2328
 7239SOL     OW33178   1.692   3.405  14.981  0.3149 -0.4491 -0.5939
 7239SOL    HW133179   1.683   3.482  15.037 -0.2738 -0.2236 -1.0042
 7239SOL    HW233180   1.786   3.385  14.981  0.4379  0.0697  1.9230
 7240SOL     OW33181   1.620   3.942   5.469 -0.3159  0.0803 -0.3085
 7240SOL    HW133182   1.579   3.859   5.446  1.2757 -0.7932  0.0372
 7240SOL    HW233183   1.557   3.995   5.519 -0.2491  0.1678 -0.3161
 7241SOL     OW33184   3.069   3.172   4.847 -0.2008  0.2306  0.8176
 7241SOL    HW133185   3.148   3.215   4.816 -0.1621  0.4636  1.2483
 7241SOL    HW233186   3.005   3.195   4.779  1.1446 -3.3647 -1.6533
 7242SOL     OW33187   2.632   0.419   8.021 -0.1341 -0.2526 -0.1486
 7242SOL    HW133188   2.654   0.509   7.997 -0.3688  0.5892  2.6876
 7242SOL    HW233189   2.542   0.424   8.055 -0.3872 -0.7697 -0.7493
 7243SOL     OW33190   3.121   0.175   7.457 -0.6656 -0.5014  0.5119
 7243SOL    HW133191   3.181   0.103   7.473 -0.8994 -1.2733 -2.0252
 7243SOL    HW233192   3.187   0.238   7.428 -0.3488 -1.2782 -0.4306
 7244SOL     OW33193   2.510   4.003   7.680 -0.0685  0.0739 -0.0125
 7244SOL    HW133194   2.427   3.957   7.683 -0.1431  0.4205  3.3825
 7244SOL    HW233195   2.510   4.038   7.768 -0.6364 -1.0356  0.4320
 7245SOL     OW33196   2.576   0.901   9.767  0.1426 -0.2432 -0.1609
 7245SOL    HW133197   2.499   0.889   9.822  1.1820 -0.1820  1.3044
 7245SOL    HW233198   2.652   0.872   9.818 -1.6502 -2.7647  1.0561
 7246SOL     OW33199   0.169   3.220  10.442 -0.0407  0.0799  0.7297
 7246SOL    HW133200   0.260   3.191  10.435  0.2489  1.2971 -0.7087
 7246SOL    HW233201   0.126   3.136  10.456  0.1760 -0.2300 -0.4384
 7247SOL     OW33202   3.775   2.233   5.888 -0.5280 -0.9709  0.0393
 7247SOL    HW133203   3.793   2.251   5.980 -2.1948  1.0219 -0.0115
 7247SOL    HW233204   3.852   2.186   5.858 -0.2990 -0.2898 -0.4422
 7248SOL     OW33205   0.026   1.554  15.457 -0.0159 -0.2424 -0.7105
 7248SOL    HW133206   0.013   1.620  15.388 -0.3167 -1.4557 -1.8171
 7248SOL    HW233207   0.100   1.594  15.501 -0.5271 -0.5918  0.4548
 7249SOL     OW33208   1.562   1.200   0.567  0.0301  0.2777  0.2120
 7249SOL    HW133209   1.640   1.183   0.514 -1.1213 -2.3250 -0.6546
 7249SOL    HW233210   1.526   1.280   0.528  0.4117  0.7757  0.8885
 7250SOL     OW33211   0.654   3.613   7.047 -0.3715 -0.0238 -0.0785
 7250SOL    HW133212   0.565   3.649   7.048 -0.1673  0.4612  0.7316
 7250SOL    HW233213   0.703   3.692   7.074  0.4072 -1.0247  1.4574
 7251SOL     OW33214   0.439   2.208  12.615 -0.5324  0.0527  0.6305
 7251SOL    HW133215   0.419   2.242  12.702 -0.0584  0.7631  0.4595
 7251SOL    HW233216   0.356   2.165  12.597 -0.2089  0.2025 -1.1951
 7252SOL     OW33217   4.314   3.317   6.147 -0.2887 -0.5587  0.0602
 7252SOL    HW133218   4.341   3.226   6.164  0.7527  0.1291  2.0370
 7252SOL    HW233219   4.396   3.360   6.123 -0.9217  0.5031 -0.1669
 7253SOL     OW33220   4.547   4.280   1.710  0.0594 -0.3137 -0.0448
 7253SOL    HW133221   4.582   4.194   1.687 -2.6444 -1.9623  1.9837
 7253SOL    HW233222   4.475   4.258   1.769  0.6150 -0.9423  0.4002
 7254SOL     OW33223   3.096   3.988   2.783  0.7002  0.1488  0.3237
 7254SOL    HW133224   3.107   4.065   2.839 -1.8191  0.7446 -0.0326
 7254SOL    HW233225   3.045   3.935   2.844  1.5701  1.5845  2.3112
 7255SOL     OW33226   2.870   1.750  13.575  0.0182  0.2114  0.4988
 7255SOL    HW133227   2.863   1.698  13.655  2.4002 -0.0269  0.5579
 7255SOL    HW233228   2.965   1.754  13.562  0.0697 -1.2331  0.4077
 7256SOL     OW33229   1.075   4.229   0.203 -0.2138  0.8166  0.3318
 7256SOL    HW133230   1.044   4.143   0.229  0.2287  0.1198 -1.4443
 7256SOL    HW233231   1.010   4.288   0.241 -1.5906 -0.7550  0.4094
 7257SOL     OW33232   3.583   0.420  10.607 -0.4402  0.5485 -0.0030
 7257SOL    HW133233   3.488   0.429  10.612 -0.4019  1.0980 -0.3924
 7257SOL    HW233234   3.604   0.507  10.641  2.0766 -0.3290  0.6769
 7258SOL     OW33235   4.367   1.412   7.267  0.2274 -0.6203 -0.0850
 7258SOL    HW133236   4.395   1.334   7.219  2.4639 -1.8407  3.2203
 7258SOL    HW233237   4.454   1.437   7.298 -0.2338  0.8553  0.0186
 7259SOL     OW33238   3.547   2.851   2.590  0.5793 -0.5729 -0.0931
 7259SOL    HW133239   3.617   2.788   2.604  0.5226 -0.2844  1.4884
 7259SOL    HW233240   3.479   2.829   2.655  0.7652  0.8425  0.5886
 7260SOL     OW33241   4.146   2.886   1.118 -0.3466 -0.3824 -0.3338
 7260SOL    HW133242   4.110   2.921   1.200 -0.6334  1.4846 -1.2526
 7260SOL    HW233243   4.227   2.936   1.120 -1.7401  1.8218  0.7773
 7261SOL     OW33244   1.165   3.532   9.337  0.0111  0.4860 -0.0797
 7261SOL    HW133245   1.162   3.591   9.261 -0.3687  1.8877  1.0349
 7261SOL    HW233246   1.073   3.535   9.364 -0.2716  2.5322 -1.2189
 7262SOL     OW33247   0.658   1.350   8.256  0.4131  0.0618  0.9295
 7262SOL    HW133248   0.575   1.365   8.210  2.0840  2.2042 -1.3505
 7262SOL    HW233249   0.706   1.427   8.224  0.4955  0.0087  0.9265
 7263SOL     OW33250   3.426   0.237  12.442 -0.1877  0.4031 -0.3009
 7263SOL    HW133251   3.417   0.145  12.468  0.9654  0.4887  0.4032
 7263SOL    HW233252   3.354   0.286  12.481  0.5297  2.5945 -1.7234
 7264SOL     OW33253   0.507   1.438   2.350 -0.5253 -0.4023  0.3443
 7264SOL    HW133254   0.472   1.477   2.269 -2.1239 -1.6997  0.4374
 7264SOL    HW233255   0.467   1.352   2.357 -0.3135 -0.4131  1.3524
 7265SOL     OW33256   4.561   1.451   4.300  0.3958 -0.2209  0.1965
 7265SOL    HW133257   4.578   1.460   4.206  2.1238 -2.6214  0.2787
 7265SOL    HW233258   4.646   1.473   4.339 -0.9760  0.1349  2.9781
 7266SOL     OW33259   2.787   4.672   2.933 -0.1305 -0.0655 -0.2178
 7266SOL    HW133260   2.755   0.031   2.971 -0.2023  0.5432 -1.5923
 7266SOL    HW233261   2.711   4.615   2.944  1.4771 -2.4988 -1.5534
 7267SOL     OW33262   3.228   3.485   4.723  0.1661 -0.2657  0.3163
 7267SOL    HW133263   3.173   3.429   4.668  1.5060 -0.4169 -0.8578
 7267SOL    HW233264   3.302   3.489   4.663 -1.9003 -0.3771 -2.2563
 7268SOL     OW33265   3.386   4.292   6.275  0.2522  0.3474  0.0904
 7268SOL    HW133266   3.393   4.215   6.218 -0.1879 -0.3666  1.0001
 7268SOL    HW233267   3.306   4.257   6.315 -0.8057  1.6083 -0.9322
 7269SOL     OW33268   2.027   0.897   7.453 -0.1216 -0.4456  0.1925
 7269SOL    HW133269   2.017   0.850   7.536 -4.2216 -1.4175 -0.8475
 7269SOL    HW233270   1.970   0.972   7.470 -1.0692 -0.8361 -1.2909
 7270SOL     OW33271   3.433   1.596   2.883  0.2207  0.2718  0.0533
 7270SOL    HW133272   3.475   1.660   2.825  0.5496  0.2494  0.2662
 7270SOL    HW233273   3.483   1.608   2.964 -1.8488  0.8875  1.2337
 7271SOL     OW33274   0.109   0.601   3.274 -0.4621 -0.0031  0.0438
 7271SOL    HW133275   0.150   0.524   3.236 -0.7901  0.3113 -0.9603
 7271SOL    HW233276   0.107   0.572   3.365 -0.4158 -1.2937 -0.3691
 7272SOL     OW33277   1.385   1.876  13.453  0.4844 -0.4771  0.2190
 7272SOL    HW133278   1.420   1.929  13.382 -0.7100 -0.2435 -0.1945
 7272SOL    HW233279   1.444   1.899  13.525  0.8743  0.5637 -0.4326
 7273SOL     OW33280   2.318   0.234   7.941  0.1788 -0.4199  0.1210
 7273SOL    HW133281   2.312   0.313   7.995 -0.7552  1.2475 -2.3900
 7273SOL    HW233282   2.293   0.163   8.000  1.1748  0.5217  1.6903
 7274SOL     OW33283   2.608   1.886   8.340  0.5545  0.2212  0.2368
 7274SOL    HW133284   2.695   1.871   8.377 -0.5292 -1.3227  2.1965
 7274SOL    HW233285   2.624   1.968   8.294  1.0701 -0.9585 -1.6840
 7275SOL     OW33286   1.067   0.724   6.102 -0.4475 -0.2543 -0.0854
 7275SOL    HW133287   1.078   0.677   6.185 -0.1461 -0.3777 -0.1915
 7275SOL    HW233288   0.973   0.722   6.088 -0.8386 -1.7762  2.7823
 7276SOL     OW33289   3.258   4.487  11.648 -0.2685 -0.1456 -0.3152
 7276SOL    HW133290   3.311   4.417  11.611  0.4899  0.8407 -1.1260
 7276SOL    HW233291   3.194   4.488  11.576 -0.3624  1.5508 -0.2080
 7277SOL     OW33292   1.547   1.869   6.574 -0.1915 -0.3253  0.1812
 7277SOL    HW133293   1.570   1.782   6.542 -0.4930 -0.3161 -0.0604
 7277SOL    HW233294   1.591   1.928   6.513 -1.5067 -0.7868 -1.2004
 7278SOL     OW33295   2.996   3.169   5.377  0.1105 -0.1253  0.1289
 7278SOL    HW133296   2.967   3.126   5.297 -1.5164 -1.7744  1.5854
 7278SOL    HW233297   3.058   3.106   5.414 -1.2565 -1.9991 -0.7963
 7279SOL     OW33298   0.326   0.050   5.592 -0.0682  0.2527 -0.1023
 7279SOL    HW133299   0.312   0.027   5.500 -0.6823 -3.7162  0.9660
 7279SOL    HW233300   0.283   4.696   5.631  1.5084  0.9122  2.8498
 7280SOL     OW33301   2.847   1.725   0.732  0.4432  0.2550  0.0867
 7280SOL    HW133302   2.886   1.750   0.648  0.8138  0.1906  0.2411
 7280SOL    HW233303   2.770   1.782   0.732  1.1234  1.1367  3.4273
 7281SOL     OW33304   1.833   2.771   2.991  0.6075  0.6398  0.1883
 7281SOL    HW133305   1.893   2.704   2.959 -0.0934 -0.6527  1.6250
 7281SOL    HW233306   1.851   2.842   2.929  0.1993  0.0941 -0.5489
 7282SOL     OW33307   0.585   1.537   4.279 -0.0270 -0.7351 -0.2225
 7282SOL    HW133308   0.649   1.466   4.277  0.1682 -0.5954  1.2068
 7282SOL    HW233309   0.564   1.546   4.186 -0.4420  0.6048 -0.0087
 7283SOL     OW33310   4.494   0.979  14.221 -0.2567 -0.0961 -0.1102
 7283SOL    HW133311   4.431   1.031  14.172 -0.6038  0.3712  0.8265
 7283SOL    HW233312   4.525   1.049  14.279 -0.0395  0.3459 -0.7574
 7284SOL     OW33313   0.467   3.513   5.657  0.3080  0.3262 -0.0519
 7284SOL    HW133314   0.556   3.481   5.648  0.4978  0.7529  0.3536
 7284SOL    HW233315   0.463   3.582   5.723 -0.3846 -0.8248  1.1110
 7285SOL     OW33316   1.910   1.865   4.882 -0.5126  0.0590  0.1564
 7285SOL    HW133317   1.822   1.900   4.895 -1.1641 -0.4450 -2.7862
 7285SOL    HW233318   1.958   1.947   4.875 -1.7998  0.8942  1.0763
 7286SOL     OW33319   0.946   2.701   3.825  0.5217  0.3515  0.6780
 7286SOL    HW133320   0.990   2.751   3.893  0.5585 -0.7477  1.4741
 7286SOL    HW233321   1.008   2.627   3.825 -0.4015 -0.4108 -2.1076
 7287SOL     OW33322   0.943   1.444   4.851  0.3358 -0.0766 -0.0902
 7287SOL    HW133323   0.997   1.432   4.929 -0.3416  2.6476  0.8147
 7287SOL    HW233324   0.898   1.524   4.878  0.1096 -0.9407  2.0994
 7288SOL     OW33325   0.528   0.892   7.730  0.2537  0.6347 -0.2468
 7288SOL    HW133326   0.552   0.876   7.821 -0.1480 -0.9751 -0.4344
 7288SOL    HW233327   0.564   0.980   7.718 -1.0834  1.1529 -0.3703
 7289SOL     OW33328   2.740   2.384   8.188  0.4378  0.2554  0.3248
 7289SOL    HW133329   2.736   2.473   8.153  1.8934 -0.3543 -1.3894
 7289SOL    HW233330   2.822   2.358   8.146 -0.8917 -1.1005 -1.4194
 7290SOL     OW33331   1.351   3.171   3.415 -0.2201 -0.3973  0.4234
 7290SOL    HW133332   1.379   3.188   3.325  0.2712  1.9395  1.0138
 7290SOL    HW233333   1.342   3.076   3.416 -0.6465 -0.3521  0.6531
 7291SOL     OW33334   4.395   1.516  13.261  0.2657  0.3632  0.6894
 7291SOL    HW133335   4.438   1.540  13.179  0.5499  0.4443  0.8601
 7291SOL    HW233336   4.318   1.477  13.221  1.4014 -1.7704  0.5437
 7292SOL     OW33337   2.230   1.010   8.019  0.5528 -0.4859  0.1832
 7292SOL    HW133338   2.201   1.064   8.093 -0.2687 -1.8214  0.8572
 7292SOL    HW233339   2.324   1.005   8.034  0.4343  1.0209  1.4037
 7293SOL     OW33340   3.892   4.537   0.084  0.2631  0.7833  0.2750
 7293SOL    HW133341   3.946   4.615   0.071  2.1877 -0.3234  1.5216
 7293SOL    HW233342   3.953   4.465   0.103 -0.4686 -0.5529 -2.4387
 7294SOL     OW33343   0.916   0.876   7.840  0.6356  0.0234  0.0159
 7294SOL    HW133344   1.008   0.850   7.847 -0.0615 -2.5079 -0.3272
 7294SOL    HW233345   0.911   0.886   7.745  3.1154 -0.3678 -0.1687
 7295SOL     OW33346   3.182   2.135   6.658 -0.3190 -0.0408 -0.2357
 7295SOL    HW133347   3.150   2.217   6.696  0.5279 -0.8452  2.2618
 7295SOL    HW233348   3.146   2.083   6.730  0.4181 -1.3399 -0.8014
 7296SOL     OW33349   0.234   2.915   0.248  0.1842  0.0037  0.0394
 7296SOL    HW133350   0.149   2.872   0.235 -0.0802  0.1711  1.1283
 7296SOL    HW233351   0.259   2.934   0.158 -1.5199  0.3513 -0.3743
 7297SOL     OW33352   0.599   1.633   9.209  0.1966 -0.3148 -0.5026
 7297SOL    HW133353   0.602   1.721   9.170 -2.0606 -0.0735 -0.0982
 7297SOL    HW233354   0.642   1.659   9.291 -1.6455  1.5897 -0.1492
 7298SOL     OW33355   2.274   3.573   4.763 -0.4410 -0.0341  0.2614
 7298SOL    HW133356   2.209   3.609   4.702 -3.4889 -0.9948  2.9770
 7298SOL    HW233357   2.284   3.636   4.834  2.6587  0.1387 -0.3348
 7299SOL     OW33358   1.206   1.968   9.820 -0.6941  0.1483  0.1704
 7299SOL    HW133359   1.171   2.054   9.798 -0.4357  0.4408  0.9100
 7299SOL    HW233360   1.268   1.983   9.891 -0.6359  0.9940 -0.0604
 7300SOL     OW33361   1.809   0.098   5.361 -0.2274  0.1108 -0.2602
 7300SOL    HW133362   1.876   0.039   5.326 -0.9187 -0.5806 -0.4286
 7300SOL    HW233363   1.742   0.070   5.298 -0.0509 -1.1324  0.0947
 7301SOL     OW33364   1.795   0.175   3.933 -0.5727 -0.0882 -0.1188
 7301SOL    HW133365   1.758   0.246   3.986  2.9178  1.5575  0.1217
 7301SOL    HW233366   1.809   0.112   4.003 -1.5640 -2.0499 -1.6789
 7302SOL     OW33367   2.043   1.931   4.433 -0.1708  0.0377 -0.5380
 7302SOL    HW133368   2.055   2.023   4.457  0.8360 -0.0949 -0.5421
 7302SOL    HW233369   2.132   1.895   4.441 -0.8652 -1.4865  0.2790
 7303SOL     OW33370   0.330   1.170  12.776 -0.0794  0.0616  0.0895
 7303SOL    HW133371   0.378   1.249  12.802 -0.7726  1.2922 -2.4303
 7303SOL    HW233372   0.259   1.204  12.722  1.0311  0.1180 -1.3164
 7304SOL     OW33373   2.885   2.147   7.788  0.0618 -0.1441  0.3409
 7304SOL    HW133374   2.798   2.107   7.794  1.1806 -2.6291 -0.1965
 7304SOL    HW233375   2.938   2.080   7.830  0.9909 -1.4604 -2.9670
 7305SOL     OW33376   1.327   4.083   8.321 -0.7466 -0.6632  0.3269
 7305SOL    HW133377   1.413   4.102   8.283 -0.8692  1.8712  1.3370
 7305SOL    HW233378   1.357   4.006   8.370  1.2426  0.1385  0.3810
 7306SOL     OW33379   3.700   3.852  11.804 -0.2739 -0.2828  0.1446
 7306SOL    HW133380   3.695   3.847  11.899  3.3154  1.6108  0.4461
 7306SOL    HW233381   3.659   3.768  11.785 -2.2991  1.0598 -1.4184
 7307SOL     OW33382   4.336   4.344   8.169 -0.4311 -0.0103 -0.0231
 7307SOL    HW133383   4.286   4.326   8.249 -0.5224 -1.2615 -0.3560
 7307SOL    HW233384   4.298   4.427   8.141 -0.9342  1.0252  3.7303
 7308SOL     OW33385   1.138   3.712   7.762  0.9196  0.6479  0.0063
 7308SOL    HW133386   1.093   3.742   7.841 -1.0356  1.4599 -1.4010
 7308SOL    HW233387   1.066   3.658   7.727  0.4035  2.7352 -2.1493
 7309SOL     OW33388   1.408   3.619   1.941  0.6758  0.3951 -0.7139
 7309SOL    HW133389   1.394   3.568   1.861 -0.4990  0.5335 -0.6040
 7309SOL    HW233390   1.319   3.646   1.964  1.3816  0.1507  2.2916
 7310SOL     OW33391   3.306   3.958   3.998 -0.3477  0.1222 -1.0973
 7310SOL    HW133392   3.334   4.050   4.003 -1.2692  0.4669 -2.1594
 7310SOL    HW233393   3.324   3.920   4.084  1.0947  2.2894 -0.4486
 7311SOL     OW33394   4.178   4.479  10.210 -0.5393 -0.1307 -0.2888
 7311SOL    HW133395   4.189   4.547  10.277 -1.6940 -1.5632  1.3196
 7311SOL    HW233396   4.271   4.453  10.211 -0.0759  1.5082 -0.4149
 7312SOL     OW33397   3.370   4.703   9.328 -0.0360 -0.3151  0.4635
 7312SOL    HW133398   3.403   4.720   9.416  2.7403  0.9869 -0.8203
 7312SOL    HW233399   3.358   0.069   9.293  0.5494 -0.9245 -1.2760
 7313SOL     OW33400   1.601   2.532  14.956  0.2235 -0.2929  0.2493
 7313SOL    HW133401   1.612   2.453  14.904  0.3311 -0.8646  1.1404
 7313SOL    HW233402   1.673   2.537  15.020  0.7025 -0.4041 -0.2854
 7314SOL     OW33403   3.393   0.280   8.336 -0.4962 -0.1632  0.0037
 7314SOL    HW133404   3.415   0.275   8.243 -0.0067  1.0805  0.0561
 7314SOL    HW233405   3.331   0.208   8.344  0.3892 -1.0659 -1.2117
 7315SOL     OW33406   0.721   3.171   1.768  0.5590 -0.3928  0.3189
 7315SOL    HW133407   0.769   3.225   1.831  2.6608  0.1890 -1.7532
 7315SOL    HW233408   0.642   3.225   1.764 -1.1978 -3.1736 -2.2329
 7316SOL     OW33409   0.849   3.921  12.597  0.1255 -0.3516 -0.5498
 7316SOL    HW133410   0.824   3.845  12.544  1.4093 -0.8381 -0.4666
 7316SOL    HW233411   0.876   3.894  12.685 -3.3711  1.0333  0.9529
 7317SOL     OW33412   4.209   0.794   4.805  1.3952 -0.7512 -0.0640
 7317SOL    HW133413   4.174   0.830   4.724  0.8508 -1.4729 -0.1528
 7317SOL    HW233414   4.246   0.709   4.783 -1.7829 -1.8808 -1.0643
 7318SOL     OW33415   3.339   2.859   6.758  0.5016  0.0206  0.1397
 7318SOL    HW133416   3.423   2.893   6.726 -0.4370  0.7511 -1.5719
 7318SOL    HW233417   3.367   2.841   6.848  1.3563  1.0024  0.0747
 7319SOL     OW33418   3.423   1.664   4.515 -0.1357  0.8849  0.1580
 7319SOL    HW133419   3.354   1.729   4.505 -1.3854 -0.6326 -1.0964
 7319SOL    HW233420   3.381   1.589   4.558  0.3687  1.4310  1.6174
 7320SOL     OW33421   3.363   1.930  11.130 -0.2068  0.2295  0.1808
 7320SOL    HW133422   3.440   1.986  11.128 -1.0923  1.4672  0.7068
 7320SOL    HW233423   3.347   1.922  11.036 -0.3365  0.5481  0.1742
 7321SOL     OW33424   3.630   0.842   2.215 -0.1809  0.3346  0.2088
 7321SOL    HW133425   3.700   0.906   2.204  2.0320 -1.6963  2.6349
 7321SOL    HW233426   3.556   0.893   2.182  0.7017  0.5945 -1.4005
 7322SOL     OW33427   0.653   0.388   8.723  0.4769 -0.2105 -0.1269
 7322SOL    HW133428   0.697   0.316   8.769  0.4481  0.4551  0.9322
 7322SOL    HW233429   0.564   0.379   8.758  0.8031  2.5329  1.3874
 7323SOL     OW33430   2.517   4.658   3.121  0.5609 -0.5231  0.3478
 7323SOL    HW133431   2.450   4.633   3.186 -0.5853  0.9873 -0.2423
 7323SOL    HW233432   2.562   4.578   3.095  2.7191 -0.0720  2.7419
 7324SOL     OW33433   2.049   3.441   1.893  0.4681  0.2603  0.3980
 7324SOL    HW133434   2.058   3.520   1.947 -0.1178 -0.7485  1.9936
 7324SOL    HW233435   1.972   3.462   1.840  0.9956 -2.3684 -1.3864
 7325SOL     OW33436   0.165   1.643  11.704 -0.4201 -0.6741  0.0393
 7325SOL    HW133437   0.258   1.653  11.723 -0.7117 -0.4691  1.3418
 7325SOL    HW233438   0.141   1.592  11.781 -0.4091  0.6784  0.9441
 7326SOL     OW33439   2.622   2.878   8.513 -0.2701 -0.0991 -0.1413
 7326SOL    HW133440   2.611   2.830   8.596 -2.1890  0.5035 -0.0468
 7326SOL    HW233441   2.715   2.899   8.517 -0.5163  1.1599 -1.0359
 7327SOL     OW33442   2.008   0.239   2.086 -0.5648  0.3067  0.6718
 7327SOL    HW133443   2.020   0.222   1.992  0.0488  4.1128  0.0708
 7327SOL    HW233444   2.103   0.242   2.094 -0.7467  0.6489  2.6444
 7328SOL     OW33445   4.639   2.036  10.422  0.3625 -0.2077 -0.4818
 7328SOL    HW133446   4.580   2.026  10.347  0.7155 -0.1400 -0.7664
 7328SOL    HW233447   4.572   2.022  10.488  0.0717  3.0460 -0.0979
 7329SOL     OW33448   1.781   1.278   7.476 -0.2907 -0.0914  0.0104
 7329SOL    HW133449   1.701   1.270   7.424  0.7910 -1.5829 -1.4147
 7329SOL    HW233450   1.835   1.340   7.427 -0.7222  1.0302  0.9334
 7330SOL     OW33451   4.153   0.752  11.288 -0.3877 -0.0800 -0.3031
 7330SOL    HW133452   4.215   0.813  11.328 -1.5123  0.9180 -0.0891
 7330SOL    HW233453   4.194   0.741  11.202 -1.5256  0.3032 -0.8932
 7331SOL     OW33454   3.486   2.028  16.093  0.8099  0.2072  0.0525
 7331SOL    HW133455   3.571   2.001  16.127  1.1091  0.9447 -0.1161
 7331SOL    HW233456   3.485   2.122  16.107  3.7586  0.4930 -1.7978
 7332SOL     OW33457   0.486   3.219   2.468 -0.1515  0.7387  0.2976
 7332SOL    HW133458   0.475   3.174   2.552  3.7206  3.0869  2.0917
 7332SOL    HW233459   0.411   3.179   2.425 -0.3656  1.6494 -0.1544
 7333SOL     OW33460   4.564   3.083   6.710  0.0013 -0.1080 -0.1388
 7333SOL    HW133461   4.603   3.104   6.795 -0.8933  1.7389 -0.1683
 7333SOL    HW233462   4.637   3.107   6.653 -0.6791 -0.0011 -0.9581
 7334SOL     OW33463   0.885   3.313  11.233  0.1126 -0.1876 -0.0456
 7334SOL    HW133464   0.821   3.279  11.170  0.5078 -0.7999 -0.1184
 7334SOL    HW233465   0.961   3.342  11.183 -0.9915 -0.4549 -1.8788
 7335SOL     OW33466   3.634   1.643  17.341  0.0565  0.3675 -0.1816
 7335SOL    HW133467   3.684   1.582  17.287  0.2474  1.2710 -1.0134
 7335SOL    HW233468   3.653   1.595  17.422 -0.6397  1.4482  0.6247
 7336SOL     OW33469   2.987   0.705  17.606  0.2973  0.5357  0.1131
 7336SOL    HW133470   2.917   0.640  17.604  0.1755  0.7311 -1.8537
 7336SOL    HW233471   3.058   0.642  17.611  0.1904  0.3619 -0.4826
 7337SOL     OW33472   0.440   4.471   5.703 -0.0036  0.0149 -0.2494
 7337SOL    HW133473   0.410   4.458   5.793 -1.0717  0.4698 -0.5441
 7337SOL    HW233474   0.362   4.497   5.654  0.8199  1.5447 -0.7827
 7338SOL     OW33475   1.490   1.300   9.826 -0.5472 -0.1340 -0.9933
 7338SOL    HW133476   1.563   1.357   9.801 -2.0997  3.0314  1.6296
 7338SOL    HW233477   1.493   1.249   9.745  0.7917 -0.9133 -0.4497
 7339SOL     OW33478   2.765   3.764   1.203 -0.3160  0.1663  0.2746
 7339SOL    HW133479   2.811   3.689   1.166 -0.7635 -0.3006  0.6699
 7339SOL    HW233480   2.841   3.804   1.247  1.1532 -1.7043 -0.5725
 7340SOL     OW33481   0.674   4.306   8.128 -0.4280  0.1532 -0.4920
 7340SOL    HW133482   0.599   4.344   8.083 -0.7792  1.2315  0.9835
 7340SOL    HW233483   0.697   4.247   8.056 -0.5018 -0.7433  0.2187
 7341SOL     OW33484   4.093   2.408   2.806  0.1247 -0.1310  0.3125
 7341SOL    HW133485   4.079   2.313   2.798 -1.7381  0.2732 -1.0969
 7341SOL    HW233486   4.169   2.417   2.748  0.0811  1.5850  0.5184
 7342SOL     OW33487   4.166   3.600  16.297  0.7806  0.1833  0.1928
 7342SOL    HW133488   4.116   3.561  16.368  0.1060 -0.7827 -0.8104
 7342SOL    HW233489   4.115   3.584  16.218  2.0582 -0.8211 -0.4271
 7343SOL     OW33490   1.588   4.186   5.723  0.0747 -0.0189 -0.6220
 7343SOL    HW133491   1.587   4.216   5.814 -0.3351 -0.2484 -0.5531
 7343SOL    HW233492   1.502   4.208   5.686 -0.6383 -3.3425 -0.8876
 7344SOL     OW33493   2.910   1.844   0.064  0.2264 -0.2208  0.5715
 7344SOL    HW133494   2.970   1.874  17.687 -0.0751  0.7209  0.7190
 7344SOL    HW233495   2.934   1.899   0.139 -1.7777 -0.5196  1.4371
 7345SOL     OW33496   2.197   2.622   8.625  0.0140 -0.3273 -0.0194
 7345SOL    HW133497   2.173   2.647   8.714  1.3986  0.2215  0.1904
 7345SOL    HW233498   2.275   2.673   8.604 -0.1941 -1.1806 -2.9153
 7346SOL     OW33499   2.757   1.555  16.045  0.4015  0.3283 -0.2211
 7346SOL    HW133500   2.740   1.621  15.978 -2.5709 -0.3665 -0.1295
 7346SOL    HW233501   2.674   1.509  16.039  1.1730 -1.3335  1.9797
 7347SOL     OW33502   2.710   0.975   1.652 -0.5613  0.1890  0.3016
 7347SOL    HW133503   2.798   0.939   1.637 -0.1202  0.6411  1.7912
 7347SOL    HW233504   2.699   0.965   1.746 -1.3270 -1.8202  0.0043
 7348SOL     OW33505   3.028   1.696   1.231  0.2307  0.1093  0.4463
 7348SOL    HW133506   3.007   1.606   1.205  4.4709 -0.7371 -0.0301
 7348SOL    HW233507   2.999   1.741   1.151  0.0424  0.6900  0.8452
 7349SOL     OW33508   3.883   0.005   2.058 -0.2586 -0.4726 -0.1838
 7349SOL    HW133509   3.851   0.026   1.970  0.8431 -1.5858 -0.8563
 7349SOL    HW233510   3.936   4.648   2.052  1.3374  0.5409  0.5214
 7350SOL     OW33511   1.500   0.004   6.539  0.1991 -0.3528 -0.1272
 7350SOL    HW133512   1.503   4.662   6.468  0.6474  0.7849 -1.1436
 7350SOL    HW233513   1.535   4.678   6.614 -0.0034  0.3273  0.3960
 7351SOL     OW33514   2.113   1.015   4.467 -0.2850  0.0017  0.6491
 7351SOL    HW133515   2.075   0.936   4.428 -1.0328 -0.2423  1.8750
 7351SOL    HW233516   2.040   1.037   4.525 -0.6913 -1.8162  0.8213
 7352SOL     OW33517   2.123   0.121   5.998 -0.1585 -0.2903 -0.0845
 7352SOL    HW133518   2.094   0.212   5.995 -0.7397 -0.4515  1.0327
 7352SOL    HW233519   2.166   0.107   5.913  1.1960 -0.5600  0.6336
 7353SOL     OW33520   2.842   3.595  12.014 -0.0829 -0.4210 -0.4107
 7353SOL    HW133521   2.784   3.665  12.043 -0.0702 -0.3211 -0.6297
 7353SOL    HW233522   2.781   3.530  11.980 -1.3264 -0.0495  1.1120
 7354SOL     OW33523   1.567   4.417  14.879  0.2436  0.2909  0.0944
 7354SOL    HW133524   1.649   4.379  14.849  0.2086  2.0711 -2.3181
 7354SOL    HW233525   1.511   4.341  14.865 -0.9762  0.5092  3.8556
 7355SOL     OW33526   1.474   3.522   2.885  0.3440  0.5462  0.1878
 7355SOL    HW133527   1.420   3.481   2.818  3.2632  1.2324 -2.5396
 7355SOL    HW233528   1.411   3.567   2.942  0.2943  2.6363 -1.5361
 7356SOL     OW33529   1.375   3.609   9.483 -0.6987  0.2581 -0.1578
 7356SOL    HW133530   1.333   3.632   9.566 -0.0725 -0.9858  0.4969
 7356SOL    HW233531   1.305   3.557   9.445  0.9687 -1.0231 -1.4680
 7357SOL     OW33532   4.422   2.817   2.357  0.7786 -0.1708 -0.0406
 7357SOL    HW133533   4.420   2.738   2.303 -2.7024 -0.1883  0.1305
 7357SOL    HW233534   4.333   2.851   2.350 -0.0232 -2.5355 -1.4656
 7358SOL     OW33535   1.674   3.106   3.889 -0.4802 -0.0277  0.2030
 7358SOL    HW133536   1.768   3.102   3.877 -0.4653 -2.0708  1.0273
 7358SOL    HW233537   1.655   3.124   3.797 -0.4833 -0.0156  0.2061
 7359SOL     OW33538   3.761   3.591   4.682  0.4976  0.2804 -0.4061
 7359SOL    HW133539   3.824   3.586   4.611 -0.7921 -0.8019 -1.4548
 7359SOL    HW233540   3.808   3.541   4.748  0.3846  1.3284  0.4764
 7360SOL     OW33541   3.210   3.728   5.623 -0.0020  0.1075  0.1067
 7360SOL    HW133542   3.277   3.697   5.684 -0.0529  0.3695  0.2929
 7360SOL    HW233543   3.242   3.818   5.616 -1.2894  0.8117  3.4149
 7361SOL     OW33544   4.284   3.395  15.817  0.1159 -0.0135 -0.1185
 7361SOL    HW133545   4.235   3.453  15.759 -0.7854 -0.8342 -0.1591
 7361SOL    HW233546   4.237   3.312  15.822  1.6181 -0.6326  3.5696
 7362SOL     OW33547   4.669   1.872  11.730 -0.0422 -0.6659  0.5537
 7362SOL    HW133548   4.699   1.947  11.781  0.1112  1.2008 -2.2555
 7362SOL    HW233549   4.574   1.876  11.741 -0.1131  2.8181 -1.2560
 7363SOL     OW33550   0.982   1.330   6.553  0.7859 -0.6727 -0.0496
 7363SOL    HW133551   0.901   1.278   6.548  0.8437 -0.7322 -0.3451
 7363SOL    HW233552   0.940   1.415   6.537  3.6190  0.9107  0.9617
 7364SOL     OW33553   3.533   0.933   7.649 -0.0411 -0.2975 -0.1663
 7364SOL    HW133554   3.619   0.975   7.641  0.2958 -1.1546 -0.9942
 7364SOL    HW233555   3.491   0.948   7.565  4.1300  1.4951 -1.9361
 7365SOL     OW33556   3.761   0.534  12.290 -1.0788  0.9421 -0.1183
 7365SOL    HW133557   3.700   0.602  12.318 -1.2564  0.2375  1.1897
 7365SOL    HW233558   3.838   0.588  12.274 -2.0852  2.0648 -1.2883
 7366SOL     OW33559   3.235   2.232   4.768  0.0405  0.1732 -0.1411
 7366SOL    HW133560   3.188   2.316   4.769  0.0791  0.2145 -1.8722
 7366SOL    HW233561   3.302   2.251   4.702 -1.1860  0.7446 -1.2502
 7367SOL     OW33562   1.489   2.046   3.864 -0.2219 -0.0452  0.2478
 7367SOL    HW133563   1.536   2.032   3.946  0.7495  1.4858 -0.0443
 7367SOL    HW233564   1.528   2.131   3.844 -1.0223  0.1937 -0.3233
 7368SOL     OW33565   3.559   4.666   8.964  1.0728  0.5441  0.4713
 7368SOL    HW133566   3.544   4.584   9.013  0.3893 -0.6147 -1.6712
 7368SOL    HW233567   3.568   4.713   9.047  0.4863  0.2549  0.7024
 7369SOL     OW33568   2.217   3.633   8.317  0.1788  0.0831 -0.1374
 7369SOL    HW133569   2.129   3.613   8.349  0.2147 -0.4137 -0.3399
 7369SOL    HW233570   2.185   3.615   8.229  0.8650  0.8053 -0.5330
 7370SOL     OW33571   0.487   0.155  10.543  0.0456 -0.6040  0.6407
 7370SOL    HW133572   0.511   0.244  10.568  0.7599 -0.6831  0.2388
 7370SOL    HW233573   0.563   0.104  10.570  1.4022  0.8370 -0.5055
 7371SOL     OW33574   0.762   3.433   1.539  0.2151  0.2177 -0.0306
 7371SOL    HW133575   0.804   3.459   1.457 -0.3628  1.3550  0.0395
 7371SOL    HW233576   0.738   3.342   1.524 -0.5383  0.2678  0.9115
 7372SOL     OW33577   0.993   3.122  10.041  0.7560  0.3381 -0.1448
 7372SOL    HW133578   0.974   3.215  10.025  0.3835  0.0751 -1.2560
 7372SOL    HW233579   0.937   3.106  10.117 -0.2875 -0.6524 -1.1319
 7373SOL     OW33580   1.481   1.208   2.488 -0.2098 -0.1259 -0.3812
 7373SOL    HW133581   1.402   1.209   2.434 -0.1877  2.7141 -0.3598
 7373SOL    HW233582   1.545   1.251   2.432  2.3886 -0.7200  2.1837
 7374SOL     OW33583   0.770   4.663  15.661  0.0497 -0.1115  0.2112
 7374SOL    HW133584   0.759   0.032  15.690 -0.0125 -0.1158  0.2002
 7374SOL    HW233585   0.681   4.648  15.630  0.5317 -1.2976 -0.5704
 7375SOL     OW33586   0.206   2.632   3.926 -0.6112 -0.1987 -0.1042
 7375SOL    HW133587   0.235   2.699   3.988  2.0282  0.7861 -2.4247
 7375SOL    HW233588   0.113   2.652   3.914 -1.1873 -0.9978  3.1673
 7376SOL     OW33589   3.599   3.954   6.462  0.2507 -0.0931 -0.3158
 7376SOL    HW133590   3.641   4.032   6.426  1.6091 -1.0973 -0.9230
 7376SOL    HW233591   3.632   3.891   6.398  0.5217  1.0493 -1.3164
 7377SOL     OW33592   2.696   3.970   0.826  0.2506  0.1716  0.3137
 7377SOL    HW133593   2.601   3.985   0.826  0.4919  1.7419  0.8116
 7377SOL    HW233594   2.708   4.008   0.738 -0.3955  1.7784  0.9016
 7378SOL     OW33595   3.840   1.091   4.298  0.2788 -0.0869 -0.5020
 7378SOL    HW133596   3.761   1.143   4.313  1.1406  1.7073 -2.1211
 7378SOL    HW233597   3.831   1.015   4.355 -0.5852 -0.2864 -0.9101
 7379SOL     OW33598   1.941   1.444   8.446  0.2077  0.3327 -0.3465
 7379SOL    HW133599   1.945   1.480   8.357  0.5499 -0.1875 -0.5390
 7379SOL    HW233600   1.853   1.408   8.447  1.0218 -1.6561 -1.0293
 7380SOL     OW33601   1.916   4.176  15.846 -0.4256 -0.0397 -0.4765
 7380SOL    HW133602   1.940   4.237  15.916  0.9468 -0.4178 -0.6057
 7380SOL    HW233603   1.984   4.109  15.857 -0.0026  0.6735  1.3333
 7381SOL     OW33604   0.512   0.316   1.049  0.2689 -0.6197 -0.4543
 7381SOL    HW133605   0.593   0.361   1.070 -1.0388  1.3383  0.3071
 7381SOL    HW233606   0.450   0.374   1.092  0.8852  0.0447 -0.4631
 7382SOL     OW33607   0.516   3.451  12.287 -0.2689 -0.5269  0.3305
 7382SOL    HW133608   0.586   3.446  12.223 -1.6291 -0.1337 -1.1815
 7382SOL    HW233609   0.443   3.443  12.226  0.4401 -0.9234 -0.4578
 7383SOL     OW33610   1.624   4.370   5.507 -0.2306  0.4130  0.1309
 7383SOL    HW133611   1.600   4.349   5.598 -3.4529 -1.7187 -1.1759
 7383SOL    HW233612   1.678   4.293   5.489 -2.4144 -0.7871 -1.3432
 7384SOL     OW33613   1.718   1.234  14.442 -0.2452  0.6118  0.7052
 7384SOL    HW133614   1.756   1.281  14.368 -0.1043  1.7127  1.4789
 7384SOL    HW233615   1.782   1.263  14.508  0.6780  0.3361 -0.0695
 7385SOL     OW33616   3.981   0.840   9.659  0.3652 -0.0919 -0.4781
 7385SOL    HW133617   3.964   0.826   9.565  1.2311  1.6443 -0.8920
 7385SOL    HW233618   3.918   0.778   9.696  0.8617  0.4462  1.2360
 7386SOL     OW33619   0.688   0.814   7.999 -0.8135 -0.0013 -0.5395
 7386SOL    HW133620   0.691   0.727   8.040  1.6048  0.6822  0.7280
 7386SOL    HW233621   0.771   0.814   7.952 -0.6343  0.4805 -0.2245
 7387SOL     OW33622   1.923   3.054  15.656  0.0408 -0.1098  0.2017
 7387SOL    HW133623   1.843   3.062  15.707 -0.5581  1.0618 -0.9302
 7387SOL    HW233624   1.987   3.100  15.709  0.3495 -1.1136  0.7069
 7388SOL     OW33625   3.239   3.427   6.810 -0.5968 -0.1321  0.5502
 7388SOL    HW133626   3.245   3.396   6.901 -0.4148  0.8049  0.8578
 7388SOL    HW233627   3.157   3.384   6.786  0.7444 -2.6811  0.5045
 7389SOL     OW33628   0.034   0.544   8.773 -0.0860 -0.3793  0.3974
 7389SOL    HW133629   0.094   0.618   8.766 -1.3647  0.6687  0.6179
 7389SOL    HW233630   4.674   0.579   8.805  0.5144  0.0305  1.5193
 7390SOL     OW33631   1.552   4.329   8.463 -0.6062  0.8265  0.5650
 7390SOL    HW133632   1.565   4.291   8.550 -0.3327 -0.5411 -0.0719
 7390SOL    HW233633   1.541   4.419   8.493 -1.1555  0.5682  1.1402
 7391SOL     OW33634   0.836   3.040   5.848 -0.0827 -0.4670  0.1575
 7391SOL    HW133635   0.889   3.037   5.769 -1.8283 -0.8728 -0.9962
 7391SOL    HW233636   0.891   3.097   5.903  1.7752 -3.8060  1.7346
 7392SOL     OW33637   2.160   1.233   0.003 -0.6308 -0.3506  0.4604
 7392SOL    HW133638   2.165   1.288   0.081 -1.7395 -0.2001  0.4172
 7392SOL    HW233639   2.192   1.147   0.032  2.9994  1.0609  0.6963
 7393SOL     OW33640   0.233   1.976   5.714 -0.1859 -0.0755  0.5103
 7393SOL    HW133641   0.235   1.998   5.808 -0.2941  1.5702  0.1386
 7393SOL    HW233642   0.282   1.894   5.716  0.0067 -0.0220 -2.6708
 7394SOL     OW33643   4.455   3.532   1.540  0.0500 -0.0196  0.3493
 7394SOL    HW133644   4.549   3.543   1.529  0.0482  0.3751  0.7034
 7394SOL    HW233645   4.458   3.469   1.612 -1.4512 -1.0118 -0.4556
 7395SOL     OW33646   0.884   0.862   3.474 -0.5391 -0.0033  0.6625
 7395SOL    HW133647   0.828   0.939   3.481 -1.0377 -0.2818 -0.2891
 7395SOL    HW233648   0.865   0.830   3.386  0.8316 -2.4140  1.2643
 7396SOL     OW33649   2.438   3.858   5.633  0.2952  0.2143  0.2493
 7396SOL    HW133650   2.517   3.880   5.682  0.9581 -0.7017 -0.4135
 7396SOL    HW233651   2.417   3.772   5.668 -0.4488 -0.1545 -1.1005
 7397SOL     OW33652   0.117   4.439   6.404 -0.0190 -0.0052  0.3366
 7397SOL    HW133653   0.136   4.374   6.337  0.0189  2.3084 -1.9103
 7397SOL    HW233654   0.089   4.387   6.479  3.7458 -1.5163  0.6851
 7398SOL     OW33655   2.436   3.582  10.421  0.6184  0.3330 -0.3226
 7398SOL    HW133656   2.454   3.495  10.386  3.7597  0.4153  1.0563
 7398SOL    HW233657   2.340   3.586  10.415  0.3030 -1.1618  3.2963
 7399SOL     OW33658   2.733   3.366   3.193  0.2455 -0.1242 -0.1105
 7399SOL    HW133659   2.823   3.347   3.216 -1.3117 -3.0722  3.4779
 7399SOL    HW233660   2.730   3.321   3.109  0.4663 -1.9170  0.8501
 7400SOL     OW33661   1.482   1.288   3.313 -0.3232  0.0863 -0.3034
 7400SOL    HW133662   1.450   1.255   3.398  3.5341 -1.4427  0.5551
 7400SOL    HW233663   1.545   1.352   3.346 -1.4624  0.5508  0.9680
 7401SOL     OW33664   3.455   3.752   1.106 -0.2844  0.0585 -0.5009
 7401SOL    HW133665   3.477   3.797   1.025  0.2462 -0.0119 -0.3928
 7401SOL    HW233666   3.543   3.733   1.138 -0.4897  0.1217  0.1066
 7402SOL     OW33667   4.327   0.429  12.500 -0.0685  0.1173 -0.1847
 7402SOL    HW133668   4.422   0.444  12.497 -0.3062  2.4676  3.1541
 7402SOL    HW233669   4.330   0.360  12.566 -0.1397 -1.1480 -1.4947
 7403SOL     OW33670   0.747   1.672   6.668  0.3916  0.5045  0.4634
 7403SOL    HW133671   0.816   1.650   6.605 -1.4962  0.3885 -1.5850
 7403SOL    HW233672   0.735   1.582   6.700  2.1132 -0.4409 -1.5201
 7404SOL     OW33673   4.103   3.727   4.682 -0.2206 -0.1293  0.0004
 7404SOL    HW133674   4.126   3.814   4.650  1.8068 -0.7194 -0.1330
 7404SOL    HW233675   4.048   3.693   4.611 -0.0732  1.8282 -1.0528
 7405SOL     OW33676   4.425   3.749   7.195  0.5876  0.1092 -0.4484
 7405SOL    HW133677   4.445   3.812   7.125 -0.3893 -0.6394 -1.3938
 7405SOL    HW233678   4.502   3.691   7.193  2.1974  2.1869  0.7488
 7406SOL     OW33679   3.448   3.330  14.647 -0.3526  0.1849  0.2383
 7406SOL    HW133680   3.523   3.341  14.588 -0.1620 -0.4456  0.3620
 7406SOL    HW233681   3.417   3.245  14.616 -1.1154  0.5277  0.0696
 7407SOL     OW33682   1.772   1.538  11.064  0.7155  0.0849 -0.5837
 7407SOL    HW133683   1.678   1.526  11.046  0.3891  0.0655  1.0814
 7407SOL    HW233684   1.771   1.579  11.151  2.5180 -0.8225 -0.1572
 7408SOL     OW33685   4.137   4.111   4.816 -0.2635  0.4985 -0.2925
 7408SOL    HW133686   4.140   4.200   4.781  1.9184  0.3180 -0.5397
 7408SOL    HW233687   4.221   4.110   4.862  0.2017 -0.3851 -1.1747
 7409SOL     OW33688   1.960   2.705   4.128  0.2409  0.2992 -0.2605
 7409SOL    HW133689   1.977   2.795   4.098  1.1079 -0.0708 -0.8926
 7409SOL    HW233690   1.969   2.715   4.223  0.5385 -1.4048 -0.1098
 7410SOL     OW33691   0.817   4.557   5.102  0.0489 -0.5016 -0.0364
 7410SOL    HW133692   0.809   4.652   5.106 -1.5507 -0.6618  0.3419
 7410SOL    HW233693   0.886   4.551   5.035  0.0915 -0.0196 -0.0322
 7411SOL     OW33694   3.961   3.876   3.242 -0.2587  0.1085  0.1368
 7411SOL    HW133695   3.948   3.867   3.337 -1.2527 -0.2781 -0.0374
 7411SOL    HW233696   3.868   3.879   3.218  0.0721  0.3674 -1.0622
 7412SOL     OW33697   1.366   1.834   2.281 -0.2860  0.2906  0.2478
 7412SOL    HW133698   1.363   1.785   2.199 -0.7933  0.9354 -0.1196
 7412SOL    HW233699   1.460   1.848   2.291  0.0027 -1.3190 -0.2078
 7413SOL     OW33700   2.269   0.275   2.062  0.1615  0.5196  0.0301
 7413SOL    HW133701   2.284   0.334   1.988 -1.9327  1.7371  0.6040
 7413SOL    HW233702   2.361   0.261   2.086 -0.0133  1.6785  1.3948
 7414SOL     OW33703   0.681   2.830   7.731 -0.3249 -0.4730  0.1873
 7414SOL    HW133704   0.588   2.830   7.707  0.3309 -1.7287 -2.2609
 7414SOL    HW233705   0.717   2.794   7.650 -0.8452  0.7520 -0.5849
 7415SOL     OW33706   4.393   0.886   0.219 -0.2669 -0.3452 -0.1934
 7415SOL    HW133707   4.375   0.900   0.127 -0.2932  1.7546  0.1228
 7415SOL    HW233708   4.400   0.791   0.219 -0.0559 -0.3265 -0.7781
 7416SOL     OW33709   1.796   0.290  14.424  0.5699 -0.1914  0.1957
 7416SOL    HW133710   1.770   0.373  14.465  0.4766 -0.5255  0.8135
 7416SOL    HW233711   1.813   0.231  14.498  2.0651  1.0915  0.8658
 7417SOL     OW33712   3.042   1.981  10.407 -0.2104  0.4158 -0.0439
 7417SOL    HW133713   3.095   1.976  10.327  0.0140  0.4371  0.1022
 7417SOL    HW233714   3.024   1.887  10.416  1.9027 -0.0049 -0.1540
 7418SOL     OW33715   4.393   2.426  11.308 -0.4784  0.2228  0.7050
 7418SOL    HW133716   4.401   2.518  11.332 -0.9440  0.3248  0.4694
 7418SOL    HW233717   4.400   2.380  11.392 -1.5624 -0.9913  0.1349
 7419SOL     OW33718   0.050   1.261   8.806 -0.0440 -0.4933  0.0038
 7419SOL    HW133719   0.097   1.307   8.875 -0.5563  1.4564 -0.9594
 7419SOL    HW233720   0.092   1.175   8.809 -0.5479 -0.7009  1.1228
 7420SOL     OW33721   2.805   2.704  11.130  0.3218 -0.0600 -0.3055
 7420SOL    HW133722   2.841   2.636  11.072 -1.9729 -0.9634 -0.6416
 7420SOL    HW233723   2.755   2.650  11.191 -0.9725 -0.2629 -1.5476
 7421SOL     OW33724   4.061   2.638   9.656 -0.1250 -0.2006  0.1273
 7421SOL    HW133725   4.070   2.719   9.707  0.1146 -0.6494  0.7906
 7421SOL    HW233726   4.117   2.643   9.578  0.4082  1.4461  0.6168
 7422SOL     OW33727   2.141   1.276  13.288  0.3572  0.2967  0.2789
 7422SOL    HW133728   2.048   1.277  13.268  0.2649 -2.5821  0.6617
 7422SOL    HW233729   2.178   1.300  13.203  0.0552 -1.7905 -0.4338
 7423SOL     OW33730   2.211   1.149   4.817 -0.9969 -0.2671  0.2519
 7423SOL    HW133731   2.228   1.196   4.736 -0.5381  0.0336  0.5217
 7423SOL    HW233732   2.139   1.199   4.856 -1.2521 -0.7477  0.4027
 7424SOL     OW33733   1.285   0.651   7.317  0.3672 -0.3075 -0.3940
 7424SOL    HW133734   1.325   0.731   7.284 -2.6951  1.0234 -0.7777
 7424SOL    HW233735   1.207   0.653   7.263 -0.1368  3.2204  0.5109
 7425SOL     OW33736   1.346   2.722   8.498  0.4231  0.4816  0.8468
 7425SOL    HW133737   1.348   2.711   8.593 -0.9353 -0.8794  0.7191
 7425SOL    HW233738   1.378   2.808   8.474  1.0198 -0.0623 -0.3300
 7426SOL     OW33739   4.070   3.495   3.047 -0.2011 -0.0875 -0.4138
 7426SOL    HW133740   4.029   3.421   3.001 -2.4530 -0.1836  1.7429
 7426SOL    HW233741   4.122   3.530   2.975 -0.1451  0.3901 -0.1424
 7427SOL     OW33742   0.594   3.362   5.407  0.6671  0.3225  0.1878
 7427SOL    HW133743   0.657   3.413   5.457 -1.7660  0.6284  2.9608
 7427SOL    HW233744   0.509   3.397   5.436  0.5173  0.1607 -0.0554
 7428SOL     OW33745   1.016   3.836   8.833 -0.2263 -0.5736 -0.4524
 7428SOL    HW133746   1.071   3.809   8.760  1.5685 -0.9136  1.0246
 7428SOL    HW233747   1.082   3.855   8.901  0.1507  0.6705 -1.1708
 7429SOL     OW33748   3.216   3.759   7.058  0.1512 -0.1065 -0.4430
 7429SOL    HW133749   3.263   3.786   7.137 -1.1403  1.0008 -0.0640
 7429SOL    HW233750   3.139   3.813   7.073 -0.8952 -0.8713 -3.1053
 7430SOL     OW33751   1.957   1.382   4.298  0.4387  0.0947  0.2876
 7430SOL    HW133752   1.906   1.463   4.291  2.6600  1.4485 -0.2098
 7430SOL    HW233753   2.023   1.394   4.229 -0.8140 -0.8830 -1.0874
 7431SOL     OW33754   2.499   4.332   1.137  0.3985  0.3243  0.0703
 7431SOL    HW133755   2.529   4.278   1.211  0.0810  0.4429  0.2855
 7431SOL    HW233756   2.487   4.268   1.067 -0.1433  0.1958  0.2810
 7432SOL     OW33757   4.566   1.665  17.484 -0.2912  0.2980  0.0515
 7432SOL    HW133758   4.608   1.626  17.561  0.1417 -0.5227 -0.5973
 7432SOL    HW233759   4.572   1.597  17.416  1.3205  0.2242  0.2645
 7433SOL     OW33760   0.294   3.514  14.176  0.4115 -0.5441 -0.7305
 7433SOL    HW133761   0.309   3.597  14.222  1.1919 -0.7284 -0.6403
 7433SOL    HW233762   0.209   3.525  14.134  1.1488 -0.5020 -2.1962
 7434SOL     OW33763   0.350   0.439   2.181  0.5844  0.1591  0.0188
 7434SOL    HW133764   0.263   0.479   2.177  1.8228  2.6683 -1.7386
 7434SOL    HW233765   0.380   0.447   2.091 -0.0326 -1.1626 -0.3027
 7435SOL     OW33766   1.923   3.524   3.878  0.3518  0.2113 -0.3109
 7435SOL    HW133767   1.980   3.530   3.801 -0.0036  1.7321 -0.4426
 7435SOL    HW233768   1.888   3.613   3.872 -0.5468 -0.1480 -0.3818
 7436SOL     OW33769   0.955   2.021   8.493 -0.1994 -0.2561  0.2518
 7436SOL    HW133770   0.864   2.004   8.468 -0.2799 -0.3702  0.6303
 7436SOL    HW233771   0.980   1.933   8.518  1.0312 -0.9458 -3.2788
 7437SOL     OW33772   2.237   4.382   1.589 -0.2411  0.1224  0.4437
 7437SOL    HW133773   2.148   4.366   1.620  0.6501 -2.8541  1.5379
 7437SOL    HW233774   2.270   4.382   1.679  1.7045  0.3232 -0.2678
 7438SOL     OW33775   3.837   2.331   0.997  0.2886 -0.7914 -0.3698
 7438SOL    HW133776   3.808   2.262   0.937 -1.4978 -2.3931  2.3398
 7438SOL    HW233777   3.926   2.311   1.025  0.9469  2.2070 -0.3274
 7439SOL     OW33778   1.997   2.274   6.079 -0.3786 -0.5783 -0.1193
 7439SOL    HW133779   1.933   2.252   6.012  0.9287 -1.2306 -1.1608
 7439SOL    HW233780   1.940   2.321   6.140  0.9966 -0.4379  1.0735
 7440SOL     OW33781   3.070   1.619   4.171  0.1055  0.4431  0.1976
 7440SOL    HW133782   3.036   1.541   4.216 -1.9521  2.9937  3.0403
 7440SOL    HW233783   3.154   1.632   4.216  0.5502  0.1966 -0.5493
 7441SOL     OW33784   4.376   3.222   5.232 -0.3648  0.3188  0.1247
 7441SOL    HW133785   4.358   3.153   5.297 -0.1761 -0.3685 -0.5540
 7441SOL    HW233786   4.297   3.273   5.252 -0.8549 -0.0042 -1.0112
 7442SOL     OW33787   2.608   2.154   2.046 -0.4067 -0.7092 -0.3853
 7442SOL    HW133788   2.611   2.211   1.969  1.1473 -0.7212 -0.3298
 7442SOL    HW233789   2.621   2.072   1.999 -1.8644 -0.4420 -1.2406
 7443SOL     OW33790   2.874   4.341  13.589  0.1992  0.2803  0.0887
 7443SOL    HW133791   2.868   4.399  13.664 -2.9309  2.1155 -1.5836
 7443SOL    HW233792   2.820   4.390  13.527  0.2766 -0.7358 -0.7824
 7444SOL     OW33793   3.287   4.145   5.848 -0.2264 -0.4545 -0.1500
 7444SOL    HW133794   3.356   4.209   5.831 -0.9727 -0.4129 -3.0584
 7444SOL    HW233795   3.239   4.196   5.914 -3.0052  0.6131 -2.9696
 7445SOL     OW33796   2.343   0.769   4.212  0.0023  0.5825 -0.3740
 7445SOL    HW133797   2.270   0.785   4.272  1.3208 -1.4434  1.7500
 7445SOL    HW233798   2.339   0.674   4.205  2.1749  0.4195  0.4789
 7446SOL     OW33799   0.088   1.306   4.412 -0.1399 -0.3437  0.3274
 7446SOL    HW133800   0.183   1.307   4.400 -0.1306 -0.0756  0.4368
 7446SOL    HW233801   0.071   1.276   4.322  1.4763  0.2902 -0.1940
 7447SOL     OW33802   4.127   0.844   5.067  0.3417 -0.0425  0.8085
 7447SOL    HW133803   4.070   0.767   5.076  0.2508 -0.3039 -1.8949
 7447SOL    HW233804   4.158   0.828   4.978 -2.3941  1.2313 -0.3611
 7448SOL     OW33805   2.626   0.054   4.538  0.2127 -0.3638 -0.0311
 7448SOL    HW133806   2.574   0.021   4.611  1.0660  0.5955  1.0202
 7448SOL    HW233807   2.636   0.145   4.567 -1.3522 -0.5900  1.1970
 7449SOL     OW33808   4.347   3.488  12.864  0.0010 -0.2771 -0.2135
 7449SOL    HW133809   4.346   3.394  12.881 -2.5433  0.8017  5.9405
 7449SOL    HW233810   4.332   3.497  12.770  3.3730  0.2237 -0.6843
 7450SOL     OW33811   2.865   4.436   7.452  0.4598 -0.6839  0.2234
 7450SOL    HW133812   2.904   4.523   7.441  0.4405 -0.6629  0.3149
 7450SOL    HW233813   2.772   4.459   7.447  0.5985  0.0139  0.7723
 7451SOL     OW33814   0.254   2.509   5.594  0.1805 -0.3756  0.4392
 7451SOL    HW133815   0.184   2.452   5.560  2.7733 -1.7935 -2.4905
 7451SOL    HW233816   0.214   2.538   5.676 -0.5379 -1.1841  0.3837
 7452SOL     OW33817   1.152   4.372  10.569 -0.2666 -0.3356 -0.5194
 7452SOL    HW133818   1.228   4.316  10.552 -0.4427 -0.5232 -0.6957
 7452SOL    HW233819   1.135   4.421  10.489 -2.5436 -0.8809 -0.3607
 7453SOL     OW33820   2.157   1.032   2.999 -0.2315 -0.0376  0.0562
 7453SOL    HW133821   2.252   1.042   3.003  0.0044 -1.5935 -1.7208
 7453SOL    HW233822   2.155   0.993   2.912  0.1237 -1.2121  0.5708
 7454SOL     OW33823   3.809   1.999  15.141  0.0964  0.2111  0.4138
 7454SOL    HW133824   3.852   1.935  15.197 -1.3534  0.6530  2.0248
 7454SOL    HW233825   3.764   1.940  15.081 -0.5435  0.1013  1.0083
 7455SOL     OW33826   1.821   4.709   4.727 -0.1938  0.3418  0.4998
 7455SOL    HW133827   1.748   0.005   4.786 -2.0820 -0.4195 -1.6227
 7455SOL    HW233828   1.809   0.061   4.667 -2.2255 -0.9107 -0.6053
 7456SOL     OW33829   0.909   3.648   8.402 -0.6714  0.2203 -0.3716
 7456SOL    HW133830   0.864   3.617   8.480 -1.6721 -0.5654 -1.2705
 7456SOL    HW233831   0.899   3.568   8.350 -0.8994 -0.4513  0.7070
 7457SOL     OW33832   1.928   4.579   1.747 -0.0231 -0.7475  0.9022
 7457SOL    HW133833   1.965   4.491   1.744 -2.5116 -1.7707 -0.3016
 7457SOL    HW233834   1.872   4.573   1.670  1.1375 -2.0950  0.1712
 7458SOL     OW33835   3.437   1.709   1.862  0.3897  0.0650 -0.1206
 7458SOL    HW133836   3.373   1.717   1.791  1.5935  2.9910 -0.8718
 7458SOL    HW233837   3.486   1.790   1.849  2.3160 -1.1640 -0.3678
 7459SOL     OW33838   2.332   2.712   7.796 -0.0902  0.2156  0.3121
 7459SOL    HW133839   2.310   2.719   7.888 -0.3239 -0.9860  0.3446
 7459SOL    HW233840   2.423   2.743   7.798 -0.5802  1.5873  1.2967
 7460SOL     OW33841   2.664   2.459  14.063 -0.2702 -0.1932  0.1154
 7460SOL    HW133842   2.713   2.482  13.984 -0.3907 -1.4203 -0.3090
 7460SOL    HW233843   2.614   2.388  14.022 -1.5705  0.6350  0.2605
 7461SOL     OW33844   0.638   4.447  13.797  0.3716 -0.4152  0.0469
 7461SOL    HW133845   0.657   4.535  13.830 -0.8027  0.0673 -0.5435
 7461SOL    HW233846   0.637   4.400  13.880  0.8635  0.7717  0.7303
 7462SOL     OW33847   1.303   3.120  15.217  0.4481 -0.7332  0.0304
 7462SOL    HW133848   1.316   3.031  15.183  4.1746 -0.6527  1.1961
 7462SOL    HW233849   1.291   3.181  15.145  2.4473  0.4937  0.7177
 7463SOL     OW33850   3.569   0.855  15.204  0.1590 -0.1010  0.2447
 7463SOL    HW133851   3.522   0.873  15.123  0.3347  2.1245  0.6439
 7463SOL    HW233852   3.516   0.908  15.264  1.3882  0.6077  0.6908
 7464SOL     OW33853   2.893   3.558   1.451 -0.0418  0.5792  0.0869
 7464SOL    HW133854   2.817   3.600   1.412 -0.7641 -0.1360  0.7390
 7464SOL    HW233855   2.968   3.584   1.397 -0.3329 -1.6566 -1.3619
 7465SOL     OW33856   2.324   1.163   0.330  0.1896 -0.1718  0.1302
 7465SOL    HW133857   2.243   1.117   0.350 -1.0440  2.1617  0.4955
 7465SOL    HW233858   2.291   1.253   0.328 -0.4505 -0.4347 -1.4079
 7466SOL     OW33859   3.520   3.401   5.684 -0.6197 -0.0662 -0.2374
 7466SOL    HW133860   3.515   3.352   5.766 -0.0113  0.6761  0.2446
 7466SOL    HW233861   3.508   3.491   5.715 -0.0273  0.3296 -1.1447
 7467SOL     OW33862   4.336   2.865   6.062 -0.1408  0.1756 -0.4445
 7467SOL    HW133863   4.298   2.829   6.142  0.5775 -0.5652 -0.4393
 7467SOL    HW233864   4.357   2.781   6.021 -1.2326 -0.5935  0.5525
 7468SOL     OW33865   1.688   2.865   0.314  0.2388 -0.3791 -0.3056
 7468SOL    HW133866   1.650   2.953   0.307  0.2286 -0.3873 -0.3540
 7468SOL    HW233867   1.772   2.884   0.272  1.2506 -0.5331  1.6628
 7469SOL     OW33868   0.442   0.573   3.299  0.2953 -0.1288 -0.7394
 7469SOL    HW133869   0.369   0.590   3.239  0.3712 -0.7743 -1.0167
 7469SOL    HW233870   0.438   0.478   3.289 -0.8818 -0.0195 -1.3500
 7470SOL     OW33871   3.978   4.142   4.271 -0.2092  0.0579 -0.3379
 7470SOL    HW133872   3.979   4.204   4.198 -2.0076  0.0832 -0.3363
 7470SOL    HW233873   4.073   4.128   4.278  0.3822  3.4055 -1.6447
 7471SOL     OW33874   1.872   1.630   4.325 -0.2214  0.5595 -0.2935
 7471SOL    HW133875   1.909   1.692   4.388  1.4409  1.3244 -2.0075
 7471SOL    HW233876   1.934   1.637   4.252  0.2740 -0.4543  0.0424
 7472SOL     OW33877   1.246   4.486  17.587  0.7209 -0.7254  0.1087
 7472SOL    HW133878   1.195   4.423  17.536 -2.3784  1.3384  0.6478
 7472SOL    HW233879   1.309   4.426  17.627  1.5289 -0.0897 -0.2259
 7473SOL     OW33880   2.189   3.321  10.910 -0.1504 -0.1443 -0.0184
 7473SOL    HW133881   2.179   3.253  10.976 -0.1166  2.1206  2.3350
 7473SOL    HW233882   2.284   3.325  10.900  0.0507  0.8132  2.1190
 7474SOL     OW33883   1.797   0.047  11.330  0.0856  0.0044  0.2209
 7474SOL    HW133884   1.883   0.042  11.371 -0.1961  2.3263  1.0999
 7474SOL    HW233885   1.789   0.141  11.312 -2.7774  0.0783  1.8882
 7475SOL     OW33886   2.752   0.176   4.858  0.5182 -0.5738 -0.1932
 7475SOL    HW133887   2.799   0.160   4.777 -0.5424 -0.4608 -0.8313
 7475SOL    HW233888   2.765   0.088   4.895  0.1328 -0.3992  0.3616
 7476SOL     OW33889   3.537   3.929   6.967  0.3814 -0.3966 -0.1050
 7476SOL    HW133890   3.608   3.992   6.978  0.6271 -0.6273 -0.3653
 7476SOL    HW233891   3.465   3.991   6.976  0.9831  0.2735  0.1480
 7477SOL     OW33892   2.715   3.086   8.188  0.2039 -0.0496  0.0848
 7477SOL    HW133893   2.782   3.020   8.169  0.6324 -0.2135  2.2021
 7477SOL    HW233894   2.756   3.169   8.164 -0.1887 -0.6301 -2.6120
 7478SOL     OW33895   4.214   0.227   4.645  0.1004 -0.0387  0.5228
 7478SOL    HW133896   4.289   0.168   4.658  0.7721  0.3560 -1.7055
 7478SOL    HW233897   4.178   0.190   4.565 -1.3127 -1.0786  1.6240
 7479SOL     OW33898   2.015   1.673   8.826  0.0641 -0.7543 -0.4285
 7479SOL    HW133899   2.018   1.758   8.869  0.2706 -1.0726  0.1928
 7479SOL    HW233900   2.061   1.624   8.894 -0.3495  0.9782  1.0918
 7480SOL     OW33901   0.295   0.466   0.161 -0.2638 -0.4754 -0.3480
 7480SOL    HW133902   0.300   0.403   0.233 -0.6606  0.0793  0.1649
 7480SOL    HW233903   0.365   0.426   0.109  0.8471 -0.5220  1.1905
 7481SOL     OW33904   0.616   2.647   2.671  0.0924 -0.1615 -0.2987
 7481SOL    HW133905   0.689   2.707   2.687  1.4862 -2.6279  2.8732
 7481SOL    HW233906   0.578   2.684   2.592 -0.3279  1.8062  0.8436
 7482SOL     OW33907   2.496   2.839  11.230  0.2283 -0.0854 -0.1515
 7482SOL    HW133908   2.402   2.845  11.213  0.2802  0.7436 -0.1754
 7482SOL    HW233909   2.530   2.910  11.175  3.6219  0.4655  2.6107
 7483SOL     OW33910   3.307   3.590   1.532  0.1089 -0.2307 -0.8229
 7483SOL    HW133911   3.396   3.595   1.496  1.2506  2.4550  2.4058
 7483SOL    HW233912   3.295   3.496   1.544  0.3215  0.2148  2.8313
 7484SOL     OW33913   4.709   3.132  13.930 -0.1606  0.3835  0.0536
 7484SOL    HW133914   0.002   3.217  13.888  1.1382 -1.0292 -2.3399
 7484SOL    HW233915   0.069   3.113  13.975 -0.7205 -0.9354  0.5178
 7485SOL     OW33916   3.827   0.011   7.276 -0.5482  0.1928  0.2131
 7485SOL    HW133917   3.893   4.707   7.212 -0.7620 -0.5388  0.2899
 7485SOL    HW233918   3.801   4.653   7.321  1.1916  0.0951  1.0059
 7486SOL     OW33919   0.721   3.391   2.996 -1.1428  0.3123  0.1302
 7486SOL    HW133920   0.699   3.360   3.084 -3.0938  0.3307 -0.3450
 7486SOL    HW233921   0.646   3.359   2.945 -2.6077 -0.6776  2.8374
 7487SOL     OW33922   4.568   0.232   9.638 -0.0592  0.1813 -0.0035
 7487SOL    HW133923   4.605   0.145   9.631 -2.8349 -1.0190  0.2305
 7487SOL    HW233924   4.601   0.251   9.726  1.5837  1.5983 -0.9273
 7488SOL     OW33925   1.360   2.983   4.199 -0.0836  0.5060  0.3961
 7488SOL    HW133926   1.366   2.888   4.205 -2.3753  0.2924 -0.4002
 7488SOL    HW233927   1.451   3.011   4.202  0.1774 -0.1223 -1.4052
 7489SOL     OW33928   3.912   2.900   5.911  0.0169 -0.5233 -0.0206
 7489SOL    HW133929   3.957   2.903   5.995  1.8638  1.3576 -1.0889
 7489SOL    HW233930   3.855   2.824   5.928  0.6586 -1.1385 -0.6337
 7490SOL     OW33931   3.869   2.185   9.622  0.4975  0.2080  0.6941
 7490SOL    HW133932   3.853   2.273   9.586  1.8024 -0.1751 -0.8156
 7490SOL    HW233933   3.809   2.133   9.569 -1.1886  1.3401  1.4877
 7491SOL     OW33934   0.116   1.959   8.696  0.3269 -0.2100  0.6659
 7491SOL    HW133935   0.178   1.894   8.728  1.3114  0.5615  0.3244
 7491SOL    HW233936   0.153   1.996   8.616  0.2654  0.0785  0.7682
 7492SOL     OW33937   3.073   2.079  11.462  0.3913 -0.1581 -0.1919
 7492SOL    HW133938   3.004   2.108  11.521 -1.5339 -0.2161 -2.4349
 7492SOL    HW233939   3.125   2.160  11.462  0.9965 -0.5428  0.4379
 7493SOL     OW33940   1.802   2.849   5.822  0.1300 -0.0903  0.3146
 7493SOL    HW133941   1.742   2.888   5.758 -0.6871  2.7150  2.8104
 7493SOL    HW233942   1.881   2.861   5.770  0.1813  1.5945  0.7736
 7494SOL     OW33943   0.864   2.735  10.732  0.1004 -0.2351 -0.1729
 7494SOL    HW133944   0.934   2.706  10.791  0.9042 -0.4958 -1.2436
 7494SOL    HW233945   0.811   2.656  10.723  0.3272 -0.5468  1.2296
 7495SOL     OW33946   1.335   0.893   8.709  0.1211 -0.2419  0.3393
 7495SOL    HW133947   1.378   0.808   8.721  1.4846  0.1518 -1.7059
 7495SOL    HW233948   1.245   0.871   8.732 -0.7737  0.7613 -2.1629
 7496SOL     OW33949   2.362   0.060   2.820  0.5753  0.4596 -0.5634
 7496SOL    HW133950   2.328   4.694   2.835  1.6855  0.3813  1.5158
 7496SOL    HW233951   2.345   0.074   2.727 -3.4319  1.0741  0.2769
 7497SOL     OW33952   4.203   4.076   2.380  0.5208  0.6297  0.3859
 7497SOL    HW133953   4.142   4.135   2.425 -0.3029  1.3102 -1.6450
 7497SOL    HW233954   4.289   4.110   2.407 -0.1488  0.3742  2.8770
 7498SOL     OW33955   2.586   3.794   6.953 -0.5636 -0.5199  0.0619
 7498SOL    HW133956   2.592   3.858   7.023  1.0984  0.3011 -0.8290
 7498SOL    HW233957   2.571   3.719   7.010  0.2770 -0.6091  0.1625
 7499SOL     OW33958   3.048   1.488   6.486 -0.0876  0.1855  0.6107
 7499SOL    HW133959   3.002   1.471   6.403  0.4425 -1.2170  0.6082
 7499SOL    HW233960   3.118   1.423   6.491 -0.8388 -0.6163  0.7747
 7500SOL     OW33961   0.435   4.383   3.277 -0.1587 -0.4883  0.3450
 7500SOL    HW133962   0.510   4.371   3.219 -0.5567 -2.7514  0.3201
 7500SOL    HW233963   0.364   4.393   3.214 -0.2662  1.2855  0.7446
 7501SOL     OW33964   1.547   0.190  14.777 -0.3009 -0.2690  0.4362
 7501SOL    HW133965   1.495   0.173  14.699 -1.8967 -2.7661  2.0158
 7501SOL    HW233966   1.634   0.162  14.748 -0.5121 -0.5533  0.0893
 7502SOL     OW33967   2.903   4.254   7.737 -0.6839 -0.3695  0.1852
 7502SOL    HW133968   2.946   4.195   7.800  3.4424  0.1388 -2.1788
 7502SOL    HW233969   2.947   4.336   7.760  0.2265 -0.5233 -0.9592
 7503SOL     OW33970   0.040   1.283   0.047 -0.3137  0.1328  0.3881
 7503SOL    HW133971   0.121   1.273   0.097 -0.5782 -1.1308  0.5468
 7503SOL    HW233972   4.715   1.202   0.067 -0.1207 -0.7252 -2.6045
 7504SOL     OW33973   4.674   2.141   7.524  0.2850 -0.5715  0.4850
 7504SOL    HW133974   4.657   2.063   7.471 -0.6865  0.9711 -1.5425
 7504SOL    HW233975   0.002   2.109   7.598  0.4541  1.3859  1.2104
 7505SOL     OW33976   4.650   1.099   6.319  0.1041 -0.7442  0.0935
 7505SOL    HW133977   4.678   1.023   6.267 -1.2875 -0.7659 -0.6120
 7505SOL    HW233978   4.555   1.092   6.319  0.0626 -0.1253 -0.5856
 7506SOL     OW33979   2.449   2.534   5.179  0.1326  0.3708 -0.1511
 7506SOL    HW133980   2.432   2.462   5.240 -0.0167  1.7398  1.4301
 7506SOL    HW233981   2.360   2.550   5.147  0.0767 -0.7508 -0.5670
 7507SOL     OW33982   3.877   1.818   1.910  0.0040 -0.5359  0.2893
 7507SOL    HW133983   3.886   1.848   2.000 -1.4639  2.2273 -0.4809
 7507SOL    HW233984   3.785   1.827   1.888  1.0052  1.0079 -3.2583
 7508SOL     OW33985   4.654   1.158   1.933 -0.5356 -0.7118 -0.0021
 7508SOL    HW133986   4.693   1.175   2.018  1.9551  0.2139 -1.3255
 7508SOL    HW233987   4.589   1.227   1.919  1.8688  0.8802 -3.3860
 7509SOL     OW33988   3.769   4.228   5.898 -0.2154  0.1503  0.3484
 7509SOL    HW133989   3.690   4.231   5.951 -2.3631  0.3174 -2.8826
 7509SOL    HW233990   3.823   4.291   5.946  2.0115 -0.7899 -0.9179
 7510SOL     OW33991   3.611   1.540   0.612  0.2091 -0.0210 -0.5799
 7510SOL    HW133992   3.697   1.498   0.611  0.7408  1.0977 -1.1585
 7510SOL    HW233993   3.574   1.485   0.682  3.8017 -2.1312 -0.3539
 7511SOL     OW33994   2.993   0.328   3.693 -0.2605 -0.3267  0.1658
 7511SOL    HW133995   2.972   0.297   3.782  3.6089  0.2753  1.2595
 7511SOL    HW233996   2.947   0.411   3.681  0.4596  0.0296 -0.0990
 7512SOL     OW33997   1.144   4.389   6.779  0.3680  0.0502  0.1209
 7512SOL    HW133998   1.114   4.429   6.697 -3.0063 -2.4794  0.1320
 7512SOL    HW233999   1.062   4.396   6.827  0.4452  0.7978  0.1391
 7513SOL     OW34000   1.646   1.292   6.425  0.0512  0.8138  0.1419
 7513SOL    HW134001   1.583   1.341   6.477  0.7051 -0.2835  1.9622
 7513SOL    HW234002   1.606   1.205   6.430  0.2478  0.7463  0.5146
 7514SOL     OW34003   0.024   3.245   8.991  0.0074  0.2638  0.3962
 7514SOL    HW134004   0.008   3.339   9.000 -1.5892  0.1356 -0.8641
 7514SOL    HW234005   0.119   3.241   8.986  0.0017  0.9803 -0.3428
 7515SOL     OW34006   3.091   3.865  11.829  0.0314 -0.1537 -0.3340
 7515SOL    HW134007   3.139   3.943  11.800  0.5877 -0.1267  0.6584
 7515SOL    HW234008   3.123   3.855  11.918  0.5867 -0.7119 -0.6012
 7516SOL     OW34009   3.864   2.136   3.416  0.8587  0.5896 -0.3241
 7516SOL    HW134010   3.866   2.183   3.333 -2.5252  3.1436  1.0317
 7516SOL    HW234011   3.916   2.061   3.386  1.3658  0.6526  0.3995
 7517SOL     OW34012   2.736   1.541  17.417  0.5635  0.4736 -0.3535
 7517SOL    HW134013   2.808   1.605  17.411 -2.0769  3.3728 -0.8272
 7517SOL    HW234014   2.663   1.602  17.418 -1.5601 -2.0513 -2.0588
 7518SOL     OW34015   3.706   2.001   6.829  0.0201  0.0323 -0.1332
 7518SOL    HW134016   3.725   1.931   6.891  2.6956  0.7047 -0.2135
 7518SOL    HW234017   3.613   1.989   6.811  0.3696 -2.2796 -0.3879
 7519SOL     OW34018   2.572   2.467  11.601  0.0773  0.2156  0.6636
 7519SOL    HW134019   2.516   2.444  11.675  0.6067 -0.5513  0.8244
 7519SOL    HW234020   2.644   2.404  11.601  0.9082  1.1599  1.8195
 7520SOL     OW34021   4.548   3.338   4.852 -0.7965 -0.0916  0.4593
 7520SOL    HW134022   4.612   3.347   4.923 -1.1309  0.0178  0.7454
 7520SOL    HW234023   4.558   3.250   4.816  1.7511  0.4302 -0.0787
 7521SOL     OW34024   1.632   2.141   2.699  0.1300 -0.2614 -0.0225
 7521SOL    HW134025   1.570   2.069   2.685  1.7740 -1.3267 -1.7560
 7521SOL    HW234026   1.711   2.121   2.648  0.0251  0.9189 -0.6239
 7522SOL     OW34027   3.866   3.681   2.577  0.0938  0.4233  0.0818
 7522SOL    HW134028   3.928   3.749   2.548 -0.6221  0.0578 -2.2671
 7522SOL    HW234029   3.785   3.730   2.569 -0.0183 -0.0626 -1.6881
 7523SOL     OW34030   0.630   4.664   1.497  0.2302  0.3333 -0.2170
 7523SOL    HW134031   0.599   0.009   1.557  2.8155 -0.3416  1.8767
 7523SOL    HW234032   0.658   4.700   1.412 -0.3303  0.8279 -0.1893
 7524SOL     OW34033   4.420   3.689  15.999 -0.0325  0.0946 -0.3490
 7524SOL    HW134034   4.439   3.693  15.906  1.1434 -0.1980 -0.1289
 7524SOL    HW234035   4.511   3.697  16.027 -0.0299 -0.9832 -0.0292
 7525SOL     OW34036   4.569   2.182   4.961 -0.2927  0.3653 -0.0128
 7525SOL    HW134037   4.481   2.161   4.930  0.3520 -1.1149 -0.8645
 7525SOL    HW234038   4.610   2.096   4.970 -5.1275 -1.9174  0.0174
 7526SOL     OW34039   2.630   4.437   2.965  0.3269 -1.2541 -0.0928
 7526SOL    HW134040   2.688   4.374   2.922  1.1179 -1.4420  1.2575
 7526SOL    HW234041   2.599   4.388   3.041  0.6222 -0.7003  0.3847
 7527SOL     OW34042   2.857   4.353  12.945  0.1526  0.8418  0.1959
 7527SOL    HW134043   2.853   4.258  12.935  1.2980  1.0467 -2.1039
 7527SOL    HW234044   2.766   4.377  12.927 -0.7170 -1.4627  1.4327
 7528SOL     OW34045   4.569   3.705   6.910 -0.0708 -0.5784 -0.5814
 7528SOL    HW134046   4.485   3.692   6.865  0.0099 -0.6732 -0.7044
 7528SOL    HW234047   4.555   3.799   6.920  2.8008 -0.0067 -2.0829
 7529SOL     OW34048   3.103   1.130   5.763 -0.0878 -0.2245 -0.4293
 7529SOL    HW134049   3.023   1.157   5.809  0.6500  0.6494  0.3250
 7529SOL    HW234050   3.157   1.080   5.823 -0.6642 -0.8299 -0.4117
 7530SOL     OW34051   3.983   3.755  11.079 -0.0227 -0.5941 -0.2950
 7530SOL    HW134052   4.005   3.757  10.985 -0.9315  0.8490 -0.4729
 7530SOL    HW234053   4.022   3.842  11.089 -0.7606 -0.1935 -0.8947
 7531SOL     OW34054   2.754   1.385   2.581  0.6392  0.4576  0.0326
 7531SOL    HW134055   2.821   1.427   2.636 -0.7302  2.7240 -0.0414
 7531SOL    HW234056   2.808   1.359   2.506 -0.1895  2.2958 -1.2070
 7532SOL     OW34057   4.103   0.814   0.202  0.3250 -0.1505 -0.2953
 7532SOL    HW134058   4.179   0.863   0.168  1.0719 -0.8700  0.3356
 7532SOL    HW234059   4.121   0.775   0.287 -0.7110  0.7488  0.3281
 7533SOL     OW34060   0.965   0.736  12.900 -0.6221  0.1126 -0.2770
 7533SOL    HW134061   1.012   0.692  12.971 -1.1475 -1.9006 -1.1877
 7533SOL    HW234062   0.954   0.662  12.842 -1.0045 -0.9635  1.1676
 7534SOL     OW34063   4.122   0.838   8.089  0.0949  0.2334  0.3940
 7534SOL    HW134064   4.057   0.772   8.113  1.3926 -0.2152  2.6637
 7534SOL    HW234065   4.073   0.893   8.028 -0.4631 -0.2128  0.4443
 7535SOL     OW34066   0.618   3.261   4.839  0.2898 -0.4673  0.0695
 7535SOL    HW134067   0.629   3.296   4.751 -1.5461  4.3451  1.7938
 7535SOL    HW234068   0.582   3.332   4.891 -0.8485 -0.6055 -0.5449
 7536SOL     OW34069   4.004   0.417   5.233  0.2304  0.2147  0.4382
 7536SOL    HW134070   4.016   0.481   5.163  3.0341  0.8713  1.4960
 7536SOL    HW234071   3.974   0.339   5.186  0.5393 -0.9889  2.2437
 7537SOL     OW34072   0.087   2.369   8.118 -0.4077  0.2069  0.7650
 7537SOL    HW134073   0.161   2.395   8.172 -1.5783  2.2803  1.3981
 7537SOL    HW234074   0.129   2.363   8.032  0.0970  0.9172  0.9541
 7538SOL     OW34075   4.343   3.967   5.974 -0.1307  0.1789 -0.0096
 7538SOL    HW134076   4.343   4.044   5.917 -0.9199  0.6570  0.6255
 7538SOL    HW234077   4.270   3.921   5.932 -0.7542  0.1498  1.0803
 7539SOL     OW34078   1.472   2.726   5.675 -0.1501  0.0155 -1.0278
 7539SOL    HW134079   1.535   2.798   5.668 -0.7781  0.4434 -2.2755
 7539SOL    HW234080   1.403   2.775   5.720 -0.9391 -1.6950 -0.3620
 7540SOL     OW34081   2.945   0.608   1.357 -0.0731  0.0799  0.3051
 7540SOL    HW134082   3.022   0.596   1.412 -0.5677 -0.1373  0.9453
 7540SOL    HW234083   2.985   0.661   1.288 -2.1840 -0.2295 -1.1530
 7541SOL     OW34084   1.307   3.541   8.694 -0.6739  0.3154 -0.2927
 7541SOL    HW134085   1.235   3.489   8.730 -0.2942 -1.0593 -1.5544
 7541SOL    HW234086   1.355   3.491   8.629  1.0901 -0.0120  1.2738
 7542SOL     OW34087   2.523   4.320   3.567 -1.0132  0.5186 -0.8831
 7542SOL    HW134088   2.476   4.385   3.515 -3.4429 -0.0987  0.4993
 7542SOL    HW234089   2.545   4.255   3.501 -3.2406  0.4922 -1.6085
 7543SOL     OW34090   3.995   0.271   1.831 -0.3199 -0.7657  0.1941
 7543SOL    HW134091   3.942   0.325   1.772 -0.4740 -0.5743  0.5051
 7543SOL    HW234092   3.989   0.193   1.776  1.3018 -2.3420  2.2554
 7544SOL     OW34093   3.365   4.486   2.138  0.0954 -0.6351 -0.4511
 7544SOL    HW134094   3.372   4.390   2.137 -1.5392 -0.7789  0.5012
 7544SOL    HW234095   3.458   4.503   2.128  0.1767 -0.4101  0.6966
 7545SOL     OW34096   1.616   2.631  17.624  0.3534  0.5379 -0.1879
 7545SOL    HW134097   1.611   2.590   0.020 -1.3930 -0.6461 -0.8311
 7545SOL    HW234098   1.578   2.559  17.574  1.0001  1.6866 -2.3102
 7546SOL     OW34099   0.124   1.894  16.138  0.0305  0.2353  0.2450
 7546SOL    HW134100   0.199   1.953  16.127 -1.1425  1.5261 -0.9070
 7546SOL    HW234101   0.133   1.868  16.230 -1.6748 -1.4757 -0.0900
 7547SOL     OW34102   2.373   3.799   7.297 -0.4645 -0.4657  0.3601
 7547SOL    HW134103   2.347   3.750   7.219  0.5852 -0.6890  0.1562
 7547SOL    HW234104   2.289   3.806   7.342 -0.7727 -2.2192  0.0434
 7548SOL     OW34105   4.688   0.424   7.253 -0.5250 -0.0009  0.0323
 7548SOL    HW134106   4.649   0.338   7.263 -1.1467  0.2143 -0.5203
 7548SOL    HW234107   4.688   0.424   7.157  0.7353 -1.8256  0.0443
 7549SOL     OW34108   2.682   1.927   4.688  0.3887  0.0235  0.2890
 7549SOL    HW134109   2.641   2.012   4.700 -0.4731 -0.4146  0.4384
 7549SOL    HW234110   2.611   1.870   4.717 -0.2654  1.4462  1.4553
 7550SOL     OW34111   1.884   0.411  13.332  0.4303 -0.6015 -0.3750
 7550SOL    HW134112   1.911   0.486  13.385 -1.4297  0.4704 -0.9528
 7550SOL    HW234113   1.789   0.420  13.339  0.1460 -2.0384 -2.3521
 7551SOL     OW34114   3.909   1.913   2.162 -0.4247 -0.3006  0.1413
 7551SOL    HW134115   3.829   1.960   2.186 -0.0461  0.1398  0.5163
 7551SOL    HW234116   3.971   1.982   2.185 -0.2177 -0.2558 -0.5690
 7552SOL     OW34117   2.537   2.477   6.607 -0.2726  0.2135 -0.6054
 7552SOL    HW134118   2.470   2.458   6.542  1.2711 -0.5496 -1.9612
 7552SOL    HW234119   2.608   2.474   6.543 -0.3968 -0.0633 -0.7276
 7553SOL     OW34120   1.801   4.651  12.493 -0.7426 -0.1919 -0.0624
 7553SOL    HW134121   1.755   4.567  12.490 -1.3384  0.1358 -0.1159
 7553SOL    HW234122   1.738   4.702  12.543  0.3214  1.3176 -0.2582
 7554SOL     OW34123   1.475   2.006   7.206  0.3602 -0.3352 -0.1490
 7554SOL    HW134124   1.390   1.962   7.203 -0.7194  1.8188 -1.2669
 7554SOL    HW234125   1.463   2.067   7.278 -1.1835 -0.5384 -0.2326
 7555SOL     OW34126   2.296   4.580   4.141  0.2170  0.5250 -0.1300
 7555SOL    HW134127   2.325   4.543   4.058  0.9294 -1.1184  0.8615
 7555SOL    HW234128   2.283   4.672   4.116  0.4862 -0.0827 -2.5009
 7556SOL     OW34129   3.605   0.727   0.852  0.4563  0.1126  0.4661
 7556SOL    HW134130   3.683   0.706   0.801 -0.6021  0.7684 -1.4194
 7556SOL    HW234131   3.560   0.644   0.865  1.8727 -0.6751  0.3175
 7557SOL     OW34132   0.337   0.889   8.333  0.2338  0.7218 -0.1611
 7557SOL    HW134133   0.320   0.820   8.268 -1.3679  0.6253  0.3508
 7557SOL    HW234134   0.297   0.847   8.410  1.1143  0.8605  0.3708
 7558SOL     OW34135   3.261   1.331   3.502  0.5143  0.3172  0.5139
 7558SOL    HW134136   3.320   1.354   3.430  0.5273 -2.2817 -0.2984
 7558SOL    HW234137   3.177   1.359   3.463  1.0300 -0.7832 -1.3816
 7559SOL     OW34138   0.639   4.294   1.993  0.0456  0.2578  0.8081
 7559SOL    HW134139   0.671   4.366   2.048 -1.1005  1.6393 -0.3404
 7559SOL    HW234140   0.587   4.351   1.937  0.0487 -0.7504 -0.2397
 7560SOL     OW34141   1.762   1.603   8.595 -0.5016  0.0208  0.0867
 7560SOL    HW134142   1.714   1.676   8.557 -0.1490  0.6048  0.7524
 7560SOL    HW234143   1.694   1.537   8.588 -2.3516  1.9032  0.2762
 7561SOL     OW34144   0.424   3.185   6.275 -0.1750  0.3437 -0.4593
 7561SOL    HW134145   0.337   3.176   6.236 -0.1244  4.3406 -1.5001
 7561SOL    HW234146   0.476   3.200   6.196  1.0543  0.8733  0.4554
 7562SOL     OW34147   0.350   4.296   3.950  0.2657 -0.1070 -0.2907
 7562SOL    HW134148   0.370   4.351   4.026 -0.2262 -0.5552  0.1568
 7562SOL    HW234149   0.334   4.209   3.985 -1.3646  0.3949  0.2035
 7563SOL     OW34150   1.428   2.079   7.774  0.0734 -0.4135  0.1240
 7563SOL    HW134151   1.377   2.108   7.850 -1.0518  3.7082 -2.1824
 7563SOL    HW234152   1.517   2.064   7.806 -0.1093 -0.8394  0.4265
 7564SOL     OW34153   0.207   1.375   9.232 -0.0663 -0.7202  0.6794
 7564SOL    HW134154   0.298   1.347   9.245 -0.1312  0.1274  3.0341
 7564SOL    HW234155   0.216   1.427   9.153 -0.8958  1.8917  2.2940
 7565SOL     OW34156   4.625   3.209   9.907 -0.4490  0.0001 -0.3667
 7565SOL    HW134157   4.576   3.278   9.862  0.1812  1.3016  0.9294
 7565SOL    HW234158   4.700   3.191   9.850  0.7758 -1.1955  1.6112
 7566SOL     OW34159   1.947   4.417   0.393  0.3398 -0.0762 -0.4818
 7566SOL    HW134160   2.020   4.374   0.347  1.8771  0.4946  1.4201
 7566SOL    HW234161   1.873   4.359   0.372  0.3586 -0.5008  0.6332
 7567SOL     OW34162   4.446   1.192   8.741  0.0258  0.8813  0.3272
 7567SOL    HW134163   4.420   1.139   8.665  0.3650  1.9329 -0.5201
 7567SOL    HW234164   4.542   1.198   8.737  0.2330 -1.6870  1.4989
 7568SOL     OW34165   0.708   3.141   5.522  0.3607  0.2212 -0.2174
 7568SOL    HW134166   0.648   3.088   5.470  0.2834  0.3322 -0.2423
 7568SOL    HW234167   0.692   3.223   5.476  0.6678  1.1094  1.2767
 7569SOL     OW34168   2.011   0.379   4.013  0.1103 -0.1718 -0.3406
 7569SOL    HW134169   2.075   0.387   3.942 -1.1584  0.5786 -1.4082
 7569SOL    HW234170   1.984   0.290   3.990 -1.4702  0.1291  0.3890
 7570SOL     OW34171   3.847   4.063  10.174 -0.3959 -0.3739  0.6814
 7570SOL    HW134172   3.926   4.015  10.198 -1.6145 -3.0241 -0.7090
 7570SOL    HW234173   3.885   4.151  10.163 -0.2384 -0.4814  0.3898
 7571SOL     OW34174   0.933   0.050   6.640 -0.3764 -0.2086  0.6371
 7571SOL    HW134175   0.978   0.025   6.721  2.8137  1.8857 -0.4975
 7571SOL    HW234176   0.873   0.118   6.670  0.6812  1.2972 -0.6494
 7572SOL     OW34177   2.354   0.836   1.960  0.3345 -0.0354 -0.3649
 7572SOL    HW134178   2.303   0.799   2.032 -0.3892 -0.8615 -1.3107
 7572SOL    HW234179   2.281   0.867   1.906 -0.3986 -0.2170  0.5354
 7573SOL     OW34180   3.852   1.190   9.510  0.0805  0.4815 -0.1150
 7573SOL    HW134181   3.927   1.247   9.492  0.3889 -0.2033 -0.9987
 7573SOL    HW234182   3.893   1.103   9.506 -0.2529  0.2765  1.1008
 7574SOL     OW34183   2.808   1.345   1.397  0.1867 -0.0024  0.0769
 7574SOL    HW134184   2.890   1.314   1.359 -0.4367 -2.4113  0.6554
 7574SOL    HW234185   2.787   1.426   1.352 -0.4521 -0.1057  0.1762
 7575SOL     OW34186   1.226   2.881   7.980 -0.3827  0.1673 -0.3329
 7575SOL    HW134187   1.158   2.828   7.939  0.3533  1.5264 -3.2794
 7575SOL    HW234188   1.211   2.853   8.071  0.8150 -0.5120 -0.3401
 7576SOL     OW34189   3.441   2.762   9.770 -0.6976  0.1642  0.2106
 7576SOL    HW134190   3.355   2.785   9.806 -0.3133 -1.9890  2.4437
 7576SOL    HW234191   3.475   2.720   9.848 -1.2407 -0.7182 -0.0205
 7577SOL     OW34192   2.975   1.173  15.084 -0.3782  0.4653 -0.5412
 7577SOL    HW134193   2.912   1.244  15.091 -1.5570 -0.6417 -0.0203
 7577SOL    HW234194   2.980   1.144  15.175 -0.7358 -1.0930 -1.0185
 7578SOL     OW34195   0.563   4.249   4.405  0.2193 -0.1959 -0.4104
 7578SOL    HW134196   0.622   4.247   4.330  0.7598  0.1499  0.0057
 7578SOL    HW234197   0.606   4.180   4.457 -1.5581 -0.1385  1.1439
 7579SOL     OW34198   3.572   1.089   6.181 -0.2172 -0.1368  0.1824
 7579SOL    HW134199   3.593   1.180   6.203 -0.1972  0.0337 -0.5617
 7579SOL    HW234200   3.523   1.109   6.101  0.7178 -2.9469 -1.0684
 7580SOL     OW34201   4.569   0.445  11.882  0.4593 -0.0341 -0.2418
 7580SOL    HW134202   4.477   0.458  11.858  0.9438  0.5706 -1.7833
 7580SOL    HW234203   4.561   0.448  11.977  2.3795  1.0783 -0.1203
 7581SOL     OW34204   0.254   2.440   0.612  0.1453 -0.1291 -0.2598
 7581SOL    HW134205   0.315   2.458   0.540  2.4707 -1.1019  1.4629
 7581SOL    HW234206   0.167   2.432   0.573  0.1854 -1.2312 -0.1025
 7582SOL     OW34207   4.538   0.523   7.470  0.1834  0.3698  0.1592
 7582SOL    HW134208   4.459   0.528   7.415  0.2536  1.2954  0.1480
 7582SOL    HW234209   4.602   0.483   7.411  0.0856  0.3409  0.0725
 7583SOL     OW34210   0.331   1.506   5.462 -0.0211 -0.6795  0.1684
 7583SOL    HW134211   0.304   1.589   5.424 -1.0620 -0.9145  0.4050
 7583SOL    HW234212   0.300   1.511   5.553 -1.6344 -0.5353 -0.3870
 7584SOL     OW34213   2.017   4.642   5.239  0.5196 -0.4379  0.4983
 7584SOL    HW134214   2.112   4.639   5.248  0.4159  0.3363  1.8330
 7584SOL    HW234215   2.004   4.547   5.243  0.5531 -0.4610 -0.0110
 7585SOL     OW34216   3.591   4.235   8.569 -0.3548  0.0377 -0.3348
 7585SOL    HW134217   3.501   4.238   8.539 -0.4420 -0.0789 -0.0809
 7585SOL    HW234218   3.633   4.205   8.488  1.0501  1.0595  0.0157
 7586SOL     OW34219   3.356   3.974   9.111 -0.0822 -0.2788 -0.3118
 7586SOL    HW134220   3.277   3.948   9.158  1.4056 -4.3614 -0.1127
 7586SOL    HW234221   3.423   3.946   9.172  0.2003  0.9464 -0.0615
 7587SOL     OW34222   0.546   0.063   7.073  0.2346 -0.0839  0.6124
 7587SOL    HW134223   0.525   0.125   7.142 -0.3034 -1.1486  1.3972
 7587SOL    HW234224   0.623   0.022   7.112 -0.2945 -1.3874  0.3102
 7588SOL     OW34225   0.151   3.131   5.756 -0.1325  0.0972 -0.2766
 7588SOL    HW134226   0.104   3.173   5.828 -1.0350  0.2821 -0.9776
 7588SOL    HW234227   0.099   3.052   5.746  0.6999 -0.6350  1.2050
 7589SOL     OW34228   4.252   3.820  11.876 -0.3247 -0.3038  0.5689
 7589SOL    HW134229   4.161   3.791  11.868 -0.1639  0.1491 -3.0632
 7589SOL    HW234230   4.283   3.745  11.824  1.4496  1.7126 -1.2762
 7590SOL     OW34231   1.165   0.430  11.106  0.4283  0.2377  0.1415
 7590SOL    HW134232   1.178   0.479  11.025 -1.4765 -0.1811 -0.4184
 7590SOL    HW234233   1.228   0.362  11.081  2.7260  2.4957 -0.1924
 7591SOL     OW34234   1.520   3.811  14.999 -0.5954 -0.1058  0.2422
 7591SOL    HW134235   1.426   3.827  14.986 -0.5378  0.3295  0.3505
 7591SOL    HW234236   1.556   3.846  14.918  1.8434 -1.7153  0.6456
 7592SOL     OW34237   2.762   2.237   3.473  0.4675  0.2789  0.5433
 7592SOL    HW134238   2.726   2.235   3.384  0.4023  2.3197  0.5206
 7592SOL    HW234239   2.684   2.255   3.525 -0.6082 -0.9705 -0.6235
 7593SOL     OW34240   1.509   4.367  15.774 -0.2217  0.4995 -0.0733
 7593SOL    HW134241   1.462   4.324  15.702  1.2470 -1.8023  0.3602
 7593SOL    HW234242   1.542   4.288  15.816  3.3004  0.7710 -2.2940
 7594SOL     OW34243   4.669   2.113   8.275  0.2646 -0.2587  0.2789
 7594SOL    HW134244   4.678   2.168   8.353 -0.0741 -0.5745  0.5428
 7594SOL    HW234245   4.682   2.029   8.320  0.3861 -0.5555 -0.3136
 7595SOL     OW34246   3.274   2.045   6.126 -0.0143 -0.2025 -0.2267
 7595SOL    HW134247   3.266   2.045   6.221 -2.6418  0.9905 -0.4404
 7595SOL    HW234248   3.192   2.001   6.105 -0.9147  0.2228  2.4442
 7596SOL     OW34249   1.210   0.762   8.425 -0.2227 -0.0597  0.3253
 7596SOL    HW134250   1.128   0.746   8.472 -0.5457 -0.0393 -0.2256
 7596SOL    HW234251   1.172   0.784   8.340 -0.8327  0.7904  0.8151
 7597SOL     OW34252   4.203   1.887   7.714  0.7434 -0.4418 -0.0360
 7597SOL    HW134253   4.297   1.892   7.733  0.3910 -1.0734  1.8726
 7597SOL    HW234254   4.202   1.791   7.719 -1.7574 -0.3338  1.6161
 7598SOL     OW34255   1.546   1.532   5.090 -0.5145  0.0229 -0.0082
 7598SOL    HW134256   1.569   1.622   5.115 -0.3611 -0.9340  3.3929
 7598SOL    HW234257   1.490   1.551   5.016 -0.9231 -1.3592 -0.0509
 7599SOL     OW34258   2.681   0.806   8.952  0.4286  0.9049 -0.1166
 7599SOL    HW134259   2.768   0.795   8.989 -0.5356  2.2561  2.5149
 7599SOL    HW234260   2.654   0.887   8.995 -0.1109 -0.1518  1.5296
 7600SOL     OW34261   1.116   2.061   4.133  0.1012  0.3109 -0.2804
 7600SOL    HW134262   1.026   2.036   4.112  0.6660 -0.9781 -1.1970
 7600SOL    HW234263   1.115   2.048   4.228 -1.7614  2.3568 -0.0289
 7601SOL     OW34264   3.071   2.415  13.508 -0.3452  0.1277 -0.1555
 7601SOL    HW134265   3.001   2.438  13.446  0.1059 -0.2472 -0.7985
 7601SOL    HW234266   3.149   2.415  13.453 -0.7681  1.1121 -0.7655
 7602SOL     OW34267   3.513   2.509   6.599 -0.7965 -0.4030  0.2822
 7602SOL    HW134268   3.439   2.448   6.593 -1.5326  0.4948  0.1872
 7602SOL    HW234269   3.530   2.496   6.693  0.0874 -1.1061  0.0182
 7603SOL     OW34270   3.648   2.015   9.493  0.0651 -0.3686  0.3532
 7603SOL    HW134271   3.660   1.952   9.564  1.3782 -0.3347  0.1583
 7603SOL    HW234272   3.575   2.071   9.519  0.3480  0.0513  0.2350
 7604SOL     OW34273   4.445   3.993  11.922  0.1273 -0.3204 -0.6099
 7604SOL    HW134274   4.371   3.933  11.932  1.8857 -2.0933  1.6221
 7604SOL    HW234275   4.459   3.981  11.828 -1.3929 -0.6621 -0.7985
 7605SOL     OW34276   2.630   4.405   4.606 -0.2857 -0.2463 -0.2160
 7605SOL    HW134277   2.611   4.491   4.642  0.7356  0.4752 -1.4121
 7605SOL    HW234278   2.607   4.344   4.676 -4.5555  3.4881  1.6279
 7606SOL     OW34279   4.231   3.800   8.037 -0.0200  0.3583  0.1648
 7606SOL    HW134280   4.279   3.852   8.102  1.2015 -0.0964 -0.3814
 7606SOL    HW234281   4.294   3.743   7.993  1.4801  2.5470 -0.5103
 7607SOL     OW34282   3.849   2.342   8.857  0.3274  0.4876  0.0914
 7607SOL    HW134283   3.791   2.287   8.911  0.9915  0.2174  0.5283
 7607SOL    HW234284   3.908   2.366   8.928  0.9951  4.7637 -1.9193
 7608SOL     OW34285   4.560   4.012   1.704  0.3410 -0.7829  0.2015
 7608SOL    HW134286   4.608   3.972   1.777  0.3259  2.5532  2.0432
 7608SOL    HW234287   4.486   3.953   1.689  0.6384 -0.1130 -3.8689
 7609SOL     OW34288   4.290   3.220   4.298 -0.5433  0.0251  0.0864
 7609SOL    HW134289   4.211   3.169   4.314  0.0270 -1.1753 -0.9366
 7609SOL    HW234290   4.352   3.154   4.330  0.0369 -0.4045 -1.9044
 7610SOL     OW34291   4.014   0.750   3.406 -0.2076  0.0632  0.4530
 7610SOL    HW134292   3.983   0.840   3.401  1.6725  0.7462  1.0626
 7610SOL    HW234293   3.952   0.707   3.464 -1.0430  0.3342 -0.2454
 7611SOL     OW34294   4.382   3.611  13.136  0.3061 -0.0657 -0.3930
 7611SOL    HW134295   4.426   3.673  13.194  2.1653 -0.9520 -0.8550
 7611SOL    HW234296   4.393   3.530  13.186  0.0448  0.6526  0.8457
 7612SOL     OW34297   2.552   3.450   2.781 -0.3747  0.0044  0.1132
 7612SOL    HW134298   2.465   3.468   2.744  0.4350 -1.5612 -2.4870
 7612SOL    HW234299   2.610   3.471   2.708  1.0220 -1.3262  0.8435
 7613SOL     OW34300   4.248   1.964   1.524 -0.0891 -0.3466  0.4735
 7613SOL    HW134301   4.335   1.934   1.552  0.6324  0.5746 -0.8293
 7613SOL    HW234302   4.257   1.943   1.432 -0.9599  0.0250  0.3050
 7614SOL     OW34303   3.569   0.523   7.089  0.1883  0.3493  0.7045
 7614SOL    HW134304   3.625   0.450   7.117  0.9595  0.0703 -1.5530
 7614SOL    HW234305   3.573   0.590   7.157 -1.0851  0.3563  0.7732
 7615SOL     OW34306   0.565   1.927  11.573 -0.3551  0.2011  0.1393
 7615SOL    HW134307   0.501   1.973  11.519  0.3742 -1.3804 -2.0437
 7615SOL    HW234308   0.593   2.005  11.621 -0.9744 -0.7904  2.1120
 7616SOL     OW34309   1.369   1.654  14.408 -0.0325  0.2369 -0.1398
 7616SOL    HW134310   1.349   1.561  14.401  0.4267  0.0087  1.5842
 7616SOL    HW234311   1.457   1.642  14.442 -0.1072 -0.0190 -0.0377
 7617SOL     OW34312   1.800   4.420   6.127 -0.0069  0.0616 -0.4391
 7617SOL    HW134313   1.865   4.420   6.056 -1.3105  0.9699 -1.6404
 7617SOL    HW234314   1.785   4.328   6.151  1.3964  0.4236  1.8471
 7618SOL     OW34315   2.441   3.340   5.719  0.4690  0.0868 -0.0707
 7618SOL    HW134316   2.449   3.341   5.624 -0.4501  2.1769 -0.1338
 7618SOL    HW234317   2.501   3.271   5.748  2.6418  1.3332 -1.5792
 7619SOL     OW34318   0.640   1.458   4.858 -0.3285  0.2489  0.3963
 7619SOL    HW134319   0.671   1.548   4.869 -0.0936  0.1731  0.3313
 7619SOL    HW234320   0.675   1.425   4.941  0.8782 -0.4930 -0.4166
 7620SOL     OW34321   2.188   0.395   3.790 -0.2270 -0.5895 -0.0496
 7620SOL    HW134322   2.267   0.344   3.771  1.1515  1.4902  0.0743
 7620SOL    HW234323   2.174   0.441   3.707 -1.2504 -1.3871 -0.3213
 7621SOL     OW34324   0.630   2.010   2.596  0.3480 -0.1104 -0.3551
 7621SOL    HW134325   0.687   1.934   2.589  0.3753 -0.2315  1.0998
 7621SOL    HW234326   0.618   2.023   2.691 -1.6148  0.3928 -0.6628
 7622SOL     OW34327   0.944   3.774   1.596 -0.3802 -0.2822  0.4539
 7622SOL    HW134328   1.008   3.758   1.665 -2.0285 -3.1401  1.3157
 7622SOL    HW234329   0.885   3.827   1.651 -1.1541 -1.1478  0.4549
 7623SOL     OW34330   2.840   4.674  12.839 -0.2947 -0.3484 -0.1358
 7623SOL    HW134331   2.750   4.653  12.813 -1.3812  2.0438  1.7378
 7623SOL    HW234332   2.844   0.047  12.849 -1.7926 -0.3680  0.6309
 7624SOL     OW34333   0.238   1.251   7.464 -0.1826 -0.5805 -0.3243
 7624SOL    HW134334   0.223   1.311   7.390  3.8579  1.1154  0.2539
 7624SOL    HW234335   0.156   1.262   7.513  0.1629  1.4740 -0.1724
 7625SOL     OW34336   0.598   1.569   2.596  0.0216 -0.0871  0.0831
 7625SOL    HW134337   0.522   1.627   2.599  0.7167  0.8128  0.2806
 7625SOL    HW234338   0.582   1.534   2.508  0.0126  1.9067 -0.7064
 7626SOL     OW34339   0.626   4.583  14.284 -0.1310 -0.7565 -0.1356
 7626SOL    HW134340   0.638   4.608  14.192  0.0429 -1.0974 -0.2055
 7626SOL    HW234341   0.625   4.487  14.278 -1.3674 -0.6954 -0.9178
 7627SOL     OW34342   4.233   4.398   4.512 -0.6047 -0.6069  0.0378
 7627SOL    HW134343   4.148   4.398   4.468 -0.1248  0.9204 -0.9121
 7627SOL    HW234344   4.293   4.410   4.439 -1.5000 -0.8369 -0.7353
 7628SOL     OW34345   2.952   4.334   2.691  0.5625 -0.2066 -0.2573
 7628SOL    HW134346   2.979   4.361   2.779  0.5773  0.0577 -0.3432
 7628SOL    HW234347   3.027   4.378   2.652  0.4449 -1.0069 -1.3627
 7629SOL     OW34348   1.445   3.270  10.665  0.0604 -0.1944  0.5332
 7629SOL    HW134349   1.539   3.250  10.668  0.2275  0.5289  0.0858
 7629SOL    HW234350   1.422   3.192  10.614  1.3215  0.5614 -1.2205
 7630SOL     OW34351   4.666   3.357  17.591  0.6040 -0.1336 -0.1575
 7630SOL    HW134352   0.031   3.366  17.629  1.5873 -3.5381 -1.6247
 7630SOL    HW234353   4.667   3.413  17.513  2.6543 -0.6983 -0.5185
 7631SOL     OW34354   4.582   1.355  15.532 -0.0337 -0.2114 -0.0508
 7631SOL    HW134355   4.513   1.409  15.572  0.9177  0.1174  1.1492
 7631SOL    HW234356   4.623   1.425  15.480  1.8099 -0.7324  0.7156
 7632SOL     OW34357   0.197   0.011   7.689 -0.6216 -0.1261  0.2631
 7632SOL    HW134358   0.149   0.042   7.765  0.4889  1.6382  0.2415
 7632SOL    HW234359   0.288   0.006   7.719 -1.0608 -0.1983  1.5705
 7633SOL     OW34360   2.485   0.549   1.659  0.1956  0.5192 -0.7692
 7633SOL    HW134361   2.572   0.588   1.659  0.5375 -0.2561  0.8234
 7633SOL    HW234362   2.435   0.624   1.626 -0.7182 -0.2149 -1.0704
 7634SOL     OW34363   1.716   4.440  17.271 -1.0946 -0.3951  0.1598
 7634SOL    HW134364   1.665   4.360  17.258  0.7678 -1.5318 -0.1023
 7634SOL    HW234365   1.765   4.433  17.189  1.7324 -2.4318  1.9917
 7635SOL     OW34366   1.406   2.224   7.341  0.4145 -0.3370  0.1378
 7635SOL    HW134367   1.448   2.245   7.425  0.2014 -1.8553  0.6224
 7635SOL    HW234368   1.430   2.301   7.290  0.5894 -0.4931 -0.0152
 7636SOL     OW34369   3.451   1.087  16.980 -0.2217  0.2152 -0.1683
 7636SOL    HW134370   3.482   1.044  16.900 -1.3422 -0.0650 -0.4493
 7636SOL    HW234371   3.523   1.149  16.990  1.6394 -1.6823 -1.6327
 7637SOL     OW34372   0.932   1.046   4.421 -0.5947  0.0784 -0.8903
 7637SOL    HW134373   0.864   1.014   4.360 -1.4025  1.0649 -0.5037
 7637SOL    HW234374   0.877   1.081   4.491  2.5081  1.1079  1.0169
 7638SOL     OW34375   2.988   0.598   6.515  0.4246 -0.0619 -0.5387
 7638SOL    HW134376   3.053   0.534   6.545  0.5921  1.2910  1.9540
 7638SOL    HW234377   2.930   0.599   6.590  0.1400  1.4366 -0.7925
 7639SOL     OW34378   0.170   4.366   7.727  0.2849  0.8385  0.4614
 7639SOL    HW134379   0.263   4.387   7.737  0.6328  0.0753 -1.1750
 7639SOL    HW234380   0.138   4.444   7.773  0.1603  0.1176  1.6167
 7640SOL     OW34381   0.708   3.008   4.921  0.3299  0.4725  0.1670
 7640SOL    HW134382   0.684   3.099   4.903  0.4534  0.2730 -0.9892
 7640SOL    HW234383   0.797   3.012   4.954 -0.4436 -0.2771  2.3364
 7641SOL     OW34384   2.759   0.826   3.512  0.2968 -0.1334 -0.5849
 7641SOL    HW134385   2.755   0.888   3.585  1.3777 -1.0398  0.2423
 7641SOL    HW234386   2.712   0.877   3.446  1.0768  1.1448 -0.1464
 7642SOL     OW34387   0.182   3.208   6.124 -0.1668 -0.5352  0.3161
 7642SOL    HW134388   0.109   3.179   6.070  1.5405  0.3781 -2.5137
 7642SOL    HW234389   0.198   3.300   6.102  0.6038 -0.5581  0.7719
 7643SOL     OW34390   4.482   4.710   4.247  0.0364  0.6344 -0.1077
 7643SOL    HW134391   4.534   4.709   4.167  0.7137  1.0202  0.3269
 7643SOL    HW234392   4.547   4.671   4.306 -0.0006 -0.6784 -0.9340
 7644SOL     OW34393   3.499   0.312   5.608  0.3027  0.5379 -0.3437
 7644SOL    HW134394   3.513   0.355   5.693 -0.2419  0.7211 -0.3483
 7644SOL    HW234395   3.587   0.321   5.572  0.7348  0.3187  0.6405
 7645SOL     OW34396   4.609   3.505   0.489 -0.3923  0.0180  0.5816
 7645SOL    HW134397   4.607   3.429   0.432 -0.7843 -1.2497  2.2967
 7645SOL    HW234398   4.632   3.464   0.573  1.2707 -2.1941 -0.9587
 7646SOL     OW34399   4.679   1.088   6.614  0.4200  0.7148 -0.6046
 7646SOL    HW134400   4.598   1.038   6.626  0.5711  0.4592 -0.6525
 7646SOL    HW234401   4.659   1.128   6.529  0.8626  1.5403 -0.3120
 7647SOL     OW34402   3.368   4.366   7.201 -0.5282 -0.4607 -0.7036
 7647SOL    HW134403   3.355   4.385   7.108  0.9084 -1.9431 -1.2104
 7647SOL    HW234404   3.463   4.373   7.193 -0.4761 -0.8662 -0.4620
 7648SOL     OW34405   1.816   3.972   5.209  0.2907  0.4685 -0.1223
 7648SOL    HW134406   1.722   3.982   5.198  0.0305 -0.3412  1.3425
 7648SOL    HW234407   1.824   3.887   5.252  0.6481 -0.7233 -2.5559
 7649SOL     OW34408   2.171   1.978   8.107  0.1625  0.1250 -0.2703
 7649SOL    HW134409   2.253   1.951   8.150 -1.0884 -1.5007  1.0780
 7649SOL    HW234410   2.158   2.057   8.159  0.5550  0.2223 -0.3175
 7650SOL     OW34411   1.128   3.929   2.765 -0.0815  0.4729  0.7947
 7650SOL    HW134412   1.106   3.850   2.715 -1.2557  1.8628 -0.8667
 7650SOL    HW234413   1.216   3.949   2.732 -0.8905  0.0599 -1.6217
 7651SOL     OW34414   4.644   2.878   9.874 -0.1373  0.1174 -0.3753
 7651SOL    HW134415   4.555   2.904   9.898  0.3900 -0.4813  2.1330
 7651SOL    HW234416   4.688   2.962   9.863 -0.7972  0.5528  0.2745
 7652SOL     OW34417   3.522   2.954   3.895  0.5497 -0.4922 -0.2663
 7652SOL    HW134418   3.609   2.972   3.932  0.8144 -1.3636 -0.4592
 7652SOL    HW234419   3.540   2.953   3.801  2.4816 -1.7591  0.1133
 7653SOL     OW34420   1.679   0.344   5.356  0.3617  0.2469  0.1675
 7653SOL    HW134421   1.663   0.339   5.262 -0.3855  2.4965  0.1946
 7653SOL    HW234422   1.697   0.250   5.369  2.5405  0.4635 -1.1517
 7654SOL     OW34423   3.759   0.546   4.371  0.0418  0.9163  0.4733
 7654SOL    HW134424   3.669   0.535   4.339 -0.3812  0.0630  1.9597
 7654SOL    HW234425   3.807   0.486   4.315  0.5838  1.7307  0.0553
 7655SOL     OW34426   0.274   2.144   4.311 -0.0811  0.1121  0.2397
 7655SOL    HW134427   0.261   2.079   4.242  0.2421  0.2944  0.0108
 7655SOL    HW234428   0.247   2.227   4.272 -0.8367 -0.3331 -0.1841
 7656SOL     OW34429   4.173   1.501   3.732 -0.1109 -0.5187 -0.1280
 7656SOL    HW134430   4.158   1.474   3.822  1.5596  0.2280  0.3692
 7656SOL    HW234431   4.258   1.460   3.717  0.2041 -0.6421  1.9847
 7657SOL     OW34432   3.333   0.324   4.000  0.6463 -0.1050  0.4948
 7657SOL    HW134433   3.272   0.359   3.935  1.9188  1.8916  0.3760
 7657SOL    HW234434   3.275   0.267   4.050  1.7175 -1.7254 -0.1142
 7658SOL     OW34435   4.641   2.397   7.506 -0.1106  0.1382 -0.4117
 7658SOL    HW134436   4.638   2.303   7.524 -1.6218  0.0861 -0.9571
 7658SOL    HW234437   0.000   2.425   7.549 -0.3728  0.0951  0.1144
 7659SOL     OW34438   0.216   2.421   3.248 -0.1277  0.0806 -0.6302
 7659SOL    HW134439   0.277   2.357   3.286 -0.9876 -0.2180  0.2672
 7659SOL    HW234440   0.272   2.496   3.232  0.2095 -0.1339 -0.4714
 7660SOL     OW34441   3.381   2.942   5.879 -0.0516 -0.0831 -0.1721
 7660SOL    HW134442   3.320   2.971   5.947  0.4059  0.2789  0.0825
 7660SOL    HW234443   3.362   3.007   5.811  0.8915 -1.2546 -1.5590
 7661SOL     OW34444   3.329   3.115  14.459 -0.4250  0.3705 -0.4566
 7661SOL    HW134445   3.236   3.108  14.478  0.1666 -0.7425  1.9597
 7661SOL    HW234446   3.372   3.052  14.517  0.4375  1.9249  0.5798
 7662SOL     OW34447   2.177   3.988   3.119 -0.4304  0.0087 -0.2140
 7662SOL    HW134448   2.246   3.926   3.095 -1.5439 -1.4592  0.3763
 7662SOL    HW234449   2.119   3.954   3.052  1.0086 -3.3251  0.2346
 7663SOL     OW34450   3.481   0.779   3.209 -0.4092 -0.0096 -0.2670
 7663SOL    HW134451   3.458   0.700   3.161 -0.8133 -0.4591  0.6699
 7663SOL    HW234452   3.543   0.811   3.143 -0.3055  2.0671  0.8217
 7664SOL     OW34453   3.810   3.030  13.036  0.2052 -0.1848 -0.1389
 7664SOL    HW134454   3.748   3.017  13.107  0.2675 -0.0545 -0.0604
 7664SOL    HW234455   3.790   3.123  13.034 -0.5475 -0.3438 -0.2137
 7665SOL     OW34456   4.394   0.408  15.252 -0.0040  0.4297 -0.4342
 7665SOL    HW134457   4.298   0.404  15.251  0.0041  0.0714  0.3360
 7665SOL    HW234458   4.408   0.474  15.184 -0.6211  0.0310 -0.9433
 7666SOL     OW34459   3.275   1.597   7.076 -0.1076 -0.4310 -0.3485
 7666SOL    HW134460   3.252   1.581   6.984  1.2603  0.5226 -0.8548
 7666SOL    HW234461   3.242   1.524   7.128 -1.2571 -0.1706 -0.7148
 7667SOL     OW34462   4.645   4.250   2.610  0.0621  0.1943 -0.1272
 7667SOL    HW134463   4.630   4.295   2.693  1.9452  0.1781  0.2229
 7667SOL    HW234464   4.563   4.258   2.561  0.1867 -1.8830 -0.6363
 7668SOL     OW34465   4.377   2.417   7.418 -0.0088  0.3793 -0.2636
 7668SOL    HW134466   4.412   2.343   7.369  0.7105  1.2724 -1.1071
 7668SOL    HW234467   4.429   2.406   7.498 -1.0567  2.6291  0.7298
 7669SOL     OW34468   2.876   1.299  17.324  0.2048 -0.4223  0.1993
 7669SOL    HW134469   2.799   1.330  17.372 -0.3764 -1.3799 -0.1265
 7669SOL    HW234470   2.928   1.372  17.358  0.1840  0.8079 -2.4186
 7670SOL     OW34471   4.722   4.136   6.013  0.3818 -0.1374  0.3673
 7670SOL    HW134472   4.702   4.069   5.947  0.7593 -1.0663  1.2102
 7670SOL    HW234473   4.695   4.099   6.097 -0.8186 -1.1715 -0.4731
 7671SOL     OW34474   3.606   0.023   2.563 -0.2073  0.0131  1.0920
 7671SOL    HW134475   3.547   0.022   2.487 -0.5392 -1.7628  1.3878
 7671SOL    HW234476   3.633   0.112   2.587  0.1447 -0.9102  4.0352
 7672SOL     OW34477   3.341   2.005   7.509 -0.4744  0.0059  0.3120
 7672SOL    HW134478   3.358   2.074   7.445  1.3419 -0.8290 -0.1081
 7672SOL    HW234479   3.245   2.009   7.512 -0.6002 -1.6836 -1.5443
 7673SOL     OW34480   3.911   3.470   9.599 -0.0369 -0.3769 -0.2065
 7673SOL    HW134481   3.852   3.459   9.674  0.6404 -0.5599  0.2969
 7673SOL    HW234482   3.983   3.520   9.638 -0.1624 -2.1711  2.3505
 7674SOL     OW34483   3.520   4.392   6.574 -0.6650 -0.3654  0.0536
 7674SOL    HW134484   3.535   4.417   6.665  1.8996  0.8175 -0.6742
 7674SOL    HW234485   3.426   4.376   6.581 -0.9619  1.0164 -0.8007
 7675SOL     OW34486   3.510   2.438  10.896  0.3879 -0.4515 -0.2779
 7675SOL    HW134487   3.517   2.489  10.816  1.1046 -1.0989 -0.6269
 7675SOL    HW234488   3.446   2.484  10.950  0.1998 -0.7092 -0.2838
 7676SOL     OW34489   3.963   0.063   5.597  0.6414 -0.4376  0.1431
 7676SOL    HW134490   3.884   0.039   5.548 -0.5766  1.3387  1.2216
 7676SOL    HW234491   3.930   0.056   5.687  0.4500  1.8380  0.2680
 7677SOL     OW34492   3.488   4.101  17.187  0.4859 -0.5952 -0.7831
 7677SOL    HW134493   3.425   4.159  17.144 -1.3940 -0.5956  1.9871
 7677SOL    HW234494   3.478   4.028  17.125  0.5004 -0.8067 -0.5341
 7678SOL     OW34495   2.412   3.369   0.351  0.0016 -0.2451  0.1034
 7678SOL    HW134496   2.466   3.302   0.392 -2.7010 -2.3946  0.1177
 7678SOL    HW234497   2.372   3.323   0.277  1.4940 -2.5064  0.7271
 7679SOL     OW34498   1.056   4.686  17.561 -0.5968  0.2969 -0.6074
 7679SOL    HW134499   1.125   4.637  17.516  0.6792 -1.3653  3.1703
 7679SOL    HW234500   0.971   4.645  17.544 -0.1859 -0.4542 -0.8438
 7680SOL     OW34501   2.608   3.845   4.707  0.0757  0.0686 -0.0603
 7680SOL    HW134502   2.692   3.876   4.740  0.5599 -0.3927 -0.8532
 7680SOL    HW234503   2.580   3.912   4.644 -2.0245  0.4204  1.2524
 7681SOL     OW34504   2.542   2.549  16.428 -0.3131  0.2569  0.2165
 7681SOL    HW134505   2.614   2.487  16.443 -0.3859  0.1271  0.0154
 7681SOL    HW234506   2.501   2.554  16.515  1.2356  0.5477  0.9378
 7682SOL     OW34507   2.629   3.109   1.698 -0.2798 -0.4307  0.2793
 7682SOL    HW134508   2.583   3.041   1.748 -0.9116  0.6032  1.0983
 7682SOL    HW234509   2.721   3.091   1.718  0.2048  3.7730  1.9211
 7683SOL     OW34510   1.949   0.006   8.632  0.5037 -0.3497  0.6119
 7683SOL    HW134511   1.966   0.014   8.726  0.5683  1.4952  0.4459
 7683SOL    HW234512   1.995   0.080   8.592 -0.5733 -0.6657 -1.2368
 7684SOL     OW34513   0.508   0.154   7.463 -0.1547  0.3349 -0.1499
 7684SOL    HW134514   0.582   0.200   7.503  0.1925  0.4279 -0.8877
 7684SOL    HW234515   0.503   0.180   7.371  0.2751 -1.8802 -0.7976
 7685SOL     OW34516   1.193   3.103  15.789 -0.2929  0.1915 -0.1283
 7685SOL    HW134517   1.173   3.125  15.698  0.2872 -0.2814 -0.3721
 7685SOL    HW234518   1.145   3.170  15.837 -0.2972 -0.4790  0.8050
 7686SOL     OW34519   3.626   2.193   3.538  0.4084  0.6462 -0.4254
 7686SOL    HW134520   3.607   2.100   3.545  0.0930  0.8475  1.5505
 7686SOL    HW234521   3.714   2.193   3.501  0.0303  1.9921 -1.3060
 7687SOL     OW34522   3.320   1.816   5.196 -0.9500 -0.4116 -0.9156
 7687SOL    HW134523   3.333   1.737   5.250  0.8957  0.3247 -0.2641
 7687SOL    HW234524   3.309   1.778   5.109  0.0838 -0.8621 -0.8505
 7688SOL     OW34525   3.748   3.494   5.472 -0.0595 -0.0045  0.3435
 7688SOL    HW134526   3.766   3.417   5.525 -3.0463 -1.0729 -0.2121
 7688SOL    HW234527   3.662   3.516   5.507  0.9432  1.4330  1.8726
 7689SOL     OW34528   4.204   2.205   6.345 -0.0700  0.2716 -0.0905
 7689SOL    HW134529   4.159   2.263   6.406  1.3238 -0.5294  1.7186
 7689SOL    HW234530   4.135   2.177   6.285  1.8214 -1.0111 -1.6681
 7690SOL     OW34531   2.554   3.974   8.194  0.3344 -1.0241 -0.1296
 7690SOL    HW134532   2.517   4.052   8.234  1.7443 -0.9909  1.1163
 7690SOL    HW234533   2.508   3.903   8.239 -0.7312  1.5406  2.8425
 7691SOL     OW34534   0.645   2.570  10.012  0.3516  0.0136  0.3941
 7691SOL    HW134535   0.618   2.578  10.103  0.7239  1.2945  0.3939
 7691SOL    HW234536   0.739   2.580  10.022  0.4199  2.1379 -2.3641
 7692SOL     OW34537   1.436   2.481   6.295  0.6288  1.0847 -0.8451
 7692SOL    HW134538   1.374   2.531   6.242  0.6452  1.1133 -0.8376
 7692SOL    HW234539   1.384   2.409   6.330  0.6176  0.4734 -2.1041
 7693SOL     OW34540   3.518   2.103   8.445  0.2742  0.2119  0.1430
 7693SOL    HW134541   3.479   2.016   8.450 -0.2874  0.4542  0.0065
 7693SOL    HW234542   3.530   2.131   8.535 -2.2906 -0.8131  0.7904
 7694SOL     OW34543   0.831   4.139  14.098 -0.1148 -0.4682 -0.2440
 7694SOL    HW134544   0.882   4.086  14.160  3.4889  1.1717 -1.8194
 7694SOL    HW234545   0.745   4.110  14.130 -0.0513 -0.1459  0.2180
 7695SOL     OW34546   4.082   1.002   3.125 -0.5720 -1.0139  0.1307
 7695SOL    HW134547   4.147   0.932   3.125  1.1540  0.5782 -2.6169
 7695SOL    HW234548   4.084   1.029   3.033 -0.8375 -0.3562  0.3213
 7696SOL     OW34549   1.016   3.716  10.749 -0.2825 -0.1461  0.1468
 7696SOL    HW134550   1.065   3.643  10.710  0.0380 -0.2116  0.6647
 7696SOL    HW234551   1.051   3.793  10.704  1.6993 -1.1311 -0.0140
 7697SOL     OW34552   3.116   3.200   7.404 -0.2629 -0.4322  0.1258
 7697SOL    HW134553   3.029   3.179   7.372 -0.6993 -0.1759  1.1521
 7697SOL    HW234554   3.162   3.155   7.333 -0.7897 -0.9437  0.1082
 7698SOL     OW34555   1.130   1.726   9.256  0.0709  0.7262  0.0619
 7698SOL    HW134556   1.065   1.743   9.189  2.1933  0.6850 -2.0085
 7698SOL    HW234557   1.082   1.761   9.331 -1.5057  2.6821 -1.8701
 7699SOL     OW34558   1.160   4.393   4.212 -0.0762 -0.3923 -0.1875
 7699SOL    HW134559   1.094   4.453   4.246  0.1708 -0.3346  0.1896
 7699SOL    HW234560   1.133   4.386   4.120 -0.7400 -0.8924  0.0546
 7700SOL     OW34561   0.557   1.246   1.498  0.4172 -0.6350  0.1033
 7700SOL    HW134562   0.487   1.306   1.471  1.6211  0.2445 -1.0412
 7700SOL    HW234563   0.634   1.301   1.508 -0.2644  0.4895 -0.7223
 7701SOL     OW34564   0.966   3.494   7.728  1.0421 -0.2434 -0.0071
 7701SOL    HW134565   0.925   3.419   7.771  0.2694  0.2583  0.1171
 7701SOL    HW234566   0.884   3.542   7.726  0.2507 -1.5377  1.4244
 7702SOL     OW34567   3.762   3.170   3.485  0.2936 -0.1720  0.5033
 7702SOL    HW134568   3.794   3.135   3.402 -2.7989 -0.1529 -0.7080
 7702SOL    HW234569   3.846   3.202   3.519 -1.7908  1.6803  3.8564
 7703SOL     OW34570   1.152   4.683   2.877 -0.4604 -0.4257  0.2011
 7703SOL    HW134571   1.185   4.596   2.899 -0.9858 -0.8311 -0.6089
 7703SOL    HW234572   1.087   4.661   2.810  0.2947  1.2037 -1.0782
 7704SOL     OW34573   1.795   4.166   5.485 -0.0629 -0.6466 -0.4553
 7704SOL    HW134574   1.846   4.136   5.409  1.6878 -0.8156  0.7891
 7704SOL    HW234575   1.736   4.092   5.496  0.8467 -1.1644  0.9422
 7705SOL     OW34576   2.523   0.447   8.732 -0.1121 -0.5826  0.5039
 7705SOL    HW134577   2.469   0.526   8.723 -1.8464 -1.7159  0.9053
 7705SOL    HW234578   2.468   0.400   8.794 -1.3807 -0.6596 -0.6543
 7706SOL     OW34579   0.387   2.217  13.324  0.1659  0.8593  0.5221
 7706SOL    HW134580   0.429   2.302  13.337 -0.1131  1.1058 -0.2145
 7706SOL    HW234581   0.466   2.164  13.331 -0.3115  0.2385  1.2036
 7707SOL     OW34582   1.780   3.167   8.299 -0.0362  0.1285 -0.6146
 7707SOL    HW134583   1.823   3.239   8.252  1.2213 -0.2645 -0.0687
 7707SOL    HW234584   1.724   3.132   8.230 -0.3330  0.1360 -0.3760
 7708SOL     OW34585   3.221   3.518   7.245  0.4282  0.0183  0.2808
 7708SOL    HW134586   3.199   3.610   7.229  2.1345  0.3496 -0.1295
 7708SOL    HW234587   3.268   3.492   7.166 -1.0325 -2.1630  0.1171
 7709SOL     OW34588   2.915   2.869   9.648  0.0589  0.2913  0.5051
 7709SOL    HW134589   2.826   2.872   9.681 -0.7715 -0.5715 -1.6870
 7709SOL    HW234590   2.943   2.943   9.702 -1.9216 -0.4127  2.4585
 7710SOL     OW34591   1.669   0.297   9.558  0.2329  0.1296 -0.0738
 7710SOL    HW134592   1.592   0.252   9.592 -0.0208 -1.1769 -2.3447
 7710SOL    HW234593   1.653   0.389   9.575  2.8957  0.8481 -1.3553
 7711SOL     OW34594   2.741   3.249   5.619 -0.1130 -0.2993 -0.2253
 7711SOL    HW134595   2.769   3.339   5.599  1.6897 -1.4496 -2.8608
 7711SOL    HW234596   2.668   3.238   5.558  1.1650 -0.6576 -1.6779
 7712SOL     OW34597   1.932   4.297   1.056  0.1905  0.1624 -0.2400
 7712SOL    HW134598   1.965   4.233   0.992 -0.3061  1.7590 -2.1066
 7712SOL    HW234599   1.872   4.247   1.110 -1.2570  0.7175 -1.3213
 7713SOL     OW34600   2.538   0.458  12.212  0.2842  0.0243  0.1180
 7713SOL    HW134601   2.596   0.383  12.223 -0.2232 -0.0474  2.3637
 7713SOL    HW234602   2.503   0.476  12.299 -1.0268 -0.8532 -0.2303
 7714SOL     OW34603   1.909   4.129  16.476  0.9241 -0.8156 -0.5290
 7714SOL    HW134604   1.843   4.059  16.474  0.3735 -0.3179  0.2519
 7714SOL    HW234605   1.896   4.170  16.391 -3.7188 -1.5522 -0.1562
 7715SOL     OW34606   0.534   1.859   7.428 -0.2385  0.4665  0.0273
 7715SOL    HW134607   0.557   1.932   7.370  0.6591 -1.0212 -1.4815
 7715SOL    HW234608   0.614   1.806   7.432  1.2880  2.8260  0.5951
 7716SOL     OW34609   3.702   4.061   2.218 -0.1702  0.6083  0.3277
 7716SOL    HW134610   3.768   4.058   2.149 -1.0540 -2.3229 -0.4158
 7716SOL    HW234611   3.687   3.967   2.233  0.3528  0.3135 -0.9973
 7717SOL     OW34612   4.647   1.446   5.528  0.1178 -0.0328 -0.0626
 7717SOL    HW134613   4.558   1.419   5.552 -0.2265 -0.0786 -1.4183
 7717SOL    HW234614   4.657   1.509   5.599 -0.1717 -1.7457  1.5143
 7718SOL     OW34615   4.148   4.634   1.069 -0.0242 -0.6766  0.4769
 7718SOL    HW134616   4.213   4.688   1.024  0.3856  0.6488  2.6967
 7718SOL    HW234617   4.141   4.681   1.151  1.2332 -3.2550  2.0707
 7719SOL     OW34618   1.387   4.221   4.223  0.3937 -0.0150 -0.2419
 7719SOL    HW134619   1.468   4.272   4.227  0.5479 -0.2788  0.0769
 7719SOL    HW234620   1.320   4.274   4.182  2.2409  1.9806 -0.6944
 7720SOL     OW34621   1.747   0.572   5.552  0.4869 -0.2181 -0.2530
 7720SOL    HW134622   1.742   0.492   5.499  1.2816 -0.3723 -0.0934
 7720SOL    HW234623   1.840   0.596   5.554  0.2162  0.7845  0.3824
 7721SOL     OW34624   0.695   2.423  15.904  0.6606  0.0672 -0.2655
 7721SOL    HW134625   0.781   2.460  15.883  2.0026 -1.4786  2.5047
 7721SOL    HW234626   0.647   2.500  15.932  1.0969  0.0802  0.4549
 7722SOL     OW34627   3.388   4.343   4.902 -0.3323  0.4193  0.1931
 7722SOL    HW134628   3.414   4.340   4.810  0.2175 -1.0577  0.4032
 7722SOL    HW234629   3.381   4.251   4.929  3.6289 -0.5597 -2.0964
 7723SOL     OW34630   2.341   3.904   2.075  0.8413 -0.0200  0.0374
 7723SOL    HW134631   2.390   3.913   1.993  1.5446 -0.2001  0.4346
 7723SOL    HW234632   2.250   3.922   2.055  0.6694 -3.2337 -1.9751
 7724SOL     OW34633   3.774   0.893   7.308 -0.2535 -0.4646  0.0064
 7724SOL    HW134634   3.706   0.843   7.352 -0.3430 -0.9746 -0.7159
 7724SOL    HW234635   3.847   0.881   7.369  0.5017  2.0599 -0.3969
 7725SOL     OW34636   1.797   0.033   4.171  0.1069  0.2930  0.1555
 7725SOL    HW134637   1.844   0.096   4.227 -2.5764  1.3607  1.2062
 7725SOL    HW234638   1.842   4.673   4.190 -0.5731  0.0574  0.7643
 7726SOL     OW34639   0.803   3.492   9.822 -0.1514 -0.0137 -0.4085
 7726SOL    HW134640   0.890   3.529   9.806  0.4693 -2.0923 -1.8024
 7726SOL    HW234641   0.741   3.555   9.786 -0.7937  0.5590  1.6921
 7727SOL     OW34642   0.777   3.217   6.553 -0.1995  0.0278  0.2352
 7727SOL    HW134643   0.792   3.217   6.458  0.5032  2.5239  0.3364
 7727SOL    HW234644   0.683   3.239   6.548 -0.6646 -2.1038 -0.3184
 7728SOL     OW34645   2.865   3.153  10.755  0.0768 -0.3050  0.8094
 7728SOL    HW134646   2.946   3.157  10.703  1.0100 -0.2543  2.2533
 7728SOL    HW234647   2.871   3.069  10.801  0.1311  0.5408  2.3429
 7729SOL     OW34648   4.654   2.597   6.100 -0.8684  0.0215 -0.5312
 7729SOL    HW134649   4.597   2.587   6.024  0.4977 -2.7629 -1.1816
 7729SOL    HW234650   4.600   2.570   6.175  0.4608 -1.4457 -0.1119
 7730SOL     OW34651   2.567   0.019   4.087 -0.4537 -0.1379  0.0449
 7730SOL    HW134652   2.491   0.072   4.109  0.6105  0.0609  3.2307
 7730SOL    HW234653   2.618   0.025   4.167  0.8736 -1.0490 -0.7313
 7731SOL     OW34654   4.057   2.790  13.365 -0.0437  0.0861 -0.3442
 7731SOL    HW134655   4.005   2.856  13.411 -0.4821 -0.1238 -0.5470
 7731SOL    HW234656   3.991   2.739  13.319 -0.7539  0.2720  0.4826
 7732SOL     OW34657   0.139   4.625   4.831  0.0007 -0.1011 -0.1333
 7732SOL    HW134658   0.157   4.583   4.747  0.4690 -1.1955  0.5075
 7732SOL    HW234659   0.131   4.715   4.801  0.3946  0.4121  1.3130
 7733SOL     OW34660   0.260   0.134   8.251 -0.4709 -0.0383  0.2933
 7733SOL    HW134661   0.223   0.118   8.337 -1.4742  0.7639  0.0095
 7733SOL    HW234662   0.347   0.147   8.289  0.1407 -1.2338 -0.6891
 7734SOL     OW34663   2.330   4.044   8.761 -0.0898 -0.2625 -0.0171
 7734SOL    HW134664   2.386   4.049   8.839  0.2124  1.0203 -0.3079
 7734SOL    HW234665   2.309   3.952   8.772  0.6047 -0.2924  1.1085
 7735SOL     OW34666   0.605   3.419   8.735  0.3056  0.3502 -0.3688
 7735SOL    HW134667   0.532   3.360   8.717 -0.2852  1.2385 -0.9295
 7735SOL    HW234668   0.566   3.467   8.809 -1.4202  1.3060 -1.8726
 7736SOL     OW34669   2.904   3.479   9.439 -0.1736 -0.0196 -0.4257
 7736SOL    HW134670   2.836   3.526   9.391  0.8422  0.5189 -1.3317
 7736SOL    HW234671   2.949   3.439   9.365 -1.5016 -0.3692 -1.0469
 7737SOL     OW34672   0.020   3.478   5.348  0.1729  0.0614 -0.5855
 7737SOL    HW134673   0.090   3.459   5.410  0.5478  0.2696 -0.9466
 7737SOL    HW234674   4.676   3.419   5.385  0.6745 -0.7560 -1.0075
 7738SOL     OW34675   3.980   4.485   5.001  0.2939  0.1894 -0.5813
 7738SOL    HW134676   3.886   4.501   5.013  0.0994 -0.7212 -0.9524
 7738SOL    HW234677   4.012   4.559   4.949 -2.2259  0.8823 -1.1440
 7739SOL     OW34678   0.154   2.959   8.947  0.8370 -0.2520  0.7096
 7739SOL    HW134679   0.232   2.940   8.894  1.0340  0.3187  0.8012
 7739SOL    HW234680   0.194   2.982   9.031  2.9685  0.7262 -0.5739
 7740SOL     OW34681   0.448   1.086  10.695  0.3380  0.7390  0.0139
 7740SOL    HW134682   0.362   1.057  10.664 -0.2232  1.0338  1.3006
 7740SOL    HW234683   0.484   1.133  10.620  0.5496 -1.5856 -1.3320
 7741SOL     OW34684   1.379   2.041  10.036 -0.7052 -0.6731 -0.2597
 7741SOL    HW134685   1.326   2.119  10.052  3.4138  2.1162 -0.1935
 7741SOL    HW234686   1.343   1.983  10.103  0.2282 -1.5072 -0.4731
 7742SOL     OW34687   4.567   2.142   8.925 -0.4481  0.1661  0.0863
 7742SOL    HW134688   4.623   2.178   8.993 -0.9894  1.9929 -0.4119
 7742SOL    HW234689   4.541   2.221   8.877 -3.0158  0.7211  2.4041
 7743SOL     OW34690   2.068   1.707  16.761 -0.4233  0.6452 -0.4127
 7743SOL    HW134691   2.131   1.779  16.764  2.4701 -1.8098 -1.6081
 7743SOL    HW234692   2.094   1.639  16.823  1.4698  0.2119 -1.6540
 7744SOL     OW34693   1.920   1.858  17.370 -0.5910  0.3405 -0.0859
 7744SOL    HW134694   1.851   1.821  17.315 -1.2848 -1.1363  1.8277
 7744SOL    HW234695   1.980   1.784  17.375  0.6931  1.2828 -1.2062
 7745SOL     OW34696   0.386   0.492   8.907  0.0012  0.2743 -0.2317
 7745SOL    HW134697   0.417   0.492   8.997 -1.0985 -1.3899  0.1290
 7745SOL    HW234698   0.373   0.399   8.892 -0.2682  0.3408 -0.4216
 7746SOL     OW34699   2.741   3.478   7.449  0.4083  0.4448  0.0481
 7746SOL    HW134700   2.710   3.389   7.464  1.9514  0.0513  0.9189
 7746SOL    HW234701   2.811   3.478   7.384 -0.7142  1.0158 -1.1570
 7747SOL     OW34702   0.875   3.388   3.804 -0.0469 -0.6797  0.7170
 7747SOL    HW134703   0.928   3.309   3.801  2.1537  0.8334 -0.6031
 7747SOL    HW234704   0.928   3.447   3.749  3.3130 -3.1056  1.4169
 7748SOL     OW34705   0.493   0.264  16.442  0.0487 -0.4352 -0.3545
 7748SOL    HW134706   0.475   0.308  16.359 -3.9630 -0.6948  0.3824
 7748SOL    HW234707   0.460   0.329  16.503 -0.7787 -0.7207 -0.4969
 7749SOL     OW34708   3.984   1.069   4.926  0.6045 -0.6699  0.1455
 7749SOL    HW134709   4.056   1.125   4.894 -0.3422  0.0749 -0.6726
 7749SOL    HW234710   4.039   1.001   4.967 -1.5249 -2.1521  0.5163
 7750SOL     OW34711   3.963   0.984  11.608  0.8029  0.6751 -0.4490
 7750SOL    HW134712   3.952   0.926  11.684 -2.3256 -0.1472 -1.5200
 7750SOL    HW234713   3.882   0.960  11.563  1.0269 -2.1804  0.6535
 7751SOL     OW34714   3.883   3.794  15.640 -0.0490 -0.0265 -0.2496
 7751SOL    HW134715   3.875   3.851  15.564 -2.4839  0.6062  0.4862
 7751SOL    HW234716   3.828   3.724  15.604 -1.0594  1.5469 -1.8026
 7752SOL     OW34717   1.632   2.992   6.079  0.2435 -0.0861  0.0482
 7752SOL    HW134718   1.716   3.022   6.113  0.4987 -0.3671 -0.3361
 7752SOL    HW234719   1.652   2.945   5.998  1.5656 -0.5683  0.6680
 7753SOL     OW34720   2.053   3.338   5.819  0.2202  0.0570 -0.8718
 7753SOL    HW134721   2.058   3.334   5.914 -1.0410 -0.4459 -0.8211
 7753SOL    HW234722   2.118   3.276   5.786 -0.0423  0.0171 -1.3176
 7754SOL     OW34723   4.001   3.245  13.725  0.1391 -0.4428  0.1511
 7754SOL    HW134724   4.034   3.325  13.684  0.3511 -0.3149  0.5746
 7754SOL    HW234725   4.027   3.177  13.662  2.0038 -1.8381  2.4390
 7755SOL     OW34726   2.198   3.645   1.111  0.6059  0.0241 -0.3840
 7755SOL    HW134727   2.282   3.691   1.109 -0.1827  1.4012 -1.6091
 7755SOL    HW234728   2.233   3.558   1.134  0.3686 -0.5298 -2.0997
 7756SOL     OW34729   0.543   4.079   9.934  0.2846  1.0004 -0.5086
 7756SOL    HW134730   0.569   4.133  10.009  3.8507 -1.9414  0.4186
 7756SOL    HW234731   0.448   4.074   9.944  0.4187  0.4913  0.5883
 7757SOL     OW34732   2.231   0.241   9.145 -0.1173 -0.3589 -0.3612
 7757SOL    HW134733   2.143   0.279   9.149 -0.6392 -1.4088 -1.8314
 7757SOL    HW234734   2.199   0.155   9.172  0.3675 -0.9105 -1.5250
 7758SOL     OW34735   0.337   4.273   3.496  0.5750 -0.5954 -0.9900
 7758SOL    HW134736   0.265   4.251   3.438 -0.4239  0.2540 -0.0562
 7758SOL    HW234737   0.395   4.313   3.431  0.7376  2.4432  1.0491
 7759SOL     OW34738   1.614   3.292   2.883 -0.2558  0.0655 -0.1159
 7759SOL    HW134739   1.575   3.380   2.879  1.5876  0.9569  1.9273
 7759SOL    HW234740   1.545   3.234   2.916 -0.6054  1.0775  0.9311
 7760SOL     OW34741   4.336   1.342  17.498 -0.3985  0.8103 -0.4061
 7760SOL    HW134742   4.329   1.431  17.533  0.3410  0.1021  1.5337
 7760SOL    HW234743   4.427   1.347  17.467  0.1398 -0.3104  0.9966
 7761SOL     OW34744   4.636   0.289   1.252 -0.1015  0.2733 -0.2823
 7761SOL    HW134745   4.574   0.315   1.185 -0.7724  0.3452  0.3622
 7761SOL    HW234746   4.622   0.356   1.320 -3.2583 -1.7821  1.0824
 7762SOL     OW34747   3.980   0.815   8.521 -0.0283 -0.6275  0.0429
 7762SOL    HW134748   4.017   0.739   8.476 -1.6347  0.3526 -2.9470
 7762SOL    HW234749   3.922   0.856   8.456  1.9499  2.7112  0.3669
 7763SOL     OW34750   0.162   2.518   5.259 -0.6122 -0.3161  0.2579
 7763SOL    HW134751   0.081   2.552   5.220 -0.4748  0.3023  0.5121
 7763SOL    HW234752   0.183   2.462   5.184  0.2493  1.1726 -0.6071
 7764SOL     OW34753   2.692   2.550   2.972 -0.4948 -0.8775  0.2324
 7764SOL    HW134754   2.673   2.619   2.908  0.7652  0.0655  0.8488
 7764SOL    HW234755   2.702   2.479   2.909  1.8767  1.0947 -1.6455
 7765SOL     OW34756   0.137   2.711   3.365  0.4340 -0.2413 -0.4222
 7765SOL    HW134757   0.078   2.638   3.345 -0.8934  0.1766  1.9582
 7765SOL    HW234758   0.154   2.705   3.459  1.5240 -2.9352 -0.7749
 7766SOL     OW34759   1.426   3.011   7.843 -0.5449  0.3280  0.7488
 7766SOL    HW134760   1.364   2.963   7.898 -1.9055 -0.3785 -1.3821
 7766SOL    HW234761   1.502   2.960   7.870 -0.6138  0.4910  1.2548
 7767SOL     OW34762   0.735   0.964   5.949 -0.0342  0.5194 -0.1450
 7767SOL    HW134763   0.691   0.908   6.013  0.9024 -2.2601 -1.9730
 7767SOL    HW234764   0.661   1.014   5.914 -1.0576 -0.2715  0.8783
 7768SOL     OW34765   3.228   0.516   7.200  0.4348 -0.4494  0.1787
 7768SOL    HW134766   3.208   0.492   7.109  0.0037  0.1854  0.1042
 7768SOL    HW234767   3.187   0.601   7.216  1.2647  0.0708 -0.4718
 7769SOL     OW34768   1.434   0.152   1.162  0.0252 -0.4041  0.5903
 7769SOL    HW134769   1.354   0.159   1.215  0.5895 -0.6154  1.4783
 7769SOL    HW234770   1.404   0.201   1.086 -1.2084 -0.9510  0.7223
 7770SOL     OW34771   4.338   3.474   2.566  0.3585 -0.4630  0.0061
 7770SOL    HW134772   4.391   3.398   2.588  1.3891  0.2829  0.0861
 7770SOL    HW234773   4.382   3.547   2.609 -0.4393  0.6853 -1.1537
 7771SOL     OW34774   3.528   2.429  15.460 -0.0898 -0.1522  0.6776
 7771SOL    HW134775   3.604   2.443  15.403 -1.4540 -1.4676 -1.4532
 7771SOL    HW234776   3.473   2.386  15.395  1.3769  0.7817 -1.1995
 7772SOL     OW34777   0.164   0.558   7.571  0.0627  0.1883 -0.4033
 7772SOL    HW134778   0.237   0.518   7.618 -0.2918 -0.0025 -0.0147
 7772SOL    HW234779   0.094   0.496   7.589 -0.0355  0.3230 -0.3169
 7773SOL     OW34780   1.487   3.381   4.422  0.1112 -0.7672 -0.0083
 7773SOL    HW134781   1.582   3.385   4.411 -0.2438  1.3455 -2.2073
 7773SOL    HW234782   1.461   3.472   4.436 -0.2319 -1.3270  3.0044
 7774SOL     OW34783   2.551   1.440   9.034  0.1912 -0.2837 -0.1610
 7774SOL    HW134784   2.566   1.347   9.019 -0.5826 -0.2125 -1.3922
 7774SOL    HW234785   2.521   1.476   8.951  0.6579  0.8723  0.1755
 7775SOL     OW34786   4.119   0.417  15.234 -0.2874 -0.1536  0.2490
 7775SOL    HW134787   4.046   0.391  15.177  0.1711  1.4523 -1.0633
 7775SOL    HW234788   4.076   0.428  15.318  0.4111 -1.9160  0.8364
 7776SOL     OW34789   1.617   1.507   7.101  0.4033 -0.1049 -0.3848
 7776SOL    HW134790   1.695   1.536   7.053  1.3048  0.5723  1.4811
 7776SOL    HW234791   1.576   1.454   7.033  0.0216 -1.8096  1.1798
 7777SOL     OW34792   4.530   4.262   7.968  0.6313 -0.1646 -0.0198
 7777SOL    HW134793   4.487   4.343   7.994  0.6774 -0.1524  0.0174
 7777SOL    HW234794   4.580   4.253   8.048  2.5892  0.1669 -1.2001
 7778SOL     OW34795   1.230   3.613   5.324 -0.6742  0.4200  1.0216
 7778SOL    HW134796   1.255   3.526   5.292 -0.0827  0.8011  0.4547
 7778SOL    HW234797   1.252   3.653   5.240  0.1335 -2.6559 -0.2534
 7779SOL     OW34798   3.805   1.586   1.689 -0.1595 -0.2502 -0.4177
 7779SOL    HW134799   3.725   1.637   1.680 -0.2220 -0.4705 -1.1003
 7779SOL    HW234800   3.815   1.558   1.598 -1.6212  1.7081 -1.1849
 7780SOL     OW34801   3.288   3.316   1.525  0.1609  0.5173 -0.5978
 7780SOL    HW134802   3.313   3.345   1.437  0.8638 -0.5189 -0.7515
 7780SOL    HW234803   3.230   3.242   1.507  1.8829 -0.9476 -0.1209
 7781SOL     OW34804   2.748   1.551  15.402 -0.1019 -0.1185 -0.3766
 7781SOL    HW134805   2.697   1.585  15.329 -0.7399 -1.1653 -0.4256
 7781SOL    HW234806   2.724   1.610  15.473 -0.8816 -3.8020  2.4383
 7782SOL     OW34807   1.720   1.168   3.639  0.3461 -0.4027 -0.3205
 7782SOL    HW134808   1.668   1.097   3.603 -0.2617 -1.3157  2.3787
 7782SOL    HW234809   1.784   1.168   3.568 -0.2934  1.1862 -0.8902
 7783SOL     OW34810   3.956   1.296   4.475 -0.2238 -0.6031 -0.2492
 7783SOL    HW134811   3.984   1.211   4.441 -1.4408 -0.4024 -1.7719
 7783SOL    HW234812   3.952   1.287   4.570  2.0059 -2.1535 -0.2971
 7784SOL     OW34813   1.202   0.204   5.603  0.6487  0.1074  0.0531
 7784SOL    HW134814   1.265   0.204   5.675 -1.5889 -1.3489  2.0137
 7784SOL    HW234815   1.270   0.180   5.540 -0.1152 -2.3450  0.1502
 7785SOL     OW34816   2.308   3.653   7.057 -0.0051 -0.0568 -0.1223
 7785SOL    HW134817   2.239   3.587   7.060  2.3970 -2.5383  0.1123
 7785SOL    HW234818   2.379   3.594   7.034  0.2246  0.1532  0.0448
 7786SOL     OW34819   2.994   0.386  12.698 -0.0618  0.0475  0.1326
 7786SOL    HW134820   3.070   0.405  12.643  0.2756 -0.2553  0.5000
 7786SOL    HW234821   2.955   0.332  12.630  1.7745 -1.5686  0.3517
 7787SOL     OW34822   1.367   0.608   0.907 -0.2855  0.1366  0.3307
 7787SOL    HW134823   1.384   0.703   0.910  1.6395 -0.1932  0.1306
 7787SOL    HW234824   1.340   0.595   0.817 -0.7703  0.7626  0.3809
 7788SOL     OW34825   4.251   4.000  10.866 -0.1797 -0.0506  0.1719
 7788SOL    HW134826   4.216   3.959  10.945 -1.7322 -1.5926 -1.3173
 7788SOL    HW234827   4.209   3.942  10.802  0.5892 -1.3032  0.7933
 7789SOL     OW34828   2.290   4.042   1.675 -0.4133 -0.5953  0.2658
 7789SOL    HW134829   2.223   4.077   1.616 -0.5800 -0.0754  0.7683
 7789SOL    HW234830   2.294   3.956   1.632 -1.2415 -0.9906  0.9855
 7790SOL     OW34831   1.994   2.875   2.001 -0.3338  0.1305 -0.5139
 7790SOL    HW134832   2.028   2.856   1.913  0.6060 -0.5359 -0.0112
 7790SOL    HW234833   1.900   2.867   1.991 -0.1702 -1.4400 -0.7006
 7791SOL     OW34834   3.178   1.674   5.531 -0.6439 -0.1329  0.2145
 7791SOL    HW134835   3.166   1.580   5.517  1.0185 -0.7755  3.0360
 7791SOL    HW234836   3.257   1.680   5.585  0.1472  0.9057 -1.0316
 7792SOL     OW34837   0.339   0.090   8.562 -0.3904 -0.3403 -0.3848
 7792SOL    HW134838   0.370   0.139   8.486  1.0541 -1.3980 -0.4516
 7792SOL    HW234839   0.302   0.019   8.510 -0.7908  0.1940 -0.8363
 7793SOL     OW34840   0.433   1.220  14.693  0.1627 -0.5392  0.2661
 7793SOL    HW134841   0.356   1.175  14.728 -0.5996  0.5502 -0.0317
 7793SOL    HW234842   0.510   1.189  14.741  0.9432  0.7305 -0.1680
 7794SOL     OW34843   0.497   1.380   9.226 -0.3098 -0.2030 -0.3051
 7794SOL    HW134844   0.512   1.360   9.319 -0.3612 -1.3557 -0.5484
 7794SOL    HW234845   0.516   1.474   9.227 -0.4870 -0.1809  1.8046
 7795SOL     OW34846   3.743   4.720   4.297  0.1160 -0.7099 -0.3180
 7795SOL    HW134847   3.696   4.680   4.370 -2.8834  1.8620 -0.8373
 7795SOL    HW234848   3.825   0.022   4.340 -0.7111  0.2879  0.7093
 7796SOL     OW34849   2.849   4.475  16.832 -0.2854  0.9531  0.3107
 7796SOL    HW134850   2.801   4.551  16.863 -1.3772 -0.2417  1.5576
 7796SOL    HW234851   2.821   4.413  16.900 -1.8311  1.2184 -0.0777
 7797SOL     OW34852   2.610   0.160   2.828 -0.7405 -0.0365 -0.2717
 7797SOL    HW134853   2.518   0.135   2.834 -0.0896 -2.2886  0.3223
 7797SOL    HW234854   2.617   0.201   2.915 -0.9052 -1.7842  0.5545
 7798SOL     OW34855   1.782   0.348   4.769  0.1735 -0.7321  0.0990
 7798SOL    HW134856   1.810   0.286   4.701  0.5292  0.4188 -0.7954
 7798SOL    HW234857   1.687   0.336   4.764 -0.1938  1.6368  1.5001
 7799SOL     OW34858   0.501   3.987  10.655 -0.5301 -0.1927  0.6261
 7799SOL    HW134859   0.452   3.905  10.649 -3.2612  1.5539 -0.4711
 7799SOL    HW234860   0.570   3.971  10.720 -0.7557 -0.0033  0.9095
 7800SOL     OW34861   2.003   3.955   4.990 -0.0547  0.5678  0.4830
 7800SOL    HW134862   1.945   3.956   5.066  1.6250 -1.1541  1.7831
 7800SOL    HW234863   1.942   3.978   4.920  0.6431  1.3586  0.1309
 7801SOL     OW34864   2.420   3.291   4.088 -0.6546 -0.4142  0.3732
 7801SOL    HW134865   2.490   3.353   4.068 -0.1825 -0.4731  1.8370
 7801SOL    HW234866   2.471   3.217   4.056 -0.6761  0.4797 -1.6981
 7802SOL     OW34867   0.614   3.210   5.771 -0.2914  0.0289 -0.1813
 7802SOL    HW134868   0.652   3.233   5.686 -0.3713  0.7231 -0.0281
 7802SOL    HW234869   0.667   3.135   5.801 -0.1079 -0.7798 -2.5361
 7803SOL     OW34870   1.857   1.697   2.117 -0.0410  0.3812  0.3712
 7803SOL    HW134871   1.889   1.666   2.202 -0.1355  0.3518  0.3963
 7803SOL    HW234872   1.792   1.633   2.087  1.2489 -1.9612  2.5334
 7804SOL     OW34873   1.853   2.691   7.905  0.0553  0.0999 -0.6711
 7804SOL    HW134874   1.872   2.671   7.814  0.1229  2.7357 -1.2457
 7804SOL    HW234875   1.822   2.609   7.942  0.4988  0.2991  0.1506
 7805SOL     OW34876   2.577   2.161   4.731 -0.6049 -0.3980  0.5133
 7805SOL    HW134877   2.627   2.242   4.737 -1.7717  0.6942 -4.6195
 7805SOL    HW234878   2.532   2.154   4.815  2.7212 -1.5421  2.1831
 7806SOL     OW34879   1.572   2.739   8.852 -0.5748 -0.0842  0.6031
 7806SOL    HW134880   1.601   2.659   8.895  1.8543 -0.3799 -1.5689
 7806SOL    HW234881   1.479   2.715   8.844  0.0525 -2.8116  1.5876
 7807SOL     OW34882   0.195   1.731   6.025 -0.4381 -0.0642 -0.1953
 7807SOL    HW134883   0.204   1.767   5.937  2.5741  0.7561  0.4465
 7807SOL    HW234884   0.145   1.650   6.011 -1.3613  0.7476 -1.5387
 7808SOL     OW34885   0.892   2.544   4.741 -0.0973 -0.0293 -0.5303
 7808SOL    HW134886   0.837   2.468   4.719 -2.3912  2.1925 -2.4801
 7808SOL    HW234887   0.850   2.612   4.688  1.3788  1.2278 -0.0851
 7809SOL     OW34888   1.859   4.115   7.156 -0.0645 -0.4389 -0.4072
 7809SOL    HW134889   1.767   4.134   7.177  0.1273  0.4011 -0.3510
 7809SOL    HW234890   1.877   4.028   7.193  0.6415  0.3504  1.0835
 7810SOL     OW34891   4.244   4.158   4.291 -0.4999 -0.0723  0.3500
 7810SOL    HW134892   4.324   4.113   4.262 -1.0197 -0.4473 -0.4943
 7810SOL    HW234893   4.278   4.247   4.277 -1.4006  0.0411 -1.0514
 7811SOL     OW34894   3.649   2.333   4.127  0.1803 -0.0069 -0.2136
 7811SOL    HW134895   3.671   2.426   4.123  0.5729 -0.0712  0.4349
 7811SOL    HW234896   3.675   2.303   4.040 -1.9408 -1.0533 -0.4842
 7812SOL     OW34897   1.387   1.661   2.797  0.1765  0.4970  0.2451
 7812SOL    HW134898   1.365   1.683   2.706 -0.7038  2.1185  0.8499
 7812SOL    HW234899   1.323   1.590   2.807  0.7502 -0.0669 -0.1555
 7813SOL     OW34900   2.662   0.670  11.499 -0.1460  0.0509 -0.3754
 7813SOL    HW134901   2.683   0.724  11.574 -1.1939 -1.6795  1.1686
 7813SOL    HW234902   2.599   0.605  11.532 -0.0673  1.6140  2.8099
 7814SOL     OW34903   2.302   4.524   1.846  0.9660 -0.2149 -0.0450
 7814SOL    HW134904   2.239   4.468   1.893 -0.0489 -0.6806 -1.9854
 7814SOL    HW234905   2.248   4.603   1.845  1.6923  0.2597 -0.9332
 7815SOL     OW34906   2.859   1.025   0.075  0.5824 -0.1684 -0.0995
 7815SOL    HW134907   2.908   0.943   0.080  1.3256  0.3960  1.8365
 7815SOL    HW234908   2.808   1.023   0.156 -0.2078 -0.9932 -0.6176
 7816SOL     OW34909   4.027   3.249   5.996 -0.0664  0.0572  1.1182
 7816SOL    HW134910   4.049   3.342   5.997 -1.8102  0.4574  1.4160
 7816SOL    HW234911   4.024   3.223   6.088  1.2034 -1.1807  0.8148
 7817SOL     OW34912   1.228   4.700  17.302 -0.1252  0.2252 -1.2148
 7817SOL    HW134913   1.298   4.688  17.237  1.6326 -1.5252  1.0002
 7817SOL    HW234914   1.219   4.607  17.324 -1.6138  0.4222 -1.0019
 7818SOL     OW34915   3.272   4.191  11.327  0.1949  0.0740 -0.1555
 7818SOL    HW134916   3.222   4.258  11.282 -0.8808 -0.3009  0.4745
 7818SOL    HW234917   3.226   4.181  11.411 -1.7567 -2.1701 -1.4738
 7819SOL     OW34918   3.838   1.058  10.955  0.5021  0.0060 -0.6265
 7819SOL    HW134919   3.849   0.980  11.008  1.9780 -0.1636 -1.1628
 7819SOL    HW234920   3.803   1.108  11.029 -0.5221  0.8178 -1.6432
 7820SOL     OW34921   3.279   3.716   6.795  0.2978 -0.0054  0.1534
 7820SOL    HW134922   3.229   3.719   6.877 -0.9842  2.6032 -0.7281
 7820SOL    HW234923   3.362   3.747   6.831  0.2621  0.5809 -0.2684
 7821SOL     OW34924   1.743   3.444   5.256 -0.2095 -0.2353  0.1815
 7821SOL    HW134925   1.731   3.452   5.161 -2.6740  0.5234  0.5553
 7821SOL    HW234926   1.772   3.354   5.270  1.6353  0.5779  1.7082
 7822SOL     OW34927   3.603   4.618   4.515 -0.1607 -0.5938 -0.0786
 7822SOL    HW134928   3.578   4.532   4.550  1.1279 -1.5336 -1.4706
 7822SOL    HW234929   3.636   4.663   4.593 -1.3259 -2.0128  1.2467
 7823SOL     OW34930   1.600   1.479   4.061 -0.1072  0.0048 -0.2493
 7823SOL    HW134931   1.593   1.573   4.078  0.7741 -0.0832  0.6179
 7823SOL    HW234932   1.611   1.478   3.966 -0.8821 -0.6884 -0.3308
 7824SOL     OW34933   0.507   1.255   2.096  0.3917  0.3371 -0.2398
 7824SOL    HW134934   0.472   1.340   2.068  1.2920  0.7581 -0.0931
 7824SOL    HW234935   0.595   1.287   2.115  0.7822 -1.2462  0.5561
 7825SOL     OW34936   0.314   0.854  11.315 -0.2205  0.4653 -0.2392
 7825SOL    HW134937   0.300   0.804  11.395 -0.3604  1.4157  0.3391
 7825SOL    HW234938   0.269   0.803  11.247  0.1368  0.7261 -0.6742
 7826SOL     OW34939   2.512   4.702   6.280 -0.4021 -0.1494  0.3850
 7826SOL    HW134940   2.482   0.058   6.235  2.2229 -0.1262 -1.3076
 7826SOL    HW234941   2.563   0.010   6.356 -0.5387  2.8804 -0.7650
 7827SOL     OW34942   0.744   0.728  14.767  0.1014  0.2162  0.1117
 7827SOL    HW134943   0.660   0.682  14.772  0.8730 -1.0693  1.3769
 7827SOL    HW234944   0.755   0.779  14.847  0.1387 -2.5533  1.8541
 7828SOL     OW34945   0.613   3.385   2.289 -0.1039 -0.4767 -0.0411
 7828SOL    HW134946   0.700   3.365   2.324 -0.7563  1.4718  2.6794
 7828SOL    HW234947   0.552   3.350   2.353 -0.8597  0.9025 -0.0088
 7829SOL     OW34948   3.607   1.254   4.258 -0.0778 -0.5295 -0.5551
 7829SOL    HW134949   3.541   1.323   4.255 -0.0313 -0.4750 -0.3674
 7829SOL    HW234950   3.608   1.255   4.354 -2.0475  0.8383 -0.5382
 7830SOL     OW34951   3.364   3.720   7.863 -0.0687  0.2230 -0.4541
 7830SOL    HW134952   3.387   3.676   7.944 -0.4334 -0.4705 -0.7297
 7830SOL    HW234953   3.306   3.654   7.824  0.3776 -1.6405  2.0939
 7831SOL     OW34954   0.915   4.024   5.721 -0.4903 -0.1858  0.0867
 7831SOL    HW134955   1.000   4.065   5.734 -0.7050  0.1233  0.5090
 7831SOL    HW234956   0.879   4.080   5.652 -1.0275 -0.0400  0.4863
 7832SOL     OW34957   0.295   3.782  15.411 -0.0387  0.4047  0.5143
 7832SOL    HW134958   0.230   3.712  15.417 -1.1394  1.3826 -0.1390
 7832SOL    HW234959   0.248   3.860  15.440 -0.4503 -0.5032  2.2864
 7833SOL     OW34960   4.658   0.841  16.277  0.0622  0.3088  0.0182
 7833SOL    HW134961   0.009   0.864  16.220  0.0973  0.3544  0.0809
 7833SOL    HW234962   4.678   0.875  16.364 -0.9995 -0.2732  0.4911
 7834SOL     OW34963   2.132   4.094   0.747 -0.5260 -0.4110 -0.0459
 7834SOL    HW134964   2.074   4.042   0.802 -0.0548  0.6321  1.4453
 7834SOL    HW234965   2.082   4.087   0.666  1.5756  0.3049 -1.4030
 7835SOL     OW34966   0.861   3.099  10.311  0.1974  0.1415 -0.4056
 7835SOL    HW134967   0.769   3.084  10.289  0.1558  0.3273 -0.3534
 7835SOL    HW234968   0.873   3.046  10.390 -0.7936 -0.8319 -0.8993
 7836SOL     OW34969   3.531   4.226  17.419 -0.0846  0.0021 -0.5803
 7836SOL    HW134970   3.521   4.183  17.335  2.0028 -1.6423  0.0098
 7836SOL    HW234971   3.514   4.150  17.475 -0.0157  0.3902 -0.0306
 7837SOL     OW34972   4.009   3.511   8.667 -0.3027 -0.6198  0.2472
 7837SOL    HW134973   4.027   3.571   8.740 -0.3184 -1.8416  1.2480
 7837SOL    HW234974   3.992   3.434   8.720  0.3626 -1.5285 -0.8678
 7838SOL     OW34975   1.000   3.710   9.793  0.1972 -0.5923 -0.2078
 7838SOL    HW134976   1.005   3.722   9.698 -2.8323 -1.1032 -0.4080
 7838SOL    HW234977   0.933   3.775   9.813  0.5872 -0.1507 -0.3018
 7839SOL     OW34978   3.516   4.592   0.468 -0.4196  0.3965  0.1022
 7839SOL    HW134979   3.562   4.634   0.395  1.8130 -1.1556  0.6030
 7839SOL    HW234980   3.467   4.518   0.432  0.1885 -0.2252  0.5190
 7840SOL     OW34981   2.929   4.705   7.444 -0.4063 -0.0342 -0.3414
 7840SOL    HW134982   3.011   0.031   7.455  0.1433 -1.0556  0.1288
 7840SOL    HW234983   2.881   0.044   7.500  0.1512  0.3882 -0.3230
 7841SOL     OW34984   0.395   4.419   4.552  0.1814 -0.0765  0.4595
 7841SOL    HW134985   0.438   4.483   4.609  1.8980 -0.9308  0.1303
 7841SOL    HW234986   0.463   4.361   4.516 -1.5318 -2.5173  1.1405
 7842SOL     OW34987   1.486   3.146  11.460  0.2094  0.3837 -0.3994
 7842SOL    HW134988   1.518   3.181  11.542  0.2279 -0.2547 -0.1316
 7842SOL    HW234989   1.562   3.104  11.420 -2.0989 -1.4724 -2.9324
 7843SOL     OW34990   0.574   0.920  12.600 -0.4836  0.0565 -0.2547
 7843SOL    HW134991   0.542   0.885  12.517  2.0576 -1.7259 -0.4886
 7843SOL    HW234992   0.576   1.013  12.576 -1.5606 -0.2349 -1.5061
 7844SOL     OW34993   1.655   4.074  14.675  0.2440  0.3963 -0.2423
 7844SOL    HW134994   1.721   4.104  14.613 -0.2993  3.6550  0.7285
 7844SOL    HW234995   1.596   4.150  14.673 -0.6038 -0.3616 -3.4268
 7845SOL     OW34996   4.127   1.150  11.508 -0.3002  0.3616 -0.1305
 7845SOL    HW134997   4.126   1.232  11.557 -0.5139  0.4107 -0.2184
 7845SOL    HW234998   4.064   1.105  11.564 -1.3085  2.7165  0.6224
 7846SOL     OW34999   0.113   2.491   6.885  0.2304 -0.0256  0.1660
 7846SOL    HW135000   0.096   2.511   6.977  4.3198  0.8758  0.7340
 7846SOL    HW235001   0.192   2.540   6.862 -1.5060  0.8328 -4.0112
 7847SOL     OW35002   2.468   1.195  13.674 -0.2639 -1.1265 -0.2872
 7847SOL    HW135003   2.465   1.120  13.733  1.1050 -2.0184 -1.3586
 7847SOL    HW235004   2.376   1.221  13.677  0.0117 -0.2654  0.6579
 7848SOL     OW35005   0.516   0.479  13.535  0.4312  0.3586  0.0422
 7848SOL    HW135006   0.468   0.530  13.470  0.6175 -2.0916 -2.0582
 7848SOL    HW235007   0.474   0.393  13.531  1.4576 -0.1778  0.5856
 7849SOL     OW35008   3.703   0.151  12.569  0.5158 -0.8041  0.4771
 7849SOL    HW135009   3.745   0.206  12.502 -0.2303 -0.8212 -0.0072
 7849SOL    HW235010   3.612   0.150  12.540  0.4246  0.7020  0.7003
 7850SOL     OW35011   3.595   3.026   9.124 -0.6820 -0.4681  0.8000
 7850SOL    HW135012   3.547   3.093   9.075 -0.4683  1.1322  2.7395
 7850SOL    HW235013   3.513   2.977   9.136 -1.1296  0.1311  0.2177
 7851SOL     OW35014   2.889   4.712   7.866  0.0463  0.0698 -0.4809
 7851SOL    HW135015   2.849   0.072   7.896 -0.0600  0.0304 -0.5134
 7851SOL    HW235016   2.860   4.712   7.775 -1.4112 -1.3222 -0.0142
 7852SOL     OW35017   3.988   3.930   7.957 -0.0526  0.0364  0.3496
 7852SOL    HW135018   4.067   3.881   7.981  0.9846  1.0022 -1.0577
 7852SOL    HW235019   3.939   3.861   7.912 -1.4517  1.5230 -0.4155
 7853SOL     OW35020   2.851   2.344   4.966 -0.4139  0.2035  0.1885
 7853SOL    HW135021   2.932   2.293   4.972 -1.0760 -0.9015 -0.4340
 7853SOL    HW235022   2.840   2.374   5.056 -1.2972 -0.8555  0.4300
 7854SOL     OW35023   3.570   0.404   3.591  0.6608  0.1612 -0.0779
 7854SOL    HW135024   3.499   0.464   3.615 -1.4284 -1.4180 -2.3492
 7854SOL    HW235025   3.564   0.399   3.496 -0.3471 -1.1132  0.0472
 7855SOL     OW35026   0.085   2.005   0.562 -0.1489  0.3053  0.7374
 7855SOL    HW135027   0.174   2.025   0.592  0.8309  0.5024 -2.3691
 7855SOL    HW235028   0.036   1.989   0.643 -1.1553 -1.3828 -0.2307
 7856SOL     OW35029   1.286   4.112  14.904  0.0319 -0.0748 -0.4822
 7856SOL    HW135030   1.302   4.019  14.921  1.3710 -0.0052 -1.3380
 7856SOL    HW235031   1.338   4.157  14.970 -0.5965  0.5325 -0.4027
 7857SOL     OW35032   0.460   2.062   8.845 -0.1655 -0.0898 -0.3134
 7857SOL    HW135033   0.534   2.069   8.906  1.1028 -0.5703 -1.7772
 7857SOL    HW235034   0.404   2.136   8.869 -2.3492 -2.0564  0.6151
 7858SOL     OW35035   4.470   4.509   4.728  0.0643  0.5588 -0.1738
 7858SOL    HW135036   4.547   4.507   4.784 -0.5958  0.9782  0.7499
 7858SOL    HW235037   4.484   4.425   4.686  2.1996  1.2470 -0.8486
 7859SOL     OW35038   2.598   0.090   1.873 -0.5312  0.3066  0.2258
 7859SOL    HW135039   2.560   0.140   1.800 -1.1583 -0.4553  0.0189
 7859SOL    HW235040   2.550   0.006   1.877  0.3708 -0.1694  0.9056
 7860SOL     OW35041   0.483   0.095   1.712  0.3466 -0.2226  0.3131
 7860SOL    HW135042   0.399   0.065   1.746 -1.4965  1.4193 -2.7732
 7860SOL    HW235043   0.533   0.107   1.793  0.3018  0.9318  0.1767
 7861SOL     OW35044   3.358   3.110   4.043  0.4485  0.6034 -0.1652
 7861SOL    HW135045   3.346   3.184   3.982  0.1634  0.4346 -0.3123
 7861SOL    HW235046   3.419   3.057   3.992 -1.7194 -0.9243 -1.1692
 7862SOL     OW35047   3.726   2.453   8.008  0.0418  0.5239 -0.8182
 7862SOL    HW135048   3.792   2.404   7.959  0.9826  0.8981  0.0647
 7862SOL    HW235049   3.709   2.388   8.076  1.3463  1.2699  0.2292
 7863SOL     OW35050   2.951   0.396   4.180 -0.3404 -0.2863 -0.5510
 7863SOL    HW135051   2.894   0.373   4.107 -0.3245 -0.0766 -0.6305
 7863SOL    HW235052   2.986   0.478   4.147 -2.4358  1.7105  2.1002
 7864SOL     OW35053   0.430   3.773   7.109  0.0595 -0.1552  0.1302
 7864SOL    HW135054   0.336   3.791   7.115  0.5620  1.7548  2.3680
 7864SOL    HW235055   0.474   3.764   7.194  0.3190 -2.6585 -0.2855
 7865SOL     OW35056   3.899   0.093   4.519  0.0831 -0.5361 -0.3975
 7865SOL    HW135057   3.942   0.168   4.478 -0.7289  1.6510  2.8053
 7865SOL    HW235058   3.978   0.048   4.550 -0.4343 -0.5554  0.8682
 7866SOL     OW35059   4.584   3.119   9.564  0.2128 -0.3911  0.0059
 7866SOL    HW135060   4.510   3.167   9.526  0.7107 -0.4423 -1.0169
 7866SOL    HW235061   4.639   3.185   9.608  0.2727 -0.3758 -0.0904
 7867SOL     OW35062   4.556   3.521   3.881 -0.1464  0.2209 -0.2997
 7867SOL    HW135063   4.482   3.526   3.940 -1.4024 -0.8654 -1.7673
 7867SOL    HW235064   4.568   3.429   3.856 -0.1292 -0.3286  1.7464
 7868SOL     OW35065   2.863   0.762   8.277  0.0024  0.5552  0.6043
 7868SOL    HW135066   2.808   0.839   8.296 -2.6356 -1.4886  1.1777
 7868SOL    HW235067   2.937   0.774   8.336  0.2801  0.2501  0.3166
 7869SOL     OW35068   1.180   3.271   3.842 -0.6987 -0.2632 -0.4520
 7869SOL    HW135069   1.238   3.197   3.857  0.3584  0.6559 -0.0355
 7869SOL    HW235070   1.217   3.342   3.895 -0.4491  0.2549 -1.3244
 7870SOL     OW35071   2.687   0.022   7.637  0.5749  0.2673 -0.2479
 7870SOL    HW135072   2.621   0.091   7.632  1.1248  0.7953 -0.4031
 7870SOL    HW235073   2.640   4.662   7.626  0.0050  0.4427  0.9983
 7871SOL     OW35074   3.107   3.907   1.778  0.4280 -0.1669  0.1096
 7871SOL    HW135075   3.131   3.833   1.833  1.2379 -0.3596 -0.4996
 7871SOL    HW235076   3.125   3.869   1.692 -0.0242 -1.4728  0.5891
 7872SOL     OW35077   0.402   2.852   1.644  0.2204  0.0218  0.2041
 7872SOL    HW135078   0.375   2.805   1.723 -0.6208 -1.6020 -1.0689
 7872SOL    HW235079   0.496   2.851   1.664  0.1828  1.9067  0.4616
 7873SOL     OW35080   2.223   2.125   5.326  0.0390 -0.0373 -0.8009
 7873SOL    HW135081   2.159   2.074   5.376  1.2174  0.0556  0.7750
 7873SOL    HW235082   2.269   2.048   5.293 -0.1878 -0.0369 -1.1211
 7874SOL     OW35083   1.795   2.794   2.500  0.0868  0.0673  0.5512
 7874SOL    HW135084   1.727   2.790   2.433 -0.5790 -2.3486  1.3621
 7874SOL    HW235085   1.794   2.700   2.519 -2.6672 -0.2049 -0.9100
 7875SOL     OW35086   0.667   2.524   3.404  0.3456 -0.2011 -0.1706
 7875SOL    HW135087   0.722   2.581   3.458 -1.3419  0.8819  0.4039
 7875SOL    HW235088   0.624   2.469   3.470 -2.6572 -0.0877 -2.0576
 7876SOL     OW35089   2.981   0.494   6.948 -0.7020 -0.5948 -0.6464
 7876SOL    HW135090   2.937   0.425   6.998 -3.2363  3.4432  2.6814
 7876SOL    HW235091   3.059   0.448   6.915 -0.5403  0.1309 -1.2643
 7877SOL     OW35092   0.413   1.152   8.387 -0.1215  0.3334  0.5373
 7877SOL    HW135093   0.452   1.162   8.473  2.5233 -0.2334 -0.5774
 7877SOL    HW235094   0.392   1.058   8.387 -0.1111  0.3281  0.0557
 7878SOL     OW35095   3.412   3.511  13.827 -0.2846 -0.4421 -0.0803
 7878SOL    HW135096   3.387   3.475  13.742  0.6920  0.0844 -0.5907
 7878SOL    HW235097   3.392   3.436  13.883  0.4388  0.5991  1.5689
 7879SOL     OW35098   2.388   0.991   4.089 -0.5226  0.1483 -0.1460
 7879SOL    HW135099   2.321   0.991   4.021 -0.5967 -0.5758 -0.0735
 7879SOL    HW235100   2.374   0.906   4.130  0.3226 -1.2830 -2.7742
 7880SOL     OW35101   2.395   4.534   5.644  0.5186  0.5134 -0.3029
 7880SOL    HW135102   2.320   4.592   5.656 -1.1362 -1.3945 -1.4115
 7880SOL    HW235103   2.467   4.579   5.689  1.5271  0.8916 -2.3125
 7881SOL     OW35104   0.430   1.437   6.296 -0.3556 -0.5089  0.0261
 7881SOL    HW135105   0.409   1.356   6.344 -0.7208 -0.1175  0.5250
 7881SOL    HW235106   0.429   1.498   6.370 -1.2185 -1.1292  0.5306
 7882SOL     OW35107   2.624   3.723   0.654 -0.1412 -0.2631 -0.0324
 7882SOL    HW135108   2.615   3.795   0.591 -0.3057  0.9620  1.3745
 7882SOL    HW235109   2.554   3.666   0.623 -2.1220  2.9813 -1.5420
 7883SOL     OW35110   1.566   4.024   5.140  0.4282  0.5958 -0.4423
 7883SOL    HW135111   1.537   4.115   5.145  0.0732  0.7093 -4.2536
 7883SOL    HW235112   1.483   3.980   5.156  0.0800  1.4394  0.0474
 7884SOL     OW35113   0.855   3.742   9.246  0.0384 -0.2743 -0.7855
 7884SOL    HW135114   0.870   3.663   9.299  2.1430  1.0168  0.5431
 7884SOL    HW235115   0.938   3.743   9.199 -0.6917  0.7059 -2.0200
 7885SOL     OW35116   1.753   1.555   2.695 -0.4783 -0.5495  0.0608
 7885SOL    HW135117   1.692   1.532   2.625 -1.2405 -0.7020  0.7755
 7885SOL    HW235118   1.836   1.537   2.651 -0.5090 -0.3329 -0.0840
 7886SOL     OW35119   1.626   2.096  11.208 -0.4136  0.4219 -0.5598
 7886SOL    HW135120   1.667   2.010  11.199 -1.2869 -0.2746  2.1891
 7886SOL    HW235121   1.697   2.139  11.161  1.6025 -0.3950  1.7952
 7887SOL     OW35122   1.889   1.177  17.545 -0.0014  0.5164 -0.7524
 7887SOL    HW135123   1.963   1.217  17.590 -0.5719  1.2389 -0.4614
 7887SOL    HW235124   1.823   1.236  17.581 -2.2341 -1.8987 -0.8905
 7888SOL     OW35125   1.071   4.240   0.956  0.0534 -0.8046  0.0091
 7888SOL    HW135126   1.119   4.170   0.999  2.1870  0.3365 -0.5215
 7888SOL    HW235127   1.099   4.316   1.006  1.2984 -0.3206 -1.4417
 7889SOL     OW35128   4.191   2.401   1.585  0.0427 -0.7237 -0.0501
 7889SOL    HW135129   4.227   2.335   1.526  0.0523 -0.2242 -0.5967
 7889SOL    HW235130   4.100   2.388   1.561 -0.5230 -0.1348  1.7852
 7890SOL     OW35131   3.884   3.467   4.861 -0.0756  0.5264 -0.2471
 7890SOL    HW135132   3.951   3.510   4.913  0.8784 -1.1084 -0.1225
 7890SOL    HW235133   3.885   3.377   4.894 -1.9846 -0.2795 -2.3377
 7891SOL     OW35134   4.481   1.541  12.986  0.1921  0.1822  0.0884
 7891SOL    HW135135   4.471   1.626  12.943 -2.5690  0.2094  0.8078
 7891SOL    HW235136   4.424   1.484  12.935  0.5505  0.8174 -1.0087
 7892SOL     OW35137   3.985   3.209   6.534  0.8977  0.0671  0.3493
 7892SOL    HW135138   4.073   3.247   6.531  0.0311  1.9485 -0.8434
 7892SOL    HW235139   3.949   3.246   6.614  0.5627 -1.0439  0.7206
 7893SOL     OW35140   0.322   1.578  13.136  0.7820  0.3398 -0.2548
 7893SOL    HW135141   0.276   1.519  13.075  1.4575 -1.3862  0.9174
 7893SOL    HW235142   0.265   1.653  13.118 -0.1048  0.3594  2.5858
 7894SOL     OW35143   0.597   0.245   4.774  0.2017  0.6068 -0.2313
 7894SOL    HW135144   0.683   0.242   4.815 -0.4896 -1.2849  1.0915
 7894SOL    HW235145   0.621   0.264   4.684 -0.6652  0.9106 -0.4043
 7895SOL     OW35146   1.035   1.158   0.763  0.2666 -0.3710 -0.1093
 7895SOL    HW135147   1.042   1.183   0.671 -1.3036 -0.4181 -0.2323
 7895SOL    HW235148   1.114   1.107   0.782  1.2087  1.5624  1.2241
 7896SOL     OW35149   0.010   3.668   6.203  0.1664 -0.1289  0.7908
 7896SOL    HW135150   0.088   3.686   6.151  1.0096 -0.3294  1.9898
 7896SOL    HW235151   4.664   3.693   6.140  0.9175 -1.6328 -0.6113
 7897SOL     OW35152   0.765   0.531   3.340 -0.1245  0.4321 -0.2748
 7897SOL    HW135153   0.857   0.509   3.356 -0.1373  0.0995 -0.6570
 7897SOL    HW235154   0.770   0.557   3.248  1.8608 -2.0326 -0.8388
 7898SOL     OW35155   0.717   0.070  16.028  0.3277  0.6863 -0.1494
 7898SOL    HW135156   0.717   0.090  16.121 -0.4954  2.0960 -0.4508
 7898SOL    HW235157   0.661   4.715  16.023  0.5500  0.4254  1.6449
 7899SOL     OW35158   2.314   2.762   6.416 -0.2062 -0.3640  0.3463
 7899SOL    HW135159   2.367   2.821   6.469  1.7112  0.2527 -2.2405
 7899SOL    HW235160   2.225   2.769   6.451 -0.3157 -0.7054  0.1360
 7900SOL     OW35161   4.047   4.355  11.287 -0.3970  0.3882  0.0199
 7900SOL    HW135162   4.001   4.428  11.246 -1.4434  0.4397  1.3202
 7900SOL    HW235163   4.098   4.409  11.348 -0.3610  0.0382  0.3012
 7901SOL     OW35164   3.508   3.144   7.833  0.0749 -0.0179  0.1716
 7901SOL    HW135165   3.547   3.212   7.778 -0.7181  1.0153  0.8912
 7901SOL    HW235166   3.522   3.169   7.924 -0.0963  0.9166 -0.0603
 7902SOL     OW35167   3.102   2.059   8.788 -0.1035  0.1772 -0.2966
 7902SOL    HW135168   3.187   2.079   8.748 -0.9513  2.5401 -0.9449
 7902SOL    HW235169   3.050   2.133   8.755  0.4978  1.0343  0.6758
 7903SOL     OW35170   3.487   2.069   4.037  0.4572 -0.6959  0.1629
 7903SOL    HW135171   3.531   2.144   3.998 -0.7278  1.0146  2.0932
 7903SOL    HW235172   3.540   2.064   4.117 -1.0210 -2.3663  1.0430
 7904SOL     OW35173   4.117   0.268   8.822 -0.0932  0.0266 -0.3016
 7904SOL    HW135174   4.035   0.317   8.819 -1.3453 -2.1504 -1.8410
 7904SOL    HW235175   4.160   0.291   8.740  1.3031 -0.9076  0.1722
 7905SOL     OW35176   4.323   1.554   6.470  0.2084 -0.0598 -0.7678
 7905SOL    HW135177   4.280   1.632   6.503  1.4412  0.0114  0.6716
 7905SOL    HW235178   4.416   1.568   6.486  0.0330  0.8064 -0.5165
 7906SOL     OW35179   0.704   4.016   6.273  0.2402 -0.3365  0.3025
 7906SOL    HW135180   0.798   4.035   6.272  0.3440 -0.8570  0.6491
 7906SOL    HW235181   0.673   4.033   6.361 -4.3161  0.7616 -1.5051
 7907SOL     OW35182   0.239   2.093   3.920 -0.5013  0.1489 -0.0844
 7907SOL    HW135183   0.280   2.168   3.964  2.1678 -1.0638 -0.4621
 7907SOL    HW235184   0.307   2.060   3.861 -1.0025 -1.4162  0.2168
 7908SOL     OW35185   3.577   0.041   8.132 -0.6289 -0.2214 -0.9863
 7908SOL    HW135186   3.596   4.704   8.059 -0.8528 -2.0626  0.4525
 7908SOL    HW235187   3.481   0.050   8.130 -0.6304 -0.1585 -0.6444
 7909SOL     OW35188   0.924   3.075   3.796 -0.4591  0.5010 -0.6683
 7909SOL    HW135189   1.004   3.031   3.767 -0.0752  2.0611 -1.9619
 7909SOL    HW235190   0.869   3.017   3.743 -0.9764  0.5173 -0.1457
 7910SOL     OW35191   1.023   1.456  17.240  0.1041 -0.4367 -0.4608
 7910SOL    HW135192   1.064   1.376  17.208  1.2444 -0.5071  1.1861
 7910SOL    HW235193   1.088   1.525  17.225  0.0620  0.0277  1.4922
 7911SOL     OW35194   4.129   4.445   7.415  0.5935  0.0402 -0.1145
 7911SOL    HW135195   4.216   4.413   7.391  1.3774  1.3523  1.0200
 7911SOL    HW235196   4.113   4.373   7.476 -2.4828  0.6814 -0.1696
 7912SOL     OW35197   0.659   0.799   5.687 -0.5483 -0.3063 -0.0980
 7912SOL    HW135198   0.709   0.781   5.767  0.3026 -0.4072 -0.6599
 7912SOL    HW235199   0.652   0.716   5.639 -0.2044  0.0012 -0.6690
 7913SOL     OW35200   3.799   0.604   8.755 -0.4586  0.9815 -0.4021
 7913SOL    HW135201   3.839   0.524   8.790  2.3632  1.6032 -2.1592
 7913SOL    HW235202   3.734   0.569   8.695 -2.2351  0.8517  1.6201
 7914SOL     OW35203   1.385   1.986   7.504 -0.2956 -0.6731 -0.6096
 7914SOL    HW135204   1.303   2.028   7.477  0.9847  1.8683 -0.5539
 7914SOL    HW235205   1.400   2.020   7.592  2.5899  0.8406 -1.7021
 7915SOL     OW35206   1.155   2.523   5.144 -0.0596  0.3063  0.0647
 7915SOL    HW135207   1.202   2.468   5.081  0.7520  1.4989 -0.3851
 7915SOL    HW235208   1.138   2.466   5.218  1.4368 -1.8002 -1.2328
 7916SOL     OW35209   1.048   0.307   6.083 -0.0039 -0.0546  0.3868
 7916SOL    HW135210   1.007   0.291   5.998  0.8608 -0.1097 -0.0314
 7916SOL    HW235211   1.033   0.225   6.131  3.3917 -1.7078 -1.3179
 7917SOL     OW35212   1.018   1.787   9.911 -0.0276 -0.9153  0.1301
 7917SOL    HW135213   1.015   1.831   9.995 -2.8297  1.4617 -1.2222
 7917SOL    HW235214   1.095   1.825   9.869 -0.4117 -0.9514 -0.6124
 7918SOL     OW35215   3.115   4.309   0.053  0.4475 -0.0359  0.4597
 7918SOL    HW135216   3.143   4.218   0.043  1.2259  0.1859  0.6099
 7918SOL    HW235217   3.136   4.339  17.656 -1.6137 -0.1438 -0.0547
 7919SOL     OW35218   4.229   2.142  16.836 -0.1065  0.4330  0.5290
 7919SOL    HW135219   4.295   2.190  16.786 -1.3406  2.5038  0.8837
 7919SOL    HW235220   4.149   2.194  16.835 -0.2988  0.1396  0.3432
 7920SOL     OW35221   1.093   3.000   4.112  0.1189 -0.1480 -1.0008
 7920SOL    HW135222   1.184   2.997   4.141  0.2636 -1.3663 -1.5893
 7920SOL    HW235223   1.080   2.905   4.110  1.4803 -0.3242 -0.9833
 7921SOL     OW35224   3.600   1.389  13.807  0.9646 -0.4968 -0.4609
 7921SOL    HW135225   3.651   1.434  13.874  0.3163  0.7782 -0.8332
 7921SOL    HW235226   3.542   1.333  13.858  0.9728 -1.8256 -1.8935
 7922SOL     OW35227   1.938   3.374   6.668  0.3604 -0.0106  0.0938
 7922SOL    HW135228   1.872   3.309   6.692  0.0326  0.5356  0.6612
 7922SOL    HW235229   1.890   3.422   6.601 -0.5091 -0.6251  0.2745
 7923SOL     OW35230   2.533   3.348   2.408  0.2266 -0.5930  0.2244
 7923SOL    HW135231   2.484   3.383   2.483 -0.1106  1.3720 -0.9075
 7923SOL    HW235232   2.472   3.276   2.391  1.3679 -0.4641 -4.2259
 7924SOL     OW35233   3.571   3.312   2.145 -0.5129 -1.2504 -0.6025
 7924SOL    HW135234   3.548   3.225   2.112  1.9079 -2.2488  0.3494
 7924SOL    HW235235   3.648   3.328   2.091 -0.5169  1.3599  0.1559
 7925SOL     OW35236   3.206   0.038  10.014 -0.4189  0.3340  0.8061
 7925SOL    HW135237   3.158   0.070  10.091  1.0783 -0.9510  2.2710
 7925SOL    HW235238   3.256   4.687  10.050 -2.4668 -0.9119  1.1027
 7926SOL     OW35239   1.388   0.540  12.188  0.2500 -0.0356  0.2481
 7926SOL    HW135240   1.357   0.462  12.235 -1.7263 -0.8621 -2.3985
 7926SOL    HW235241   1.325   0.544  12.116 -0.9617 -1.1225  1.2444
 7927SOL     OW35242   1.877   0.506   4.452 -0.5056 -0.0469 -0.4079
 7927SOL    HW135243   1.954   0.451   4.467 -0.2421  0.7916  1.3572
 7927SOL    HW235244   1.818   0.498   4.527  0.4288 -1.4337  0.1648
 7928SOL     OW35245   1.427   0.461  11.693 -0.3114  0.1246 -0.0470
 7928SOL    HW135246   1.359   0.431  11.632 -0.3264  0.8385 -0.3906
 7928SOL    HW235247   1.417   0.400  11.766 -0.9093 -0.3106 -0.4928
 7929SOL     OW35248   3.005   3.533   7.601 -0.3391 -0.1744 -0.0421
 7929SOL    HW135249   2.919   3.503   7.572 -1.2810  1.8511  0.6924
 7929SOL    HW235250   2.988   3.627   7.609 -0.6993 -0.3928  1.8355
 7930SOL     OW35251   1.339   2.748   0.625  0.0425 -0.4123  0.2814
 7930SOL    HW135252   1.416   2.794   0.590 -0.5807 -0.1688 -0.7773
 7930SOL    HW235253   1.386   2.685   0.679  0.0844 -0.3728  0.2918
 7931SOL     OW35254   2.877   4.297   4.560 -0.7512  0.1499 -0.0485
 7931SOL    HW135255   2.795   4.346   4.565 -0.8804 -0.0129 -0.5122
 7931SOL    HW235256   2.876   4.242   4.638  0.6666  0.2561  0.0503
 7932SOL     OW35257   4.612   3.817   5.966 -0.0428 -0.1910  0.1776
 7932SOL    HW135258   4.517   3.829   5.967 -0.2690 -2.0380 -1.0098
 7932SOL    HW235259   4.634   3.871   5.890  0.8284 -2.1861 -0.9544
 7933SOL     OW35260   1.675   1.251   4.915 -0.4798 -0.5481  0.2264
 7933SOL    HW135261   1.718   1.217   4.837 -0.5395 -1.1331  0.4478
 7933SOL    HW235262   1.660   1.169   4.961 -1.1137 -0.9160 -0.6498
 7934SOL     OW35263   0.196   0.816  11.696  0.4009 -0.6734 -0.3602
 7934SOL    HW135264   0.155   0.763  11.764  0.8299  0.5897  0.8791
 7934SOL    HW235265   0.116   0.839  11.648 -0.5957  1.8128  2.5305
 7935SOL     OW35266   2.407   0.970   8.482  0.1331 -0.7146  0.3354
 7935SOL    HW135267   2.474   1.005   8.542 -0.4079 -1.2034  1.2102
 7935SOL    HW235268   2.388   1.042   8.421  1.8429  1.3973  2.2565
 7936SOL     OW35269   1.021   2.739   8.750 -0.0975  0.9669 -0.3094
 7936SOL    HW135270   0.948   2.728   8.812  0.2157 -1.0274 -0.2842
 7936SOL    HW235271   1.097   2.723   8.806 -1.6807  1.0913  1.8949
 7937SOL     OW35272   0.765   1.101   3.504 -0.6590 -0.2247  0.4822
 7937SOL    HW135273   0.793   1.108   3.595 -3.3322  2.5573  1.0679
 7937SOL    HW235274   0.760   1.196   3.493  2.0093 -0.1084  0.2245
 7938SOL     OW35275   3.118   0.144   7.744  0.4343  0.2865 -0.0357
 7938SOL    HW135276   3.111   0.073   7.680  0.0480 -0.0880  0.4227
 7938SOL    HW235277   3.209   0.131   7.771  0.1943 -1.8919 -0.2154
 7939SOL     OW35278   4.636   3.221  10.561  0.2874 -0.0623 -0.4849
 7939SOL    HW135279   4.606   3.311  10.570 -0.0961 -0.1570 -0.8437
 7939SOL    HW235280   4.713   3.231  10.506  1.6317 -0.8533  1.2386
 7940SOL     OW35281   2.430   2.267  15.906 -0.1329 -0.3412  0.5956
 7940SOL    HW135282   2.364   2.234  15.968  0.9256 -0.6758  1.5491
 7940SOL    HW235283   2.506   2.256  15.963  0.5305 -1.3971 -0.5123
 7941SOL     OW35284   2.752   0.909   4.663 -0.0250 -0.6129 -0.0404
 7941SOL    HW135285   2.745   0.935   4.572  2.5597  0.4121  0.0611
 7941SOL    HW235286   2.847   0.910   4.671  0.2096 -1.1330 -2.7998
 7942SOL     OW35287   2.860   0.815   2.508  0.1817  0.0343  0.1485
 7942SOL    HW135288   2.936   0.824   2.566  0.3736 -0.8416  0.0356
 7942SOL    HW235289   2.793   0.813   2.577 -0.3443  2.1929 -0.3043
 7943SOL     OW35290   3.872   3.022   7.775  1.0074 -0.1679  0.6057
 7943SOL    HW135291   3.877   2.939   7.823  0.9678 -0.4318  0.1561
 7943SOL    HW235292   3.959   3.025   7.735  1.3930  1.4965  1.5710
 7944SOL     OW35293   0.464   1.784   8.771 -0.2588  0.1461  0.3578
 7944SOL    HW135294   0.414   1.800   8.691 -0.9974  0.3543  0.8476
 7944SOL    HW235295   0.451   1.868   8.815  0.7628  0.5848 -0.1997
 7945SOL     OW35296   3.110   3.824  15.151 -0.6048  0.4768  0.5035
 7945SOL    HW135297   3.055   3.754  15.118  1.2972 -0.3730 -0.8605
 7945SOL    HW235298   3.044   3.887  15.180 -0.3694  1.8585 -1.9446
 7946SOL     OW35299   1.587   2.471   1.378  0.1035  0.3181  0.1200
 7946SOL    HW135300   1.620   2.410   1.312  0.2223 -0.7872  1.2191
 7946SOL    HW235301   1.607   2.552   1.330 -3.0724  1.8486  1.3604
 7947SOL     OW35302   0.076   3.509  15.587 -0.1306 -0.2077 -0.1501
 7947SOL    HW135303   0.055   3.598  15.558  0.8855  0.0143 -0.1891
 7947SOL    HW235304   0.144   3.502  15.654 -0.5491 -2.7227  0.0291
 7948SOL     OW35305   0.773   2.860  10.019  0.3186  0.0131 -0.4062
 7948SOL    HW135306   0.869   2.866  10.016  0.3982 -1.4086 -0.7821
 7948SOL    HW235307   0.752   2.832   9.930 -0.2449 -0.3022 -0.1740
 7949SOL     OW35308   2.122   0.147   2.563  0.3991 -0.5716 -0.5262
 7949SOL    HW135309   2.195   0.085   2.557  1.3959  0.5222  0.3607
 7949SOL    HW235310   2.065   0.103   2.500  0.3596 -1.4982  0.1435
 7950SOL     OW35311   0.900   4.396   1.333  0.1142  0.3299  0.2051
 7950SOL    HW135312   0.905   4.444   1.250  1.3521  0.2669  0.2451
 7950SOL    HW235313   0.876   4.475   1.382 -0.9352  0.4881 -0.5725
 7951SOL     OW35314   2.137   2.353  12.935  0.0406 -0.2027  0.3111
 7951SOL    HW135315   2.217   2.328  12.981  1.2235  2.8876 -0.0445
 7951SOL    HW235316   2.116   2.437  12.976 -0.0387  0.0418 -0.2286
 7952SOL     OW35317   0.284   2.042   5.974 -0.2827  0.3479 -0.0837
 7952SOL    HW135318   0.205   2.047   6.028  0.8918  0.2750  1.6495
 7952SOL    HW235319   0.349   1.995   6.027  0.8344  0.5373 -1.3041
 7953SOL     OW35320   2.685   0.822   2.711 -0.0907 -0.0470 -0.0410
 7953SOL    HW135321   2.660   0.882   2.782 -0.6096  0.1967 -0.4255
 7953SOL    HW235322   2.604   0.821   2.660  1.1537  0.5501 -2.0120
 7954SOL     OW35323   1.882   1.359  17.013 -0.2344 -0.6410  0.2432
 7954SOL    HW135324   1.953   1.409  17.054 -2.3952  2.9929 -0.4245
 7954SOL    HW235325   1.928   1.279  16.986  1.4315  0.5026 -0.3341
 7955SOL     OW35326   3.472   1.353   2.669  0.0112  0.1247 -0.1377
 7955SOL    HW135327   3.566   1.371   2.662  0.3432 -0.7789  2.0583
 7955SOL    HW235328   3.450   1.436   2.625 -0.7264 -0.0576 -0.1130
 7956SOL     OW35329   4.214   1.940   2.644 -0.0507 -0.2668 -0.9048
 7956SOL    HW135330   4.300   1.928   2.685 -0.7353 -1.1811  0.2643
 7956SOL    HW235331   4.175   1.853   2.630  1.5056 -1.0440 -0.3631
 7957SOL     OW35332   3.987   1.258   8.149 -0.6008 -0.0267 -0.3334
 7957SOL    HW135333   4.008   1.266   8.056 -1.1223 -0.1252 -0.4568
 7957SOL    HW235334   4.035   1.330   8.191  0.9491 -0.0852 -1.9798
 7958SOL     OW35335   3.444   3.302   5.339 -0.2745 -0.0529  0.0495
 7958SOL    HW135336   3.357   3.317   5.303 -0.6380  0.5728  1.2087
 7958SOL    HW235337   3.500   3.351   5.279 -0.1906 -0.4209 -0.1779
 7959SOL     OW35338   2.608   3.185   2.049  0.2488 -0.2813 -0.4315
 7959SOL    HW135339   2.569   3.180   1.962  0.8960 -1.8861 -0.6233
 7959SOL    HW235340   2.603   3.280   2.063  1.3988 -0.1626 -0.7852
 7960SOL     OW35341   2.090   2.467   4.088 -0.0467 -0.2523  0.0347
 7960SOL    HW135342   2.046   2.552   4.085  1.5182  0.5377 -0.6630
 7960SOL    HW235343   2.156   2.483   4.156  0.5083  0.6920 -0.7314
 7961SOL     OW35344   0.565   2.416   9.377  0.2426  0.2888  0.0449
 7961SOL    HW135345   0.659   2.424   9.387  0.3561  0.8924 -1.4672
 7961SOL    HW235346   0.543   2.396   9.468  1.6558  0.4329  0.4055
 7962SOL     OW35347   1.687   0.957   3.074 -0.1096  0.1975  0.2866
 7962SOL    HW135348   1.646   1.029   3.121 -1.6006 -1.0076  0.8330
 7962SOL    HW235349   1.664   0.969   2.982 -1.6390  2.6147  0.9765
 7963SOL     OW35350   4.625   1.913   5.355  0.3431 -0.0950  0.0868
 7963SOL    HW135351   4.710   1.941   5.389 -1.4777  1.1189  3.6082
 7963SOL    HW235352   4.629   1.944   5.264  1.1670  0.0343  0.1600
 7964SOL     OW35353   2.291   4.193   3.692 -0.3132 -0.0190  0.4058
 7964SOL    HW135354   2.233   4.136   3.641 -1.3540  0.3571  1.1577
 7964SOL    HW235355   2.356   4.210   3.624  0.7563  1.1800  1.7387
 7965SOL     OW35356   2.736   4.113   7.566 -0.0571 -0.5334  0.0624
 7965SOL    HW135357   2.665   4.078   7.620  0.8340 -1.6112  0.5502
 7965SOL    HW235358   2.780   4.184   7.613  1.0458 -0.7411 -0.6712
 7966SOL     OW35359   2.159   0.675   8.225  0.2152 -0.6230 -0.4286
 7966SOL    HW135360   2.096   0.633   8.283  0.0400 -2.3125 -1.8465
 7966SOL    HW235361   2.162   0.760   8.269  2.3395 -0.6041 -0.6141
 7967SOL     OW35362   0.837   2.698  16.957  0.4681  0.3007  0.3267
 7967SOL    HW135363   0.793   2.616  16.935 -0.9690  1.3216 -0.5637
 7967SOL    HW235364   0.926   2.671  16.934  0.4044 -1.3670  1.9839
 7968SOL     OW35365   0.497   4.216  10.498  0.2492  0.6976 -0.3404
 7968SOL    HW135366   0.573   4.230  10.554 -2.0581  0.4019  2.8675
 7968SOL    HW235367   0.457   4.145  10.548 -1.4702  0.9929 -1.2736
 7969SOL     OW35368   3.210   1.508   3.180  0.4131  0.0831  0.2079
 7969SOL    HW135369   3.240   1.598   3.171 -1.1004  0.6317  0.7468
 7969SOL    HW235370   3.295   1.465   3.189 -0.6057 -2.2323 -1.1759
 7970SOL     OW35371   1.532   0.319   3.902  0.1220  0.2876  0.6493
 7970SOL    HW135372   1.507   0.377   3.830  0.2637  1.4851  1.5643
 7970SOL    HW235373   1.614   0.361   3.928  0.1422  0.2469  0.6502
 7971SOL     OW35374   3.540   2.843   2.984 -0.2803 -0.3072  0.1777
 7971SOL    HW135375   3.635   2.843   2.992 -0.0945  1.3521 -1.9633
 7971SOL    HW235376   3.508   2.933   2.989  0.9852  0.2362 -1.2399
 7972SOL     OW35377   3.436   4.457   5.237  0.4248 -0.0660 -0.4511
 7972SOL    HW135378   3.505   4.467   5.171  1.1346 -1.0160  0.1547
 7972SOL    HW235379   3.395   4.543   5.227 -2.0578 -1.1670  0.4691
 7973SOL     OW35380   3.890   1.871   8.417 -0.3709  0.4127 -0.1673
 7973SOL    HW135381   3.849   1.911   8.341  0.5337  1.2339 -0.2154
 7973SOL    HW235382   3.942   1.805   8.372  3.1941  3.5479 -0.5561
 7974SOL     OW35383   1.136   4.335  15.198 -0.2300 -0.3717  0.3991
 7974SOL    HW135384   1.167   4.417  15.236 -3.1951  0.5594  0.7816
 7974SOL    HW235385   1.070   4.303  15.260 -0.4318  0.3110  0.5371
 7975SOL     OW35386   4.179   2.266   0.014 -0.4318 -0.7400  0.0778
 7975SOL    HW135387   4.226   2.275  17.622 -0.1712 -0.9286  0.2018
 7975SOL    HW235388   4.213   2.180   0.040  4.1699  0.9607 -0.3342
 7976SOL     OW35389   3.414   0.055  12.977 -0.1746  0.1665 -0.3691
 7976SOL    HW135390   3.486   0.109  13.010 -1.2279  0.8058  0.9017
 7976SOL    HW235391   3.417   4.713  13.048 -0.3775  0.4623 -0.0921
 7977SOL     OW35392   0.354   1.698   2.636 -0.3000 -0.3122 -0.6315
 7977SOL    HW135393   0.368   1.791   2.616  0.5843 -0.6671 -1.6507
 7977SOL    HW235394   0.269   1.693   2.679  0.4077  0.0331  0.8268
 7978SOL     OW35395   0.158   4.197   7.438 -0.4621 -0.2458 -0.6551
 7978SOL    HW135396   0.064   4.188   7.419 -0.5682 -0.1197 -0.2084
 7978SOL    HW235397   0.158   4.225   7.530 -0.0520  2.2035 -1.3834
 7979SOL     OW35398   3.173   0.665   1.519  0.3191  0.0534 -0.2024
 7979SOL    HW135399   3.180   0.760   1.514  0.0852  0.1674  1.9007
 7979SOL    HW235400   3.201   0.645   1.608 -0.0335  1.3024  0.1826
 7980SOL     OW35401   0.171   1.758  13.036 -0.2720 -0.0125 -0.6641
 7980SOL    HW135402   0.188   1.832  12.979 -1.1124  1.3853  0.8979
 7980SOL    HW235403   0.097   1.779  13.094  1.4002 -0.2553  1.5461
 7981SOL     OW35404   3.018   2.730   2.381  0.1368  0.4131 -0.3306
 7981SOL    HW135405   3.047   2.807   2.332 -0.9684  0.7533 -0.4540
 7981SOL    HW235406   3.103   2.687   2.387 -0.9455 -1.7468 -0.3273
 7982SOL     OW35407   2.096   1.858   6.261 -0.3749 -0.7769  0.6103
 7982SOL    HW135408   2.013   1.905   6.259 -0.8340 -1.5804  1.0587
 7982SOL    HW235409   2.075   1.768   6.237 -1.0608 -0.5770  0.4703
 7983SOL     OW35410   4.263   1.935   7.354  0.3136  0.0370  0.6024
 7983SOL    HW135411   4.273   1.880   7.276 -0.6520 -1.4480  1.5397
 7983SOL    HW235412   4.338   1.909   7.407  1.7779  1.8594 -0.5380
 7984SOL     OW35413   3.585   2.064   7.708  0.1688  0.2993 -0.2423
 7984SOL    HW135414   3.553   2.151   7.684  0.7261 -0.0290 -2.1923
 7984SOL    HW235415   3.571   2.053   7.802  1.4195 -2.5828 -0.3882
 7985SOL     OW35416   4.055   1.288   2.193  0.3460 -0.2405  0.0771
 7985SOL    HW135417   3.990   1.218   2.198  0.5338 -0.8623 -5.2676
 7985SOL    HW235418   4.002   1.362   2.163  0.8410  0.1952  0.2827
 7986SOL     OW35419   0.913   2.926  10.554 -0.2496  0.2472  0.2827
 7986SOL    HW135420   0.830   2.914  10.509  0.5709 -0.1727 -1.1241
 7986SOL    HW235421   0.902   2.855  10.618  0.9006 -0.3519 -0.1742
 7987SOL     OW35422   1.991   0.911   3.862  0.0760 -0.1628 -0.6850
 7987SOL    HW135423   1.989   0.835   3.920  2.2794 -1.4635 -2.3439
 7987SOL    HW235424   1.913   0.912   3.806 -0.5118  0.3594  0.1388
 7988SOL     OW35425   3.399   2.244   4.559  0.2225 -0.3238  0.7704
 7988SOL    HW135426   3.400   2.241   4.463  1.8833 -0.4051  0.7779
 7988SOL    HW235427   3.487   2.241   4.597  0.9783  2.6750 -0.7574
 7989SOL     OW35428   1.288   2.478   2.981 -0.2920 -0.4691  0.2982
 7989SOL    HW135429   1.349   2.430   2.925  0.3170 -1.0729  1.4809
 7989SOL    HW235430   1.339   2.559   2.982 -0.5752 -0.2870  0.1213
 7990SOL     OW35431   4.431   2.154  17.307  0.2465 -0.4063  0.5210
 7990SOL    HW135432   4.369   2.206  17.358 -2.8377 -1.4261 -2.2276
 7990SOL    HW235433   4.392   2.067  17.308 -0.1341 -0.2024  2.8256
 7991SOL     OW35434   4.707   3.004   0.869  0.3146 -0.0990 -0.8181
 7991SOL    HW135435   4.658   2.923   0.885  1.1315 -0.2138  1.0981
 7991SOL    HW235436   0.052   3.015   0.936  0.6932  1.3512 -1.4299
 7992SOL     OW35437   1.175   0.797   5.335  0.4625  0.4314 -0.5004
 7992SOL    HW135438   1.265   0.827   5.326  0.4670  0.7977  0.6898
 7992SOL    HW235439   1.187   0.771   5.426 -0.3449  0.2652 -0.4426
 7993SOL     OW35440   2.367   1.930  16.485 -0.6412 -0.2204 -0.7441
 7993SOL    HW135441   2.297   1.883  16.440 -1.5247  0.6158 -0.2537
 7993SOL    HW235442   2.438   1.866  16.479 -0.5486 -0.3294  1.5404
 7994SOL     OW35443   1.626   1.022  16.955 -0.2275 -0.4411  0.2300
 7994SOL    HW135444   1.610   1.106  16.999 -1.4287  0.0743 -1.1763
 7994SOL    HW235445   1.719   1.016  16.973  0.1453 -0.5569 -1.7159
 7995SOL     OW35446   0.649   3.427   7.307  0.1316 -0.2412 -0.3113
 7995SOL    HW135447   0.691   3.475   7.235 -1.2596 -1.2127 -1.7908
 7995SOL    HW235448   0.719   3.386   7.357  1.1149 -1.1536 -2.4529
 7996SOL     OW35449   0.033   4.440   6.014 -0.5176 -0.0900  0.2202
 7996SOL    HW135450   0.100   4.505   6.036  0.6402 -1.0247 -0.5459
 7996SOL    HW235451   4.706   4.501   5.960 -1.4302 -0.0324  1.1226
 7997SOL     OW35452   2.551   1.514  14.346 -0.3348  0.5532 -0.1326
 7997SOL    HW135453   2.499   1.544  14.420  1.0029  0.2197  0.9267
 7997SOL    HW235454   2.619   1.580  14.338 -2.0828  2.4143  0.4068
 7998SOL     OW35455   0.312   2.585   0.824 -0.0887 -0.1612  0.4446
 7998SOL    HW135456   0.319   2.543   0.739  0.7851  1.8376 -0.4784
 7998SOL    HW235457   0.217   2.596   0.831  0.0038 -0.8759  2.8272
 7999SOL     OW35458   1.929   4.135  10.688  0.4879  0.1769 -0.1571
 7999SOL    HW135459   1.877   4.055  10.675  0.2160  0.5192 -1.1720
 7999SOL    HW235460   1.900   4.174  10.770  2.6732  0.6530  0.3831
 8000SOL     OW35461   4.167   3.115   9.751 -0.3114  0.4784 -0.6791
 8000SOL    HW135462   4.107   3.041   9.757 -0.8983  0.8701 -1.7143
 8000SOL    HW235463   4.138   3.164   9.674 -0.1240 -1.7031 -2.1149
 8001SOL     OW35464   0.963   1.851  16.872  0.0710 -0.1715 -0.2690
 8001SOL    HW135465   1.002   1.795  16.805 -0.8847 -0.5507 -0.5045
 8001SOL    HW235466   0.961   1.782  16.938 -1.6479 -0.7124 -0.8840
 8002SOL     OW35467   3.134   1.548   9.379  0.0030  0.2525 -0.0389
 8002SOL    HW135468   3.227   1.529   9.390 -0.4021 -2.1011 -0.6967
 8002SOL    HW235469   3.114   1.563   9.471  2.0087 -3.0712  0.9462
 8003SOL     OW35470   1.099   1.726   4.732 -0.2661 -0.2988  0.4036
 8003SOL    HW135471   1.090   1.632   4.715 -0.6413 -0.0209 -0.9448
 8003SOL    HW235472   1.008   1.744   4.754 -0.2880  0.2628 -0.1236
 8004SOL     OW35473   4.556   2.596   4.975  0.1828  0.2188 -0.2919
 8004SOL    HW135474   4.537   2.543   4.898 -3.5903 -0.5431  1.1445
 8004SOL    HW235475   4.542   2.536   5.048 -1.6470 -1.7744 -2.2981
 8005SOL     OW35476   1.172   4.022  12.052  0.0671  0.6834 -0.1061
 8005SOL    HW135477   1.182   4.064  11.966  1.4232  2.9808  1.1918
 8005SOL    HW235478   1.129   3.942  12.021  0.8802  0.3618 -0.4156
 8006SOL     OW35479   3.908   3.715   6.993  0.4897  0.2912 -0.1040
 8006SOL    HW135480   4.001   3.697   7.005  0.0185 -1.4361  0.8741
 8006SOL    HW235481   3.883   3.714   7.085  0.9363 -0.6596  0.0071
 8007SOL     OW35482   2.640   2.015   7.741  0.4304  0.4534 -0.1488
 8007SOL    HW135483   2.565   1.963   7.769  1.2606 -0.8113 -0.2686
 8007SOL    HW235484   2.622   2.088   7.801 -1.4463 -1.3170  1.4268
 8008SOL     OW35485   3.632   4.674   0.237 -0.0550 -0.0976 -0.7477
 8008SOL    HW135486   3.663   0.040   0.254  1.0932 -0.3001 -1.7360
 8008SOL    HW235487   3.716   4.632   0.221 -1.0090 -2.4415  0.3364
 8009SOL     OW35488   2.792   2.884  10.350  0.2000 -0.4464  0.4288
 8009SOL    HW135489   2.849   2.890  10.427 -0.2986  0.3497  0.7409
 8009SOL    HW235490   2.848   2.939  10.296 -0.6131  0.0768  0.1048
 8010SOL     OW35491   3.432   0.263   7.153 -0.4035  0.0600 -0.3521
 8010SOL    HW135492   3.426   0.338   7.213 -1.6255 -0.2708 -0.0595
 8010SOL    HW235493   3.367   0.281   7.085 -1.7081 -0.9781  0.6090
 8011SOL     OW35494   2.311   0.483   7.524 -0.6280 -0.3389  0.0103
 8011SOL    HW135495   2.327   0.446   7.610  1.6699 -0.4589 -0.4878
 8011SOL    HW235496   2.292   0.573   7.552  1.6706  0.6395 -1.5879
 8012SOL     OW35497   0.628   2.698  16.080 -0.0518 -0.3393  0.0065
 8012SOL    HW135498   0.696   2.661  16.137  1.6186 -0.1517 -1.8455
 8012SOL    HW235499   0.618   2.781  16.126  0.9562 -1.4095  2.1486
 8013SOL     OW35500   1.243   4.112   1.536  0.1623 -0.3522  0.7695
 8013SOL    HW135501   1.209   4.120   1.447  1.4676 -0.2259  0.2877
 8013SOL    HW235502   1.331   4.075   1.524  0.0769  0.1666 -1.4299
 8014SOL     OW35503   1.026   2.375   2.865 -0.1079  0.0382 -0.4302
 8014SOL    HW135504   1.090   2.401   2.932  0.2003 -0.5511 -0.5016
 8014SOL    HW235505   1.069   2.403   2.784 -1.7460 -1.3004 -1.7582
 8015SOL     OW35506   3.562   4.712  16.182 -0.2189  0.6954 -0.0144
 8015SOL    HW135507   3.648   0.020  16.212 -0.1223 -0.5709  0.9785
 8015SOL    HW235508   3.580   4.619  16.176  1.1972  1.1200 -2.4952
 8016SOL     OW35509   0.393   4.368   9.891  0.1357 -0.2599  0.3601
 8016SOL    HW135510   0.466   4.415   9.933  1.3157 -2.0746  0.3568
 8016SOL    HW235511   0.436   4.289   9.857 -0.4651 -0.2685 -0.3813
 8017SOL     OW35512   1.514   2.172   3.164 -0.1533  0.0833  0.7482
 8017SOL    HW135513   1.478   2.188   3.251  1.1091 -2.6005  1.7704
 8017SOL    HW235514   1.502   2.077   3.166  0.4613  0.0237  1.6300
 8018SOL     OW35515   1.692   0.673   1.719 -0.1258 -0.2284 -0.0800
 8018SOL    HW135516   1.760   0.665   1.786 -0.1578  1.4151  0.1465
 8018SOL    HW235517   1.662   0.583   1.711  2.4020 -0.8500 -2.3878
 8019SOL     OW35518   0.674   0.900   4.419  0.1489  0.6789 -0.2221
 8019SOL    HW135519   0.635   0.894   4.332  2.0644 -0.4873 -0.9954
 8019SOL    HW235520   0.651   0.990   4.443 -0.0425  0.5783 -0.0299
 8020SOL     OW35521   2.130   0.121  11.804  0.0165  0.3841 -0.3039
 8020SOL    HW135522   2.110   0.207  11.841 -2.1320 -0.3176  0.1458
 8020SOL    HW235523   2.091   0.068  11.873 -1.6901  1.0821 -0.7247
 8021SOL     OW35524   4.254   3.773   8.431  0.1099  0.2427  0.8994
 8021SOL    HW135525   4.291   3.708   8.372  1.0568  1.9031 -0.3101
 8021SOL    HW235526   4.255   3.849   8.373 -1.5099 -0.9913 -0.7128
 8022SOL     OW35527   0.128   1.599   6.397 -0.2889  0.3016  0.0971
 8022SOL    HW135528   0.095   1.581   6.309  0.5577  0.6493 -0.2929
 8022SOL    HW235529   0.136   1.694   6.391 -0.5600  0.2580 -0.9750
 8023SOL     OW35530   2.126   1.363   2.994  1.0634  0.1077  0.0658
 8023SOL    HW135531   2.097   1.358   2.903 -1.7093 -0.9011  1.0078
 8023SOL    HW235532   2.202   1.304   2.994  0.9484 -0.0346  1.2047
 8024SOL     OW35533   0.982   1.410  16.268 -0.1013 -0.0290 -0.6445
 8024SOL    HW135534   0.939   1.450  16.192  1.2218  1.4816 -0.5817
 8024SOL    HW235535   1.042   1.350  16.223  0.7559  0.0891  0.3436
 8025SOL     OW35536   0.740   3.729   7.444 -0.1430 -0.5385 -0.4480
 8025SOL    HW135537   0.645   3.722   7.437 -0.2255 -0.7966  0.8552
 8025SOL    HW235538   0.755   3.692   7.531  0.5291 -1.8722 -1.1313
 8026SOL     OW35539   3.071   2.453   9.380  0.1453  0.1150  0.2209
 8026SOL    HW135540   3.066   2.515   9.452  0.4970 -1.2772  1.4474
 8026SOL    HW235541   3.150   2.480   9.332  1.4379 -1.4780  1.4510
 8027SOL     OW35542   1.715   1.616  11.333 -0.0359  0.3854  0.1272
 8027SOL    HW135543   1.790   1.590  11.387  0.2184  1.2952  0.2099
 8027SOL    HW235544   1.671   1.680  11.389 -0.5651  1.7844 -1.9194
 8028SOL     OW35545   3.229   2.856   3.465  0.1487  0.2458  1.1894
 8028SOL    HW135546   3.170   2.798   3.513  1.6344 -0.7406  1.8557
 8028SOL    HW235547   3.315   2.831   3.500  0.3616 -1.2040 -0.3609
 8029SOL     OW35548   0.883   1.433   4.584 -0.2321  0.4592 -0.0505
 8029SOL    HW135549   0.799   1.389   4.585 -0.2114  0.4169 -0.1575
 8029SOL    HW235550   0.903   1.431   4.678  3.4009 -1.4419 -0.8521
 8030SOL     OW35551   2.409   3.822   3.042 -0.4312  0.2749 -0.7065
 8030SOL    HW135552   2.437   3.851   2.955  1.1499 -1.2586 -0.7112
 8030SOL    HW235553   2.441   3.731   3.037 -0.9411  0.0974 -0.6837
 8031SOL     OW35554   0.278   4.425   2.959 -1.0752  0.2788 -0.3729
 8031SOL    HW135555   0.218   4.465   2.897 -2.6206 -1.4536  0.0207
 8031SOL    HW235556   0.235   4.341   2.976  1.2087 -0.9377 -0.5968
 8032SOL     OW35557   3.037   1.555   4.588 -0.1906 -0.5075 -0.3585
 8032SOL    HW135558   3.065   1.645   4.598 -0.7055 -0.7976  3.4342
 8032SOL    HW235559   3.070   1.525   4.672 -3.4203 -0.6981  0.8413
 8033SOL     OW35560   0.354   1.707   7.265  0.1370  0.4861  0.5255
 8033SOL    HW135561   0.377   1.761   7.341  0.4324 -0.4050  1.0646
 8033SOL    HW235562   0.442   1.682   7.240 -0.0303 -1.7381  2.2290
 8034SOL     OW35563   1.810   4.504   7.190 -0.2948  0.2700 -0.1005
 8034SOL    HW135564   1.896   4.462   7.192 -0.6761 -0.5594 -1.1968
 8034SOL    HW235565   1.786   4.503   7.283 -2.4449 -2.2872 -0.7039
 8035SOL     OW35566   2.597   3.328   9.586  0.5654 -0.0534 -0.0731
 8035SOL    HW135567   2.676   3.275   9.583 -0.3464 -1.4545  0.9908
 8035SOL    HW235568   2.629   3.416   9.607  0.4060 -0.3108  1.1967
 8036SOL     OW35569   4.072   1.646   8.559  0.1335  0.4584 -0.5602
 8036SOL    HW135570   4.115   1.584   8.618  0.9809 -0.0424 -1.7026
 8036SOL    HW235571   3.985   1.607   8.542  0.0599  0.6634 -0.6480
 8037SOL     OW35572   1.850   0.081   5.741 -0.1997 -0.5216 -0.2379
 8037SOL    HW135573   1.827   0.014   5.677  0.5809 -2.3309  1.3839
 8037SOL    HW235574   1.864   0.015   5.809  1.5762 -0.5477 -0.6530
 8038SOL     OW35575   3.533   4.353  16.226 -0.3660 -0.0338 -0.8038
 8038SOL    HW135576   3.546   4.261  16.203  1.8201  0.3766 -1.2853
 8038SOL    HW235577   3.452   4.373  16.179 -1.7400 -0.1893  1.4999
 8039SOL     OW35578   4.413   4.361  14.188 -0.3776  0.0619  1.0340
 8039SOL    HW135579   4.505   4.385  14.180 -1.0096  1.6546 -1.3723
 8039SOL    HW235580   4.382   4.404  14.268 -1.6822  0.1531  0.4866
 8040SOL     OW35581   3.156   4.640   2.182  0.5299  0.1220 -0.1101
 8040SOL    HW135582   3.128   4.691   2.107 -0.3567 -0.5837 -0.2634
 8040SOL    HW235583   3.212   4.580   2.133 -0.4609 -0.8275 -0.1085
 8041SOL     OW35584   2.561   2.188   6.429  0.0403  0.4783 -0.6046
 8041SOL    HW135585   2.615   2.242   6.487 -0.9447  0.4367  0.3550
 8041SOL    HW235586   2.497   2.154   6.492  1.2890  1.5238  1.2462
 8042SOL     OW35587   3.802   4.143   3.798 -0.7752 -0.2030  0.4525
 8042SOL    HW135588   3.778   4.230   3.831  1.4225  0.5953 -0.1041
 8042SOL    HW235589   3.722   4.091   3.811 -1.4483  0.6079 -0.4240
 8043SOL     OW35590   2.401   0.861  16.677  0.0912  0.2816  0.5366
 8043SOL    HW135591   2.344   0.862  16.600 -0.6115 -1.8267  1.0203
 8043SOL    HW235592   2.471   0.797  16.663 -1.3936 -1.2220 -0.1485
 8044SOL     OW35593   3.313   1.554  16.165  0.4858  0.1354 -0.0414
 8044SOL    HW135594   3.241   1.517  16.113  0.5675 -1.7636  1.2162
 8044SOL    HW235595   3.305   1.649  16.155  0.2618  0.0916 -0.2968
 8045SOL     OW35596   1.876   0.607  13.537 -0.0242  0.3166  0.1313
 8045SOL    HW135597   1.849   0.697  13.519  1.4181  0.7645  0.1784
 8045SOL    HW235598   1.843   0.600  13.627  0.6398 -0.0869  0.3468
 8046SOL     OW35599   3.545   0.852   6.457 -0.3042 -0.4606 -0.0057
 8046SOL    HW135600   3.595   0.834   6.537  1.0247  1.8429 -0.3326
 8046SOL    HW235601   3.619   0.848   6.397 -0.6019 -1.5539 -0.3087
 8047SOL     OW35602   3.123   2.104   5.393  0.3835 -0.0397 -0.1647
 8047SOL    HW135603   3.058   2.159   5.436 -1.3336 -2.3518  0.1646
 8047SOL    HW235604   3.077   2.022   5.375  1.0084 -0.9358  2.4455
 8048SOL     OW35605   0.433   4.416   8.073  0.1551 -0.3329  0.0642
 8048SOL    HW135606   0.407   4.506   8.091  0.9266 -0.1994  0.5236
 8048SOL    HW235607   0.372   4.359   8.119 -1.4635 -0.0813 -1.7827
 8049SOL     OW35608   2.276   1.988  10.406  0.4020 -0.1968 -0.0235
 8049SOL    HW135609   2.342   2.046  10.445 -1.5757  1.3198  1.0633
 8049SOL    HW235610   2.329   1.930  10.351 -0.9148 -2.8112  1.4446
 8050SOL     OW35611   2.915   0.107   8.976  1.0312  0.6657 -0.1638
 8050SOL    HW135612   2.824   0.084   8.957  1.6943 -1.8236 -0.3714
 8050SOL    HW235613   2.898   0.199   8.995  1.3973  0.4017  1.4413
 8051SOL     OW35614   2.207   4.264   6.945 -0.8746  0.0420  0.0065
 8051SOL    HW135615   2.191   4.204   7.019 -0.8096 -1.3848 -1.1334
 8051SOL    HW235616   2.118   4.282   6.914 -0.6391  1.0912 -0.0533
 8052SOL     OW35617   1.734   2.833   7.606 -0.3707  0.1227 -0.3258
 8052SOL    HW135618   1.762   2.742   7.615 -1.7703 -0.3605 -1.0200
 8052SOL    HW235619   1.695   2.822   7.520 -0.8961  1.7245 -0.2959
 8053SOL     OW35620   3.768   1.451  14.022  0.4343 -0.0012  0.4410
 8053SOL    HW135621   3.836   1.452  14.089  1.4238 -0.1477 -0.5774
 8053SOL    HW235622   3.728   1.538  14.034  1.7847  0.5425  0.9251
 8054SOL     OW35623   3.595   3.699   4.259  0.7446 -0.3919 -0.2958
 8054SOL    HW135624   3.574   3.615   4.218 -1.6191  0.0712  0.0108
 8054SOL    HW235625   3.512   3.746   4.253  0.4486 -1.0551 -1.4254
 8055SOL     OW35626   1.329   2.933  17.185  0.5421 -0.0212  0.6827
 8055SOL    HW135627   1.297   2.876  17.254  1.4759 -1.2589  0.0929
 8055SOL    HW235628   1.247   2.979  17.171  1.1507  0.2203 -2.2535
 8056SOL     OW35629   3.201   0.681   4.343  0.3665  0.0906 -0.2629
 8056SOL    HW135630   3.128   0.743   4.353  0.9295  1.0146 -2.0130
 8056SOL    HW235631   3.172   0.653   4.256 -1.4077  1.7358 -0.2111
 8057SOL     OW35632   4.163   3.860  16.519 -0.1340  0.1090 -0.0022
 8057SOL    HW135633   4.207   3.840  16.436  2.1440 -1.4885  1.5974
 8057SOL    HW235634   4.222   3.920  16.563  0.6403  1.4967 -2.9126
 8058SOL     OW35635   3.784   3.694   2.043 -0.8268  0.2812 -0.0929
 8058SOL    HW135636   3.820   3.650   1.966  0.0647 -0.7767  0.9309
 8058SOL    HW235637   3.846   3.668   2.111 -0.4340  0.1452 -0.5072
 8059SOL     OW35638   3.456   0.256   0.824 -0.4874 -0.7806 -0.1434
 8059SOL    HW135639   3.437   0.210   0.907  1.6641 -0.2231  0.6643
 8059SOL    HW235640   3.434   0.184   0.765  1.5149  0.0840 -1.9185
 8060SOL     OW35641   1.766   2.941   6.902  0.1079 -0.4962  0.0339
 8060SOL    HW135642   1.817   2.995   6.843 -1.1242 -1.6439 -2.0905
 8060SOL    HW235643   1.722   3.014   6.947 -0.6079 -0.6894 -0.3439
 8061SOL     OW35644   3.591   0.075   9.204 -0.1713 -0.5840  0.4189
 8061SOL    HW135645   3.546   0.156   9.230 -1.2749 -0.8341 -0.6984
 8061SOL    HW235646   3.595   0.023   9.284 -2.3113 -1.0811  0.2221
 8062SOL     OW35647   0.344   0.204   3.940 -0.2589 -0.1125  0.3532
 8062SOL    HW135648   0.275   0.228   3.878 -0.2221 -0.9056  0.0056
 8062SOL    HW235649   0.309   0.117   3.960  2.7676 -1.2299  0.7557
 8063SOL     OW35650   1.193   0.473   5.566 -0.8412 -0.4033  0.0090
 8063SOL    HW135651   1.103   0.459   5.536 -1.1400 -0.0021  0.7279
 8063SOL    HW235652   1.212   0.382   5.589 -0.3222 -0.0642  0.8941
 8064SOL     OW35653   3.831   3.560  16.106 -0.2236  0.4358 -0.2307
 8064SOL    HW135654   3.749   3.603  16.128  0.5728  3.0121 -2.2992
 8064SOL    HW235655   3.865   3.620  16.040 -0.4859  0.1822 -0.5913
 8065SOL     OW35656   3.693   3.642   3.606  0.9672 -0.0791 -0.4934
 8065SOL    HW135657   3.703   3.616   3.697  2.1076  0.8377 -0.3584
 8065SOL    HW235658   3.664   3.563   3.562 -5.0741  1.1877  1.1834
 8066SOL     OW35659   3.186   4.712   6.727  0.6667 -0.2902 -0.2139
 8066SOL    HW135660   3.232   4.696   6.809  0.8579 -1.2322 -0.4980
 8066SOL    HW235661   3.115   4.648   6.729  0.2335  0.3240  2.9499
 8067SOL     OW35662   2.775   1.400  15.749 -0.2736  0.2018  0.2068
 8067SOL    HW135663   2.686   1.388  15.715 -0.9060 -0.3262  2.0110
 8067SOL    HW235664   2.773   1.482  15.798 -1.0056 -0.8522  1.9684
 8068SOL     OW35665   4.370   4.488   6.110  0.0245 -0.5809  0.6251
 8068SOL    HW135666   4.398   4.433   6.037 -1.3930 -1.4448  0.7253
 8068SOL    HW235667   4.281   4.453   6.118 -1.1406  2.5730  1.6914
 8069SOL     OW35668   4.341   2.933   6.754  0.2926  0.0417 -0.0374
 8069SOL    HW135669   4.304   2.883   6.682 -0.9985  3.1383 -1.5464
 8069SOL    HW235670   4.400   2.988   6.702  1.5364 -0.4945  0.8072
 8070SOL     OW35671   0.273   2.808   4.140 -0.5516 -0.0831  0.2708
 8070SOL    HW135672   0.220   2.845   4.210 -0.9729  0.6048 -0.4030
 8070SOL    HW235673   0.310   2.731   4.183 -1.0963 -0.0850  0.7422
 8071SOL     OW35674   3.333   1.347   2.364  0.2639  0.4778 -0.3419
 8071SOL    HW135675   3.342   1.291   2.288  3.4709  1.0181 -0.3428
 8071SOL    HW235676   3.396   1.418   2.353  2.0993 -1.2467 -0.8479
 8072SOL     OW35677   3.738   3.281   8.824 -0.5400 -0.0644 -0.0360
 8072SOL    HW135678   3.770   3.207   8.875  1.1237  1.6542  1.4135
 8072SOL    HW235679   3.783   3.353   8.868 -0.4820 -0.9839  1.3814
 8073SOL     OW35680   0.718   0.576   2.574  0.3758  0.5940 -0.0608
 8073SOL    HW135681   0.711   0.611   2.485 -1.0730 -1.8895 -0.9204
 8073SOL    HW235682   0.643   0.517   2.576  1.1084 -0.3397 -0.6643
 8074SOL     OW35683   3.791   1.396   9.113  0.2090 -0.2523  0.1149
 8074SOL    HW135684   3.815   1.480   9.074 -1.2193 -0.5435 -1.3880
 8074SOL    HW235685   3.877   1.355   9.103  0.6385 -0.2421  3.7892
 8075SOL     OW35686   1.516   0.166  16.909 -0.0797  0.5834 -0.3533
 8075SOL    HW135687   1.569   0.244  16.892 -1.6823  1.4552 -1.3494
 8075SOL    HW235688   1.485   0.135  16.824 -0.3123 -0.7142  0.2037
 8076SOL     OW35689   3.385   0.466   4.870  0.0154  0.1444  0.0347
 8076SOL    HW135690   3.407   0.539   4.927  0.1980  1.1547 -1.3095
 8076SOL    HW235691   3.328   0.503   4.802 -3.4807 -2.8761  1.3089
 8077SOL     OW35692   0.930   1.441   2.684 -0.0534 -0.2344  0.3367
 8077SOL    HW135693   0.953   1.528   2.718  0.8464 -0.0515 -0.7188
 8077SOL    HW235694   0.887   1.463   2.602  1.7615  0.0398 -0.5501
 8078SOL     OW35695   2.611   0.351  15.815  0.0061  0.3453 -0.2493
 8078SOL    HW135696   2.615   0.314  15.904 -2.4146 -2.8412 -1.4756
 8078SOL    HW235697   2.690   0.311  15.778 -0.9140 -0.9890 -0.7309
 8079SOL     OW35698   4.092   3.997   2.958  0.0430 -0.3540 -0.6505
 8079SOL    HW135699   4.002   4.005   2.989  0.1511 -2.2806  0.1637
 8079SOL    HW235700   4.126   3.981   3.046 -2.0514  1.5944  0.5202
 8080SOL     OW35701   1.245   0.173   2.240  0.1281  0.3693 -0.2214
 8080SOL    HW135702   1.189   0.142   2.311  0.1689 -0.7659 -0.6797
 8080SOL    HW235703   1.331   0.179   2.281 -1.0070  1.4271  1.9824
 8081SOL     OW35704   0.305   0.038   0.430  0.4685  0.1328 -0.6659
 8081SOL    HW135705   0.369   4.701   0.390  0.4868 -0.5619  0.4010
 8081SOL    HW235706   0.262   4.694   0.484 -2.0062  0.4251 -2.2638
 8082SOL     OW35707   4.602   1.815   1.330  0.0061 -0.4941 -0.3201
 8082SOL    HW135708   4.523   1.840   1.282  0.6287  3.5112  0.7981
 8082SOL    HW235709   4.578   1.841   1.418  0.8630 -2.2313  0.4339
 8083SOL     OW35710   0.905   0.310   2.176  0.3010 -0.6152  0.0636
 8083SOL    HW135711   0.848   0.385   2.196  0.3205 -0.4123 -0.6171
 8083SOL    HW235712   0.852   0.242   2.218 -0.0432 -1.2888 -1.4380
 8084SOL     OW35713   3.099   1.036  10.807  0.4190 -0.0708  0.6867
 8084SOL    HW135714   3.108   1.098  10.735 -2.8912 -0.8677 -0.4256
 8084SOL    HW235715   3.023   1.067  10.857 -1.3222 -0.2663 -1.8455
 8085SOL     OW35716   1.682   1.482   9.772 -0.7667  0.3093  0.1009
 8085SOL    HW135717   1.678   1.571   9.737 -0.1592 -0.8034 -2.8391
 8085SOL    HW235718   1.768   1.500   9.811  0.5769 -0.9065 -2.2836
 8086SOL     OW35719   3.604   1.503   3.778  0.4594 -0.1527  0.0146
 8086SOL    HW135720   3.611   1.574   3.714 -1.4626 -1.0770 -1.2363
 8086SOL    HW235721   3.684   1.514   3.829  0.9988 -0.8523 -0.6797
 8087SOL     OW35722   1.177   4.108  14.057  0.3593 -0.1273 -0.0186
 8087SOL    HW135723   1.113   4.072  13.996  1.3319 -2.0313  0.0717
 8087SOL    HW235724   1.193   4.030  14.110  0.1767  0.5213  0.9868
 8088SOL     OW35725   3.019   3.803  16.270 -0.0638 -0.6070 -0.7822
 8088SOL    HW135726   2.937   3.814  16.317  0.5646 -2.0820  0.6590
 8088SOL    HW235727   3.037   3.709  16.276 -2.1515 -1.0860 -2.0861
 8089SOL     OW35728   1.509   4.660   5.391 -0.4838  0.2097  0.2943
 8089SOL    HW135729   1.429   4.655   5.339 -0.6745 -2.9545  0.9004
 8089SOL    HW235730   1.486   0.006   5.455  0.4031  2.3899 -1.7282
 8090SOL     OW35731   1.570   3.824  14.716  0.1895 -0.5976  0.3577
 8090SOL    HW135732   1.484   3.841  14.678  0.1922 -1.8029 -0.1808
 8090SOL    HW235733   1.607   3.906  14.681 -1.4770 -0.4750 -1.1322
 8091SOL     OW35734   3.186   0.617   7.756  0.3381  0.0715 -0.0522
 8091SOL    HW135735   3.223   0.529   7.750  0.6962  0.3161 -1.3574
 8091SOL    HW235736   3.120   0.598   7.823  0.6018 -1.7086 -0.2841
 8092SOL     OW35737   2.533   2.881   6.613  0.0302  0.3464  0.4717
 8092SOL    HW135738   2.626   2.860   6.605 -0.3329 -0.2710 -2.3385
 8092SOL    HW235739   2.517   2.825   6.688 -0.2370 -0.3468 -0.0986
 8093SOL     OW35740   1.379   3.088   6.591  0.4608  0.0339  0.6225
 8093SOL    HW135741   1.314   3.029   6.554 -0.9407  1.0496  1.4869
 8093SOL    HW235742   1.326   3.125   6.661  1.8578 -0.1219  1.7693
 8094SOL     OW35743   2.420   1.340  15.207  0.1249  0.1936 -0.9788
 8094SOL    HW135744   2.347   1.383  15.163 -0.6645 -0.2871 -0.1239
 8094SOL    HW235745   2.492   1.390  15.168 -0.9898  1.7998 -0.9530
 8095SOL     OW35746   1.089   4.555  14.514 -0.0497 -0.2499  0.4671
 8095SOL    HW135747   1.166   4.609  14.533 -0.1549  0.3589 -0.8085
 8095SOL    HW235748   1.092   4.497  14.590 -1.1433 -0.7018  0.1682
 8096SOL     OW35749   3.975   3.220   5.475 -0.5960 -0.0272 -0.3949
 8096SOL    HW135750   3.896   3.273   5.471 -0.3800  0.4358  1.4815
 8096SOL    HW235751   3.985   3.222   5.571 -1.0824 -1.1866 -0.3176
 8097SOL     OW35752   0.994   3.151   2.697  0.4208  0.1481  0.3198
 8097SOL    HW135753   0.921   3.129   2.755 -0.4183 -1.4943 -1.3458
 8097SOL    HW235754   1.039   3.067   2.692  0.2607 -0.0406  1.9935
 8098SOL     OW35755   2.403   0.517   7.803 -0.1968  0.7315 -0.7181
 8098SOL    HW135756   2.394   0.488   7.893 -2.1591 -0.6674 -1.3754
 8098SOL    HW235757   2.392   0.611   7.818 -1.4031  0.4892 -0.0905
 8099SOL     OW35758   2.517   1.272   5.897 -0.3084 -0.2385  0.5708
 8099SOL    HW135759   2.541   1.364   5.912  0.3610 -0.5287  1.2578
 8099SOL    HW235760   2.428   1.275   5.933 -0.7083  1.6168 -0.5626
 8100SOL     OW35761   3.072   1.336   7.471 -0.5906 -0.0115 -0.2099
 8100SOL    HW135762   3.110   1.352   7.558 -1.0868 -1.2459  0.2263
 8100SOL    HW235763   2.981   1.367   7.473 -0.8627 -0.7937 -0.3535
 8101SOL     OW35764   3.269   0.015  12.129 -0.1290 -0.1118 -0.5574
 8101SOL    HW135765   3.253   0.107  12.110  0.4157  0.5428  2.0910
 8101SOL    HW235766   3.295   4.716  12.039 -0.3806 -2.6952 -0.0334
 8102SOL     OW35767   2.942   3.364   4.655  0.8724 -0.4352  0.0968
 8102SOL    HW135768   2.851   3.349   4.682  1.2823  0.3547  1.9113
 8102SOL    HW235769   2.959   3.284   4.605  0.0231 -1.6280  1.6715
 8103SOL     OW35770   2.480   0.316   4.848 -0.7521  0.5210 -0.3011
 8103SOL    HW135771   2.560   0.284   4.806 -0.5143 -0.6879  1.0972
 8103SOL    HW235772   2.512   0.332   4.937 -1.0508 -1.1765  0.1008
 8104SOL     OW35773   3.499   2.311   7.701  0.2169 -0.2261  0.2963
 8104SOL    HW135774   3.416   2.323   7.655  1.1755  2.6892 -0.6733
 8104SOL    HW235775   3.515   2.403   7.723 -1.6857 -0.0417  0.8754
 8105SOL     OW35776   0.280   0.610   6.873  0.3887 -0.5642 -0.1686
 8105SOL    HW135777   0.247   0.690   6.915 -3.9755 -2.5242  0.0879
 8105SOL    HW235778   0.220   0.597   6.800  0.6726  0.0870 -0.5117
 8106SOL     OW35779   1.984   3.407   9.146 -0.3409 -0.6821 -0.0528
 8106SOL    HW135780   1.909   3.426   9.090  1.1810  0.4152 -1.7367
 8106SOL    HW235781   2.004   3.317   9.123  2.8486 -0.2986  1.1517
 8107SOL     OW35782   2.590   0.191   2.347  0.5286 -0.2028 -0.1554
 8107SOL    HW135783   2.570   0.199   2.253  0.9647  1.2950 -0.1316
 8107SOL    HW235784   2.649   0.116   2.342 -1.0167 -1.3880 -0.5000
 8108SOL     OW35785   1.520   1.200   4.124 -0.1999  0.6992  0.3167
 8108SOL    HW135786   1.586   1.160   4.181 -0.1569 -2.5074 -1.9287
 8108SOL    HW235787   1.546   1.289   4.104 -0.8248  0.7622 -0.2209
 8109SOL     OW35788   0.326   3.035   4.636  0.2388 -0.4731  0.2520
 8109SOL    HW135789   0.411   2.994   4.650  1.8574  2.9260  0.2621
 8109SOL    HW235790   0.337   3.097   4.564  0.2165  1.6109  2.0423
 8110SOL     OW35791   4.472   1.529   8.206  0.6489 -0.0145 -0.0588
 8110SOL    HW135792   4.463   1.519   8.111 -3.2077 -2.4324  0.5585
 8110SOL    HW235793   4.556   1.575   8.210  0.8586 -0.4905  1.0755
 8111SOL     OW35794   1.194   1.904   8.856 -0.5297  0.2862 -0.4838
 8111SOL    HW135795   1.113   1.901   8.908  2.3788 -1.7941  3.9557
 8111SOL    HW235796   1.234   1.978   8.902 -0.9974 -0.2372  0.7835
 8112SOL     OW35797   3.066   1.855   5.315 -0.3577 -0.6689 -0.0610
 8112SOL    HW135798   3.034   1.799   5.386  0.6281 -1.9583 -0.6460
 8112SOL    HW235799   3.156   1.827   5.298 -0.3745  0.4806 -2.1069
 8113SOL     OW35800   2.511   2.480   3.743  0.7380 -0.0354 -0.4578
 8113SOL    HW135801   2.432   2.533   3.747 -0.1757 -1.4633  0.3233
 8113SOL    HW235802   2.470   2.396   3.725  3.3334 -0.8938 -2.4105
 8114SOL     OW35803   2.244   4.328  15.017  0.2002 -0.5345 -0.0477
 8114SOL    HW135804   2.164   4.377  15.037  1.0370 -0.2756  2.6881
 8114SOL    HW235805   2.238   4.256  15.081 -0.4217 -0.2033  0.2612
 8115SOL     OW35806   2.024   1.890   9.187 -0.6867 -0.3143  0.2914
 8115SOL    HW135807   1.996   1.948   9.116  1.0951 -1.3167 -1.2004
 8115SOL    HW235808   1.974   1.919   9.263 -1.1746 -2.1992  0.6908
 8116SOL     OW35809   3.491   2.270  11.559 -0.1137 -0.2152 -0.3274
 8116SOL    HW135810   3.567   2.310  11.517 -1.1849  1.2871 -0.8748
 8116SOL    HW235811   3.529   2.231  11.638 -0.1171 -0.2009 -0.3185
 8117SOL     OW35812   0.149   3.880  17.612 -0.5272 -0.2539  0.3104
 8117SOL    HW135813   0.202   3.872   0.000 -0.0294  1.4605  0.1336
 8117SOL    HW235814   0.098   3.799  17.613  0.4614 -0.8751 -0.0432
 8118SOL     OW35815   3.448   0.557   2.116  0.7737  0.2445 -0.2990
 8118SOL    HW135816   3.518   0.561   2.180  1.7951  0.5757 -1.4236
 8118SOL    HW235817   3.376   0.598   2.165 -0.6889 -2.0142 -0.5509
 8119SOL     OW35818   3.518   1.488   0.354 -0.1878  0.2410  0.3204
 8119SOL    HW135819   3.456   1.417   0.365  0.3441 -0.4644 -1.2657
 8119SOL    HW235820   3.529   1.508   0.447 -2.5763  1.6460  0.2990
 8120SOL     OW35821   0.791   2.267   3.915 -0.4633 -0.1076 -0.1394
 8120SOL    HW135822   0.833   2.221   3.842  0.5442  0.3309  0.1700
 8120SOL    HW235823   0.798   2.192   3.975  0.7613 -0.6408 -0.9439
 8121SOL     OW35824   0.818   2.241   6.339 -0.0333 -0.4135  0.3420
 8121SOL    HW135825   0.870   2.285   6.271 -1.4376  0.4302 -0.2041
 8121SOL    HW235826   0.751   2.308   6.357  2.1390  1.4391  1.5589
 8122SOL     OW35827   4.576   3.063   4.775  0.1215  0.5048  0.3924
 8122SOL    HW135828   4.612   3.055   4.864 -0.2990  0.3150  0.5436
 8122SOL    HW235829   4.510   2.994   4.768  0.4499  0.2395 -0.1327
 8123SOL     OW35830   3.233   3.254   7.682  0.0187  0.0249  0.4222
 8123SOL    HW135831   3.177   3.204   7.740  0.6174 -0.7746  0.3169
 8123SOL    HW235832   3.209   3.231   7.592 -1.7282 -1.4633  1.2813
 8124SOL     OW35833   0.916   0.112   6.348 -0.0115  0.7848  0.0044
 8124SOL    HW135834   0.907   0.091   6.441  2.0502 -1.1945 -0.2509
 8124SOL    HW235835   0.916   0.207   6.353  1.0117  0.7559  0.6958
 8125SOL     OW35836   3.563   3.129   6.874 -0.1375 -0.3758  0.4436
 8125SOL    HW135837   3.584   3.132   6.780 -3.5928 -0.4274 -0.3192
 8125SOL    HW235838   3.571   3.224   6.889 -2.2109  0.2426 -2.3533
 8126SOL     OW35839   2.075   4.253   7.672  0.1989  0.2437 -0.1127
 8126SOL    HW135840   2.059   4.346   7.657  3.7473  1.0673  1.2014
 8126SOL    HW235841   2.112   4.268   7.759 -1.7524  1.5782  0.5063
 8127SOL     OW35842   0.695   2.126   8.998  0.2244  0.1710 -0.1757
 8127SOL    HW135843   0.691   2.052   9.059 -0.5943 -1.0543 -1.7191
 8127SOL    HW235844   0.732   2.200   9.046  0.9164  1.8632 -3.3444
 8128SOL     OW35845   0.615   3.263   6.089 -0.0384 -0.2157  0.3761
 8128SOL    HW135846   0.549   3.272   6.020 -0.4642  0.4107  0.8705
 8128SOL    HW235847   0.676   3.334   6.071 -0.8657  1.2329  3.3176
 8129SOL     OW35848   0.935   4.040   1.151  0.1428  0.0547  0.5187
 8129SOL    HW135849   0.860   4.094   1.123  0.1563 -1.2390 -2.0521
 8129SOL    HW235850   0.959   3.993   1.071 -1.0829 -0.1123  0.2416
 8130SOL     OW35851   3.452   0.114   4.818  0.2828 -0.4918  0.1035
 8130SOL    HW135852   3.431   0.040   4.761 -1.7159 -0.1387  0.3759
 8130SOL    HW235853   3.545   0.101   4.836 -0.2562 -1.7596  2.0272
 8131SOL     OW35854   4.722   2.937  10.293 -0.0075 -0.7047  0.2386
 8131SOL    HW135855   4.677   3.016  10.264  1.0566 -0.4460 -0.6965
 8131SOL    HW235856   0.041   2.955  10.377  0.0145  0.5477 -0.0429
 8132SOL     OW35857   1.962   2.973   5.633 -0.4543  0.1615 -0.1023
 8132SOL    HW135858   2.041   3.026   5.636  0.2699 -0.9724  0.6542
 8132SOL    HW235859   1.959   2.969   5.537 -1.1721  2.7152 -0.1679
 8133SOL     OW35860   4.683   1.082   5.256  0.1408  0.1935  0.7499
 8133SOL    HW135861   4.640   1.085   5.341 -0.8756  3.0237  0.1396
 8133SOL    HW235862   0.010   1.164   5.248  2.6014 -1.2224  1.2948
 8134SOL     OW35863   1.017   0.241   4.061  0.2903 -0.1708 -0.1123
 8134SOL    HW135864   0.926   0.243   4.031  0.5559  0.3470 -0.8570
 8134SOL    HW235865   1.058   0.304   4.003 -1.2260  0.5054 -0.4630
 8135SOL     OW35866   4.006   4.514  17.406  0.1884 -0.0483  0.4610
 8135SOL    HW135867   3.927   4.549  17.446 -0.3106 -1.9665  1.1167
 8135SOL    HW235868   4.066   4.542  17.475  0.2160  1.2450 -0.0774
 8136SOL     OW35869   1.807   3.604   4.434 -0.2206 -0.2129 -0.3865
 8136SOL    HW135870   1.880   3.613   4.373 -0.9205  0.0537 -1.1945
 8136SOL    HW235871   1.786   3.694   4.461  1.0134 -0.2359  0.6151
 8137SOL     OW35872   0.805   3.552  11.006  0.5730 -0.0910 -0.0956
 8137SOL    HW135873   0.865   3.480  11.025  0.9249  0.4044  0.6377
 8137SOL    HW235874   0.856   3.628  11.034 -0.3334  0.5510 -0.1818
 8138SOL     OW35875   4.616   1.880   7.397  0.2140  0.3036  0.2319
 8138SOL    HW135876   4.647   1.813   7.336  0.2254  0.5134  0.0069
 8138SOL    HW235877   4.542   1.841   7.443 -0.1301 -0.0138 -0.5968
 8139SOL     OW35878   1.603   3.137   4.168  0.1504 -0.0618 -0.2182
 8139SOL    HW135879   1.646   3.128   4.083  1.7151  0.7863  0.4771
 8139SOL    HW235880   1.665   3.187   4.221  0.5940 -1.5459  0.6713
 8140SOL     OW35881   4.620   1.128  17.211  0.0223 -0.4417 -0.4676
 8140SOL    HW135882   4.655   1.107  17.124 -0.0605 -1.5053 -0.2387
 8140SOL    HW235883   4.699   1.143  17.263  0.2997 -1.0959 -0.7052
 8141SOL     OW35884   2.834   4.421  17.629  0.3383 -0.4376 -0.3801
 8141SOL    HW135885   2.909   4.426  17.570  0.4489 -0.8798 -0.2722
 8141SOL    HW235886   2.764   4.446  17.568 -0.9724  0.1926  1.3937
 8142SOL     OW35887   3.582   1.749   3.971  0.0701 -0.5658 -0.3872
 8142SOL    HW135888   3.619   1.737   3.883  1.0560 -0.7102  0.0543
 8142SOL    HW235889   3.613   1.834   4.001 -0.7737 -1.1325  2.1047
 8143SOL     OW35890   4.612   4.690  10.249 -0.1228  0.1844 -0.2976
 8143SOL    HW135891   4.693   0.016  10.264 -1.3080  1.9803  0.4231
 8143SOL    HW235892   4.554   0.029  10.294  1.0598  0.3591  0.9660
 8144SOL     OW35893   2.711   4.320   4.241 -0.2256 -0.4936  0.0573
 8144SOL    HW135894   2.734   4.296   4.330 -3.4582  0.5523  1.1687
 8144SOL    HW235895   2.632   4.267   4.236 -1.4060  1.0348  2.8945
 8145SOL     OW35896   2.801   2.927   6.343 -0.2075 -0.5005  0.0676
 8145SOL    HW135897   2.769   2.860   6.284 -2.2433 -0.3388  0.9810
 8145SOL    HW235898   2.735   2.995   6.329  0.5620  0.0167 -1.0707
 8146SOL     OW35899   0.662   0.040  17.454  0.6095 -0.4527 -0.2680
 8146SOL    HW135900   0.689   0.020  17.544 -0.4592  0.1124  0.1849
 8146SOL    HW235901   0.745   0.025  17.409  1.0171  0.2261  0.2651
 8147SOL     OW35902   2.600   1.921  13.217  0.1203  0.3031 -0.4592
 8147SOL    HW135903   2.683   1.911  13.171  1.2042  0.2020  1.5352
 8147SOL    HW235904   2.602   1.868  13.297  0.2428  1.7046  0.4558
 8148SOL     OW35905   0.063   4.249   9.330  0.2206 -0.0337  0.2624
 8148SOL    HW135906   0.136   4.289   9.281 -1.9142  2.2304 -1.0808
 8148SOL    HW235907   0.028   4.197   9.257 -0.9692 -0.6707  1.3050
 8149SOL     OW35908   3.439   1.575   6.095  0.0445 -0.2322  0.3022
 8149SOL    HW135909   3.380   1.615   6.159  0.5397 -0.5280  0.9457
 8149SOL    HW235910   3.395   1.493   6.073 -0.4324  0.3626 -0.9582
 8150SOL     OW35911   4.041   3.873   7.557  0.1230  0.2936  0.3193
 8150SOL    HW135912   3.994   3.790   7.550 -0.5648  0.5159  2.4308
 8150SOL    HW235913   4.134   3.851   7.552 -0.1662 -0.8573  0.0257
 8151SOL     OW35914   3.287   3.863   1.306  0.2044 -0.1899 -0.2332
 8151SOL    HW135915   3.356   3.843   1.242  0.6979  0.9147 -0.0464
 8151SOL    HW235916   3.290   3.957   1.285  2.4075 -0.2999 -0.3608
 8152SOL     OW35917   1.031   2.321   6.962 -0.1909  0.3164 -0.2347
 8152SOL    HW135918   0.955   2.287   6.914 -0.1935 -1.7896  1.2671
 8152SOL    HW235919   1.065   2.372   6.888 -0.0032  1.1156  0.4040
 8153SOL     OW35920   2.899   2.002   3.388  0.2341  0.0101  0.0096
 8153SOL    HW135921   2.842   2.065   3.433  0.0857 -2.0232  2.6832
 8153SOL    HW235922   2.945   2.054   3.323  0.9634 -2.0761 -1.1395
 8154SOL     OW35923   0.290   0.689   8.753  0.3373  0.7082 -0.0190
 8154SOL    HW135924   0.244   0.738   8.821 -2.1668  0.3602 -1.4600
 8154SOL    HW235925   0.332   0.623   8.808 -0.5584 -0.6947 -1.0475
 8155SOL     OW35926   1.529   0.958   2.357  0.0811 -0.1226  0.3991
 8155SOL    HW135927   1.574   1.041   2.369  1.7766 -0.7352 -1.7053
 8155SOL    HW235928   1.443   0.988   2.388 -0.1663  0.7314 -1.1355
 8156SOL     OW35929   4.266   1.483   8.672 -0.2286  0.1684 -0.1218
 8156SOL    HW135930   4.310   1.542   8.733 -2.2380  2.0237 -0.4511
 8156SOL    HW235931   4.337   1.476   8.609 -0.4155 -1.1941 -0.1762
 8157SOL     OW35932   0.866   3.557   2.150 -0.2919 -0.5632  0.4973
 8157SOL    HW135933   0.843   3.580   2.060  1.0001  1.2426  0.6319
 8157SOL    HW235934   0.848   3.463   2.158  2.1804 -1.3122 -2.9756
 8158SOL     OW35935   2.782   3.736  14.998 -0.2232  0.0873  0.1921
 8158SOL    HW135936   2.744   3.690  15.073 -2.4269  2.0952  0.3350
 8158SOL    HW235937   2.754   3.823  15.025  0.3701  0.2361  0.3101
 8159SOL     OW35938   3.937   0.088   8.493  0.2778  0.4077  0.6757
 8159SOL    HW135939   4.009   0.025   8.491  0.3371  0.5394 -1.6145
 8159SOL    HW235940   3.907   0.077   8.583 -1.9295 -0.3469 -0.1502
 8160SOL     OW35941   4.392   3.069   7.610  0.1873 -0.1520  0.4321
 8160SOL    HW135942   4.431   2.981   7.609  0.9954  0.2086  0.1942
 8160SOL    HW235943   4.467   3.108   7.656  1.5812 -0.6055 -1.4045
 8161SOL     OW35944   1.337   2.131  13.593 -0.7546 -0.5688  0.1052
 8161SOL    HW135945   1.287   2.213  13.590 -2.3967 -1.5330  0.7730
 8161SOL    HW235946   1.310   2.079  13.669 -0.6390  0.6285  0.9638
 8162SOL     OW35947   1.359   1.092   0.742 -0.2216 -0.3690 -0.0980
 8162SOL    HW135948   1.322   1.115   0.656 -0.1156 -1.4583 -0.4309
 8162SOL    HW235949   1.454   1.084   0.731 -0.6264 -2.8692 -1.6104
 8163SOL     OW35950   2.051   1.505   3.827 -0.0101 -0.1748 -0.4055
 8163SOL    HW135951   2.063   1.563   3.752  3.4419 -1.2676 -0.6876
 8163SOL    HW235952   2.066   1.419   3.787 -0.4605 -1.5168  2.3041
 8164SOL     OW35953   1.800   3.489  15.433 -0.5274 -0.0681 -0.2277
 8164SOL    HW135954   1.883   3.528  15.460 -0.2072 -0.4084 -0.7321
 8164SOL    HW235955   1.751   3.562  15.394  0.4042  0.1738 -0.9407
 8165SOL     OW35956   4.146   3.754   7.154 -0.2358  0.2973  0.3404
 8165SOL    HW135957   4.215   3.802   7.200  0.1815 -0.7069  0.7692
 8165SOL    HW235958   4.070   3.779   7.206 -2.0843 -0.7364 -1.8546
 8166SOL     OW35959   2.243   2.915   1.390  0.4266 -0.0196  0.1902
 8166SOL    HW135960   2.270   2.858   1.463 -0.2869  0.3649  0.7456
 8166SOL    HW235961   2.184   2.853   1.348  0.6419 -0.3831  0.4209
 8167SOL     OW35962   0.836   4.045   2.338  0.0996 -0.3906  0.1055
 8167SOL    HW135963   0.829   4.127   2.289  1.4773 -0.3352  0.0016
 8167SOL    HW235964   0.923   4.015   2.312  0.0926  0.6535 -1.1047
 8168SOL     OW35965   4.231   3.836   3.149  0.7152 -0.2734  0.3473
 8168SOL    HW135966   4.142   3.853   3.178  1.0941  1.6086  0.3919
 8168SOL    HW235967   4.285   3.837   3.229  1.9697  0.9557 -0.5162
 8169SOL     OW35968   3.867   0.357   8.869 -0.4704 -0.0801 -0.4760
 8169SOL    HW135969   3.785   0.310   8.879 -1.3678  1.1436 -2.2415
 8169SOL    HW235970   3.879   0.385   8.960 -0.1589  0.6901 -0.7480
 8170SOL     OW35971   4.199   4.101   8.481  0.2551 -0.5008  0.7893
 8170SOL    HW135972   4.258   4.058   8.418  1.3020  1.2460  0.5856
 8170SOL    HW235973   4.219   4.191   8.455  0.2674 -0.9386 -0.7262
 8171SOL     OW35974   1.212   0.480  15.421  0.4405 -0.3662  0.6129
 8171SOL    HW135975   1.255   0.509  15.501  1.6579  0.0058 -0.1928
 8171SOL    HW235976   1.253   0.395  15.408  0.4509 -0.2862  0.1357
 8172SOL     OW35977   2.349   3.707   6.743 -0.0513 -0.5976  0.1670
 8172SOL    HW135978   2.266   3.735   6.702  1.4454  3.4121 -0.1430
 8172SOL    HW235979   2.338   3.729   6.835  1.2128  1.1051 -0.1026
 8173SOL     OW35980   2.081   4.070  14.312 -0.1055  0.3780 -0.4103
 8173SOL    HW135981   2.147   4.021  14.263 -0.6830 -1.3332  0.5198
 8173SOL    HW235982   2.037   4.129  14.251 -0.0702  1.8505  0.9649
 8174SOL     OW35983   2.936   0.544   1.753  0.3470  0.4269 -0.1374
 8174SOL    HW135984   2.952   0.585   1.838  0.7157  1.6930 -0.8139
 8174SOL    HW235985   2.927   0.451   1.774  0.7257  0.8445  1.8602
 8175SOL     OW35986   2.927   1.386   9.507  0.1890 -0.0179  0.5038
 8175SOL    HW135987   2.933   1.457   9.442  1.2463  0.9532  1.6773
 8175SOL    HW235988   3.002   1.408   9.561 -1.4615  2.9237  1.6455
 8176SOL     OW35989   2.004   2.192   3.735 -0.1777  0.0243  0.1791
 8176SOL    HW135990   1.944   2.265   3.748  0.9657  1.0643 -0.4536
 8176SOL    HW235991   2.031   2.197   3.644  0.0820 -1.5797  0.1708
 8177SOL     OW35992   2.383   3.659   7.903 -0.3879 -0.2087 -0.0435
 8177SOL    HW135993   2.339   3.660   7.818 -1.6383 -0.5716  0.5913
 8177SOL    HW235994   2.338   3.725   7.955  4.9156  2.5335  1.0988
 8178SOL     OW35995   2.519   1.865   8.614 -0.0900 -0.3442 -0.8529
 8178SOL    HW135996   2.577   1.918   8.670 -0.8136 -1.0771  0.5839
 8178SOL    HW235997   2.566   1.869   8.530  0.4712  1.2941 -0.4784
 8179SOL     OW35998   3.189   2.930   2.595 -0.0501  0.4020 -0.3772
 8179SOL    HW135999   3.132   2.867   2.639  0.3974  0.1683 -0.1257
 8179SOL    HW236000   3.269   2.903   2.640  0.5850  0.8461 -1.2361
 8180SOL     OW36001   3.500   2.313  15.146 -0.1749  0.2505 -0.2345
 8180SOL    HW136002   3.588   2.314  15.185  0.4194  0.4428 -1.5707
 8180SOL    HW236003   3.483   2.245  15.211 -3.1966  0.3673 -0.8906
 8181SOL     OW36004   1.907   3.316   4.065  0.1707 -0.0192  0.0921
 8181SOL    HW136005   1.988   3.339   4.110  0.0135  1.0876 -0.2067
 8181SOL    HW236006   1.892   3.382   3.997 -1.9952  0.3203  0.8948
 8182SOL     OW36007   1.928   3.601  17.482  0.0959  0.2159  0.1687
 8182SOL    HW136008   1.891   3.602  17.570  1.1903  2.4196  0.6046
 8182SOL    HW236009   1.857   3.630  17.426  0.9004 -0.5255 -1.2402
 8183SOL     OW36010   4.565   3.945   4.729 -0.1939 -0.1654 -0.0991
 8183SOL    HW136011   4.516   3.863   4.738  1.1447 -0.6831  2.5076
 8183SOL    HW236012   4.535   3.965   4.641  2.5245  0.1285 -0.9492
 8184SOL     OW36013   3.635   1.351   6.218 -0.1668  0.2650  0.0668
 8184SOL    HW136014   3.572   1.419   6.195 -0.8811 -0.7322 -0.9289
 8184SOL    HW236015   3.645   1.366   6.312 -3.9466  0.7509  0.3714
 8185SOL     OW36016   2.581   4.232   0.901  0.3984  0.0341 -0.0620
 8185SOL    HW136017   2.606   4.146   0.936  2.9050  0.7300 -0.1139
 8185SOL    HW236018   2.509   4.206   0.844  0.8985 -0.7378 -0.3432
 8186SOL     OW36019   0.250   3.575   0.755 -0.2113 -0.3502 -0.3051
 8186SOL    HW136020   0.240   3.670   0.763 -0.7770 -0.7270  3.3077
 8186SOL    HW236021   0.287   3.565   0.667  0.5498  0.5048 -0.0858
 8187SOL     OW36022   2.259   2.435   8.030  0.4192  0.0009  0.4178
 8187SOL    HW136023   2.303   2.374   8.090  1.1711 -1.4779 -1.6352
 8187SOL    HW236024   2.332   2.473   7.981 -0.8632  1.1320 -0.6036
 8188SOL     OW36025   3.342   1.046   6.545  0.1596  0.1608 -0.1040
 8188SOL    HW136026   3.283   0.986   6.499 -2.4666  3.8735 -1.5852
 8188SOL    HW236027   3.422   0.993   6.545 -1.3600 -2.1182  0.4272
 8189SOL     OW36028   0.798   1.128   3.768 -0.9261  0.0974 -0.1427
 8189SOL    HW136029   0.856   1.199   3.794  1.4739 -1.9041 -0.0748
 8189SOL    HW236030   0.798   1.069   3.843  0.2062 -1.1966 -1.1692
 8190SOL     OW36031   1.413   1.663   7.209  0.7607 -0.4719 -0.0547
 8190SOL    HW136032   1.485   1.604   7.188 -0.4281 -0.8279 -3.0940
 8190SOL    HW236033   1.467   1.719   7.265  0.0486  0.6198 -0.4580
 8191SOL     OW36034   3.712   1.427   7.314  0.0191 -0.2150  0.3942
 8191SOL    HW136035   3.685   1.427   7.222  2.3328  2.9247 -0.2608
 8191SOL    HW236036   3.723   1.333   7.330  2.1886  0.2056  1.4430
 8192SOL     OW36037   4.617   2.662   2.643 -0.5931  0.0467 -0.0543
 8192SOL    HW136038   4.656   2.605   2.577 -2.4487 -0.8717 -0.3267
 8192SOL    HW236039   4.694   2.666   2.700 -1.4038  1.3461  0.9527
 8193SOL     OW36040   0.898   1.719   5.405 -0.1446  0.6969 -0.1626
 8193SOL    HW136041   0.925   1.656   5.338 -0.0457  1.6494 -1.0148
 8193SOL    HW236042   0.938   1.684   5.484 -1.0243 -0.9540 -0.4485
 8194SOL     OW36043   3.890   2.653  13.210  0.2051  0.0620 -0.6347
 8194SOL    HW136044   3.837   2.602  13.270  1.2537 -1.1450 -0.7319
 8194SOL    HW236045   3.921   2.579  13.158  2.9464  0.6645  0.1078
 8195SOL     OW36046   4.078   0.364   7.474  0.0748 -0.2073  0.0199
 8195SOL    HW136047   4.041   0.433   7.528 -1.2416 -1.5640  0.8738
 8195SOL    HW236048   3.999   0.326   7.435 -0.0168  1.7903 -1.7617
 8196SOL     OW36049   4.455   2.297   6.853 -0.7054 -0.6804  0.0569
 8196SOL    HW136050   4.469   2.202   6.845  0.8267 -0.6040  1.5867
 8196SOL    HW236051   4.455   2.301   6.949 -0.9774 -0.6824  0.0561
 8197SOL     OW36052   2.653   1.971   7.277  0.0944  0.6225  0.1802
 8197SOL    HW136053   2.694   1.956   7.362 -0.2053  1.8873  0.5441
 8197SOL    HW236054   2.613   1.885   7.260 -0.5957  0.6257  1.7854
 8198SOL     OW36055   4.250   1.987   4.577 -0.6358 -0.3011  0.2583
 8198SOL    HW136056   4.166   1.941   4.584 -1.0517  0.5183  0.6547
 8198SOL    HW236057   4.308   1.912   4.583 -0.5930 -0.3598 -0.9770
 8199SOL     OW36058   3.388   1.816   8.728  0.1275 -0.0508 -0.7823
 8199SOL    HW136059   3.467   1.829   8.780 -0.5138 -0.3962  0.2950
 8199SOL    HW236060   3.339   1.766   8.794  0.8937 -1.2792 -1.1661
 8200SOL     OW36061   0.075   3.752   3.471 -0.2636 -0.0780  0.1326
 8200SOL    HW136062   4.712   3.736   3.510  0.5384 -0.6437  1.6472
 8200SOL    HW236063   0.055   3.801   3.391  0.6154 -1.5343 -0.9782
 8201SOL     OW36064   3.289   4.258   8.727  0.1316  0.8429  0.3482
 8201SOL    HW136065   3.286   4.350   8.755  1.2813  0.8042  0.5901
 8201SOL    HW236066   3.265   4.207   8.804  0.4578 -2.3096 -1.6251
 8202SOL     OW36067   3.561   0.318  12.220 -0.8238  0.6301  0.0640
 8202SOL    HW136068   3.576   0.402  12.262  0.3874  0.3367  0.2172
 8202SOL    HW236069   3.520   0.283  12.299 -0.0748  0.2610  0.2948
 8203SOL     OW36070   3.474   0.610  11.271 -0.7012  0.0980 -0.0936
 8203SOL    HW136071   3.465   0.576  11.182  0.0226  0.8749 -0.4653
 8203SOL    HW236072   3.395   0.665  11.279 -0.2487  0.4932  1.7629
 8204SOL     OW36073   2.202   0.630  14.763 -0.3689  0.2347  0.3571
 8204SOL    HW136074   2.198   0.672  14.677  1.5461  0.5815  0.4504
 8204SOL    HW236075   2.259   0.691  14.809  0.7354 -0.0845 -0.5996
 8205SOL     OW36076   2.166   0.967   2.737 -0.6224 -0.0578  0.2604
 8205SOL    HW136077   2.102   0.900   2.711 -2.7186  1.7504  0.7313
 8205SOL    HW236078   2.169   1.019   2.657 -1.0648  0.9364  0.8913
 8206SOL     OW36079   0.469   2.107   8.021 -0.1814  0.1260  0.6202
 8206SOL    HW136080   0.498   2.139   7.935 -1.4564  0.6532  0.3929
 8206SOL    HW236081   0.389   2.058   8.000  0.7365 -0.4176 -1.5688
 8207SOL     OW36082   2.347   2.872   9.049 -0.3665 -0.1130  0.1748
 8207SOL    HW136083   2.393   2.935   9.104 -1.5187  1.0325 -0.1829
 8207SOL    HW236084   2.258   2.905   9.054 -0.2343  0.2445  0.1952
 8208SOL     OW36085   0.669   4.471   3.994 -0.2035  0.3382 -0.3227
 8208SOL    HW136086   0.603   4.503   3.932 -0.2366  0.5066 -0.2009
 8208SOL    HW236087   0.729   4.545   3.986 -0.7394  0.9360  1.2022
 8209SOL     OW36088   2.053   3.801   0.921 -0.0729  0.2518  0.2218
 8209SOL    HW136089   2.066   3.762   1.007 -2.5797  0.6018  0.7688
 8209SOL    HW236090   2.101   3.744   0.861 -1.2264  0.6210 -1.0803
 8210SOL     OW36091   2.077   4.139  15.460 -0.0200  0.3501 -0.1735
 8210SOL    HW136092   2.038   4.171  15.379  1.9851  2.9622 -0.1177
 8210SOL    HW236093   2.034   4.202  15.518  2.3692  0.0918  1.8624
 8211SOL     OW36094   1.604   3.555   4.038 -0.2472  0.4625 -0.2566
 8211SOL    HW136095   1.675   3.618   4.020 -0.8732  1.0644 -0.6195
 8211SOL    HW236096   1.551   3.599   4.104 -0.9389 -0.1762 -0.3876
 8212SOL     OW36097   2.831   4.709   8.267  0.5970 -0.0067  0.0206
 8212SOL    HW136098   2.795   0.073   8.286  1.1571 -0.0689  1.4219
 8212SOL    HW236099   2.837   4.670   8.354 -1.8237  0.0136  0.1766
 8213SOL     OW36100   4.683   2.541   6.569 -0.1779 -0.0025  0.0983
 8213SOL    HW136101   4.598   2.537   6.613 -0.7307 -0.1327 -0.9865
 8213SOL    HW236102   4.707   2.633   6.572 -1.1250  0.2289  0.4073
 8214SOL     OW36103   3.260   4.645   3.361  0.3871 -0.0352  0.1609
 8214SOL    HW136104   3.285   4.659   3.453  2.1627 -0.5835 -0.2333
 8214SOL    HW236105   3.250   0.008   3.320 -2.8133 -1.3318 -1.7129
 8215SOL     OW36106   1.597   0.340  10.893  0.7883 -0.4179 -0.9863
 8215SOL    HW136107   1.619   0.322  10.985 -0.0482 -0.4825 -0.7944
 8215SOL    HW236108   1.668   0.290  10.855  1.0179 -1.5046  0.8456
 8216SOL     OW36109   1.773   3.940  15.213 -0.1912  0.3442  0.1170
 8216SOL    HW136110   1.855   3.987  15.225 -0.2482  0.7733 -1.2292
 8216SOL    HW236111   1.725   4.010  15.169 -0.0711  0.0551 -0.4655
 8217SOL     OW36112   0.366   3.930   4.832  0.5395 -0.1672  0.2663
 8217SOL    HW136113   0.277   3.920   4.797  1.1389 -3.3474 -0.3154
 8217SOL    HW236114   0.373   4.017   4.871  0.2600  0.6274 -1.4674
 8218SOL     OW36115   4.467   4.654  17.369 -0.2460  0.2841 -0.3751
 8218SOL    HW136116   4.426   4.601  17.301  0.9419  0.4609 -1.2363
 8218SOL    HW236117   4.554   4.645  17.331  0.6022  1.1978  1.3229
 8219SOL     OW36118   1.101   1.167   3.772 -0.4675  0.6355 -0.2546
 8219SOL    HW136119   1.092   1.172   3.677 -1.0906  1.2552 -0.1551
 8219SOL    HW236120   1.079   1.255   3.802  0.2130 -0.2684  2.8626
 8220SOL     OW36121   3.084   3.897   8.526  0.2610 -0.3046  0.2476
 8220SOL    HW136122   3.148   3.960   8.493  1.2094 -1.0596  0.6411
 8220SOL    HW236123   3.003   3.929   8.488  0.5555 -0.8475 -0.8283
 8221SOL     OW36124   4.419   2.546   7.901  0.1899 -0.1201 -0.4166
 8221SOL    HW136125   4.328   2.555   7.873  0.2859 -0.9012 -0.9916
 8221SOL    HW236126   4.414   2.564   7.995 -1.2135  3.1679 -1.1316
 8222SOL     OW36127   2.394   1.040   2.213 -0.5066  0.0489 -0.4946
 8222SOL    HW136128   2.441   1.122   2.206 -1.3393  0.6265  0.5848
 8222SOL    HW236129   2.444   0.983   2.154 -1.6225 -3.1386  1.6150
 8223SOL     OW36130   2.220   3.159   5.715 -0.4401 -0.5921 -0.5316
 8223SOL    HW136131   2.316   3.158   5.715 -0.4113  1.3581  1.2056
 8223SOL    HW236132   2.196   3.109   5.792 -0.7384  2.9731  1.7084
 8224SOL     OW36133   1.382   4.051   5.498  0.2940 -0.4399 -0.3960
 8224SOL    HW136134   1.334   4.003   5.431 -0.4446  0.0868 -0.2476
 8224SOL    HW236135   1.359   4.140   5.471 -2.7277 -1.0842  0.0586
 8225SOL     OW36136   2.778   1.748   3.565  0.6091  0.5046  0.0307
 8225SOL    HW136137   2.733   1.736   3.649  3.0747 -0.1412  1.2416
 8225SOL    HW236138   2.855   1.692   3.569 -0.1919 -0.4901  1.6349
 8226SOL     OW36139   2.105   3.800   7.882  0.3739  0.4488 -0.1936
 8226SOL    HW136140   2.150   3.881   7.858 -0.3268  0.8916 -0.0151
 8226SOL    HW236141   2.040   3.785   7.812  2.7589 -0.6291 -2.1828
 8227SOL     OW36142   3.935   2.096  13.444 -0.1785 -0.6724  0.1891
 8227SOL    HW136143   3.870   2.050  13.496 -0.6168 -1.4156 -1.0092
 8227SOL    HW236144   3.911   2.188  13.456 -2.5337 -1.2509 -0.0681
 8228SOL     OW36145   2.674   4.702   5.479  0.2278 -0.5283  0.0198
 8228SOL    HW136146   2.665   0.064   5.435 -0.4135 -0.4513  0.2994
 8228SOL    HW236147   2.624   4.651   5.416  0.4506 -1.2818  0.4492
 8229SOL     OW36148   4.041   2.007   3.823 -0.4152 -0.0217  0.1896
 8229SOL    HW136149   4.118   2.037   3.872 -0.5456 -1.1336  1.0718
 8229SOL    HW236150   4.051   1.914   3.840 -2.1009 -0.2799 -0.2030
 8230SOL     OW36151   0.503   2.688  13.291 -0.4543  1.1412  0.5131
 8230SOL    HW136152   0.409   2.674  13.287  0.2648 -3.8072  0.4396
 8230SOL    HW236153   0.505   2.759  13.355  0.4505 -0.4365  2.2332
 8231SOL     OW36154   3.217   2.423   1.478 -0.6686 -0.5002 -0.7933
 8231SOL    HW136155   3.186   2.342   1.439 -1.3177 -1.3567  1.5333
 8231SOL    HW236156   3.141   2.478   1.497 -1.3132 -1.8341  0.4851
 8232SOL     OW36157   0.680   2.340   6.978  0.0253 -0.5236 -0.0235
 8232SOL    HW136158   0.735   2.262   6.975 -0.5475 -0.9650  0.9337
 8232SOL    HW236159   0.662   2.346   6.884  0.4125  0.5687 -0.0298
 8233SOL     OW36160   2.163   1.332   4.054 -0.3373 -0.8216  0.4166
 8233SOL    HW136161   2.225   1.314   3.982  0.2500  1.9450  0.2026
 8233SOL    HW236162   2.099   1.380   4.002  1.8238  1.8205  0.1879
 8234SOL     OW36163   3.878   2.800   3.022 -0.2939  0.0100 -0.3836
 8234SOL    HW136164   3.960   2.840   3.051 -0.6246 -1.5032  2.7195
 8234SOL    HW236165   3.834   2.877   2.986  0.3526  1.4234  1.8712
 8235SOL     OW36166   4.398   0.289   9.424  0.6651  0.4726 -0.5895
 8235SOL    HW136167   4.478   0.290   9.372  0.9931  2.0156 -0.0430
 8235SOL    HW236168   4.448   0.289   9.506 -2.0991  1.3567  1.0959
 8236SOL     OW36169   2.000   0.061   1.183 -0.4323 -0.0405  0.1025
 8236SOL    HW136170   2.083   0.085   1.224  0.4123  0.1971 -1.7630
 8236SOL    HW236171   1.997   4.688   1.192 -0.8266  0.0555  1.0051
 8237SOL     OW36172   2.133   2.844   7.624  0.1015  0.2516  0.3245
 8237SOL    HW136173   2.061   2.898   7.658 -0.5205 -1.7756  2.2365
 8237SOL    HW236174   2.181   2.810   7.700  0.5960 -1.7128 -0.8843
 8238SOL     OW36175   4.318   4.441   6.499  0.7631  0.6252 -0.0589
 8238SOL    HW136176   4.391   4.468   6.443 -1.5278  0.1607 -3.2560
 8238SOL    HW236177   4.357   4.419   6.584  2.9262 -0.2648 -1.2749
 8239SOL     OW36178   2.923   4.105   9.262  0.2494  0.2276 -0.7868
 8239SOL    HW136179   2.982   4.180   9.264 -1.0101  1.1890 -0.5487
 8239SOL    HW236180   2.983   4.046   9.216  1.6460  0.8186  0.2801
 8240SOL     OW36181   2.612   4.094   9.504  0.2258 -0.2215 -0.0823
 8240SOL    HW136182   2.565   4.068   9.584 -0.6205  1.1223 -0.1543
 8240SOL    HW236183   2.685   4.032   9.498  2.0930  2.0759 -1.0358
 8241SOL     OW36184   4.513   0.223   6.850 -0.5749 -0.2580 -0.2483
 8241SOL    HW136185   4.476   0.136   6.862 -0.4353 -0.2307  0.3842
 8241SOL    HW236186   4.601   0.196   6.874 -1.2280 -1.4527  0.8175
 8242SOL     OW36187   3.077   4.448   5.622 -0.1502  0.1010  0.6517
 8242SOL    HW136188   3.105   4.422   5.535 -0.8888  0.4434  0.3148
 8242SOL    HW236189   3.036   4.532   5.604  0.1312 -0.5736 -3.0420
 8243SOL     OW36190   2.267   4.590   3.209  0.2407 -0.8493  0.5227
 8243SOL    HW136191   2.224   4.641   3.140 -1.4316 -0.5835  1.7652
 8243SOL    HW236192   2.251   4.502   3.175 -1.7848 -0.2370 -0.0663
 8244SOL     OW36193   1.095   2.642  12.070  0.4717  0.0952  0.1104
 8244SOL    HW136194   1.124   2.714  12.125  0.8662 -0.9248  1.2376
 8244SOL    HW236195   1.001   2.649  12.085  0.3285  1.6558 -1.5366
 8245SOL     OW36196   4.118   3.591   9.697 -0.2506 -0.6797 -0.0299
 8245SOL    HW136197   4.110   3.673   9.747  0.0304 -0.4805 -0.3126
 8245SOL    HW236198   4.212   3.576   9.713 -0.6545 -1.3336  1.7825
 8246SOL     OW36199   3.950   4.005  12.918  0.2617 -0.1012  0.2147
 8246SOL    HW136200   3.906   4.072  12.865  0.8024 -0.7515 -1.0496
 8246SOL    HW236201   4.038   4.034  12.896  0.5048 -0.5252  0.6304
 8247SOL     OW36202   4.186   2.832   3.744  0.0534  0.0839 -0.2058
 8247SOL    HW136203   4.112   2.877   3.785  0.5971 -0.6814  1.6159
 8247SOL    HW236204   4.148   2.805   3.660 -0.2825 -0.0403 -0.0156
 8248SOL     OW36205   3.543   0.791   3.713 -0.5034  0.3817 -0.2870
 8248SOL    HW136206   3.463   0.822   3.671 -0.2891  2.3830  0.7672
 8248SOL    HW236207   3.595   0.775   3.634  1.4545 -0.3346  1.1444
 8249SOL     OW36208   3.185   0.986   7.051 -0.0636 -0.1421 -0.1124
 8249SOL    HW136209   3.115   1.039   7.088  0.3540  0.6399 -0.4213
 8249SOL    HW236210   3.160   0.994   6.959 -2.1054  1.3511  0.5616
 8250SOL     OW36211   3.571   1.294   8.977 -0.0077  0.1593  0.1786
 8250SOL    HW136212   3.490   1.323   9.018 -0.4088 -0.8409  0.0847
 8250SOL    HW236213   3.639   1.311   9.042  0.8777  1.5552 -1.0900
 8251SOL     OW36214   1.913   3.954  10.055 -0.0031  0.4384 -0.2224
 8251SOL    HW136215   1.895   3.887  10.121  0.2615  1.1677  0.5943
 8251SOL    HW236216   1.920   4.034  10.108  1.3654  1.5599 -2.1058
 8252SOL     OW36217   4.162   1.406   3.992  0.4467  0.2151  0.1298
 8252SOL    HW136218   4.226   1.449   4.049 -0.6458  1.6650  0.2637
 8252SOL    HW236219   4.138   1.329   4.043 -0.5392 -0.5692 -1.5127
 8253SOL     OW36220   1.053   3.065   8.617  0.0695 -0.3050  0.8414
 8253SOL    HW136221   1.042   3.080   8.711 -1.0543  3.2608  0.1312
 8253SOL    HW236222   1.148   3.058   8.618  0.0524 -0.7618 -0.4998
 8254SOL     OW36223   1.345   2.666   5.448  0.0582 -1.1124 -0.5317
 8254SOL    HW136224   1.387   2.691   5.530 -0.4737 -1.8448 -0.0358
 8254SOL    HW236225   1.255   2.684   5.477 -0.2510 -0.5175 -1.8222
 8255SOL     OW36226   3.556   2.113   6.373 -0.1437 -0.1452  0.0554
 8255SOL    HW136227   3.476   2.071   6.406 -1.2658  0.7087 -1.5770
 8255SOL    HW236228   3.519   2.174   6.309  1.6403 -0.0767 -0.8955
 8256SOL     OW36229   2.094   2.926   9.300 -0.4043  0.3948 -0.2185
 8256SOL    HW136230   2.146   2.861   9.346 -1.8315 -0.8444 -0.3243
 8256SOL    HW236231   2.038   2.959   9.370  0.0141  0.6578 -0.0081
 8257SOL     OW36232   0.838   0.623   5.037  0.1568 -0.0402 -0.3361
 8257SOL    HW136233   0.875   0.703   5.075 -1.8548  0.8371 -0.2245
 8257SOL    HW236234   0.777   0.663   4.976 -0.4233  0.2173  0.4114
 8258SOL     OW36235   0.557   0.975  11.352  0.3841  0.1257  0.6726
 8258SOL    HW136236   0.470   0.947  11.321  1.5868 -2.8373 -0.0357
 8258SOL    HW236237   0.588   0.914  11.419 -0.5344  0.4095  1.3610
 8259SOL     OW36238   3.183   2.892   8.937  0.6189  0.0499 -0.1854
 8259SOL    HW136239   3.129   2.965   8.966 -1.2292 -2.0039  1.5456
 8259SOL    HW236240   3.141   2.857   8.859 -0.5140 -3.7899  2.1367
 8260SOL     OW36241   4.645   1.817   0.420 -0.4095  0.1080  0.1350
 8260SOL    HW136242   4.682   1.772   0.344 -1.1181 -0.3724  0.0768
 8260SOL    HW236243   4.711   1.882   0.446 -0.6278  0.6406 -0.6459
 8261SOL     OW36244   0.676   3.020   3.396 -0.3199  0.2519  0.5303
 8261SOL    HW136245   0.681   3.036   3.491 -0.4382  1.1408  0.3889
 8261SOL    HW236246   0.618   2.945   3.408  0.5823 -0.1729  2.3183
 8262SOL     OW36247   2.986   0.781   5.992  0.1380 -0.3114 -0.3528
 8262SOL    HW136248   3.040   0.730   5.932  1.0194  0.7681 -0.4610
 8262SOL    HW236249   2.935   0.716   6.041 -1.4931  1.8612  0.8635
 8263SOL     OW36250   1.231   4.660   5.282  0.0480 -0.3185 -0.1455
 8263SOL    HW136251   1.194   4.717   5.349  0.4671 -1.5850  1.1492
 8263SOL    HW236252   1.262   4.722   5.216 -0.3121  0.0366  0.0206
 8264SOL     OW36253   4.229   1.535   9.077  1.1097 -0.3167  0.0529
 8264SOL    HW136254   4.271   1.582   9.149 -0.9701  0.5317  0.6879
 8264SOL    HW236255   4.295   1.549   9.009  1.5422  0.1588  0.5651
 8265SOL     OW36256   1.301   1.526   1.009 -0.2862 -0.6033 -0.5525
 8265SOL    HW136257   1.248   1.454   1.043 -0.6548 -0.6496 -1.2292
 8265SOL    HW236258   1.366   1.472   0.964 -0.4581 -1.5486  0.3312
 8266SOL     OW36259   0.481   4.656  13.273 -0.1123 -0.4428 -0.2155
 8266SOL    HW136260   0.441   0.008  13.228 -1.1679 -1.1510 -0.4321
 8266SOL    HW236261   0.572   4.684  13.286 -0.1208 -1.1154  1.2653
 8267SOL     OW36262   3.486   1.589   1.006  0.2508 -0.0893 -0.3399
 8267SOL    HW136263   3.393   1.567   1.005  0.3946 -0.6747 -0.6268
 8267SOL    HW236264   3.520   1.518   0.951 -0.5277  1.3748 -2.6957
 8268SOL     OW36265   1.043   2.527   6.542 -0.4665 -0.2945 -0.1784
 8268SOL    HW136266   1.024   2.433   6.544  0.7429 -0.5012  1.8296
 8268SOL    HW236267   1.091   2.537   6.624  1.0162 -0.0833 -1.0805
 8269SOL     OW36268   0.385   2.957   5.682 -0.4351 -0.5602  0.1807
 8269SOL    HW136269   0.305   2.990   5.724 -0.1153 -0.9587  1.1127
 8269SOL    HW236270   0.340   2.924   5.604 -1.8239  2.6537 -0.3441
 8270SOL     OW36271   3.460   4.603  14.358  0.1847  0.1555  0.1019
 8270SOL    HW136272   3.475   4.696  14.375 -0.4076  0.6992 -2.4231
 8270SOL    HW236273   3.549   4.571  14.344 -0.3939 -1.5562  0.3737
 8271SOL     OW36274   2.643   3.423   4.032  0.0429  0.4172  0.3809
 8271SOL    HW136275   2.733   3.421   3.998  0.6285  2.0982  1.7926
 8271SOL    HW236276   2.599   3.502   4.002 -0.6757 -0.5610 -1.1577
 8272SOL     OW36277   4.529   4.535  16.794 -0.2341 -0.7534  0.3431
 8272SOL    HW136278   4.571   4.541  16.708  1.2905  1.3269  1.2540
 8272SOL    HW236279   4.488   4.621  16.799  1.1989 -0.0003 -0.7997
 8273SOL     OW36280   3.704   3.018   8.690  0.2741  0.8679 -0.1203
 8273SOL    HW136281   3.642   3.066   8.746  0.7752  0.8879  0.4123
 8273SOL    HW236282   3.758   3.090   8.657 -1.1546  1.6969 -0.6691
 8274SOL     OW36283   1.068   4.195  12.229  0.1672 -0.2619  0.1001
 8274SOL    HW136284   1.112   4.124  12.182  2.6197  1.1103  0.3169
 8274SOL    HW236285   1.000   4.146  12.275  1.2829 -0.6889  1.3418
 8275SOL     OW36286   1.691   0.347   7.258 -0.1925  0.8170 -0.4441
 8275SOL    HW136287   1.621   0.383   7.314  0.8243  0.2544  1.1987
 8275SOL    HW236288   1.771   0.383   7.295  0.3343 -0.3724 -0.4407
 8276SOL     OW36289   2.315   2.341   8.714 -0.2997 -0.3860 -0.5429
 8276SOL    HW136290   2.347   2.428   8.689 -1.8009 -0.2867 -2.1300
 8276SOL    HW236291   2.250   2.319   8.647  0.2037 -0.4065 -1.0302
 8277SOL     OW36292   0.898   4.616   1.503 -0.3079 -0.3683 -0.1155
 8277SOL    HW136293   0.804   4.633   1.493 -0.9146 -2.2166  2.2218
 8277SOL    HW236294   0.910   4.635   1.596 -0.5713 -0.2799 -0.0972
 8278SOL     OW36295   2.081   4.545   1.342  0.1063  0.1388 -0.3499
 8278SOL    HW136296   2.122   4.463   1.368 -1.2321 -0.7639 -1.1209
 8278SOL    HW236297   2.100   4.559   1.249  0.9256  0.8273 -0.0794
 8279SOL     OW36298   2.810   2.359  16.761  0.0157 -1.0877 -0.6124
 8279SOL    HW136299   2.743   2.329  16.822 -0.4586 -0.4301 -0.8092
 8279SOL    HW236300   2.789   2.286  16.703  0.2989 -1.0554 -0.7550
 8280SOL     OW36301   0.919   3.398   9.124  0.3686  0.6209  0.7413
 8280SOL    HW136302   0.930   3.479   9.173  2.6832  0.6639  0.1516
 8280SOL    HW236303   1.011   3.375   9.109  0.3225 -1.8122  4.0417
 8281SOL     OW36304   1.499   4.553   8.043 -0.3119 -0.2980 -0.6168
 8281SOL    HW136305   1.576   4.515   8.000 -0.6096 -0.8981 -0.6244
 8281SOL    HW236306   1.553   4.616   8.091  1.5897 -3.4495  1.4910
 8282SOL     OW36307   3.654   3.853   6.169  0.2655  0.3585  0.0252
 8282SOL    HW136308   3.745   3.831   6.146 -0.3072 -1.4473 -0.4686
 8282SOL    HW236309   3.662   3.943   6.137 -0.0865  0.3811  0.0106
 8283SOL     OW36310   0.744   0.376  17.513 -0.2751  0.1695 -0.3835
 8283SOL    HW136311   0.802   0.339  17.580 -0.3497  1.2283  0.2638
 8283SOL    HW236312   0.733   0.308  17.446  0.0385  0.1824 -0.4475
 8284SOL     OW36313   2.581   2.178   9.455 -0.3394 -0.4286 -0.0050
 8284SOL    HW136314   2.588   2.232   9.534 -0.0645  0.9589 -0.9840
 8284SOL    HW236315   2.658   2.121   9.460  0.3269  0.5020  0.3268
 8285SOL     OW36316   4.030   3.319   2.294 -0.1777 -0.5782 -0.2649
 8285SOL    HW136317   4.102   3.382   2.290  0.0121 -0.9422 -3.0396
 8285SOL    HW236318   3.968   3.379   2.336 -1.5352  0.2946 -3.4907
 8286SOL     OW36319   0.294   0.195  14.429  0.4643  0.3000  0.1680
 8286SOL    HW136320   0.327   0.109  14.403  2.5047  1.9306 -2.5854
 8286SOL    HW236321   0.231   0.220  14.362  1.4931  0.7076 -0.6376
 8287SOL     OW36322   1.788   1.215  15.979 -0.0645  0.4698  0.0613
 8287SOL    HW136323   1.858   1.262  16.024  0.2552 -0.2297  0.2952
 8287SOL    HW236324   1.718   1.281  15.980  0.5469  1.1366 -1.3708
 8288SOL     OW36325   4.091   2.452   3.709 -1.1193  0.1484 -0.0223
 8288SOL    HW136326   4.031   2.468   3.782 -1.7929  1.1586 -0.8072
 8288SOL    HW236327   4.046   2.377   3.670  2.0392 -2.0815  0.6280
 8289SOL     OW36328   2.175   1.153   3.339  0.0194 -0.1749 -0.6478
 8289SOL    HW136329   2.145   1.148   3.248 -3.3036  0.4016  0.3846
 8289SOL    HW236330   2.262   1.192   3.336  0.5166 -1.3181 -1.1563
 8290SOL     OW36331   0.746   4.104   7.613 -0.4213 -0.0873 -0.5091
 8290SOL    HW136332   0.756   4.193   7.580  5.0023 -0.6747 -0.3250
 8290SOL    HW236333   0.708   4.066   7.534  2.1737 -0.8761 -1.3569
 8291SOL     OW36334   1.270   2.242   2.679 -0.6905 -0.2583  0.5369
 8291SOL    HW136335   1.349   2.287   2.710 -0.5172  1.2904 -2.0834
 8291SOL    HW236336   1.245   2.192   2.756  1.4476 -2.3392 -0.1291
 8292SOL     OW36337   1.725   1.974   4.099 -0.6277  0.1787 -0.2984
 8292SOL    HW136338   1.772   2.047   4.140 -1.0564 -0.6305  1.6219
 8292SOL    HW236339   1.774   1.964   4.017 -1.0281 -1.1503 -0.3785
 8293SOL     OW36340   0.704   2.740  13.922  0.2189  0.7580 -0.2706
 8293SOL    HW136341   0.722   2.834  13.929 -0.4589  1.0091 -1.7697
 8293SOL    HW236342   0.773   2.717  13.859 -0.9400  0.3600 -1.4047
 8294SOL     OW36343   3.226   2.077   0.352  0.1940  0.3655  0.4531
 8294SOL    HW136344   3.147   2.090   0.300  1.0058  2.1315 -0.3430
 8294SOL    HW236345   3.249   2.163   0.388  0.3333  1.1894 -1.6076
 8295SOL     OW36346   0.066   3.372  13.811  0.2209  0.3415  0.3886
 8295SOL    HW136347   0.147   3.406  13.771  0.0883 -0.4232 -0.5285
 8295SOL    HW236348   0.036   3.331  13.730  1.6666  0.7693 -0.3627
 8296SOL     OW36349   1.266   4.612   3.372 -0.1392  0.4664 -0.1835
 8296SOL    HW136350   1.271   4.648   3.461  0.9109 -1.9610  0.7593
 8296SOL    HW236351   1.347   4.654   3.343 -0.6772 -0.8503 -3.5255
 8297SOL     OW36352   3.307   0.095  13.716  0.2928  0.1109 -0.4079
 8297SOL    HW136353   3.332   0.010  13.679 -0.6854 -0.4382  0.2082
 8297SOL    HW236354   3.227   0.110  13.666  0.3620  3.3749  0.4258
 8298SOL     OW36355   4.607   0.196   5.913  0.8237 -0.3779 -0.1283
 8298SOL    HW136356   4.543   0.216   5.844  1.5956  1.6324 -0.2518
 8298SOL    HW236357   4.631   0.286   5.930  1.3516 -0.0728 -2.5100
 8299SOL     OW36358   2.209   0.254   5.687  0.2614 -1.0826 -0.2910
 8299SOL    HW136359   2.135   0.233   5.630 -0.6086 -0.8919  0.7778
 8299SOL    HW236360   2.248   0.324   5.634  0.7422 -1.4103 -0.3677
 8300SOL     OW36361   0.230   1.821   8.227 -0.2228 -0.2802  0.0488
 8300SOL    HW136362   0.236   1.910   8.191  2.3181  0.4152  2.2039
 8300SOL    HW236363   0.309   1.778   8.193 -1.2826 -1.8474 -0.3947
 8301SOL     OW36364   2.597   3.949   7.189 -0.1633  0.2806 -0.1468
 8301SOL    HW136365   2.549   3.903   7.258  0.5033 -2.1110 -1.2622
 8301SOL    HW236366   2.550   4.031   7.196 -3.2345 -1.6362  1.6114
 8302SOL     OW36367   0.040   2.114   0.272  0.2048  0.7973 -0.3085
 8302SOL    HW136368   0.021   2.203   0.302 -0.9920  0.2201  0.6349
 8302SOL    HW236369   0.073   2.076   0.353  0.8409  0.3316 -0.7874
 8303SOL     OW36370   2.684   0.571  10.922 -0.1902 -0.1225  0.6729
 8303SOL    HW136371   2.691   0.576  11.018  0.5537 -0.8374  0.6615
 8303SOL    HW236372   2.593   0.542  10.922 -0.5689  1.0840  1.5603
 8304SOL     OW36373   3.043   3.942   3.285 -0.3841 -0.6338 -0.3092
 8304SOL    HW136374   3.054   3.872   3.220 -0.7494 -0.2643 -0.7712
 8304SOL    HW236375   3.088   4.017   3.246 -0.8269  0.3773  1.1642
 8305SOL     OW36376   2.860   4.598   8.510  0.2027 -0.1925 -0.2113
 8305SOL    HW136377   2.938   4.639   8.549 -1.2751  1.3325  1.1428
 8305SOL    HW236378   2.854   4.521   8.567  0.4878  0.7350  1.0712
 8306SOL     OW36379   2.600   4.440  13.628  0.2931  0.2085 -0.5445
 8306SOL    HW136380   2.641   4.436  13.714  1.1322 -1.7808 -1.0147
 8306SOL    HW236381   2.526   4.381  13.645  0.0399  1.1091  1.3986
 8307SOL     OW36382   1.617   2.552  11.774  0.2455 -0.5344  0.0554
 8307SOL    HW136383   1.580   2.464  11.760 -0.2558 -0.2441 -0.4135
 8307SOL    HW236384   1.539   2.600  11.747 -0.2632 -0.6744  1.2582
 8308SOL     OW36385   0.260   1.424   5.720 -0.1657  0.2482 -1.0143
 8308SOL    HW136386   0.253   1.377   5.803  0.3403 -2.0957 -2.2977
 8308SOL    HW236387   0.228   1.356   5.661 -0.4937 -0.0126 -0.5362
 8309SOL     OW36388   2.202   0.371   7.060  0.3135 -0.6189  0.1974
 8309SOL    HW136389   2.231   0.452   7.102  0.8899  0.2542 -1.8423
 8309SOL    HW236390   2.286   0.346   7.021  0.5929  0.8973 -0.1561
 8310SOL     OW36391   2.578   4.584  10.549  0.3232 -0.3395 -0.1402
 8310SOL    HW136392   2.589   4.630  10.465  0.1087  0.0164  0.0260
 8310SOL    HW236393   2.630   4.639  10.607 -1.5243  2.9103 -1.4853
 8311SOL     OW36394   2.904   3.288   3.887 -0.1480 -0.4853  0.2444
 8311SOL    HW136395   2.971   3.273   3.820 -0.6096 -1.4773  0.0101
 8311SOL    HW236396   2.935   3.233   3.959  0.5813 -1.2873 -0.6824
 8312SOL     OW36397   1.391   3.217  14.946  0.5691  0.1623  0.0735
 8312SOL    HW136398   1.315   3.161  14.928 -0.8510  1.4848  1.9927
 8312SOL    HW236399   1.465   3.158  14.928  0.6338  0.4511 -0.5876
 8313SOL     OW36400   1.976   2.757  15.327 -0.1399  0.1320 -0.1362
 8313SOL    HW136401   1.947   2.839  15.288 -0.0352 -1.6234 -4.0341
 8313SOL    HW236402   2.070   2.762  15.309  0.7893 -0.7641  4.4826
 8314SOL     OW36403   0.477   2.848   2.507 -0.5904 -0.0056 -0.0509
 8314SOL    HW136404   0.384   2.827   2.496 -0.6446  0.0572  0.2764
 8314SOL    HW236405   0.518   2.801   2.434 -0.2672 -0.6167  0.5252
 8315SOL     OW36406   4.386   2.977   9.755 -0.6372  0.8809 -0.1683
 8315SOL    HW136407   4.444   3.012   9.688  1.2082  0.5886  1.2706
 8315SOL    HW236408   4.326   3.049   9.776  0.4466  0.9319  2.7939
 8316SOL     OW36409   1.742   1.009   7.503  0.1488  0.3838 -0.2735
 8316SOL    HW136410   1.766   1.101   7.514 -3.4422  1.2077  0.3889
 8316SOL    HW236411   1.668   1.009   7.443  0.6513 -0.3602 -0.8967
 8317SOL     OW36412   1.696   2.681   6.026  0.2780  0.3020  0.1486
 8317SOL    HW136413   1.744   2.607   5.990  0.2673 -0.0712  0.8991
 8317SOL    HW236414   1.741   2.755   5.985  0.4862  0.3594  0.4757
 8318SOL     OW36415   3.919   0.427   9.119 -0.3824  0.1514 -0.0479
 8318SOL    HW136416   3.925   0.413   9.213 -1.2312 -1.9552 -0.3124
 8318SOL    HW236417   3.955   0.516   9.117  0.5193 -0.1736  1.9450
 8319SOL     OW36418   4.663   4.109   8.418 -0.0029 -0.6971 -0.9080
 8319SOL    HW136419   4.655   4.166   8.495  0.5117 -0.7096 -0.8438
 8319SOL    HW236420   4.610   4.037   8.453  0.3895 -0.1694  0.7445
 8320SOL     OW36421   3.338   4.693   4.409  0.5131 -0.6124  0.0150
 8320SOL    HW136422   3.250   4.664   4.433  0.4171  0.0120  0.4316
 8320SOL    HW236423   3.390   4.677   4.488 -0.0028 -0.9040  0.2967
 8321SOL     OW36424   4.189   1.214   3.438 -0.5710  0.2787  0.1768
 8321SOL    HW136425   4.096   1.197   3.427 -0.7397  1.7771 -0.7600
 8321SOL    HW236426   4.185   1.213   3.533  1.3170  1.6066  0.2852
 8322SOL     OW36427   0.821   0.802   4.620  0.0980  0.2305  0.1031
 8322SOL    HW136428   0.822   0.893   4.650  1.1713 -0.4830  2.2596
 8322SOL    HW236429   0.777   0.817   4.537  0.1679 -1.0277 -0.1700
 8323SOL     OW36430   0.591   0.912   3.116  0.0684 -0.1254 -0.5606
 8323SOL    HW136431   0.501   0.895   3.088 -0.2576  0.4719  0.1292
 8323SOL    HW236432   0.579   0.940   3.207  2.3014  3.3366 -1.3352
 8324SOL     OW36433   4.392   3.411   1.063 -0.2150 -0.0103  0.1392
 8324SOL    HW136434   4.438   3.485   1.024 -1.0731 -0.1714 -1.1671
 8324SOL    HW236435   4.354   3.454   1.140 -1.1589  2.6743 -1.8314
 8325SOL     OW36436   2.448   4.194   4.129  0.4306  0.3175  0.1118
 8325SOL    HW136437   2.376   4.183   4.067  0.6015  0.9417 -0.1954
 8325SOL    HW236438   2.414   4.182   4.218  0.3946 -1.2480 -0.1050
 8326SOL     OW36439   3.463   0.012  17.605 -0.1932  0.2541  0.3747
 8326SOL    HW136440   3.554   0.036  17.586 -0.2138  0.2217  0.2310
 8326SOL    HW236441   3.460   4.644  17.573 -0.4135  0.2295  0.4664
 8327SOL     OW36442   1.522   0.304   4.790  0.2092 -0.0999 -0.5495
 8327SOL    HW136443   1.545   0.211   4.791  2.7625  0.5339  0.1540
 8327SOL    HW236444   1.429   0.301   4.768  0.3031  1.4833 -1.1288
 8328SOL     OW36445   2.656   2.041   5.408 -0.0100  0.8568  0.0118
 8328SOL    HW136446   2.603   2.120   5.414 -1.4813 -0.1288  0.1842
 8328SOL    HW236447   2.698   2.040   5.493  0.9234  1.3752 -0.4505
 8329SOL     OW36448   0.043   0.433   6.497  0.2257 -0.3289 -0.4635
 8329SOL    HW136449   0.129   0.455   6.534  0.5520 -0.1476 -1.3111
 8329SOL    HW236450   0.023   0.344   6.524 -1.3882  0.1431 -0.0930
 8330SOL     OW36451   3.873   4.405  14.232  0.8513  0.5434 -0.2332
 8330SOL    HW136452   3.964   4.432  14.218  1.1912 -0.9874 -0.9456
 8330SOL    HW236453   3.849   4.364  14.149 -0.5379  0.6764  0.0997
 8331SOL     OW36454   0.158   2.060   2.348 -0.1040 -0.1230  0.4788
 8331SOL    HW136455   0.105   2.033   2.423 -2.0654 -2.2993 -1.7155
 8331SOL    HW236456   0.242   2.023   2.377  0.3855  0.6285  0.0179
 8332SOL     OW36457   3.520   0.601   6.791  0.2940 -0.5394 -0.2057
 8332SOL    HW136458   3.454   0.669   6.779  0.0753 -0.4420  1.5298
 8332SOL    HW236459   3.487   0.548   6.863  0.8485  0.2349  0.6138
 8333SOL     OW36460   4.415   2.482  17.132 -0.1853 -0.1281  0.4215
 8333SOL    HW136461   4.398   2.445  17.045 -0.3505 -3.1717  1.7531
 8333SOL    HW236462   4.408   2.408  17.192 -0.0097  1.2212  2.0708
 8334SOL     OW36463   3.653   4.660   7.874  0.1408  0.4565 -0.4770
 8334SOL    HW136464   3.617   4.573   7.891  2.6231 -0.3980  0.3992
 8334SOL    HW236465   3.747   4.648   7.889 -0.0123 -1.2995 -0.8751
 8335SOL     OW36466   4.298   2.049   8.800  0.2284  0.6336 -0.3008
 8335SOL    HW136467   4.280   2.042   8.894 -1.0631 -0.0144 -0.5975
 8335SOL    HW236468   4.386   2.086   8.802  0.0457  1.0545  0.1020
 8336SOL     OW36469   1.433   1.686   6.136  0.8046 -0.2745  0.4426
 8336SOL    HW136470   1.405   1.621   6.201  0.6737  0.0527  0.7105
 8336SOL    HW236471   1.419   1.772   6.176 -1.0790  1.6574 -4.3114
 8337SOL     OW36472   3.225   1.559  17.477 -0.5262  0.2213  0.1160
 8337SOL    HW136473   3.155   1.510  17.520  1.6520 -1.3823  1.7995
 8337SOL    HW236474   3.275   1.490  17.434 -2.3616 -1.7468  1.1043
 8338SOL     OW36475   2.059   4.565  11.250  0.2065 -0.0415 -0.1492
 8338SOL    HW136476   2.020   4.540  11.167  1.4294 -1.7204 -0.2373
 8338SOL    HW236477   2.011   4.504  11.306  1.0626 -0.2996  0.3175
 8339SOL     OW36478   2.419   1.873   7.481  0.2057  0.0725  0.6504
 8339SOL    HW136479   2.325   1.874   7.499  0.3167  2.2846  1.0809
 8339SOL    HW236480   2.448   1.939   7.544 -1.8622  2.2288 -0.6477
 8340SOL     OW36481   3.249   0.555   6.220  0.4588 -0.0048  0.1047
 8340SOL    HW136482   3.205   0.495   6.160 -0.2126  0.3729  0.2191
 8340SOL    HW236483   3.175   0.595   6.266 -1.1060 -3.3622  0.5053
 8341SOL     OW36484   3.887   2.012   8.638  0.0340  0.0872 -0.0726
 8341SOL    HW136485   3.905   1.980   8.549 -2.9473 -0.4066 -0.4974
 8341SOL    HW236486   3.866   2.104   8.623  1.6129  0.4711  0.0337
 8342SOL     OW36487   3.222   2.028  13.133  0.2905 -0.3292 -0.4093
 8342SOL    HW136488   3.240   1.999  13.044 -0.4684 -0.3373 -0.5596
 8342SOL    HW236489   3.224   2.123  13.121 -2.1021 -0.3311 -0.8154
 8343SOL     OW36490   2.080   0.460  11.800  0.4206 -0.0808 -0.0841
 8343SOL    HW136491   2.011   0.427  11.858  0.4637 -0.7093 -0.3889
 8343SOL    HW236492   2.025   0.503  11.734 -0.2941  1.0661  1.2649
 8344SOL     OW36493   2.826   4.635   9.709  0.3976 -1.0919 -0.2971
 8344SOL    HW136494   2.758   4.598   9.766  0.3249  1.5211  1.3450
 8344SOL    HW236495   2.903   4.624   9.765  0.5171  3.0377  0.3812
 8345SOL     OW36496   1.007   3.047   6.672  0.5021  0.1624 -0.4960
 8345SOL    HW136497   0.941   3.083   6.613  0.1232 -0.3644 -0.3943
 8345SOL    HW236498   0.968   2.973   6.719  0.5567 -1.7811 -3.5500
 8346SOL     OW36499   3.245   1.638   6.746  0.3553 -0.1016 -0.0896
 8346SOL    HW136500   3.283   1.605   6.665  0.2923 -1.6330  0.5040
 8346SOL    HW236501   3.200   1.555   6.762  2.9118 -1.1735  1.6483
 8347SOL     OW36502   0.018   1.065  16.977  0.3943  0.0727 -0.6353
 8347SOL    HW136503   0.054   1.000  16.916 -1.6087 -0.8423 -0.8204
 8347SOL    HW236504   0.074   1.139  16.951 -0.5357  0.9873 -0.0239
 8348SOL     OW36505   4.451   3.088   7.022 -0.2694 -0.3479 -0.1065
 8348SOL    HW136506   4.426   3.035   7.097  3.7733  0.1827  1.5813
 8348SOL    HW236507   4.451   3.022   6.952 -0.8949  1.0343 -1.4031
 8349SOL     OW36508   0.870   2.950   7.936 -0.2013 -0.8931 -0.0382
 8349SOL    HW136509   0.864   2.882   8.002 -0.1062  0.7209  1.6431
 8349SOL    HW236510   0.799   2.914   7.884  1.0734 -1.0105 -1.6848
 8350SOL     OW36511   2.348   1.220   4.239 -0.3922  0.1176  0.1688
 8350SOL    HW136512   2.281   1.265   4.187 -1.1176  2.6333  3.2810
 8350SOL    HW236513   2.345   1.134   4.196  1.0036  0.2285 -0.1315
 8351SOL     OW36514   1.947   1.324  14.570 -0.3878 -0.2278  0.2389
 8351SOL    HW136515   2.008   1.328  14.497 -0.7683 -1.9523 -0.1635
 8351SOL    HW236516   1.948   1.233  14.599 -3.5793  0.2595  1.9366
 8352SOL     OW36517   0.785   4.290   1.535  0.4441 -0.0749 -0.2826
 8352SOL    HW136518   0.842   4.315   1.608 -2.2135  1.1984  1.3644
 8352SOL    HW236519   0.831   4.323   1.458  0.8774  1.5021  0.6417
 8353SOL     OW36520   2.995   3.596   5.801 -0.4380  0.3027  0.6014
 8353SOL    HW136521   3.081   3.638   5.793  0.6562 -1.5357  2.5285
 8353SOL    HW236522   3.005   3.534   5.873  2.3813  0.0149 -0.0351
 8354SOL     OW36523   3.717   2.003  13.568  0.4202 -0.1055 -0.4344
 8354SOL    HW136524   3.622   1.993  13.566  0.3577  0.0480  2.3754
 8354SOL    HW236525   3.743   1.934  13.628  0.0892  0.6734  0.6025
 8355SOL     OW36526   2.235   1.689   5.207 -0.2926 -0.2537 -0.4160
 8355SOL    HW136527   2.165   1.675   5.143 -1.1176 -0.5474  0.5589
 8355SOL    HW236528   2.255   1.602   5.240 -0.4776 -0.2427 -0.2761
 8356SOL     OW36529   1.283   0.223   4.538  0.7760 -0.2638 -0.1067
 8356SOL    HW136530   1.214   0.156   4.541 -1.1113  1.6622 -0.2087
 8356SOL    HW236531   1.279   0.268   4.622 -0.2904  2.5117 -1.6452
 8357SOL     OW36532   2.014   3.543  12.326  0.0448 -0.9970 -0.0469
 8357SOL    HW136533   2.057   3.554  12.241  0.8827  0.9443  0.6411
 8357SOL    HW236534   2.092   3.544  12.381  0.5146  0.1790 -0.7413
 8358SOL     OW36535   0.433   4.075   7.072  0.3101  0.1584 -0.6723
 8358SOL    HW136536   0.368   4.074   7.142  1.1734  3.0758  0.1545
 8358SOL    HW236537   0.470   3.986   7.075  0.3978  0.2595  1.4056
 8359SOL     OW36538   1.350   1.227   8.361 -0.3127 -0.6753 -0.1602
 8359SOL    HW136539   1.401   1.155   8.398  1.1294  1.0989  1.2924
 8359SOL    HW236540   1.417   1.288   8.330  0.0502  0.1763  2.2885
 8360SOL     OW36541   1.309   0.608   6.228 -0.0681 -0.0720 -0.4075
 8360SOL    HW136542   1.321   0.543   6.158  3.5448  1.6112 -1.4000
 8360SOL    HW236543   1.363   0.680   6.195  1.9073 -0.9350  0.9483
 8361SOL     OW36544   3.922   4.491  11.704  0.2708  0.4817  0.2427
 8361SOL    HW136545   3.984   4.477  11.632  1.8264  0.3657  1.6159
 8361SOL    HW236546   3.844   4.447  11.669 -0.7656  1.3942  1.4162
 8362SOL     OW36547   1.413   0.252   7.936  0.0035  0.1819  0.0293
 8362SOL    HW136548   1.500   0.272   7.902  0.0245 -0.1132 -0.0955
 8362SOL    HW236549   1.431   0.237   8.029  0.0747 -0.8087 -0.1463
 8363SOL     OW36550   4.515   3.042  17.487  0.2219  0.7521 -0.5381
 8363SOL    HW136551   4.592   3.043  17.429 -0.8816  0.5809 -1.9942
 8363SOL    HW236552   4.462   3.117  17.460  0.7044  2.1161  2.3404
 8364SOL     OW36553   0.667   4.560   1.774  0.4389  0.0880  0.1082
 8364SOL    HW136554   0.632   4.631   1.828  1.5193  0.1104  0.7860
 8364SOL    HW236555   0.672   4.605   1.690  0.1262  1.5541  0.8665
 8365SOL     OW36556   1.064   3.901   6.910  0.5104  0.3885 -0.5790
 8365SOL    HW136557   1.104   3.832   6.858 -0.9380  0.3657 -1.6330
 8365SOL    HW236558   0.991   3.927   6.854 -1.2064  0.9719  1.8954
 8366SOL     OW36559   1.814   0.425  13.992  0.4249  0.2784  0.7344
 8366SOL    HW136560   1.768   0.481  13.930 -1.8474 -3.1765 -0.7195
 8366SOL    HW236561   1.871   0.485  14.040  0.5604  0.5203  0.2661
 8367SOL     OW36562   4.315   0.069   9.659 -0.2722 -0.0087 -0.2979
 8367SOL    HW136563   4.344   0.003   9.723  1.8255  0.1276 -1.1313
 8367SOL    HW236564   4.377   0.138   9.682 -0.1857 -0.6935  1.5570
 8368SOL     OW36565   4.409   0.641   6.409  0.1341 -0.0450  0.0800
 8368SOL    HW136566   4.407   0.549   6.436 -0.5658 -0.5236 -1.5880
 8368SOL    HW236567   4.461   0.685   6.476  0.5700 -0.6857  0.1590
 8369SOL     OW36568   1.665   1.845  16.101 -0.0119 -0.4473 -0.3543
 8369SOL    HW136569   1.589   1.903  16.094 -0.3243 -0.7786  0.2713
 8369SOL    HW236570   1.675   1.813  16.012  0.8332  2.9873 -1.4714
 8370SOL     OW36571   1.544   2.052   8.522  0.4054 -0.1816 -0.4320
 8370SOL    HW136572   1.467   2.008   8.486 -0.9594  0.5629  1.5623
 8370SOL    HW236573   1.541   2.008   8.607 -1.5093 -0.0226 -0.4325
 8371SOL     OW36574   0.695   3.110   1.106 -0.2432  0.6049 -0.5388
 8371SOL    HW136575   0.712   3.136   1.015  1.4845  1.5377  0.0380
 8371SOL    HW236576   0.663   3.198   1.124  0.1183  0.7803 -0.7506
 8372SOL     OW36577   4.531   0.418   1.025 -0.2899 -0.0813 -0.2828
 8372SOL    HW136578   4.585   0.435   0.948  0.7533 -1.1264  0.2146
 8372SOL    HW236579   4.496   0.506   1.039  0.2810 -0.3740  2.9481
 8373SOL     OW36580   0.367   4.322   7.301  0.1546  0.4058 -0.0972
 8373SOL    HW136581   0.322   4.405   7.285 -1.2909 -0.1088  1.3699
 8373SOL    HW236582   0.294   4.270   7.336 -0.8806  0.1867 -2.5439
 8374SOL     OW36583   1.301   3.901  10.037 -0.1753  0.1128  0.2013
 8374SOL    HW136584   1.209   3.905  10.063 -0.1312 -0.2459  0.4081
 8374SOL    HW236585   1.286   3.934   9.948 -0.3364 -0.1327  0.1362
 8375SOL     OW36586   3.917   0.040   7.964  0.1460 -0.8284 -0.8487
 8375SOL    HW136587   3.977   4.699   8.003 -0.7057 -0.5882  0.8560
 8375SOL    HW236588   3.917   0.104   8.036 -1.2818 -2.3458  0.5187
 8376SOL     OW36589   4.454   1.113  12.512 -0.0725 -0.7578 -0.4136
 8376SOL    HW136590   4.532   1.089  12.461 -1.3112 -4.9919 -0.3193
 8376SOL    HW236591   4.475   1.205  12.528  1.9751 -1.2079 -0.4505
 8377SOL     OW36592   2.934   4.648  13.370  0.4426 -0.0074  0.5360
 8377SOL    HW136593   2.947   0.020  13.379 -2.8264  0.2599  2.4786
 8377SOL    HW236594   2.872   4.652  13.297 -0.9976  0.4140  1.7910
 8378SOL     OW36595   3.308   2.029   9.979  0.0370 -0.0183 -0.0745
 8378SOL    HW136596   3.287   1.992   9.893  0.1341  1.8041 -0.8855
 8378SOL    HW236597   3.397   1.995   9.989  0.1374  0.4603  0.6059
 8379SOL     OW36598   0.234   4.295   0.790  0.3829 -0.4919 -0.4525
 8379SOL    HW136599   0.248   4.243   0.869 -0.3252 -0.1267 -0.0883
 8379SOL    HW236600   0.202   4.377   0.827  2.0409  0.0374 -0.1793
 8380SOL     OW36601   3.637   1.887   1.808 -0.0178  0.7464 -0.3353
 8380SOL    HW136602   3.665   1.911   1.720  0.0179  2.4133  0.1373
 8380SOL    HW236603   3.583   1.963   1.830 -0.1206  0.8864 -1.1057
 8381SOL     OW36604   1.780   4.185   3.212 -0.6956 -0.0828  0.4883
 8381SOL    HW136605   1.828   4.148   3.138  0.5396 -0.0707  1.2881
 8381SOL    HW236606   1.768   4.109   3.269  1.5424 -0.1084  0.8956
 8382SOL     OW36607   2.405   3.129   7.422 -0.2058  0.1828 -0.7249
 8382SOL    HW136608   2.346   3.054   7.412 -1.0360  0.3788  2.6911
 8382SOL    HW236609   2.440   3.104   7.508 -1.2480  0.0336 -0.3380
 8383SOL     OW36610   2.685   1.438   1.897 -1.0332  0.4984 -0.5406
 8383SOL    HW136611   2.685   1.400   1.809  0.4175 -1.9519  0.5075
 8383SOL    HW236612   2.744   1.384   1.950 -0.8416  0.9534 -0.2908
 8384SOL     OW36613   1.765   1.234   5.949  0.0006  0.0670  0.3441
 8384SOL    HW136614   1.757   1.283   5.867  0.8536  0.5070  0.5232
 8384SOL    HW236615   1.805   1.301   6.005 -0.2126 -0.5619  1.2598
 8385SOL     OW36616   1.024   3.098   8.361 -0.4751  0.0254 -0.6391
 8385SOL    HW136617   1.087   3.168   8.343 -0.2994 -0.0808 -0.4244
 8385SOL    HW236618   1.025   3.097   8.456 -0.1445  0.6757 -0.6321
 8386SOL     OW36619   0.107   0.812   4.397 -0.1041  0.2929 -0.3940
 8386SOL    HW136620   0.021   0.810   4.440  1.2807  0.8203  2.3694
 8386SOL    HW236621   0.162   0.852   4.464 -0.9968 -0.3271  0.7161
 8387SOL     OW36622   0.402   2.825   2.081 -0.3044  0.2089 -0.6058
 8387SOL    HW136623   0.479   2.780   2.117  0.7890  0.5915 -2.4424
 8387SOL    HW236624   0.429   2.894   2.020  1.6335 -0.2986 -0.3303
 8388SOL     OW36625   0.459   2.903   4.915  0.8061  0.7753  0.4302
 8388SOL    HW136626   0.398   2.976   4.912 -0.7922 -0.5226  0.8208
 8388SOL    HW236627   0.538   2.950   4.943  1.3068  0.4412 -0.4414
 8389SOL     OW36628   4.673   3.403   4.580 -0.0108 -0.1487  0.3770
 8389SOL    HW136629   4.589   3.448   4.568  0.9971  1.5815 -0.2642
 8389SOL    HW236630   4.681   3.390   4.674  0.0809  0.0413  0.3938
 8390SOL     OW36631   3.948   3.988   6.991  0.3489 -0.4790 -0.0695
 8390SOL    HW136632   3.937   3.943   7.074 -0.9633 -1.2509 -0.6572
 8390SOL    HW236633   3.951   3.914   6.930 -0.2879 -1.0695  0.6070
 8391SOL     OW36634   3.623   4.306   3.579  0.4453 -0.1136 -0.1891
 8391SOL    HW136635   3.552   4.250   3.547 -2.1214  1.9674  1.8146
 8391SOL    HW236636   3.611   4.315   3.674 -0.7908 -0.6091 -0.2904
 8392SOL     OW36637   3.624   0.805   9.036  0.3487 -0.4199  0.1428
 8392SOL    HW136638   3.558   0.862   8.998  0.0393  0.5388  2.0986
 8392SOL    HW236639   3.706   0.842   9.002 -0.5910  1.3157 -0.2223
 8393SOL     OW36640   1.117   4.421   1.822 -0.0288 -0.0567  0.2799
 8393SOL    HW136641   1.065   4.348   1.788  0.9798 -0.7259  0.1563
 8393SOL    HW236642   1.177   4.434   1.749 -0.0944  2.6730  0.7095
 8394SOL     OW36643   4.209   3.897   2.724  0.2357 -0.3574 -0.2174
 8394SOL    HW136644   4.191   3.908   2.818 -0.6532 -1.1371 -0.2896
 8394SOL    HW236645   4.116   3.886   2.703  0.0985 -0.2315  0.3011
 8395SOL     OW36646   3.843   3.726   7.862 -0.1226  0.0283  0.6534
 8395SOL    HW136647   3.888   3.661   7.917 -0.3627 -0.7234 -0.0316
 8395SOL    HW236648   3.848   3.673   7.782 -2.7770  0.6890  0.0606
 8396SOL     OW36649   0.559   3.772   8.728 -0.2249  0.4561 -0.2985
 8396SOL    HW136650   0.525   3.703   8.670  0.1562  0.2439 -0.2702
 8396SOL    HW236651   0.479   3.824   8.719  0.4800  1.1520 -2.5721
 8397SOL     OW36652   0.979   1.700   2.751  0.2447 -0.1044  0.1682
 8397SOL    HW136653   0.989   1.671   2.842 -1.2379 -1.6644 -0.1476
 8397SOL    HW236654   1.009   1.790   2.755  1.4108 -0.5102  0.5908
 8398SOL     OW36655   1.452   0.378  17.239  0.3559 -0.0745 -0.2102
 8398SOL    HW136656   1.521   0.317  17.215  0.6238  1.0113 -2.2555
 8398SOL    HW236657   1.473   0.454  17.184  1.2207  0.3806  0.7507
 8399SOL     OW36658   4.079   3.476   5.055 -0.5399 -0.3968 -0.2240
 8399SOL    HW136659   4.150   3.442   5.001 -0.8980 -1.5294  0.0252
 8399SOL    HW236660   4.086   3.423   5.134  1.4038 -0.4791 -0.4513
 8400SOL     OW36661   0.915   2.421  10.686  0.1412 -0.1477 -0.1641
 8400SOL    HW136662   0.925   2.443  10.778 -1.0615 -0.0528 -0.0581
 8400SOL    HW236663   0.830   2.464  10.675 -0.9537 -2.4820 -0.7483
 8401SOL     OW36664   4.110   3.641  10.013 -0.1719  0.2460 -0.2623
 8401SOL    HW136665   4.142   3.638  10.104 -0.8285 -0.6910 -0.0691
 8401SOL    HW236666   4.114   3.551   9.981 -0.3983  0.1782 -0.0991
 8402SOL     OW36667   2.574   0.964  11.301  0.0913  0.1868 -0.1233
 8402SOL    HW136668   2.629   0.990  11.375  0.8828 -1.1937 -0.2457
 8402SOL    HW236669   2.628   0.976  11.223 -2.1840  1.9536 -1.4425
 8403SOL     OW36670   1.679   4.537   0.222 -0.5273 -0.1634  0.0457
 8403SOL    HW136671   1.597   4.528   0.270  1.1270 -1.7141  2.5974
 8403SOL    HW236672   1.652   4.534   0.130 -1.4257 -0.4979  0.3155
 8404SOL     OW36673   2.467   0.534   8.393  0.8065  0.2721  0.5185
 8404SOL    HW136674   2.481   0.612   8.448 -1.1573  1.6344 -0.9197
 8404SOL    HW236675   2.493   0.561   8.305 -0.0996  2.4044  0.9047
 8405SOL     OW36676   2.025   0.019   8.892 -0.0744  0.9078 -0.2344
 8405SOL    HW136677   2.120   0.030   8.888 -0.2558  3.0354  1.1960
 8405SOL    HW236678   2.004   0.092   8.951  0.4535  0.6988  0.2126
 8406SOL     OW36679   0.069   3.560   5.713 -0.4151  0.2905  0.0194
 8406SOL    HW136680   0.158   3.534   5.738  0.2515 -0.1468 -2.8713
 8406SOL    HW236681   0.063   3.552   5.618  0.8102 -0.6217  0.0168
 8407SOL     OW36682   3.268   0.563  12.980 -0.2883 -0.0488 -0.4585
 8407SOL    HW136683   3.318   0.553  13.060  1.2973  1.5722 -1.2391
 8407SOL    HW236684   3.222   0.479  12.974  1.5884 -1.0624 -0.5591
 8408SOL     OW36685   2.832   4.343   3.296 -0.3032 -0.3474  0.5172
 8408SOL    HW136686   2.927   4.356   3.289 -0.3642 -0.6473 -0.8159
 8408SOL    HW236687   2.811   4.392   3.375  0.1642 -0.7546  0.8966
 8409SOL     OW36688   2.762   1.163   7.042 -0.0464  0.3851 -0.7164
 8409SOL    HW136689   2.684   1.145   6.989 -1.9007  1.3244  1.6595
 8409SOL    HW236690   2.776   1.252   7.010 -0.7480  1.1081  0.9502
 8410SOL     OW36691   4.095   2.428   7.445  0.2308 -0.2508 -0.2055
 8410SOL    HW136692   4.189   2.437   7.429  0.0769  1.2641 -0.2455
 8410SOL    HW236693   4.056   2.474   7.371  0.1180 -0.3929 -0.2334
 8411SOL     OW36694   3.865   1.522   3.289  0.6054  0.0324  0.0896
 8411SOL    HW136695   3.836   1.612   3.303  1.2284  0.1054  0.8987
 8411SOL    HW236696   3.925   1.516   3.363  1.8695 -2.5658 -1.1416
 8412SOL     OW36697   1.457   0.058  15.013  0.1702 -0.2415 -0.0280
 8412SOL    HW136698   1.377   0.107  15.026  0.3933  0.6298 -2.0831
 8412SOL    HW236699   1.502   0.108  14.945 -0.2890 -0.1181 -0.2374
 8413SOL     OW36700   1.893   4.014   6.510  0.4290 -0.7956  0.1792
 8413SOL    HW136701   1.812   4.029   6.559 -1.2506  0.8282 -3.1100
 8413SOL    HW236702   1.945   4.080   6.556 -2.3023  3.5221 -3.0059
 8414SOL     OW36703   4.463   4.638   3.681 -0.2072  0.6866  0.4088
 8414SOL    HW136704   4.451   4.655   3.587  0.7835 -0.5514  0.0575
 8414SOL    HW236705   4.422   4.551   3.676 -1.2290  1.1958 -0.1395
 8415SOL     OW36706   1.601   1.539   2.918  0.1200  0.1136  0.0862
 8415SOL    HW136707   1.531   1.585   2.872  0.1133 -0.0446 -0.0601
 8415SOL    HW236708   1.669   1.543   2.851  0.6034 -2.3298  0.4344
 8416SOL     OW36709   1.945   3.319  14.913 -0.5817 -0.0152  0.2460
 8416SOL    HW136710   2.024   3.368  14.891 -0.4216 -0.7833 -0.8762
 8416SOL    HW236711   1.952   3.234  14.870  2.4624  0.4584 -0.1849
 8417SOL     OW36712   4.235   3.124   3.431  0.0449  0.2498 -0.4842
 8417SOL    HW136713   4.256   3.175   3.353 -0.0411  0.3729 -0.4256
 8417SOL    HW236714   4.211   3.043   3.385  1.0049  0.2343 -0.9563
 8418SOL     OW36715   0.330   3.228  14.054 -0.5627 -0.1667 -0.0042
 8418SOL    HW136716   0.394   3.189  14.114 -1.7298 -1.8842  0.1291
 8418SOL    HW236717   0.264   3.170  14.095 -2.7157  2.6039  0.4625
 8419SOL     OW36718   3.488   3.150  14.253 -0.2614 -0.6016 -0.9590
 8419SOL    HW136719   3.504   3.242  14.276 -0.9280 -0.4739 -0.9970
 8419SOL    HW236720   3.446   3.126  14.335 -2.1428  0.9020 -1.4889
 8420SOL     OW36721   4.414   3.657   9.791  0.4887 -0.5393  0.5503
 8420SOL    HW136722   4.376   3.569   9.789 -1.9768  0.5383 -1.0007
 8420SOL    HW236723   4.488   3.642   9.849  1.8331  0.6660 -0.8690
 8421SOL     OW36724   2.149   0.725   9.571  0.1831  0.0954  0.1890
 8421SOL    HW136725   2.219   0.790   9.573 -1.2432  1.6675 -0.3660
 8421SOL    HW236726   2.192   0.662   9.514 -3.1068 -2.1325  0.1556
 8422SOL     OW36727   2.435   2.460   3.429 -0.4690  0.0901  0.2739
 8422SOL    HW136728   2.410   2.417   3.348  2.5338 -0.2110 -0.5075
 8422SOL    HW236729   2.366   2.525   3.439  0.4383  1.4412 -2.3811
 8423SOL     OW36730   1.575   4.688   8.268  0.0853  0.4193  0.1106
 8423SOL    HW136731   1.656   0.016   8.278  0.4453 -0.4202  1.4542
 8423SOL    HW236732   1.567   4.658   8.359  1.2968 -0.3054 -0.0252
 8424SOL     OW36733   4.431   0.971  12.217 -0.2522 -0.5036 -0.0922
 8424SOL    HW136734   4.371   1.039  12.186  2.8233  1.9185 -0.6772
 8424SOL    HW236735   4.504   1.024  12.247 -0.9234  1.4362 -1.8797
 8425SOL     OW36736   0.854   1.688   4.925  0.6591 -0.1011  0.1587
 8425SOL    HW136737   0.802   1.768   4.933  0.2258 -0.4436  0.7052
 8425SOL    HW236738   0.899   1.677   5.008  0.3780  1.3757  0.5197
 8426SOL     OW36739   4.070   2.424   9.841  0.1176 -0.0662  0.0708
 8426SOL    HW136740   4.067   2.497   9.779  1.1372  0.6494  0.8759
 8426SOL    HW236741   4.117   2.465   9.913 -0.4638  1.2797 -0.3157
 8427SOL     OW36742   3.601   0.605   1.898 -0.5167  0.3908 -0.1150
 8427SOL    HW136743   3.555   0.523   1.880 -1.0391  0.7753 -0.5139
 8427SOL    HW236744   3.567   0.628   1.985 -1.2350  0.2163 -0.3430
 8428SOL     OW36745   2.271   4.105   3.955  0.3413 -0.0138 -0.1094
 8428SOL    HW136746   2.285   4.123   3.862 -1.4016  1.4774 -0.0880
 8428SOL    HW236747   2.185   4.145   3.967  0.7446  0.1100  2.2706
 8429SOL     OW36748   0.049   4.579  11.151  0.3612 -0.3558 -1.1980
 8429SOL    HW136749   0.113   4.650  11.162  0.6401 -0.5511 -1.5534
 8429SOL    HW236750   0.002   4.598  11.232  1.1062 -3.6999  0.0182
 8430SOL     OW36751   0.211   3.272   3.417  0.6242  0.2062 -0.0193
 8430SOL    HW136752   0.175   3.278   3.329  2.5687 -0.3694 -0.8340
 8430SOL    HW236753   0.232   3.179   3.424  1.4910  0.4081 -0.0212
 8431SOL     OW36754   2.470   2.237   7.867 -0.1852  0.3796 -0.3846
 8431SOL    HW136755   2.476   2.331   7.883 -0.8162  0.6077 -1.4807
 8431SOL    HW236756   2.485   2.207   7.956  1.0879 -0.3954 -0.8535
 8432SOL     OW36757   3.077   1.454   8.778  0.3490  0.5181 -0.1422
 8432SOL    HW136758   3.135   1.392   8.734 -1.7693 -2.6048  1.5070
 8432SOL    HW236759   3.136   1.501   8.838  0.3967 -1.5116  1.3654
 8433SOL     OW36760   3.219   4.185   2.530 -0.4369 -0.6678 -0.1352
 8433SOL    HW136761   3.218   4.208   2.623 -0.0405  1.2560 -0.6230
 8433SOL    HW236762   3.198   4.269   2.491  0.1336 -0.9697 -1.0895
 8434SOL     OW36763   2.988   0.869  12.275  0.0455 -0.2042 -0.2067
 8434SOL    HW136764   3.034   0.831  12.200 -0.2750  0.7169 -0.8701
 8434SOL    HW236765   2.926   0.920  12.224  0.5431 -0.8894 -1.5142
 8435SOL     OW36766   3.157   1.250   1.940 -0.0242 -0.2571 -0.3632
 8435SOL    HW136767   3.088   1.317   1.947 -1.1998 -1.3259 -1.6476
 8435SOL    HW236768   3.104   1.176   1.910  2.7290 -1.6718 -1.7168
 8436SOL     OW36769   2.632   1.347   3.513 -0.1523 -0.3507  0.5362
 8436SOL    HW136770   2.718   1.316   3.484 -0.6495 -0.2321 -1.0276
 8436SOL    HW236771   2.632   1.321   3.605 -2.3562  0.1473  0.6662
 8437SOL     OW36772   1.488   1.675   9.308 -0.8100 -0.5713  0.6064
 8437SOL    HW136773   1.435   1.682   9.387 -1.6077 -0.0206  0.0207
 8437SOL    HW236774   1.459   1.589   9.278  0.4727 -0.9067  0.3141
 8438SOL     OW36775   1.054   3.030  10.754 -0.1586 -0.1002  0.0913
 8438SOL    HW136776   1.115   2.966  10.790  2.5009  0.7451 -3.0133
 8438SOL    HW236777   1.027   2.988  10.673  1.7590  1.2834 -1.2705
 8439SOL     OW36778   4.572   0.715   3.141  0.3036 -0.0416 -0.3252
 8439SOL    HW136779   4.597   0.795   3.094  1.2562 -1.0279 -1.5087
 8439SOL    HW236780   4.632   0.721   3.214 -0.9598  0.0914  0.7047
 8440SOL     OW36781   2.225   1.391   5.247  0.2366 -0.1440  0.1192
 8440SOL    HW136782   2.257   1.420   5.162  0.6345  1.1786  0.7254
 8440SOL    HW236783   2.152   1.338   5.216  0.5996  0.8783 -2.5106
 8441SOL     OW36784   3.954   0.174   5.071 -0.4314  0.5879 -0.0457
 8441SOL    HW136785   4.000   0.210   4.995  1.2001  0.6481  0.9743
 8441SOL    HW236786   4.012   0.113   5.117  1.4139  3.9922  2.1381
 8442SOL     OW36787   3.029   3.331   1.862 -0.3177 -0.0890 -0.2381
 8442SOL    HW136788   3.072   3.382   1.930 -0.6686 -1.5389  1.0568
 8442SOL    HW236789   3.008   3.400   1.799 -1.8663  0.4982  0.9338
 8443SOL     OW36790   0.820   3.090   2.914 -0.0528  0.2351 -0.7998
 8443SOL    HW136791   0.750   3.045   2.961  0.1903  0.4823 -0.2024
 8443SOL    HW236792   0.797   3.181   2.933  0.0592 -0.1157  0.9797
 8444SOL     OW36793   4.422   0.101   0.784 -0.2882 -0.9021 -0.6920
 8444SOL    HW136794   4.390   0.107   0.694 -1.9040  0.7366 -0.0088
 8444SOL    HW236795   4.514   0.092   0.757  0.6951  0.8146  2.1207
 8445SOL     OW36796   0.869   0.262   1.276  0.0215 -0.1041  0.0266
 8445SOL    HW136797   0.851   0.337   1.219  0.5308  0.5480  0.7187
 8445SOL    HW236798   0.818   0.292   1.351 -1.7346 -0.7081 -0.9294
 8446SOL     OW36799   3.800   2.854   5.315  0.2147 -0.3581 -0.4592
 8446SOL    HW136800   3.736   2.784   5.316 -1.6402  1.3440  4.4975
 8446SOL    HW236801   3.748   2.928   5.348 -0.7702 -1.7147  1.0106
 8447SOL     OW36802   2.748   1.912   7.525 -0.0945  0.0095  0.3437
 8447SOL    HW136803   2.759   1.822   7.556  0.4868 -0.5388 -1.4276
 8447SOL    HW236804   2.741   1.961   7.607 -2.1197  0.8720 -0.3373
 8448SOL     OW36805   3.105   4.478  12.034  0.0966 -0.3801  0.0384
 8448SOL    HW136806   3.046   4.543  12.072 -0.6067 -0.7715 -0.3806
 8448SOL    HW236807   3.159   4.541  11.986  1.1925 -0.5492  1.0413
 8449SOL     OW36808   3.510   1.406   8.297  0.1953  0.1251 -0.7812
 8449SOL    HW136809   3.508   1.362   8.212  0.0263 -0.3883 -0.5128
 8449SOL    HW236810   3.603   1.406   8.320  0.1330  1.8360 -0.5518
 8450SOL     OW36811   2.704   4.115  12.098 -0.3367 -0.4845  0.5312
 8450SOL    HW136812   2.700   4.200  12.054  1.8211 -0.2597  0.7739
 8450SOL    HW236813   2.779   4.123  12.156 -0.7007 -0.9858  1.0720
 8451SOL     OW36814   2.719   2.254  14.332 -0.3957  0.1867  0.4127
 8451SOL    HW136815   2.785   2.298  14.278  0.2077 -2.3964 -0.9305
 8451SOL    HW236816   2.634   2.291  14.308  0.9151  1.2212 -2.5496
 8452SOL     OW36817   3.830   2.104   0.488 -0.0973  0.2502  0.3723
 8452SOL    HW136818   3.737   2.110   0.509 -1.0831 -1.6240 -3.4973
 8452SOL    HW236819   3.857   2.139   0.573  2.2572 -1.1035  0.1838
 8453SOL     OW36820   1.139   4.062   8.654  0.4037 -0.4183  0.1284
 8453SOL    HW136821   1.120   3.974   8.622 -2.9816  0.2358  0.3426
 8453SOL    HW236822   1.062   4.109   8.621  2.3160  0.9662 -2.3331
 8454SOL     OW36823   1.135   0.636   4.919 -0.5497 -0.2120 -0.7170
 8454SOL    HW136824   1.057   0.592   4.954 -0.3276 -0.6567 -0.7785
 8454SOL    HW236825   1.101   0.666   4.834  1.3240  1.3997 -0.8880
 8455SOL     OW36826   3.981   0.979   9.405  0.2711 -0.2545  0.1748
 8455SOL    HW136827   4.034   0.978   9.325 -0.5146  0.3904 -0.3457
 8455SOL    HW236828   4.051   1.013   9.461  0.9656  0.8797 -1.3805
 8456SOL     OW36829   3.925   2.105   9.342 -0.1910 -0.0311 -0.2030
 8456SOL    HW136830   3.972   2.021   9.347  0.0051  0.0518 -0.7263
 8456SOL    HW236831   3.993   2.170   9.360 -1.6380  1.8676 -1.6390
 8457SOL     OW36832   3.804   3.799  15.334  0.3187  0.2410  0.8217
 8457SOL    HW136833   3.806   3.787  15.239  0.6476  1.5635  0.6610
 8457SOL    HW236834   3.806   3.894  15.346 -1.7134 -0.0048  3.1420
 8458SOL     OW36835   1.600   3.666   8.681 -0.7738 -0.2411 -0.1825
 8458SOL    HW136836   1.544   3.597   8.647 -1.0840  0.7057 -1.6118
 8458SOL    HW236837   1.684   3.644   8.640 -0.3847  0.7080  0.0835
 8459SOL     OW36838   1.853   0.098  13.285  0.2122 -0.2306 -0.3350
 8459SOL    HW136839   1.863   0.003  13.294 -2.5937 -0.6319 -1.1488
 8459SOL    HW236840   1.766   0.095  13.243  1.1116  0.3599 -2.2605
 8460SOL     OW36841   4.550   3.425   5.559 -0.2151  0.1290 -0.1069
 8460SOL    HW136842   4.588   3.402   5.644  0.3950 -1.8297 -0.9145
 8460SOL    HW236843   4.457   3.405   5.563  0.1230 -1.0677  1.7253
 8461SOL     OW36844   0.433   4.254  13.305 -0.1716  0.2906  0.1131
 8461SOL    HW136845   0.525   4.271  13.283  0.9170 -2.9170  2.1108
 8461SOL    HW236846   0.444   4.196  13.381 -2.3761  0.9773  0.9638
 8462SOL     OW36847   0.937   1.772   7.304 -0.1520  0.5741 -0.1348
 8462SOL    HW136848   1.007   1.707   7.295  0.0092  0.6155  0.7622
 8462SOL    HW236849   0.874   1.750   7.235  1.6178  1.3220 -1.9686
 8463SOL     OW36850   4.406   0.605   4.815 -0.1222  0.4434 -0.1456
 8463SOL    HW136851   4.473   0.607   4.747 -1.9740  0.8799 -1.9621
 8463SOL    HW236852   4.454   0.640   4.890 -1.4330  2.7054 -0.3530
 8464SOL     OW36853   1.619   2.229   4.792 -0.2458  0.2225 -0.1797
 8464SOL    HW136854   1.542   2.285   4.803 -0.3113  0.6639 -3.0021
 8464SOL    HW236855   1.681   2.260   4.858 -1.1336  2.4519 -0.3705
 8465SOL     OW36856   2.274   4.377   2.992  0.0643 -0.1387  0.8552
 8465SOL    HW136857   2.366   4.397   2.974 -0.1294  0.1047  0.1422
 8465SOL    HW236858   2.263   4.316   2.919  0.1574  2.7851 -1.5662
 8466SOL     OW36859   1.765   0.707   7.980 -0.4200 -0.1970 -0.1488
 8466SOL    HW136860   1.815   0.712   7.898 -0.0720 -1.3932 -0.0080
 8466SOL    HW236861   1.833   0.652   8.019 -1.5995 -1.5979 -0.0960
 8467SOL     OW36862   4.653   3.537  12.537 -0.2127  0.5286 -0.0236
 8467SOL    HW136863   4.678   3.521  12.628  1.0098 -0.3417 -0.5198
 8467SOL    HW236864   4.561   3.559  12.552 -0.0715  0.8465  0.3887
 8468SOL     OW36865   2.542   3.050   4.050  0.0918 -0.4067 -0.5122
 8468SOL    HW136866   2.520   2.994   3.976  1.1951 -0.7327 -0.6003
 8468SOL    HW236867   2.631   3.026   4.078 -0.0281 -1.0435 -0.6729
 8469SOL     OW36868   3.500   1.255  10.137 -0.0030  0.2128 -0.0602
 8469SOL    HW136869   3.447   1.222  10.210 -2.6434  1.5909 -1.3602
 8469SOL    HW236870   3.542   1.171  10.116 -0.5906  0.4272 -2.0450
 8470SOL     OW36871   0.541   0.732   2.260 -0.1059  0.2298 -0.1977
 8470SOL    HW136872   0.514   0.738   2.168 -2.3756  0.7880  0.5172
 8470SOL    HW236873   0.554   0.825   2.282  1.8836 -0.5354  1.8607
 8471SOL     OW36874   0.366   3.571  11.058 -0.5977  0.3078 -0.1352
 8471SOL    HW136875   0.320   3.511  11.000 -0.6733 -1.8520  2.1476
 8471SOL    HW236876   0.424   3.613  10.994  1.4850 -0.5684  1.1719
 8472SOL     OW36877   4.027   4.434   8.161  0.2123  0.7728  0.0417
 8472SOL    HW136878   3.969   4.368   8.200 -1.7942  3.0038  0.8099
 8472SOL    HW236879   3.996   4.439   8.070 -1.4756  2.4678  0.7126
 8473SOL     OW36880   4.305   4.422   3.660  0.4627 -0.2156 -0.0831
 8473SOL    HW136881   4.234   4.416   3.597  1.8698 -0.9997 -1.6086
 8473SOL    HW236882   4.342   4.338   3.630  2.0680  0.6165 -0.4569
 8474SOL     OW36883   4.276   3.858  16.210  0.1706 -0.4291  0.3449
 8474SOL    HW136884   4.236   3.772  16.224  0.8218 -0.3779  2.5715
 8474SOL    HW236885   4.328   3.827  16.135 -2.0385 -1.5461 -0.7456
 8475SOL     OW36886   3.685   0.138  17.532  0.1546  0.3271 -0.5309
 8475SOL    HW136887   3.639   0.211  17.490 -0.0484 -0.1034 -1.0555
 8475SOL    HW236888   3.771   0.178  17.542 -0.4208  1.3185  0.6558
 8476SOL     OW36889   0.165   1.154   3.354  0.2530 -0.8512  0.0276
 8476SOL    HW136890   0.137   1.138   3.264 -0.4004 -2.3176  0.4976
 8476SOL    HW236891   0.245   1.102   3.356  0.2010 -0.8834  1.2959
 8477SOL     OW36892   1.806   4.707   9.104 -0.3392 -0.3479  0.5018
 8477SOL    HW136893   1.727   4.689   9.155 -0.1541 -1.2824  0.4464
 8477SOL    HW236894   1.782   4.701   9.012 -1.3476  0.4496  0.7098
 8478SOL     OW36895   3.869   3.634   3.978 -0.4169 -0.1164  0.3289
 8478SOL    HW136896   3.778   3.661   3.963 -0.2702  0.7039  0.9372
 8478SOL    HW236897   3.913   3.719   3.976  1.6768 -1.2091  0.0129
 8479SOL     OW36898   3.223   0.332   6.950  0.3996  0.2404 -0.1208
 8479SOL    HW136899   3.262   0.298   6.870  0.1100 -0.6033  0.1010
 8479SOL    HW236900   3.155   0.268   6.971 -1.4768  2.5633  0.8406
 8480SOL     OW36901   1.059   2.721   4.097 -0.3827 -0.1790  0.3714
 8480SOL    HW136902   1.140   2.698   4.143  0.7284  1.7950 -0.6051
 8480SOL    HW236903   1.020   2.636   4.077 -0.6888  0.3366 -1.2463
 8481SOL     OW36904   3.777   0.931   6.608  0.2959 -0.1612  0.5258
 8481SOL    HW136905   3.823   0.977   6.539 -1.1570  0.3841 -0.0770
 8481SOL    HW236906   3.845   0.888   6.660  0.3531 -1.5033 -0.6695
 8482SOL     OW36907   2.424   0.414   6.555  0.2996  0.2604  0.1637
 8482SOL    HW136908   2.513   0.395   6.584  0.4078  1.6843  0.7061
 8482SOL    HW236909   2.382   0.339   6.598  0.9817  0.2163  0.7492
 8483SOL     OW36910   1.263   3.936  16.382  0.1031  0.3184 -0.0763
 8483SOL    HW136911   1.352   3.922  16.350 -0.4573 -2.0225 -0.5777
 8483SOL    HW236912   1.259   3.871  16.452 -0.0705  1.3274  0.8495
 8484SOL     OW36913   3.811   0.501   3.665 -1.0209 -0.2979 -0.2143
 8484SOL    HW136914   3.785   0.554   3.740 -0.5393 -2.4675  1.4689
 8484SOL    HW236915   3.725   0.462   3.646 -1.7939  1.2422  0.1868
 8485SOL     OW36916   3.502   4.335   0.609 -0.4089  0.1846  1.1920
 8485SOL    HW136917   3.541   4.422   0.619 -2.1034  0.9392  1.0773
 8485SOL    HW236918   3.459   4.350   0.526 -1.9980 -0.0452  1.9701
 8486SOL     OW36919   2.626   0.201   6.852 -0.3471 -0.3773  0.1131
 8486SOL    HW136920   2.595   0.249   6.775 -0.7037 -2.6697 -1.1810
 8486SOL    HW236921   2.544   0.201   6.902 -0.7704 -1.7730 -0.5717
 8487SOL     OW36922   1.314   0.482   6.719 -0.4698  0.3058 -1.0525
 8487SOL    HW136923   1.298   0.468   6.813  1.8858  1.9012 -0.4168
 8487SOL    HW236924   1.343   0.395   6.694  2.6217  1.0551 -0.0677
 8488SOL     OW36925   0.181   0.602   7.296  0.0328  0.3725 -1.1047
 8488SOL    HW136926   0.187   0.589   7.390 -0.6451  0.5128 -1.0474
 8488SOL    HW236927   0.098   0.558   7.281 -0.1656  0.6196 -0.7139
 8489SOL     OW36928   2.845   0.584   6.735 -0.0508  0.2418  0.6106
 8489SOL    HW136929   2.764   0.592   6.785 -1.8708 -0.0983 -2.2915
 8489SOL    HW236930   2.904   0.552   6.803 -1.0160  0.0544  1.3623
 8490SOL     OW36931   2.292   0.343   2.890  0.1321  0.4752 -0.3137
 8490SOL    HW136932   2.327   0.285   2.958 -1.3327 -3.0769 -2.6186
 8490SOL    HW236933   2.354   0.328   2.818 -0.7278 -0.7250 -0.7823
 8491SOL     OW36934   0.086   0.166   2.933  0.4413 -0.2128 -0.0864
 8491SOL    HW136935   0.054   0.242   2.884  0.2115 -0.3415 -0.1338
 8491SOL    HW236936   0.067   0.188   3.024  1.6546  0.6100 -0.0226
 8492SOL     OW36937   1.145   2.654  10.944 -0.0542 -0.7418  0.3769
 8492SOL    HW136938   1.195   2.653  10.863 -0.9797 -0.1266 -0.2073
 8492SOL    HW236939   1.140   2.748  10.964 -1.9385 -1.0370  1.2548
 8493SOL     OW36940   2.872   1.255   8.739 -0.5209  0.0680 -0.0741
 8493SOL    HW136941   2.962   1.287   8.731  0.2452 -2.3058 -0.8954
 8493SOL    HW236942   2.823   1.337   8.745  1.2314  1.0592  0.7362
 8494SOL     OW36943   1.736   2.664  13.280 -0.5080  0.6071  0.4716
 8494SOL    HW136944   1.767   2.577  13.305 -0.3935  0.0583 -1.6136
 8494SOL    HW236945   1.780   2.672  13.195  0.2820 -1.0183  0.7272
 8495SOL     OW36946   0.814   2.558   8.495 -0.6938 -0.0733 -0.5913
 8495SOL    HW136947   0.720   2.577   8.501 -0.9571 -1.4450 -0.4566
 8495SOL    HW236948   0.846   2.645   8.471 -0.4984 -0.3892 -1.4873
 8496SOL     OW36949   1.285   1.548  16.015  0.0391 -0.2742  0.1648
 8496SOL    HW136950   1.330   1.528  15.933 -2.8143 -0.6178 -1.2992
 8496SOL    HW236951   1.197   1.561  15.981  0.7187  1.2558 -1.0298
 8497SOL     OW36952   3.450   0.630   5.808 -0.0446  0.4310  0.5536
 8497SOL    HW136953   3.505   0.554   5.826 -0.4571  0.5119  2.1303
 8497SOL    HW236954   3.496   0.669   5.734  0.5198 -0.4798  0.4198
 8498SOL     OW36955   1.553   4.367  12.729 -0.2591 -0.6737 -0.2164
 8498SOL    HW136956   1.518   4.362  12.818  0.5956  1.3638  0.2158
 8498SOL    HW236957   1.474   4.402  12.689  0.7023 -1.2996 -2.6619
 8499SOL     OW36958   3.732   0.469   8.064 -0.1954  0.4718 -0.2789
 8499SOL    HW136959   3.726   0.381   8.103  0.4627  1.0376  1.0883
 8499SOL    HW236960   3.777   0.455   7.981  1.4514  0.8981  0.5328
 8500SOL     OW36961   3.536   1.467   1.947  0.1686 -0.0786 -0.2790
 8500SOL    HW136962   3.533   1.557   1.913  2.2447 -0.4058 -1.3777
 8500SOL    HW236963   3.606   1.475   2.012  0.5837 -0.2815 -0.6968
 8501SOL     OW36964   3.900   0.363   8.504 -0.1358  0.2111  0.1557
 8501SOL    HW136965   3.909   0.267   8.505 -1.9635  0.0563  2.1937
 8501SOL    HW236966   3.807   0.363   8.527 -0.0438 -0.0885  0.5397
 8502SOL     OW36967   3.205   4.596  14.097 -0.2631  0.0047 -0.3301
 8502SOL    HW136968   3.182   4.516  14.049  1.9329 -1.0375  0.3478
 8502SOL    HW236969   3.275   4.566  14.156 -0.7613 -0.9017 -0.2012
 8503SOL     OW36970   2.085   1.859   3.570  0.2047  0.8005 -0.1254
 8503SOL    HW136971   2.055   1.769   3.561 -0.5750  1.1905 -1.6062
 8503SOL    HW236972   2.019   1.883   3.635  2.9481  2.8102  1.9504
 8504SOL     OW36973   2.292   1.202   4.514 -0.5004 -1.0898  0.0773
 8504SOL    HW136974   2.326   1.222   4.427 -0.0928  1.3773  0.7997
 8504SOL    HW236975   2.224   1.136   4.499 -1.9623  0.3648  0.3746
 8505SOL     OW36976   4.119   0.362  12.143 -0.2930 -0.3791  0.1443
 8505SOL    HW136977   4.029   0.344  12.170 -0.9618  2.5252 -0.1010
 8505SOL    HW236978   4.141   0.297  12.077 -1.5161 -0.9615  0.3026
 8506SOL     OW36979   1.326   4.460   8.924  0.4278 -0.4355 -0.1211
 8506SOL    HW136980   1.352   4.502   8.842 -0.6860  0.6836  0.0926
 8506SOL    HW236981   1.344   4.369   8.902 -4.1322 -1.6092  0.9835
 8507SOL     OW36982   3.770   4.643   1.515 -0.0583 -0.3297 -0.7027
 8507SOL    HW136983   3.859   4.653   1.482 -0.1126  1.1754 -0.4128
 8507SOL    HW236984   3.783   4.560   1.561  2.1195  0.5983  0.3525
 8508SOL     OW36985   0.972   0.951   1.251  0.4476 -0.1038 -0.2905
 8508SOL    HW136986   0.899   0.902   1.288 -0.5397  0.4176 -1.5673
 8508SOL    HW236987   0.956   1.041   1.280  1.8138  0.7239 -2.0656
 8509SOL     OW36988   4.530   1.932   6.656  0.8297  0.0647  0.2299
 8509SOL    HW136989   4.607   1.880   6.681 -0.0262 -1.2675  0.0939
 8509SOL    HW236990   4.553   1.924   6.563 -0.3666 -1.5415  0.0819
 8510SOL     OW36991   1.363   0.069  15.675  0.4266 -0.4195  0.3280
 8510SOL    HW136992   1.269   0.080  15.692 -0.2956 -3.0071 -1.9685
 8510SOL    HW236993   1.387   0.012  15.749  0.0812 -0.1258  0.6681
 8511SOL     OW36994   2.911   2.015   9.688 -0.3376 -0.1471  0.3449
 8511SOL    HW136995   2.839   2.061   9.733 -1.1017 -0.3209 -0.6954
 8511SOL    HW236996   2.978   2.082   9.699 -1.5155  1.5805 -2.9668
 8512SOL     OW36997   2.247   3.426   0.807 -0.1870 -0.1751  0.6359
 8512SOL    HW136998   2.290   3.447   0.890  1.2361  0.5192 -0.2787
 8512SOL    HW236999   2.301   3.355   0.772  1.0350  1.8165 -1.5568
 8513SOL     OW37000   1.443   3.602   2.455 -0.2743 -0.2867  0.2879
 8513SOL    HW137001   1.364   3.554   2.429 -1.0258  1.1448 -0.0268
 8513SOL    HW237002   1.400   3.686   2.470 -3.0149 -1.8643  1.4515
 8514SOL     OW37003   0.937   3.100  17.493  0.7953  0.8305 -0.2712
 8514SOL    HW137004   1.025   3.116  17.459  0.4614  0.5127 -1.2710
 8514SOL    HW237005   0.928   3.012  17.455 -0.0151  1.6088 -1.8479
 8515SOL     OW37006   2.557   0.265   2.086 -0.3403  0.8264  0.1723
 8515SOL    HW137007   2.622   0.335   2.079 -0.6140  0.9780 -0.9423
 8515SOL    HW237008   2.558   0.228   1.998  3.1383  2.1188 -0.3312
 8516SOL     OW37009   4.301   2.285   5.011 -0.0527 -0.1178 -0.0380
 8516SOL    HW137010   4.382   2.335   5.016  0.0110 -0.3252  0.9045
 8516SOL    HW237011   4.324   2.216   5.074 -0.2240  1.8971  2.2278
 8517SOL     OW37012   0.964   4.561  11.855  0.7931  0.0987 -0.5244
 8517SOL    HW137013   0.996   4.492  11.914  0.0485 -2.3181 -2.9585
 8517SOL    HW237014   0.937   4.625  11.920 -2.2340 -1.9619  0.2588
 8518SOL     OW37015   3.918   2.144   6.749 -1.0861 -0.2345 -0.5827
 8518SOL    HW137016   3.853   2.083   6.783 -0.0438 -1.8216 -1.4403
 8518SOL    HW237017   4.003   2.105   6.771  0.0798  2.6834  0.1066
 8519SOL     OW37018   0.445   0.480  16.259  0.0854  0.1957 -0.0173
 8519SOL    HW137019   0.352   0.490  16.239  0.0395 -0.7453 -0.2731
 8519SOL    HW237020   0.462   0.570  16.287 -0.4590  0.2311  0.2005
 8520SOL     OW37021   4.180   1.255  16.443 -0.2659 -0.3705  0.7054
 8520SOL    HW137022   4.226   1.195  16.502  0.6130  1.1492  1.5680
 8520SOL    HW237023   4.154   1.324  16.505 -0.2151  0.8775 -0.6540
 8521SOL     OW37024   1.011   3.246   3.038  0.0008 -0.4367 -0.6296
 8521SOL    HW137025   0.978   3.157   3.024 -1.1197 -0.1454  0.1230
 8521SOL    HW237026   1.065   3.231   3.116  0.8894 -0.7070 -1.3031
 8522SOL     OW37027   1.446   4.316  16.899 -0.9019  0.5232 -0.1707
 8522SOL    HW137028   1.431   4.236  16.850 -0.1097 -0.4401  1.1706
 8522SOL    HW237029   1.395   4.300  16.977 -0.6592 -2.5101 -0.6613
 8523SOL     OW37030   0.082   1.153   4.190 -0.6994 -0.0344 -0.1190
 8523SOL    HW137031   0.164   1.134   4.237 -0.1369 -1.1729 -1.5603
 8523SOL    HW237032   0.114   1.150   4.100 -1.3602  0.3062 -0.3653
 8524SOL     OW37033   4.069   1.635  12.812  0.3912 -0.0395  0.0686
 8524SOL    HW137034   4.057   1.542  12.833  0.6020 -0.1636 -0.3481
 8524SOL    HW237035   3.999   1.654  12.750  0.9268  2.7192  0.3035
 8525SOL     OW37036   1.762   2.995  13.146 -0.7795 -0.4310  0.0204
 8525SOL    HW137037   1.780   3.079  13.188  0.2783 -0.7303  0.1593
 8525SOL    HW237038   1.768   2.934  13.220 -0.3125 -1.1663 -0.6200
 8526SOL     OW37039   4.660   4.037   9.644 -0.0810  0.2210 -0.0123
 8526SOL    HW137040   4.686   3.961   9.696 -2.2726  0.2233  1.0884
 8526SOL    HW237041   4.579   4.058   9.690  0.6730  1.5530  0.6732
 8527SOL     OW37042   2.788   1.498   7.217 -0.3511 -0.2275 -0.1269
 8527SOL    HW137043   2.784   1.511   7.312 -0.0413 -1.7036  0.0937
 8527SOL    HW237044   2.696   1.488   7.193  0.2201 -1.7399 -1.6796
 8528SOL     OW37045   2.747   2.967   2.790  0.2485 -0.7136 -0.1790
 8528SOL    HW137046   2.834   2.958   2.830 -1.2082 -0.2290  3.1086
 8528SOL    HW237047   2.761   2.968   2.696 -2.3739 -0.2745 -0.5538
 8529SOL     OW37048   0.703   1.773   8.967 -0.3716  0.0302  0.4437
 8529SOL    HW137049   0.689   1.691   9.015 -2.1561 -0.2015 -0.4868
 8529SOL    HW237050   0.628   1.777   8.907  0.6733  0.3440 -0.8429
 8530SOL     OW37051   4.065   3.520  13.947 -0.2789  0.6841 -0.4824
 8530SOL    HW137052   4.012   3.597  13.925  0.4077  1.5027  0.7715
 8530SOL    HW237053   3.991   3.470  13.982  0.6693 -0.0865  0.4409
 8531SOL     OW37054   1.168   2.969   9.365 -0.0055  0.1520 -0.2067
 8531SOL    HW137055   1.199   3.059   9.373 -0.4416  0.1916  1.0470
 8531SOL    HW237056   1.119   2.948   9.445 -0.3149  1.6771 -0.0029
 8532SOL     OW37057   1.444   0.275   2.772  0.3779  0.0216  0.1032
 8532SOL    HW137058   1.452   0.369   2.787 -0.4053  0.3719 -1.7336
 8532SOL    HW237059   1.425   0.283   2.679  0.3004  0.6148  0.1737
 8533SOL     OW37060   3.534   2.986   7.092 -0.2360  0.9569  0.6093
 8533SOL    HW137061   3.551   3.040   7.015  2.1159 -0.1737  0.3439
 8533SOL    HW237062   3.511   3.052   7.158  0.5447  0.0562  1.7808
 8534SOL     OW37063   4.174   0.676   0.416  0.2555  0.2797 -0.4983
 8534SOL    HW137064   4.250   0.679   0.475 -0.8783 -0.6482  1.0146
 8534SOL    HW237065   4.169   0.589   0.378  0.8097 -0.0821  0.2421
 8535SOL     OW37066   0.041   2.592   8.462  0.0589 -0.3361 -0.1916
 8535SOL    HW137067   4.704   2.665   8.442 -0.2664 -0.3367  0.7500
 8535SOL    HW237068   4.702   2.519   8.450 -0.2412 -0.5274  2.5343
 8536SOL     OW37069   3.388   1.831   7.766 -0.6067  0.3925 -0.3211
 8536SOL    HW137070   3.322   1.762   7.763 -1.6733  1.3010  2.0262
 8536SOL    HW237071   3.423   1.805   7.851 -0.2158 -1.4460 -1.0502
 8537SOL     OW37072   4.621   0.415   9.826 -0.1746 -0.4618  0.0434
 8537SOL    HW137073   4.557   0.371   9.882  0.4424  1.0695  1.9374
 8537SOL    HW237074   4.656   0.490   9.874  0.2598 -1.8112  1.8342
 8538SOL     OW37075   3.005   0.695   8.680 -0.0599  0.0964  0.4050
 8538SOL    HW137076   2.913   0.675   8.661  0.4045 -1.1727 -0.5299
 8538SOL    HW237077   2.986   0.784   8.710 -0.7865  0.8437 -2.2275
 8539SOL     OW37078   1.965   3.933  16.169  0.3931  0.1691  0.7245
 8539SOL    HW137079   2.039   3.947  16.110 -1.4030  0.6699 -1.3978
 8539SOL    HW237080   1.974   4.007  16.230 -0.6625  2.2066 -1.5881
 8540SOL     OW37081   0.814   4.037  14.888 -0.0551 -0.0071  0.4419
 8540SOL    HW137082   0.883   4.014  14.826 -0.1975  0.7505  0.0008
 8540SOL    HW237083   0.748   4.076  14.830 -0.5082 -1.5146 -0.0738
 8541SOL     OW37084   3.873   4.565  15.874 -0.1135 -0.5027  0.3231
 8541SOL    HW137085   3.866   4.478  15.913  2.7010 -0.1757  1.5480
 8541SOL    HW237086   3.838   4.544  15.788 -1.2283 -0.0588  0.6613
 8542SOL     OW37087   3.742   0.665  11.307 -0.7838  0.1554  0.7573
 8542SOL    HW137088   3.649   0.650  11.290 -0.5209 -0.5379 -0.0168
 8542SOL    HW237089   3.779   0.580  11.331 -0.6687 -0.0853 -0.2647
 8543SOL     OW37090   1.867   2.620   4.578 -0.3072 -0.5165 -0.0448
 8543SOL    HW137091   1.820   2.606   4.660  2.7248  1.3632  2.0138
 8543SOL    HW237092   1.801   2.566   4.534  0.1166  0.1712 -1.5231
 8544SOL     OW37093   2.901   0.762  10.962 -0.2255  0.6978 -0.6401
 8544SOL    HW137094   2.855   0.823  11.020  0.3190 -0.5617  1.1068
 8544SOL    HW237095   2.831   0.698  10.957  1.1827 -0.8931  0.3441
 8545SOL     OW37096   2.589   2.010  14.966  0.2096 -0.5573  0.3476
 8545SOL    HW137097   2.616   1.926  15.004  0.9291  0.3110  1.7290
 8545SOL    HW237098   2.545   2.039  15.046  1.3111  0.0524  0.7177
 8546SOL     OW37099   0.541   2.758   4.477  0.0106  0.4272 -0.0929
 8546SOL    HW137100   0.540   2.697   4.550  1.3883 -0.2512 -0.6604
 8546SOL    HW237101   0.522   2.843   4.518 -1.5202 -0.3383  0.8028
 8547SOL     OW37102   0.102   1.140   6.860  0.1498  0.3569 -0.2358
 8547SOL    HW137103   0.092   1.115   6.768 -2.1965  0.4681 -0.0229
 8547SOL    HW237104   0.014   1.136   6.897 -0.7986  0.3605 -2.5259
 8548SOL     OW37105   0.483   1.069  17.304  0.4484  0.3469  0.6674
 8548SOL    HW137106   0.576   1.084  17.292  0.1255  1.6126 -0.2095
 8548SOL    HW237107   0.482   1.002  17.373 -2.9981  0.1185  0.4041
 8549SOL     OW37108   3.120   1.699   3.598  0.7481 -0.0761  0.2637
 8549SOL    HW137109   3.066   1.672   3.524 -1.6268  3.8958  0.4902
 8549SOL    HW237110   3.120   1.622   3.655 -0.1576  1.4591  2.3468
 8550SOL     OW37111   1.999   1.235  11.364 -0.6088 -0.1309  0.0109
 8550SOL    HW137112   2.052   1.159  11.389  1.1792  1.6852  1.7680
 8550SOL    HW237113   2.050   1.268  11.290  2.7066 -0.3099  2.2229
 8551SOL     OW37114   3.069   3.532  16.199 -0.2737  0.2128 -0.2205
 8551SOL    HW137115   3.137   3.466  16.184  1.0914  1.4045  0.6768
 8551SOL    HW237116   3.050   3.556  16.108 -0.2794 -0.2817 -0.3480
 8552SOL     OW37117   4.394   3.283   2.164  0.2548 -0.0244 -0.0317
 8552SOL    HW137118   4.471   3.303   2.217  1.6347 -0.4913 -1.8571
 8552SOL    HW237119   4.326   3.271   2.230  0.2324  0.1075 -0.0313
 8553SOL     OW37120   4.656   1.587   9.012 -0.0683  0.1023  0.2182
 8553SOL    HW137121   4.625   1.497   9.017  1.2164 -0.2994  0.7307
 8553SOL    HW237122   4.698   1.585   9.097  2.1667 -0.6310 -0.9058
 8554SOL     OW37123   2.409   0.764  11.200 -0.8665  0.0554 -0.0761
 8554SOL    HW137124   2.460   0.793  11.275 -0.9694 -1.2221  0.4852
 8554SOL    HW237125   2.324   0.806  11.216  0.3879  2.0836  1.2570
 8555SOL     OW37126   1.863   4.309   2.683  0.1206 -0.2887  0.2719
 8555SOL    HW137127   1.786   4.365   2.670 -0.1950 -0.6024  0.8003
 8555SOL    HW237128   1.923   4.366   2.730  0.1070  0.2718 -0.3923
 8556SOL     OW37129   3.847   1.497  14.753  0.4867 -0.3688 -0.7276
 8556SOL    HW137130   3.920   1.559  14.760  0.1554 -0.2093  1.1766
 8556SOL    HW237131   3.774   1.558  14.744 -1.1361 -2.1983  0.0009
 8557SOL     OW37132   4.258   0.386  14.816  0.1672  0.1639  0.0636
 8557SOL    HW137133   4.210   0.390  14.734 -0.0746  2.8809  0.3409
 8557SOL    HW237134   4.349   0.367  14.792 -0.1178 -1.2100  0.0393
 8558SOL     OW37135   4.561   3.614   2.242  0.2966  0.7035 -0.4510
 8558SOL    HW137136   4.575   3.550   2.172 -1.4041  0.9620 -1.0345
 8558SOL    HW237137   4.654   3.622   2.265  0.5246 -1.7981 -0.5469
 8559SOL     OW37138   0.774   2.816   0.908 -0.1893 -0.0663 -0.0524
 8559SOL    HW137139   0.780   2.871   0.831  1.4410 -0.2366 -0.0348
 8559SOL    HW237140   0.681   2.791   0.916 -0.6398  1.2592 -1.2611
 8560SOL     OW37141   3.174   3.101   7.157 -0.1994 -0.1433  0.3431
 8560SOL    HW137142   3.251   3.154   7.178  0.4520 -0.5385 -1.0067
 8560SOL    HW237143   3.186   3.089   7.063  0.5760  0.0932  0.4075
 8561SOL     OW37144   0.979   1.243   2.427 -0.7251 -0.1992 -0.0513
 8561SOL    HW137145   0.934   1.176   2.479  2.9414  0.8205  4.5025
 8561SOL    HW237146   1.053   1.242   2.488 -0.8977  0.7603  0.1736
 8562SOL     OW37147   0.437   2.716   3.685  0.2708 -0.3363 -0.0387
 8562SOL    HW137148   0.371   2.712   3.754 -0.2678 -0.8552 -0.5816
 8562SOL    HW237149   0.508   2.663   3.720  0.3041 -0.2478  0.0270
 8563SOL     OW37150   0.768   3.754   5.722  0.4668  0.3655 -0.1665
 8563SOL    HW137151   0.776   3.705   5.804 -0.3549  0.2933 -0.1324
 8563SOL    HW237152   0.804   3.838   5.749  0.7606 -0.2337  1.3075
 8564SOL     OW37153   3.082   2.485   8.526  0.4952 -0.0304 -0.5134
 8564SOL    HW137154   3.004   2.520   8.483 -0.3344  0.1042  1.0918
 8564SOL    HW237155   3.144   2.558   8.519 -0.1698  0.6644  0.7030
 8565SOL     OW37156   0.930   3.836  12.856 -0.3043  0.0891  0.1277
 8565SOL    HW137157   0.872   3.770  12.894 -1.9407  0.5217 -1.6047
 8565SOL    HW237158   1.000   3.846  12.920 -0.9667 -1.0114  1.0092
 8566SOL     OW37159   0.047   0.263   3.991 -0.1499  0.1186 -0.2623
 8566SOL    HW137160   0.032   0.325   3.919 -0.7208 -0.3396 -0.5379
 8566SOL    HW237161   0.110   0.316   4.040  1.2965 -0.5363 -1.4171
 8567SOL     OW37162   0.239   1.528   8.596  0.4492 -0.1133  0.3059
 8567SOL    HW137163   0.263   1.620   8.588  0.1040 -0.0850 -0.4236
 8567SOL    HW237164   0.303   1.492   8.657 -0.4199  0.4532  1.5602
 8568SOL     OW37165   2.205   4.466   5.099 -0.2112 -0.5435  0.0623
 8568SOL    HW137166   2.181   4.393   5.042 -0.4437  1.8476 -2.9087
 8568SOL    HW237167   2.180   4.441   5.188 -0.2692  0.1642  0.2397
 8569SOL     OW37168   1.569   3.386  14.044  0.2590  0.3546  0.1202
 8569SOL    HW137169   1.490   3.377  14.098  0.6979  3.0135  1.1950
 8569SOL    HW237170   1.587   3.476  14.071 -2.0804  1.2227 -1.2216
 8570SOL     OW37171   2.690   3.831   6.236  0.1508  0.1110 -0.0463
 8570SOL    HW137172   2.739   3.750   6.222  0.3239  0.3811 -1.0253
 8570SOL    HW237173   2.611   3.797   6.278  0.1401 -0.6051 -0.6342
 8571SOL     OW37174   4.146   2.844   2.312 -0.2420  0.9008 -0.2349
 8571SOL    HW137175   4.098   2.782   2.257  1.2815  0.1144 -0.6639
 8571SOL    HW237176   4.101   2.924   2.285 -0.9571  0.4246 -0.4509
 8572SOL     OW37177   3.814   4.227  12.846  0.5351  0.2659 -0.2898
 8572SOL    HW137178   3.763   4.244  12.766  1.9362  2.6211 -0.6699
 8572SOL    HW237179   3.858   4.310  12.861  0.0938  0.2842  0.9185
 8573SOL     OW37180   1.513   2.111  10.680 -0.2976  0.4224 -0.0387
 8573SOL    HW137181   1.468   2.028  10.693  1.6286 -0.1749  2.7139
 8573SOL    HW237182   1.472   2.169  10.745 -0.0171  1.3900 -0.7293
 8574SOL     OW37183   2.912   0.798   5.554 -0.3688 -0.4981  0.3928
 8574SOL    HW137184   2.878   0.877   5.513  1.0268 -0.7897 -1.3332
 8574SOL    HW237185   2.858   0.794   5.633  1.2099 -1.9383  1.4143
 8575SOL     OW37186   2.677   1.563   1.249 -0.4617  0.3301 -0.3611
 8575SOL    HW137187   2.661   1.527   1.162  0.0715 -1.1798  0.1636
 8575SOL    HW237188   2.677   1.655   1.221 -1.7278  0.6744  0.7414
 8576SOL     OW37189   1.355   0.918  12.117 -0.3815  0.0676 -0.3740
 8576SOL    HW137190   1.280   0.868  12.087  0.2040 -1.3019  0.4217
 8576SOL    HW237191   1.318   0.952  12.198 -2.8307 -3.6495  0.0819
 8577SOL     OW37192   2.853   1.119   9.016 -0.0404 -0.3922 -0.4059
 8577SOL    HW137193   2.776   1.098   9.069  0.9128 -1.5337  0.5406
 8577SOL    HW237194   2.853   1.215   9.014  2.1290 -0.3578  1.0175
 8578SOL     OW37195   3.692   3.107   6.643 -0.4284  0.4433  0.1902
 8578SOL    HW137196   3.719   3.056   6.567  0.1658 -1.2650  1.5457
 8578SOL    HW237197   3.763   3.110   6.706 -0.5515  2.6443  0.2187
 8579SOL     OW37198   3.236   3.466  14.547 -0.0572  0.7550  0.2852
 8579SOL    HW137199   3.311   3.425  14.590  1.1959  1.1771 -1.5377
 8579SOL    HW237200   3.207   3.524  14.618  1.0067  0.6012  0.8476
 8580SOL     OW37201   2.050   2.921   3.922  0.4817  0.0770 -0.4025
 8580SOL    HW137202   2.000   2.918   3.840 -2.9149 -1.1696  1.6713
 8580SOL    HW237203   2.115   2.984   3.893 -1.5713  3.0502  1.4915
 8581SOL     OW37204   1.352   2.898   3.401 -0.1818  0.5748 -0.0539
 8581SOL    HW137205   1.364   2.853   3.318  1.5188  0.1445  0.4114
 8581SOL    HW237206   1.435   2.893   3.449 -0.3145  0.3795  0.1608
 8582SOL     OW37207   0.654   3.153  11.661  0.1218  0.6042  0.3807
 8582SOL    HW137208   0.700   3.201  11.730  1.1031  1.6475 -1.0051
 8582SOL    HW237209   0.708   3.163  11.583  1.8230 -1.8244  1.2784
 8583SOL     OW37210   0.449   0.798   1.975 -0.1066  0.7380  0.1656
 8583SOL    HW137211   0.524   0.802   1.916 -0.4423 -0.5533 -0.3323
 8583SOL    HW237212   0.435   0.892   1.987 -0.3489  0.4971  1.7672
 8584SOL     OW37213   4.072   4.035   0.905  0.1487 -0.3282 -0.8838
 8584SOL    HW137214   4.162   4.066   0.902 -0.0450  0.1211 -2.0398
 8584SOL    HW237215   4.074   3.968   0.837  0.4263 -2.4483  1.1910
 8585SOL     OW37216   4.578   2.038   6.366  0.4810  0.0768 -0.3150
 8585SOL    HW137217   4.557   2.117   6.415 -2.2567  0.0630 -1.4666
 8585SOL    HW237218   4.665   2.057   6.329 -0.9807  4.2256 -1.6090
 8586SOL     OW37219   0.244   0.165   4.228 -0.8583  0.3826  0.4469
 8586SOL    HW137220   0.228   0.228   4.158  0.4667  0.5980  0.3352
 8586SOL    HW237221   0.240   0.078   4.190 -0.7433  0.9356 -0.8303
 8587SOL     OW37222   2.216   0.739   3.158 -0.1112 -0.5310 -0.1879
 8587SOL    HW137223   2.207   0.645   3.173  0.8010 -0.0376  3.6162
 8587SOL    HW237224   2.124   0.765   3.161  0.4856  1.6370 -0.8136
 8588SOL     OW37225   3.664   4.180  14.052 -0.1672  0.7236 -0.2633
 8588SOL    HW137226   3.620   4.151  13.971 -1.6030  2.7546 -0.2086
 8588SOL    HW237227   3.732   4.238  14.016 -0.0297  0.1744 -0.8914
 8589SOL     OW37228   1.271   0.870   1.633  0.4690  0.4761 -0.0191
 8589SOL    HW137229   1.356   0.883   1.676 -1.3027  2.0288  2.9750
 8589SOL    HW237230   1.281   0.910   1.547 -0.1749  0.6935  0.0075
 8590SOL     OW37231   1.682   2.339   7.668 -0.1643 -0.5887 -0.2470
 8590SOL    HW137232   1.704   2.250   7.698  1.8111 -1.1170 -3.2768
 8590SOL    HW237233   1.587   2.332   7.667 -0.0582 -2.1074  0.1553
 8591SOL     OW37234   0.317   1.167   4.722  0.1231 -0.0174 -0.4652
 8591SOL    HW137235   0.339   1.260   4.711 -0.2491  0.2982  1.3951
 8591SOL    HW237236   0.367   1.143   4.799  0.2227  3.1691  0.4707
 8592SOL     OW37237   2.790   3.114  16.003 -0.0662 -0.5397 -0.0463
 8592SOL    HW137238   2.765   3.172  15.932 -0.8688  0.1043  0.7637
 8592SOL    HW237239   2.884   3.135  16.003  0.1652 -1.5396  0.8757
 8593SOL     OW37240   3.038   3.002   5.897  0.6214 -0.4572 -0.1780
 8593SOL    HW137241   2.954   2.987   5.941 -0.0058  3.0780 -0.1168
 8593SOL    HW237242   3.102   3.006   5.969 -1.3166 -1.3037  1.5981
 8594SOL     OW37243   2.750   0.242   0.719 -0.7699 -0.5920 -0.5955
 8594SOL    HW137244   2.792   0.305   0.778  0.5161 -1.9581 -0.0496
 8594SOL    HW237245   2.767   0.157   0.759  0.9107  0.7415  1.5180
 8595SOL     OW37246   3.779   0.874  14.060  0.2803 -0.7781  0.1782
 8595SOL    HW137247   3.742   0.844  14.143  2.2910 -0.4426  1.1971
 8595SOL    HW237248   3.759   0.966  14.073  1.9140 -0.3325 -0.4730
 8596SOL     OW37249   4.384   1.060  17.043  0.6256 -0.6217 -0.3187
 8596SOL    HW137250   4.437   1.091  17.117  0.1625 -1.9567  0.5763
 8596SOL    HW237251   4.423   1.113  16.974  2.1280 -1.9031 -0.4656
 8597SOL     OW37252   2.612   2.004   3.650 -0.1038  0.0121  0.1194
 8597SOL    HW137253   2.601   1.940   3.580  0.0988  0.8090 -0.6403
 8597SOL    HW237254   2.520   2.028   3.663 -0.0692 -0.0478  0.4919
 8598SOL     OW37255   3.135   0.712   8.916 -0.1361  0.5567 -0.0618
 8598SOL    HW137256   3.221   0.750   8.895  0.4215 -1.9560 -2.2287
 8598SOL    HW237257   3.094   0.705   8.830 -4.2107  0.8415  1.8777
 8599SOL     OW37258   2.528   3.571   4.381 -0.7779  0.0391 -0.2166
 8599SOL    HW137259   2.597   3.511   4.351  0.1336  0.8698  0.2361
 8599SOL    HW237260   2.456   3.509   4.391  0.0025 -0.6648  1.0680
 8600SOL     OW37261   1.863   0.246   7.608  0.2797  0.6770  0.2415
 8600SOL    HW137262   1.818   0.330   7.617  2.8479  2.1122 -0.0955
 8600SOL    HW237263   1.946   0.266   7.651  0.9098  0.4199 -0.8469
 8601SOL     OW37264   4.697   1.464   3.624  0.0202 -0.3085 -0.7620
 8601SOL    HW137265   0.067   1.440   3.610 -0.8324 -3.4732 -0.8920
 8601SOL    HW237266   4.667   1.493   3.537  1.3884 -2.0126 -1.8106
 8602SOL     OW37267   1.615   3.944   2.898 -0.0591  0.3962  0.3251
 8602SOL    HW137268   1.600   3.856   2.932 -0.0015 -0.4613 -1.8865
 8602SOL    HW237269   1.555   4.004   2.942 -0.4975 -1.2332  1.9664
 8603SOL     OW37270   0.989   0.040   5.911 -0.3862 -0.1487  0.9069
 8603SOL    HW137271   0.960   0.128   5.886 -0.6882 -0.8644 -1.2246
 8603SOL    HW237272   1.084   0.045   5.898 -0.3600 -2.6584  0.1889
 8604SOL     OW37273   3.873   3.194   4.903 -0.1963 -0.5270 -0.4609
 8604SOL    HW137274   3.963   3.183   4.933 -0.8441 -1.6266  1.0989
 8604SOL    HW237275   3.884   3.194   4.808 -0.0363 -1.4609 -0.4435
 8605SOL     OW37276   3.146   3.694   1.964  0.3621  0.3122 -0.1375
 8605SOL    HW137277   3.158   3.763   2.029  2.1954  2.0363 -2.2922
 8605SOL    HW237278   3.051   3.691   1.961  0.3919 -0.6200 -0.3938
 8606SOL     OW37279   3.619   4.456   9.574  0.0577 -0.2512 -0.0731
 8606SOL    HW137280   3.702   4.498   9.553  0.1337  0.2951  1.3310
 8606SOL    HW237281   3.558   4.529   9.557 -0.4385 -0.6289  0.0701
 8607SOL     OW37282   2.066   2.886   1.753  0.5325 -0.1132 -0.2075
 8607SOL    HW137283   2.022   2.968   1.731  1.5931  0.7596  0.9165
 8607SOL    HW237284   2.119   2.864   1.676  0.2049  1.0808 -0.7770
 8608SOL     OW37285   0.313   2.453   1.244  1.0070 -0.4925  0.4468
 8608SOL    HW137286   0.363   2.372   1.234 -0.1168 -1.0417 -0.6243
 8608SOL    HW237287   0.244   2.434   1.181  1.7702  2.3442 -1.2406
 8609SOL     OW37288   1.216   3.530   7.379  0.6678  0.0185 -0.5970
 8609SOL    HW137289   1.138   3.585   7.379 -1.5989 -3.2520  1.6690
 8609SOL    HW237290   1.199   3.468   7.450  0.3148  0.5744 -0.1870
 8610SOL     OW37291   1.950   0.351  12.555 -0.3977  0.1738  0.0624
 8610SOL    HW137292   1.861   0.346  12.522  0.1810 -1.5190 -1.2533
 8610SOL    HW237293   1.934   0.313  12.642 -3.1462  0.9365 -0.1364
 8611SOL     OW37294   3.611   4.523  17.299  0.3788 -0.8337 -0.1698
 8611SOL    HW137295   3.669   4.534  17.373  0.6354 -3.4869  0.0414
 8611SOL    HW237296   3.523   4.538  17.333  0.4633  0.4416 -0.5344
 8612SOL     OW37297   2.161   3.780   2.709  0.1003  0.0818 -0.0514
 8612SOL    HW137298   2.119   3.806   2.626 -0.3361  0.6750  0.3515
 8612SOL    HW237299   2.237   3.838   2.712  0.0707  0.0383  1.3999
 8613SOL     OW37300   1.540   4.569  17.407 -0.1188 -0.2552  0.1429
 8613SOL    HW137301   1.493   4.581  17.324  1.0024  0.3207 -0.4088
 8613SOL    HW237302   1.623   4.537  17.371 -1.2914 -0.4909 -2.3520
 8614SOL     OW37303   3.080   0.627   4.095 -0.0253  0.7986 -0.0072
 8614SOL    HW137304   3.016   0.629   4.024  0.2369  1.6048 -0.2187
 8614SOL    HW237305   3.144   0.686   4.054  0.3661  0.8941  0.7292
 8615SOL     OW37306   1.641   3.385   2.556 -0.8699  0.1413 -0.4862
 8615SOL    HW137307   1.651   3.446   2.630 -1.1492 -1.6058  0.9809
 8615SOL    HW237308   1.731   3.354   2.551 -0.3581  1.4532  0.3378
 8616SOL     OW37309   0.154   3.480   7.128  0.3151 -0.3894 -0.0495
 8616SOL    HW137310   0.159   3.384   7.128 -2.3702 -0.5277 -1.6995
 8616SOL    HW237311   0.152   3.501   7.035 -0.8359 -0.8126 -0.1252
 8617SOL     OW37312   2.071   3.214   2.243 -0.6356  0.1360  0.8565
 8617SOL    HW137313   2.133   3.184   2.176 -1.4369  1.0762 -0.3180
 8617SOL    HW237314   2.017   3.136   2.253  1.5135 -1.4555  0.0282
 8618SOL     OW37315   0.842   0.704   5.469 -0.9148 -0.3336 -0.2462
 8618SOL    HW137316   0.856   0.690   5.375  2.5588  2.8712 -0.2198
 8618SOL    HW237317   0.754   0.667   5.473 -1.4365  0.8225 -0.7699
 8619SOL     OW37318   2.134   3.848   6.490 -0.1883 -0.1289  0.7159
 8619SOL    HW137319   2.116   3.771   6.435  2.6164 -1.4880  1.7220
 8619SOL    HW237320   2.048   3.889   6.483 -1.2527 -2.4554 -0.1424
 8620SOL     OW37321   0.483   3.015   8.588  0.4638  0.2158  0.2698
 8620SOL    HW137322   0.477   2.956   8.663  0.5898 -1.5357 -1.0948
 8620SOL    HW237323   0.573   3.004   8.558 -0.3272 -3.4022 -0.8905
 8621SOL     OW37324   3.806   1.763  10.119 -0.1606  0.1273  0.2211
 8621SOL    HW137325   3.733   1.811  10.158 -3.3309 -1.4206 -3.7210
 8621SOL    HW237326   3.765   1.678  10.101 -1.0749  0.8812 -1.2815
 8622SOL     OW37327   2.984   1.934   5.066 -0.5837  0.0363 -0.0351
 8622SOL    HW137328   3.038   2.013   5.066 -0.5863  0.0362  1.1675
 8622SOL    HW237329   3.007   1.894   5.150 -0.4887  0.3286  0.0780
 8623SOL     OW37330   3.492   2.578   8.636  0.3985 -0.1742 -0.2146
 8623SOL    HW137331   3.488   2.518   8.711  0.0198 -0.0720 -0.1497
 8623SOL    HW237332   3.579   2.616   8.645 -1.1141  3.4528 -0.4667
 8624SOL     OW37333   0.442   0.543   2.498  0.5606  0.4922 -0.2215
 8624SOL    HW137334   0.447   0.577   2.408 -3.0425  0.3401 -0.4751
 8624SOL    HW237335   0.360   0.576   2.534  0.2615 -1.8868  1.3075
 8625SOL     OW37336   0.492   3.281   0.003  0.1172 -0.0926  0.0022
 8625SOL    HW137337   0.497   3.368   0.043 -0.3549 -0.7526  1.5030
 8625SOL    HW237338   0.578   3.264  17.655 -0.4555 -0.3283 -1.1566
 8626SOL     OW37339   1.210   3.842  17.445 -0.4936  0.1411 -0.0444
 8626SOL    HW137340   1.196   3.748  17.453  3.3280 -0.4783 -0.8021
 8626SOL    HW237341   1.305   3.852  17.439 -0.7999  2.6455 -0.7759
 8627SOL     OW37342   0.748   4.229   8.672 -0.5600 -0.2048 -0.1523
 8627SOL    HW137343   0.833   4.199   8.639 -0.0250 -1.5764  2.4842
 8627SOL    HW237344   0.687   4.183   8.613 -0.9949 -1.1092  0.9985
 8628SOL     OW37345   0.160   2.448   7.628  0.1716 -0.8176  0.1047
 8628SOL    HW137346   0.245   2.490   7.615 -0.2084 -0.4195 -1.1164
 8628SOL    HW237347   0.169   2.397   7.708  2.0018  0.7063  0.8640
 8629SOL     OW37348   1.429   3.611   7.092  0.1425 -0.4296 -0.4030
 8629SOL    HW137349   1.474   3.557   7.027 -1.5389 -0.5401 -1.4751
 8629SOL    HW237350   1.342   3.623   7.054  0.2026  1.1481 -0.0446
 8630SOL     OW37351   4.548   1.159   7.640 -0.0961 -0.5649  0.2061
 8630SOL    HW137352   4.571   1.099   7.568 -0.1416  0.4030 -0.6232
 8630SOL    HW237353   4.602   1.138   7.715  1.8148  1.1412 -0.7025
 8631SOL     OW37354   2.084   2.501   5.811 -0.0217 -0.0178  0.4113
 8631SOL    HW137355   1.994   2.471   5.816 -0.4511  1.0313 -0.9950
 8631SOL    HW237356   2.127   2.432   5.761  0.1760  1.1160 -0.9926
 8632SOL     OW37357   2.348   1.134   9.537  0.0566  0.3640 -0.2005
 8632SOL    HW137358   2.348   1.039   9.535  1.8247  0.3748 -0.7421
 8632SOL    HW237359   2.264   1.153   9.580 -0.6818  0.0198 -1.4758
 8633SOL     OW37360   2.627   0.297  13.959  1.0572  0.1953 -0.5104
 8633SOL    HW137361   2.556   0.286  14.023  0.8753  1.5280 -0.4793
 8633SOL    HW237362   2.618   0.217  13.909  1.0772 -0.2469  0.1890
 8634SOL     OW37363   4.011   1.568   5.931 -0.1488 -0.3342 -0.0591
 8634SOL    HW137364   3.935   1.510   5.933  0.4163 -1.0387  0.8388
 8634SOL    HW237365   4.081   1.511   5.962  1.7981  0.8507 -2.2748
 8635SOL     OW37366   0.642   3.842   3.315 -1.0627  0.5513  0.8104
 8635SOL    HW137367   0.645   3.933   3.286 -0.2255  0.4174  0.4746
 8635SOL    HW237368   0.556   3.803   3.300 -0.0890 -1.3743  0.1039
 8636SOL     OW37369   3.487   3.810  11.161  0.0129 -0.2743 -0.6561
 8636SOL    HW137370   3.417   3.863  11.126 -0.1468  1.2720  2.0256
 8636SOL    HW237371   3.436   3.751  11.217 -1.4594  0.5035 -1.1911
 8637SOL     OW37372   0.748   1.714   3.656  0.0999 -0.2764 -0.0585
 8637SOL    HW137373   0.789   1.761   3.583 -0.4454  1.8862  1.0202
 8637SOL    HW237374   0.825   1.664   3.682 -0.1548 -1.1249 -0.9400
 8638SOL     OW37375   4.045   2.093   4.878 -0.0139 -0.0018 -0.0076
 8638SOL    HW137376   4.040   2.014   4.931  0.0632  1.5234  2.2489
 8638SOL    HW237377   4.103   2.150   4.928  0.9083  0.4062 -1.5179
 8639SOL     OW37378   1.670   1.579  16.250 -0.0642  0.2013  0.3841
 8639SOL    HW137379   1.652   1.653  16.193 -0.6224 -0.7213 -0.6468
 8639SOL    HW237380   1.753   1.543  16.218 -0.8365 -0.6389 -0.6812
 8640SOL     OW37381   1.332   3.567   3.392 -0.3657  0.1251 -0.5691
 8640SOL    HW137382   1.276   3.522   3.454 -0.5052  0.1941 -0.6452
 8640SOL    HW237383   1.407   3.593   3.447 -1.4272  0.8087  0.5469
 8641SOL     OW37384   2.077   3.266   4.559 -0.5328 -0.3309  0.2104
 8641SOL    HW137385   2.162   3.301   4.586 -0.0652 -1.7253  0.5676
 8641SOL    HW237386   2.033   3.351   4.558  2.1256  1.0174 -0.9435
 8642SOL     OW37387   1.403   1.613   3.306  0.1794  0.7341  0.2198
 8642SOL    HW137388   1.498   1.613   3.294 -0.0166 -0.1093 -1.2796
 8642SOL    HW237389   1.375   1.575   3.223  0.5461  1.4032 -0.2146
 8643SOL     OW37390   3.961   3.073   5.237  0.3624  0.0027 -0.8108
 8643SOL    HW137391   3.966   3.124   5.318  0.1598  2.6465 -2.4650
 8643SOL    HW237392   3.936   2.987   5.271 -1.0482  1.1728  1.0890
 8644SOL     OW37393   0.727   0.082  10.606 -0.1935 -0.4847  0.0969
 8644SOL    HW137394   0.791   0.120  10.546 -0.0682  0.4887  0.8494
 8644SOL    HW237395   0.784   0.056  10.678  1.1669  0.6945 -0.5565
 8645SOL     OW37396   3.046   4.024  17.667  0.2272  0.4441 -0.3817
 8645SOL    HW137397   3.111   3.956  17.649 -1.2775 -0.8189 -1.0951
 8645SOL    HW237398   3.001   4.032  17.583  1.4090  1.8059 -0.8774
 8646SOL     OW37399   0.163   4.415   6.786  0.1822 -0.5723  0.4085
 8646SOL    HW137400   0.204   4.477   6.725 -1.3294  1.2161  1.2067
 8646SOL    HW237401   0.237   4.404   6.845 -1.2019 -0.2573  2.1890
 8647SOL     OW37402   1.077   4.414  12.040  0.0412 -0.4379  0.2903
 8647SOL    HW137403   1.052   4.332  12.083  0.2329 -0.8672 -0.4138
 8647SOL    HW237404   1.056   4.481  12.105  0.8588  0.8295 -0.7288
 8648SOL     OW37405   1.818   2.302   1.328 -0.1649 -0.3712 -0.4942
 8648SOL    HW137406   1.852   2.292   1.417  1.0747 -0.7077 -1.0024
 8648SOL    HW237407   1.872   2.241   1.277  2.1471 -0.1601  1.6587
 8649SOL     OW37408   2.087   0.897   1.793 -0.8569  0.1241  0.1873
 8649SOL    HW137409   2.065   0.966   1.855  1.5331 -0.1487  1.3318
 8649SOL    HW237410   2.022   0.913   1.724 -0.5293 -0.1848 -0.1979
 8650SOL     OW37411   0.875   2.128   7.347 -0.1520  0.1298 -0.1419
 8650SOL    HW137412   0.964   2.113   7.379 -0.9777  0.4113  2.2798
 8650SOL    HW237413   0.894   2.092   7.260 -0.5411 -1.0818  0.2742
 8651SOL     OW37414   1.825   0.636   2.597  0.2439 -0.3353  0.3658
 8651SOL    HW137415   1.778   0.668   2.673 -1.5218 -2.9110  0.3685
 8651SOL    HW237416   1.850   0.551   2.633 -1.9023 -1.5417 -0.9861
 8652SOL     OW37417   1.368   0.465   8.641  0.0162  0.0679 -0.8831
 8652SOL    HW137418   1.368   0.500   8.552 -2.3085  1.7872 -0.2066
 8652SOL    HW237419   1.389   0.373   8.625  0.8324  0.4011 -1.7267
 8653SOL     OW37420   4.394   0.040   6.211  0.3453  0.2975 -0.4963
 8653SOL    HW137421   4.364   0.080   6.129  0.0564 -0.2747 -0.6758
 8653SOL    HW237422   4.383   4.669   6.190 -2.3688  0.3194  0.8258
 8654SOL     OW37423   0.939   0.400   5.526  0.1023  0.0763  0.3417
 8654SOL    HW137424   0.936   0.441   5.440  2.0923 -2.4087 -0.9095
 8654SOL    HW237425   0.848   0.380   5.549 -0.8293  1.9292 -1.7466
 8655SOL     OW37426   3.785   1.995   3.974 -0.2895 -0.1252  0.2500
 8655SOL    HW137427   3.864   1.984   3.921  0.2211 -3.0510  1.6183
 8655SOL    HW237428   3.824   2.034   4.052 -2.5088 -1.3180  1.9564
 8656SOL     OW37429   4.544   1.384  10.730 -0.4859 -0.2845  0.3210
 8656SOL    HW137430   4.568   1.472  10.757 -0.8912 -0.0190 -0.1935
 8656SOL    HW237431   4.462   1.374  10.778 -0.5072  0.8905  0.5167
 8657SOL     OW37432   3.805   2.873  17.611  0.1937 -0.1597  0.1867
 8657SOL    HW137433   3.712   2.880  17.591 -0.1015 -2.7809  0.6289
 8657SOL    HW237434   3.840   2.927  17.540 -1.1045  0.3486 -0.0613
 8658SOL     OW37435   2.839   2.469   4.421  0.3495  0.2639  0.0271
 8658SOL    HW137436   2.830   2.424   4.505 -0.0721 -2.1556 -1.3080
 8658SOL    HW237437   2.863   2.559   4.443 -3.3377  1.2027  0.1414
 8659SOL     OW37438   4.402   2.511   0.517  0.1092  0.1732 -0.0333
 8659SOL    HW137439   4.348   2.478   0.445  2.7700 -0.2136 -1.8672
 8659SOL    HW237440   4.426   2.598   0.485 -1.3554  0.6437  0.1375
 8660SOL     OW37441   1.414   3.725   5.089  0.4578  0.2335  0.5905
 8660SOL    HW137442   1.507   3.717   5.071  0.5300 -0.1570  1.1581
 8660SOL    HW237443   1.387   3.714   4.998  2.3319 -2.2027  0.3453
 8661SOL     OW37444   1.076   2.511  17.155  0.3286 -0.1708  0.5685
 8661SOL    HW137445   1.159   2.486  17.114 -1.3433 -0.7813 -2.4503
 8661SOL    HW237446   1.068   2.605  17.141  1.1248 -0.0023  1.2303
 8662SOL     OW37447   3.426   2.222  11.102 -0.1531  0.7069 -0.4545
 8662SOL    HW137448   3.415   2.316  11.091 -0.0026  0.5935 -1.5551
 8662SOL    HW237449   3.507   2.207  11.052 -0.4781 -0.6873 -0.5452
 8663SOL     OW37450   0.326   2.746   5.480  0.0190  0.2330  0.0473
 8663SOL    HW137451   0.289   2.658   5.491  1.5403 -0.3916  0.0865
 8663SOL    HW237452   0.419   2.739   5.462 -0.0264 -0.6722  0.1746
 8664SOL     OW37453   2.297   0.141   6.236 -0.0048  0.0221 -0.3129
 8664SOL    HW137454   2.222   0.100   6.280 -0.2837  1.8117  0.8536
 8664SOL    HW237455   2.251   0.148   6.152 -2.4028 -0.0156  0.9943
 8665SOL     OW37456   3.724   2.753   8.604  0.9326  0.3937 -0.3800
 8665SOL    HW137457   3.722   2.840   8.644  0.8823  0.0146  0.4570
 8665SOL    HW237458   3.815   2.756   8.574  0.6990  0.8093 -1.0429
 8666SOL     OW37459   0.466   4.116   5.226 -0.3835 -0.3257  0.4459
 8666SOL    HW137460   0.427   4.052   5.285  0.4402 -0.9973  0.2520
 8666SOL    HW237461   0.543   4.077   5.186 -1.8110 -0.2033 -2.4301
 8667SOL     OW37462   0.703   0.174   5.607 -0.0987  0.1825 -0.0883
 8667SOL    HW137463   0.646   0.111   5.651  0.6336 -1.5894 -1.6861
 8667SOL    HW237464   0.680   0.254   5.654  1.1571  0.8245 -0.5595
 8668SOL     OW37465   1.286   2.475  16.856 -0.7496  0.0834  0.3399
 8668SOL    HW137466   1.303   2.503  16.766 -0.2381 -1.0460  0.0792
 8668SOL    HW237467   1.370   2.431  16.876 -0.3362  0.1155 -1.3656
 8669SOL     OW37468   3.689   0.279   1.672  0.3904 -0.5956 -0.1090
 8669SOL    HW137469   3.685   0.241   1.585 -1.7800  0.8624 -0.6362
 8669SOL    HW237470   3.767   0.334   1.661 -0.9547  1.6663  1.5410
 8670SOL     OW37471   1.010   2.000  16.622  0.0092 -0.1331  0.2044
 8670SOL    HW137472   1.006   1.990  16.717 -1.0257  2.9244  0.4843
 8670SOL    HW237473   1.104   2.006  16.605 -0.0025 -0.8603 -0.0867
 8671SOL     OW37474   1.340   1.431  15.770  0.2394 -0.1279  0.2317
 8671SOL    HW137475   1.294   1.445  15.687 -0.0693 -0.6495  0.3100
 8671SOL    HW237476   1.303   1.352  15.809 -1.4054  1.1844  1.3609
 8672SOL     OW37477   2.028   1.385   5.708 -0.1851  0.5827 -0.7642
 8672SOL    HW137478   2.009   1.392   5.614  1.5978 -1.7065 -1.3048
 8672SOL    HW237479   1.941   1.381   5.747  1.0211  2.9382  2.1488
 8673SOL     OW37480   3.333   4.258  16.981  0.9307 -0.0313  0.2074
 8673SOL    HW137481   3.253   4.216  16.948 -0.0472  0.2430  2.1975
 8673SOL    HW237482   3.387   4.235  16.906 -1.3788  1.0433 -1.7835
 8674SOL     OW37483   2.802   1.575   0.040  0.0153 -0.2263  0.5229
 8674SOL    HW137484   2.711   1.582   0.011 -0.0367  0.2010  0.7791
 8674SOL    HW237485   2.822   1.665   0.067  0.7498 -0.5841  1.1756
 8675SOL     OW37486   2.908   2.442   9.721 -0.2998 -0.0032  0.2996
 8675SOL    HW137487   2.813   2.443   9.714 -0.3477  1.0910  0.9666
 8675SOL    HW237488   2.942   2.507   9.660  2.1464 -2.0003 -0.4778
 8676SOL     OW37489   4.254   2.830   8.460  0.0813 -0.2529  0.3966
 8676SOL    HW137490   4.270   2.800   8.549  1.3032  0.6232  0.4747
 8676SOL    HW237491   4.310   2.770   8.410 -2.0209 -2.0062  0.1698
 8677SOL     OW37492   0.001   4.416  14.887  0.0411  0.9450  0.2801
 8677SOL    HW137493   0.015   4.477  14.960  1.5276  0.6625  0.2286
 8677SOL    HW237494   4.640   4.443  14.848  0.8399  0.3383 -1.8117
 8678SOL     OW37495   3.141   4.310   6.011  0.0143 -0.0779  0.6157
 8678SOL    HW137496   3.127   4.293   6.104 -2.1557  1.2886  0.5397
 8678SOL    HW237497   3.072   4.376   6.005 -0.5725 -0.6915  0.4553
 8679SOL     OW37498   2.266   1.530   6.841  0.7567  0.3846 -0.6532
 8679SOL    HW137499   2.242   1.612   6.884 -0.0540 -0.5531  0.6920
 8679SOL    HW237500   2.188   1.477   6.857  1.1859  0.3908  1.5561
 8680SOL     OW37501   3.263   4.280   2.778  0.0976  0.5660 -0.1750
 8680SOL    HW137502   3.350   4.308   2.807  0.7910  0.9757 -2.6270
 8680SOL    HW237503   3.215   4.360   2.757 -3.0768 -1.2031  0.3097
 8681SOL     OW37504   0.744   1.368   3.583  0.3429 -0.3478 -0.3387
 8681SOL    HW137505   0.743   1.405   3.495 -0.6457 -1.5988 -0.8720
 8681SOL    HW237506   0.828   1.402   3.613  0.7576  0.1748 -2.0866
 8682SOL     OW37507   2.409   0.307  12.693 -0.0552 -0.1030 -0.1478
 8682SOL    HW137508   2.390   0.214  12.678  0.1164 -0.2887  0.8138
 8682SOL    HW237509   2.339   0.352  12.646 -1.6690 -0.4577  1.9225
 8683SOL     OW37510   0.258   2.996  10.183  0.1845 -0.4788  0.5967
 8683SOL    HW137511   0.263   3.083  10.143 -3.1492 -0.4947  0.1415
 8683SOL    HW237512   0.176   2.956  10.153 -0.1020 -0.3596  1.2182
 8684SOL     OW37513   1.931   2.590  14.923 -0.0847 -0.4065  0.3634
 8684SOL    HW137514   1.905   2.542  14.844 -1.3790  0.9706 -0.0445
 8684SOL    HW237515   2.025   2.594  14.903 -0.0504 -1.3909  0.3164
 8685SOL     OW37516   1.491   0.305   8.246 -0.5949  0.3830  0.2222
 8685SOL    HW137517   1.558   0.313   8.314  1.5598  0.2947 -1.8813
 8685SOL    HW237518   1.423   0.358   8.288 -0.2692  1.0456 -0.0783
 8686SOL     OW37519   0.933   1.683   4.463  0.0779 -0.3022 -0.0567
 8686SOL    HW137520   0.864   1.682   4.397 -0.5523 -1.4782  0.6107
 8686SOL    HW237521   0.925   1.589   4.479  0.6778 -0.3954 -0.2656
 8687SOL     OW37522   0.026   4.263   6.607 -0.4126 -0.2921  0.3447
 8687SOL    HW137523   0.056   4.311   6.685 -2.4942 -1.4333  1.8713
 8687SOL    HW237524   4.656   4.275   6.633 -1.5922 -3.1677 -2.5788
 8688SOL     OW37525   0.391   3.909   0.559  0.5162  0.3581  0.0224
 8688SOL    HW137526   0.394   3.997   0.597 -1.1367  0.0285  0.9480
 8688SOL    HW237527   0.307   3.883   0.597  1.0535 -1.1093  0.2226
 8689SOL     OW37528   0.375   4.349   6.976 -0.1860 -0.1292  0.7277
 8689SOL    HW137529   0.405   4.293   7.047  0.6021  0.4480  0.8478
 8689SOL    HW237530   0.452   4.345   6.919 -0.3055  0.6074  0.5158
 8690SOL     OW37531   4.324   2.091   5.199 -0.7532  0.0974 -0.4462
 8690SOL    HW137532   4.252   2.121   5.254 -2.0543 -0.7222 -1.7011
 8690SOL    HW237533   4.301   1.999   5.187  0.4180 -0.3608  0.9723
 8691SOL     OW37534   4.401   4.112   9.893 -0.0116  0.1949  0.0011
 8691SOL    HW137535   4.427   4.152   9.975  0.4822  3.3272 -1.7055
 8691SOL    HW237536   4.397   4.189   9.836  1.6538 -0.1676 -0.6166
 8692SOL     OW37537   1.344   2.752   2.884  0.5052  0.1686 -0.1557
 8692SOL    HW137538   1.414   2.739   2.820 -0.8995 -1.1052 -1.4417
 8692SOL    HW237539   1.266   2.734   2.832 -0.2009 -0.7057  1.2131
 8693SOL     OW37540   0.534   1.934   1.511 -0.1257  0.3258  0.1600
 8693SOL    HW137541   0.494   2.012   1.472  0.1387  0.3116 -0.1318
 8693SOL    HW237542   0.488   1.856   1.482  1.2042 -0.2823 -0.3083
 8694SOL     OW37543   3.202   0.152   1.656  0.3032  0.2167  0.4107
 8694SOL    HW137544   3.116   0.173   1.619  0.9440 -0.1966 -1.3026
 8694SOL    HW237545   3.187   0.060   1.678  0.7994  0.5123  1.9812
 8695SOL     OW37546   3.035   4.631   1.323 -0.1321 -0.1689  0.4878
 8695SOL    HW137547   3.074   4.595   1.244  0.3913 -0.1707  0.7473
 8695SOL    HW237548   3.074   4.719   1.322  0.4572 -0.4274  1.0525
 8696SOL     OW37549   1.607   4.354   4.688 -0.5422  0.7594 -0.4147
 8696SOL    HW137550   1.527   4.312   4.720  0.2538 -0.9736 -0.7001
 8696SOL    HW237551   1.568   4.437   4.662  0.0034  0.9687 -0.5611
 8697SOL     OW37552   3.898   4.290  15.867  0.3342  0.4986 -0.6428
 8697SOL    HW137553   3.864   4.202  15.849  1.3931  0.3334 -1.7764
 8697SOL    HW237554   3.887   4.294  15.962  0.5143 -0.1242 -0.6010
 8698SOL     OW37555   0.062   0.235  14.256  0.0945 -0.1777 -0.3998
 8698SOL    HW137556   0.013   0.314  14.233 -2.0380 -0.6188  2.6077
 8698SOL    HW237557   4.718   0.166  14.246 -0.6469  0.1368  2.1819
 8699SOL     OW37558   0.625   3.415  14.026 -0.4173 -0.2281  0.5345
 8699SOL    HW137559   0.541   3.374  14.042  0.0317 -1.7495 -0.9865
 8699SOL    HW237560   0.622   3.503  14.063  2.5641  0.3079 -0.4417
 8700SOL     OW37561   1.345   0.975  16.957  0.0815  0.3149 -0.1745
 8700SOL    HW137562   1.332   0.986  17.051 -0.1354 -1.3206 -0.0117
 8700SOL    HW237563   1.441   0.975  16.958  0.0774  0.8781 -0.0083
 8701SOL     OW37564   3.099   1.472   3.746  0.0285 -0.4346 -0.1959
 8701SOL    HW137565   3.080   1.533   3.817 -1.2238  0.8122 -1.5895
 8701SOL    HW237566   3.140   1.403   3.797 -0.0667  1.7495  2.8146
 8702SOL     OW37567   3.722   3.895   3.952  0.2155 -0.3281 -0.0009
 8702SOL    HW137568   3.816   3.876   3.945  0.1573 -0.8187  0.5014
 8702SOL    HW237569   3.727   3.925   4.043 -0.1350 -0.3750  0.0319
 8703SOL     OW37570   4.422   2.894  16.817 -0.4207 -0.7274 -0.0206
 8703SOL    HW137571   4.364   2.934  16.752 -0.5376  0.9469  1.1296
 8703SOL    HW237572   4.366   2.873  16.890 -2.2730 -0.9105 -1.4970
 8704SOL     OW37573   1.015   4.621   8.702  0.0725  0.2351  0.1762
 8704SOL    HW137574   0.994   4.541   8.654  0.1214  0.7652 -0.7366
 8704SOL    HW237575   0.929   4.662   8.709  0.1267  0.7922 -2.5432
 8705SOL     OW37576   0.807   0.374  16.482  0.9176 -0.4456  0.3688
 8705SOL    HW137577   0.828   0.467  16.469  1.1959 -0.2631  2.1172
 8705SOL    HW237578   0.766   0.383  16.568  0.9409  1.1656  0.2159
 8706SOL     OW37579   3.828   0.297  10.293  0.3840  0.8250 -0.1993
 8706SOL    HW137580   3.864   0.209  10.277 -1.2922  0.4010 -1.7325
 8706SOL    HW237581   3.769   0.298  10.218 -0.8391  0.1858  0.7576
 8707SOL     OW37582   1.446   1.056   3.870  0.3768 -0.4098 -0.4624
 8707SOL    HW137583   1.459   1.093   3.958  0.0827  2.1435 -1.4888
 8707SOL    HW237584   1.470   1.126   3.810  0.6365 -0.5519 -0.5209
 8708SOL     OW37585   1.292   1.112  16.369  0.6313  0.7150 -0.0043
 8708SOL    HW137586   1.242   1.085  16.292  1.0131 -0.2248  0.0786
 8708SOL    HW237587   1.223   1.162  16.411  0.2260  0.8647 -0.8499
 8709SOL     OW37588   3.321   3.233   2.455  0.4590 -0.4253 -0.5591
 8709SOL    HW137589   3.383   3.305   2.445 -0.3582  0.1307 -1.6887
 8709SOL    HW237590   3.275   3.251   2.537 -0.3162 -2.6128 -0.5135
 8710SOL     OW37591   3.751   0.875   4.087 -0.5383  0.2099 -0.5785
 8710SOL    HW137592   3.697   0.814   4.137  0.7957 -0.3048  0.2432
 8710SOL    HW237593   3.771   0.946   4.148 -0.6581  0.2764 -0.6167
 8711SOL     OW37594   2.462   2.958   2.611  0.3077 -0.1566 -0.4126
 8711SOL    HW137595   2.442   3.023   2.544  1.9244  0.6223 -0.1531
 8711SOL    HW237596   2.518   2.898   2.561  0.3078 -0.3360 -0.1961
 8712SOL     OW37597   2.071   1.912   3.119  0.5163 -0.3230 -0.5724
 8712SOL    HW137598   2.112   1.999   3.125  0.8154 -0.4315 -0.9950
 8712SOL    HW237599   2.084   1.900   3.025  1.1222  1.5742 -0.7246
 8713SOL     OW37600   1.474   2.843   6.759 -0.6948 -0.0447  0.6005
 8713SOL    HW137601   1.452   2.811   6.672  1.1624 -0.1448  0.1675
 8713SOL    HW237602   1.564   2.863   6.735 -0.7467 -0.9925 -0.3259
 8714SOL     OW37603   1.197   2.672  11.548 -0.0615 -0.2569 -0.0433
 8714SOL    HW137604   1.128   2.715  11.496 -0.5531  0.2926  1.0496
 8714SOL    HW237605   1.165   2.582  11.550 -1.2161  0.1073 -2.4470
 8715SOL     OW37606   0.317   1.159   6.296 -0.0982 -0.1970 -0.8593
 8715SOL    HW137607   0.291   1.067   6.281 -1.6341  0.1098 -0.0826
 8715SOL    HW237608   0.412   1.146   6.291 -0.0350 -0.8928  2.1514
 8716SOL     OW37609   3.574   2.763   8.397 -0.2292 -0.1948 -0.3021
 8716SOL    HW137610   3.632   2.792   8.327 -0.4763  0.8653 -0.0630
 8716SOL    HW237611   3.633   2.743   8.470  1.6319 -1.9111 -2.2818
 8717SOL     OW37612   1.072   0.011   2.109  0.5843  0.3565  0.4811
 8717SOL    HW137613   1.107   0.100   2.103  0.7199  0.0526 -3.1387
 8717SOL    HW237614   0.999   0.021   2.171  0.3464 -0.5168  0.3345
 8718SOL     OW37615   3.511   2.842  17.488 -0.6372 -0.0492  0.5273
 8718SOL    HW137616   3.505   2.937  17.480  1.2636 -0.2295 -2.8857
 8718SOL    HW237617   3.432   2.829  17.541  0.2114  5.5057  3.1327
 8719SOL     OW37618   1.231   3.389  10.092 -0.1570 -0.1366  0.4845
 8719SOL    HW137619   1.138   3.387  10.072 -0.0383 -0.6334 -0.0233
 8719SOL    HW237620   1.246   3.299  10.120  1.7744 -0.9343 -3.1239
 8720SOL     OW37621   2.591   3.601   0.895 -0.0322  0.4450 -0.5001
 8720SOL    HW137622   2.627   3.516   0.872  0.1048 -0.1142  1.7866
 8720SOL    HW237623   2.603   3.657   0.818  2.8851  0.8910  0.2760
 8721SOL     OW37624   1.803   0.863  13.529  0.4242 -0.2899 -0.1046
 8721SOL    HW137625   1.755   0.945  13.537 -0.3776 -0.6499 -1.2112
 8721SOL    HW237626   1.897   0.877  13.536  0.2619  1.0900 -0.6490
 8722SOL     OW37627   4.341   0.597   0.620  0.0536 -0.0764 -0.0747
 8722SOL    HW137628   4.356   0.525   0.681 -1.5028  2.2051  3.0397
 8722SOL    HW237629   4.318   0.669   0.679 -0.0009  1.7352 -2.3001
 8723SOL     OW37630   1.563   4.147   7.204  0.0433 -0.2280 -0.3552
 8723SOL    HW137631   1.549   4.071   7.147  0.0107  0.4826 -1.2848
 8723SOL    HW237632   1.518   4.111   7.280 -2.5040 -1.4819 -2.4461
 8724SOL     OW37633   0.816   2.971   7.457 -0.1265 -0.4299 -0.2850
 8724SOL    HW137634   0.890   2.989   7.515 -1.4385 -0.4039  1.3829
 8724SOL    HW237635   0.810   2.879   7.482  0.1696  0.2488  2.3293
 8725SOL     OW37636   3.646   0.657  11.952 -0.0443 -0.2799 -0.1180
 8725SOL    HW137637   3.577   0.637  12.015  1.6649 -1.7088  1.2909
 8725SOL    HW237638   3.691   0.574  11.970  0.9805  0.1543 -0.6754
 8726SOL     OW37639   1.762   2.540  12.374 -0.1387 -0.6175  0.0911
 8726SOL    HW137640   1.774   2.633  12.392 -1.8668 -0.4367  0.3594
 8726SOL    HW237641   1.673   2.519  12.404 -1.0971  3.2192 -0.1095
 8727SOL     OW37642   2.151   1.894  16.022  0.7323  0.2707  0.8455
 8727SOL    HW137643   2.081   1.956  16.042 -0.1508 -0.2377 -0.6744
 8727SOL    HW237644   2.107   1.836  15.959  0.5969 -1.6155  2.6813
 8728SOL     OW37645   0.441   3.091  11.480  0.2944  0.5956 -0.3802
 8728SOL    HW137646   0.365   3.080  11.537 -0.3374  0.2236 -1.3158
 8728SOL    HW237647   0.506   3.113  11.547  0.2186 -0.9124  0.1945
 8729SOL     OW37648   4.697   4.249   8.189 -0.1436 -0.9338 -0.8526
 8729SOL    HW137649   4.666   4.178   8.245  0.9568 -0.2235  0.6567
 8729SOL    HW237650   0.064   4.218   8.174  0.0009 -0.9489  0.0221
 8730SOL     OW37651   2.539   4.260  16.761 -0.2314 -0.2471 -0.2440
 8730SOL    HW137652   2.467   4.290  16.705  0.5476  0.2797 -0.9786
 8730SOL    HW237653   2.487   4.218  16.829 -1.7142  0.8463 -0.7126
 8731SOL     OW37654   1.373   0.969   3.260 -0.3541 -0.3918 -0.5357
 8731SOL    HW137655   1.306   0.974   3.328 -0.9859 -0.7398 -1.1495
 8731SOL    HW237656   1.440   1.024   3.302 -0.4808 -2.2664  2.1563
 8732SOL     OW37657   0.563   3.362   3.281 -0.5325  0.0333 -0.5185
 8732SOL    HW137658   0.510   3.414   3.341  0.7185  2.1697 -1.2607
 8732SOL    HW237659   0.649   3.376   3.321  0.4252 -2.5237 -1.6085
 8733SOL     OW37660   1.679   0.947   9.701 -0.1060  0.6167 -0.2971
 8733SOL    HW137661   1.669   0.882   9.631 -0.0087 -0.6218  0.8359
 8733SOL    HW237662   1.633   1.022   9.663 -1.4942  0.5445  1.2582
 8734SOL     OW37663   3.276   3.470   0.756  0.0121  0.5669 -0.2365
 8734SOL    HW137664   3.362   3.437   0.783 -0.6234 -0.9595 -0.0645
 8734SOL    HW237665   3.291   3.514   0.672  0.9042  3.1631  1.2817
 8735SOL     OW37666   2.923   0.702  11.398  0.3455  0.1991  0.3987
 8735SOL    HW137667   2.832   0.706  11.428  0.5966  2.9912  0.7648
 8735SOL    HW237668   2.930   0.771  11.332  2.3537  1.1753  1.6332
 8736SOL     OW37669   2.072   4.318  13.265 -0.1553 -0.4168 -0.0714
 8736SOL    HW137670   2.101   4.409  13.262  0.9055 -0.7631 -0.3976
 8736SOL    HW237671   1.978   4.329  13.253  0.1150  1.1381 -0.8009
 8737SOL     OW37672   4.008   2.871   6.166 -0.6320 -0.3135  0.3116
 8737SOL    HW137673   4.098   2.846   6.190  0.0074 -0.8477 -2.6018
 8737SOL    HW237674   3.951   2.804   6.202  1.3250 -3.3242 -2.2149
 8738SOL     OW37675   3.390   0.266   6.484  0.0381  0.9070 -0.4186
 8738SOL    HW137676   3.410   0.354   6.452  0.2989  1.7258  1.9826
 8738SOL    HW237677   3.463   0.207   6.467 -1.4792 -1.2752  0.6221
 8739SOL     OW37678   2.951   2.665   1.038 -0.2017 -0.4873  0.3074
 8739SOL    HW137679   2.861   2.653   1.068  0.3669 -4.4685  0.3660
 8739SOL    HW237680   2.998   2.625   1.112 -0.0209  0.9477  0.9665
 8740SOL     OW37681   4.266   1.221  15.245 -0.7154  0.1551 -0.3766
 8740SOL    HW137682   4.174   1.211  15.269 -1.0313  1.7570 -0.9184
 8740SOL    HW237683   4.254   1.223  15.150  0.3563 -1.6628 -0.5526
 8741SOL     OW37684   0.385   4.060   1.690 -0.1189 -0.1188 -0.5171
 8741SOL    HW137685   0.431   4.144   1.679 -1.2323  0.7328  1.3567
 8741SOL    HW237686   0.446   4.011   1.744 -0.6702 -1.7756 -1.4117
 8742SOL     OW37687   4.233   2.210  14.315 -0.2555  0.0804 -0.0622
 8742SOL    HW137688   4.242   2.260  14.396  2.0075 -1.7912  0.8378
 8742SOL    HW237689   4.281   2.265  14.254 -0.2949  0.7996  0.5445
 8743SOL     OW37690   0.187   0.575   0.629 -0.2999 -0.0451  0.5830
 8743SOL    HW137691   0.240   0.589   0.708 -0.7783  0.1239  0.8736
 8743SOL    HW237692   0.244   0.537   0.562 -1.6843  0.7218 -1.0427
 8744SOL     OW37693   0.596   0.277  14.841 -0.6310 -0.1943 -0.1998
 8744SOL    HW137694   0.571   0.205  14.899  0.5180 -0.7054 -0.3461
 8744SOL    HW237695   0.517   0.332  14.842 -0.6968 -0.3399  2.5162
 8745SOL     OW37696   2.593   0.731   9.460 -0.0343  0.0888 -0.5856
 8745SOL    HW137697   2.605   0.666   9.391 -1.1227 -2.4506  1.6647
 8745SOL    HW237698   2.672   0.782   9.445  1.4026 -2.0416 -0.2078
 8746SOL     OW37699   1.422   0.558   3.006 -0.1550  0.3888 -0.7028
 8746SOL    HW137700   1.358   0.621   3.039  1.0426  0.9144  0.6332
 8746SOL    HW237701   1.413   0.572   2.912 -2.7918  1.3648 -0.3043
 8747SOL     OW37702   2.867   3.678   1.979 -0.2515 -0.4656 -0.4972
 8747SOL    HW137703   2.812   3.599   1.985  0.4224 -0.8084  1.0425
 8747SOL    HW237704   2.854   3.686   1.884  2.1007 -2.0145 -0.9448
 8748SOL     OW37705   0.738   0.590   0.046  0.5423  0.3216  0.4967
 8748SOL    HW137706   0.749   0.631  17.651 -1.0551 -4.1078 -1.7999
 8748SOL    HW237707   0.668   0.525   0.033 -1.7733  2.7070  0.8893
 8749SOL     OW37708   1.628   4.223   3.450 -0.4111  0.8464 -0.2810
 8749SOL    HW137709   1.690   4.224   3.377  0.8138 -1.3206  0.7119
 8749SOL    HW237710   1.690   4.193   3.517 -0.1973 -0.5140 -1.0955
 8750SOL     OW37711   3.145   1.475  10.613  0.4533 -0.1823  0.7402
 8750SOL    HW137712   3.187   1.522  10.685  0.1035  0.0398  0.8048
 8750SOL    HW237713   3.175   1.532  10.542  0.6991 -1.2614 -0.0065
 8751SOL     OW37714   2.717   1.308   4.546 -0.4846  0.0491  0.2512
 8751SOL    HW137715   2.678   1.394   4.531  1.1374  0.9817  1.3877
 8751SOL    HW237716   2.662   1.258   4.487 -0.2954  1.1922 -0.8991
 8752SOL     OW37717   0.580   4.127  17.683 -0.1775 -0.0365 -0.2315
 8752SOL    HW137718   0.509   4.082  17.637  0.9882 -0.9613 -1.1550
 8752SOL    HW237719   0.533   4.171   0.063  0.0871 -0.9515  0.5230
 8753SOL     OW37720   0.528   3.717  15.250 -0.2132 -0.1244 -0.4164
 8753SOL    HW137721   0.449   3.769  15.239  0.9276  1.8257  0.6116
 8753SOL    HW237722   0.584   3.768  15.191 -0.7961  1.7795  0.6972
 8754SOL     OW37723   0.616   0.858   4.155 -0.1232 -0.2543  0.4060
 8754SOL    HW137724   0.647   0.798   4.088 -1.0325 -1.1445  0.7741
 8754SOL    HW237725   0.523   0.869   4.133  0.0030 -2.1312 -1.0233
 8755SOL     OW37726   2.596   0.967   9.169 -0.7391  0.1787  0.1721
 8755SOL    HW137727   2.566   1.055   9.192 -1.8394 -0.2310  0.3115
 8755SOL    HW237728   2.578   0.918   9.249  1.1747 -0.3767  0.2795
 8756SOL     OW37729   2.294   4.689   2.282 -0.2106  0.4807 -0.5263
 8756SOL    HW137730   2.248   4.698   2.198 -1.3556  1.9005  0.2509
 8756SOL    HW237731   2.375   4.650   2.250  0.3439  0.0393  1.4316
 8757SOL     OW37732   1.325   0.376   5.825  0.0830  0.0711 -0.2123
 8757SOL    HW137733   1.403   0.413   5.783  0.3819  0.6553  0.8683
 8757SOL    HW237734   1.261   0.445   5.806 -1.2853 -0.4265  2.5855
 8758SOL     OW37735   0.675   2.779   3.050  0.6325  0.2995  0.3978
 8758SOL    HW137736   0.658   2.724   3.127  0.5543 -0.7311 -0.3528
 8758SOL    HW237737   0.762   2.808   3.076  1.6049 -0.2881 -2.2992
 8759SOL     OW37738   1.115   3.729   5.862 -0.1688  0.2223  0.0518
 8759SOL    HW137739   1.098   3.823   5.854  1.6094  0.3438 -2.3684
 8759SOL    HW237740   1.109   3.708   5.955 -0.7834  1.1895  0.2300
 8760SOL     OW37741   0.671   0.864   6.196  0.5074 -0.7332  0.3468
 8760SOL    HW137742   0.755   0.868   6.241 -0.0254  1.2151  1.1856
 8760SOL    HW237743   0.642   0.773   6.199  1.1547 -0.8867  1.8515
 8761SOL     OW37744   3.311   1.655   4.979 -0.3309 -0.1019 -0.0272
 8761SOL    HW137745   3.245   1.650   4.910  1.4595  0.0866 -1.7466
 8761SOL    HW237746   3.327   1.561   4.973 -1.7017 -0.2078 -2.3015
 8762SOL     OW37747   3.218   4.659   7.538 -0.0376 -0.0444 -0.1742
 8762SOL    HW137748   3.202   4.574   7.498  0.0072 -0.4438  0.6512
 8762SOL    HW237749   3.264   4.639   7.620 -0.9712  2.4131  0.9552
 8763SOL     OW37750   3.852   2.558   3.977 -0.1644 -0.9564 -0.3859
 8763SOL    HW137751   3.890   2.470   3.975  1.6778 -0.2470  2.4418
 8763SOL    HW237752   3.796   2.563   3.900  0.0359 -0.8547 -0.5258
 8764SOL     OW37753   4.482   4.376  15.315  0.3048  0.2348  0.0972
 8764SOL    HW137754   4.563   4.421  15.289  1.3670 -2.3346 -0.9950
 8764SOL    HW237755   4.432   4.448  15.354  2.9868  1.6237  1.0265
 8765SOL     OW37756   4.347   1.573   3.368 -0.4394 -0.0980 -0.1121
 8765SOL    HW137757   4.279   1.549   3.305 -1.9068  0.7300  1.1581
 8765SOL    HW237758   4.413   1.505   3.359 -0.8756 -0.4110 -0.9568
 8766SOL     OW37759   2.718   4.219   2.868  0.3731 -0.0160 -0.0561
 8766SOL    HW137760   2.734   4.140   2.919 -0.4449  0.5382  1.0695
 8766SOL    HW237761   2.795   4.219   2.812 -0.0956  0.3540 -0.7073
 8767SOL     OW37762   4.170   4.176   8.871  0.0586  0.1718 -0.1814
 8767SOL    HW137763   4.235   4.207   8.808 -2.9224  4.4898 -1.1186
 8767SOL    HW237764   4.221   4.191   8.951  0.1660  0.6505 -0.3421
 8768SOL     OW37765   1.415   1.493  15.088  0.6028  0.3589 -0.1846
 8768SOL    HW137766   1.421   1.568  15.147  1.6310  0.9493 -1.0482
 8768SOL    HW237767   1.348   1.440  15.132 -0.5090  2.1006  0.1957
 8769SOL     OW37768   3.406   0.013   6.035  0.0275 -0.4305 -0.4286
 8769SOL    HW137769   3.371   4.700   6.117 -0.5313 -3.1483 -1.8629
 8769SOL    HW237770   3.359   4.676   5.977 -1.2167 -0.5600  0.7076
 8770SOL     OW37771   1.851   3.208   2.781  0.3884 -0.1427 -0.1320
 8770SOL    HW137772   1.850   3.152   2.859 -1.2390  2.4267  1.6730
 8770SOL    HW237773   1.776   3.259   2.810 -0.6372  0.5639 -4.0578
 8771SOL     OW37774   2.999   1.200   1.241  0.3271  0.4122  0.1650
 8771SOL    HW137775   3.003   1.130   1.177  1.9532  0.2535  0.4312
 8771SOL    HW237776   3.081   1.180   1.286  0.6670  0.5575 -0.3840
 8772SOL     OW37777   3.307   1.584   3.910 -0.2825 -0.4404 -0.1306
 8772SOL    HW137778   3.366   1.562   3.838  0.5664  0.0380  0.4133
 8772SOL    HW237779   3.372   1.579   3.981  1.5445 -1.2610 -1.8649
 8773SOL     OW37780   2.556   4.169  14.131 -0.1860  0.1411 -0.1300
 8773SOL    HW137781   2.585   4.153  14.221  1.8153  1.0888 -0.6071
 8773SOL    HW237782   2.498   4.093  14.130  1.9962 -1.5014 -0.7869
 8774SOL     OW37783   1.871   2.275   3.262 -0.1202 -1.0261  0.0870
 8774SOL    HW137784   1.836   2.222   3.190  2.5049 -1.1345 -1.0833
 8774SOL    HW237785   1.829   2.226   3.333 -4.4546 -0.9229 -2.3969
 8775SOL     OW37786   4.651   4.448  14.139 -0.1469  0.6946 -0.0364
 8775SOL    HW137787   0.016   4.432  14.176 -0.1661  1.5891  0.3958
 8775SOL    HW237788   4.663   4.390  14.064  2.9009 -0.0496  0.9931
 8776SOL     OW37789   1.727   4.367  16.966  0.1079 -0.3344  0.3936
 8776SOL    HW137790   1.712   4.461  16.956  0.9483 -0.2025  0.3742
 8776SOL    HW237791   1.647   4.339  16.921 -0.6639 -2.1073  2.8852
 8777SOL     OW37792   1.065   2.419   7.928 -0.1413  0.7610  0.5828
 8777SOL    HW137793   0.996   2.456   7.984  0.8253  2.2675  0.7542
 8777SOL    HW237794   1.140   2.436   7.985  1.8180 -2.6142 -1.0411
 8778SOL     OW37795   2.467   3.003   5.314  0.5463  0.4276  0.0149
 8778SOL    HW137796   2.523   3.035   5.243  0.5862 -0.0677 -0.1765
 8778SOL    HW237797   2.492   2.911   5.313 -0.2405  0.2004  1.6011
 8779SOL     OW37798   3.910   0.853   2.771  0.8839 -0.5390  0.3245
 8779SOL    HW137799   3.988   0.812   2.807  0.7369 -2.5767 -1.7343
 8779SOL    HW237800   3.838   0.799   2.803 -0.9523  0.5332 -1.9804
 8780SOL     OW37801   4.659   0.648   6.792 -0.2341 -0.1679 -0.3958
 8780SOL    HW137802   4.717   0.683   6.725 -0.5607 -0.6093 -0.9159
 8780SOL    HW237803   4.580   0.701   6.784  0.2436  0.3584 -1.6224
 8781SOL     OW37804   2.278   1.011   7.559 -0.0410 -0.3030 -0.9822
 8781SOL    HW137805   2.237   1.081   7.509 -0.6260  0.1139  0.0928
 8781SOL    HW237806   2.209   0.989   7.622 -0.5682  3.3262 -0.3359
 8782SOL     OW37807   1.808   1.284   8.139 -0.2408  0.0334  0.7088
 8782SOL    HW137808   1.732   1.316   8.090 -0.8756 -0.1847  1.5491
 8782SOL    HW237809   1.778   1.293   8.229  0.0459 -4.7221  1.2751
 8783SOL     OW37810   3.364   4.182   6.899 -0.6294 -0.0667 -0.3092
 8783SOL    HW137811   3.439   4.242   6.897 -1.3750  0.8518 -0.7120
 8783SOL    HW237812   3.356   4.149   6.810 -1.9051 -0.9105  0.1166
 8784SOL     OW37813   2.146   0.665  12.410 -0.2444 -1.0068  0.0300
 8784SOL    HW137814   2.125   0.759  12.405  0.2978 -0.9014 -0.2406
 8784SOL    HW237815   2.124   0.637  12.321 -0.3897  1.8095 -0.8419
 8785SOL     OW37816   2.425   4.201   7.497  0.3892  0.3882  0.3790
 8785SOL    HW137817   2.458   4.139   7.562  1.0461 -1.3895 -1.6733
 8785SOL    HW237818   2.347   4.155   7.465  1.7764 -2.1996  0.7124
 8786SOL     OW37819   0.876   4.234   9.955 -0.0131 -0.5608 -0.1006
 8786SOL    HW137820   0.801   4.224  10.013 -1.2572 -0.2358 -1.6570
 8786SOL    HW237821   0.848   4.294   9.886  2.2443 -0.8225 -1.2457
 8787SOL     OW37822   2.347   2.850   8.546 -0.3688 -0.3971 -0.4861
 8787SOL    HW137823   2.299   2.894   8.476  0.9553  0.7587 -0.6747
 8787SOL    HW237824   2.436   2.873   8.519 -0.1122 -1.1141 -0.2506
 8788SOL     OW37825   3.224   3.888   5.991 -0.2842 -0.0191 -0.7235
 8788SOL    HW137826   3.295   3.952   5.997 -0.5024  0.0678  0.8589
 8788SOL    HW237827   3.150   3.947   5.975 -1.2781 -0.6422  1.6121
 8789SOL     OW37828   3.464   4.420   5.537 -0.4219  0.2898  0.0022
 8789SOL    HW137829   3.556   4.410   5.564  0.0052 -2.7656 -2.6085
 8789SOL    HW237830   3.470   4.429   5.442  1.9989 -1.9591 -0.0695
 8790SOL     OW37831   0.133   3.565   1.546 -0.0023 -0.0441 -0.2944
 8790SOL    HW137832   0.062   3.541   1.606  0.1680 -2.4609 -1.0414
 8790SOL    HW237833   0.205   3.505   1.563 -0.2948 -0.1249  0.6722
 8791SOL     OW37834   3.492   0.061   3.157 -0.8750 -0.3378 -0.3357
 8791SOL    HW137835   3.415   0.098   3.200 -1.3026  0.1540 -1.5056
 8791SOL    HW237836   3.460   0.025   3.074 -2.2524  2.3619 -0.9819
 8792SOL     OW37837   2.360   1.459   6.482  0.1127 -0.4044  0.1310
 8792SOL    HW137838   2.418   1.534   6.475 -2.1023  1.2304 -0.7323
 8792SOL    HW237839   2.429   1.397   6.507  0.3665 -0.9138 -1.8430
 8793SOL     OW37840   4.281   0.812   3.489 -0.0416  0.5200 -0.7956
 8793SOL    HW137841   4.262   0.884   3.548  0.9391 -0.6558  0.9671
 8793SOL    HW237842   4.194   0.788   3.454 -0.2690  0.4482 -0.1854
 8794SOL     OW37843   4.155   1.216   6.029  0.0893 -0.1165  0.3614
 8794SOL    HW137844   4.097   1.253   6.095  0.5392 -0.0280  0.7094
 8794SOL    HW237845   4.151   1.285   5.964 -3.1100 -2.7721 -2.2269
 8795SOL     OW37846   1.518   4.694   3.371  0.4790 -0.5930 -0.3353
 8795SOL    HW137847   1.600   4.695   3.323  1.3656 -0.5804  1.1921
 8795SOL    HW237848   1.543   4.642   3.447  1.1121 -0.3966 -0.4137
 8796SOL     OW37849   4.259   0.446   6.032  0.0316 -0.1761  0.6097
 8796SOL    HW137850   4.262   0.528   5.982  0.3047  0.5297  1.7756
 8796SOL    HW237851   4.340   0.456   6.082  0.8203 -0.8050 -0.5246
 8797SOL     OW37852   0.932   0.489  17.239  0.6186  0.1973  0.8338
 8797SOL    HW137853   1.021   0.456  17.233 -0.0624 -1.6878  1.3106
 8797SOL    HW237854   0.883   0.414  17.205 -1.7740  1.9526  0.3693
 8798SOL     OW37855   3.813   1.197   2.889 -0.1354  0.0115 -0.2915
 8798SOL    HW137856   3.762   1.215   2.968  0.3478  3.5138 -0.7730
 8798SOL    HW237857   3.905   1.206   2.914  0.0465  1.1012 -1.3674
 8799SOL     OW37858   3.265   1.196   9.726 -0.0990  0.3727  0.0686
 8799SOL    HW137859   3.171   1.208   9.739 -0.2319  0.4022 -0.9099
 8799SOL    HW237860   3.301   1.250   9.796  1.0080  1.4881 -1.3625
 8800SOL     OW37861   2.868   2.288   9.453  0.0708  0.1478  0.1133
 8800SOL    HW137862   2.950   2.332   9.430  0.7134 -1.3370 -0.4916
 8800SOL    HW237863   2.845   2.323   9.538  0.8361 -1.1845  0.8703
 8801SOL     OW37864   0.079   1.673   2.718  0.1625 -0.0124  0.4707
 8801SOL    HW137865   0.120   1.662   2.803  3.5930  0.6219 -1.1164
 8801SOL    HW237866   4.714   1.639   2.741  0.6279 -0.8019  1.0369
 8802SOL     OW37867   2.447   2.246   5.478 -0.3704 -0.1065 -0.2823
 8802SOL    HW137868   2.382   2.198   5.427 -0.7281 -0.1163  0.1794
 8802SOL    HW237869   2.424   2.337   5.458  1.6390  0.3776 -0.3127
 8803SOL     OW37870   0.238   4.196   5.587  0.4321  0.0113  0.6883
 8803SOL    HW137871   0.225   4.234   5.673 -2.2753 -2.0967  1.2286
 8803SOL    HW237872   0.259   4.276   5.540  2.8309  0.0609  1.8526
 8804SOL     OW37873   0.560   0.444  14.618 -0.2914  0.1690 -0.3229
 8804SOL    HW137874   0.588   0.371  14.673 -4.2466 -0.5886  0.6472
 8804SOL    HW237875   0.474   0.451  14.659 -0.9889  0.4638 -1.8548
 8805SOL     OW37876   4.701   1.794   0.768  0.2673  0.3705 -0.2113
 8805SOL    HW137877   4.615   1.808   0.726 -0.3545 -2.5098  0.1451
 8805SOL    HW237878   4.675   1.808   0.859 -3.3689 -0.5346 -1.0724
 8806SOL     OW37879   3.374   4.066  16.185  0.5337  0.1238 -0.8710
 8806SOL    HW137880   3.466   4.083  16.204  0.2748 -0.6606  1.1233
 8806SOL    HW237881   3.348   4.137  16.127 -1.0797  0.1924 -0.0796
 8807SOL     OW37882   1.761   0.661  13.855 -0.2049 -0.5374  0.1857
 8807SOL    HW137883   1.760   0.749  13.817  0.4268 -0.8806 -0.6272
 8807SOL    HW237884   1.719   0.687  13.937 -0.9116 -2.4213  0.4241
 8808SOL     OW37885   3.143   0.346  12.934 -0.1522  0.5948  0.8235
 8808SOL    HW137886   3.063   0.335  12.883  0.4172  0.4479 -0.0333
 8808SOL    HW237887   3.121   0.287  13.006 -1.7520  1.3846  0.9664
 8809SOL     OW37888   1.185   2.600   4.700  0.0590 -0.6220  0.1629
 8809SOL    HW137889   1.167   2.694   4.688 -0.1074 -0.3800  2.2292
 8809SOL    HW237890   1.096   2.569   4.716 -0.3865  0.9029  0.6966
 8810SOL     OW37891   3.479   0.531   6.398  0.7390  0.5491 -0.4025
 8810SOL    HW137892   3.506   0.623   6.398  0.4297  0.6371 -0.4156
 8810SOL    HW237893   3.423   0.526   6.321 -0.2886  2.3060  0.2313
 8811SOL     OW37894   4.321   0.702   5.932 -0.5474 -0.0704 -0.3932
 8811SOL    HW137895   4.260   0.772   5.909 -0.5914  0.1870  0.5073
 8811SOL    HW237896   4.362   0.735   6.012  2.1432 -0.3087 -1.6611
 8812SOL     OW37897   0.580   4.363   0.493  0.0751 -0.1910  0.6595
 8812SOL    HW137898   0.572   4.272   0.520 -0.5978  0.2358  1.9153
 8812SOL    HW237899   0.653   4.393   0.547 -0.3188  1.9564  0.0098
 8813SOL     OW37900   3.114   0.171   8.833  0.5372 -0.2283 -0.6112
 8813SOL    HW137901   3.036   0.133   8.874  1.0479  0.6377  1.1947
 8813SOL    HW237902   3.086   0.262   8.818 -1.4772 -1.0168 -1.5607
 8814SOL     OW37903   2.761   4.044   8.668  0.2283 -0.3297  0.0379
 8814SOL    HW137904   2.817   4.046   8.590  0.9262  0.0607  0.5563
 8814SOL    HW237905   2.783   3.970   8.725 -2.4800 -1.3931 -0.2948
 8815SOL     OW37906   3.436   4.396   5.820 -0.2871  0.1494  0.0448
 8815SOL    HW137907   3.369   4.459   5.845 -1.6706 -1.0855 -0.4866
 8815SOL    HW237908   3.437   4.392   5.724  1.0470 -2.5256  0.1584
 8816SOL     OW37909   0.060   3.409   8.540  0.1938  0.9507 -0.1946
 8816SOL    HW137910   0.049   3.416   8.445  0.6928  0.7276 -0.2686
 8816SOL    HW237911   4.687   3.404   8.550  0.4344 -3.4368 -0.2100
 8817SOL     OW37912   1.221   0.477   3.857 -0.7959  0.4668  0.1637
 8817SOL    HW137913   1.221   0.496   3.763  2.4253  3.9905  0.8605
 8817SOL    HW237914   1.165   0.552   3.878  1.1960  1.9557  0.1055
 8818SOL     OW37915   2.627   4.499  17.445 -0.3908 -0.2330  0.0827
 8818SOL    HW137916   2.579   4.572  17.483  2.1971  1.2287  0.5349
 8818SOL    HW237917   2.708   4.540  17.414  0.0914 -0.1116  1.5322
 8819SOL     OW37918   1.912   3.510   6.381  0.0846  0.1704 -0.2476
 8819SOL    HW137919   1.834   3.563   6.367 -0.6172 -0.7051  0.4371
 8819SOL    HW237920   1.983   3.551   6.330  1.6459  1.4115  2.9629
 8820SOL     OW37921   4.258   2.682   7.114 -0.0198 -0.1789  0.2821
 8820SOL    HW137922   4.270   2.699   7.208 -0.0786 -1.9408  0.6122
 8820SOL    HW237923   4.329   2.620   7.102  0.2898  0.6822 -2.2843
 8821SOL     OW37924   0.367   0.740   1.491 -0.6312  0.1344  0.1657
 8821SOL    HW137925   0.455   0.770   1.469  0.1637  0.6164  3.9167
 8821SOL    HW237926   0.312   0.753   1.414  0.9981 -0.2196 -1.0613
 8822SOL     OW37927   0.729   2.881   6.043 -0.4177  0.1365 -0.2997
 8822SOL    HW137928   0.646   2.866   5.997 -2.0230  1.4067  2.1804
 8822SOL    HW237929   0.773   2.953   5.998  1.0552 -0.7664 -0.3122
 8823SOL     OW37930   4.223   0.476   4.396  0.0105 -0.6333  0.3621
 8823SOL    HW137931   4.184   0.465   4.483 -0.8865  0.9759  0.1605
 8823SOL    HW237932   4.312   0.504   4.415 -0.0677  0.0543 -0.2940
 8824SOL     OW37933   0.269   3.588   0.089  0.1376 -0.1183  0.6453
 8824SOL    HW137934   0.244   3.671   0.131 -1.6945  0.3027 -1.2450
 8824SOL    HW237935   0.364   3.599   0.086  0.2409 -1.4918 -1.4161
 8825SOL     OW37936   0.014   4.192   4.038  0.4194  0.6857 -0.5929
 8825SOL    HW137937   0.100   4.172   4.001  0.9487  1.3495  0.2750
 8825SOL    HW237938   4.679   4.218   3.966 -1.8010 -0.5634  0.6979
 8826SOL     OW37939   1.236   0.736   6.773 -0.3881  0.3062 -0.0066
 8826SOL    HW137940   1.244   0.645   6.744  2.9602 -0.4184  3.2228
 8826SOL    HW237941   1.212   0.723   6.865 -0.3817  1.4308  0.1588
 8827SOL     OW37942   2.709   3.372   8.605  0.0842 -0.1904 -0.0052
 8827SOL    HW137943   2.625   3.417   8.616 -1.1688 -2.1881 -1.2680
 8827SOL    HW237944   2.761   3.402   8.679 -0.9750 -0.3981  0.8245
 8828SOL     OW37945   1.020   2.876   2.770 -0.2644  0.3216 -0.0044
 8828SOL    HW137946   1.071   2.883   2.851 -0.7431 -0.6732  0.3809
 8828SOL    HW237947   1.085   2.821   2.726  0.7843 -0.3200  2.2954
 8829SOL     OW37948   4.013   3.780  12.775 -0.3408 -0.2528 -0.2850
 8829SOL    HW137949   3.987   3.869  12.798  1.1049 -0.1844  1.1117
 8829SOL    HW237950   4.041   3.747  12.860  1.1167  0.2698 -0.5619
 8830SOL     OW37951   0.979   4.180  15.377 -0.0234 -0.1266  0.4673
 8830SOL    HW137952   1.017   4.101  15.415 -2.5180 -1.7043 -0.3130
 8830SOL    HW237953   0.889   4.170  15.408 -1.0001  2.8435 -1.3881
 8831SOL     OW37954   0.881   2.393   2.427  0.6493 -0.0481  0.0583
 8831SOL    HW137955   0.907   2.462   2.365 -3.1161  1.6637  0.4004
 8831SOL    HW237956   0.835   2.325   2.378 -0.0420  0.1767  0.3992
 8832SOL     OW37957   0.376   3.440  13.883 -0.6390 -0.0912  0.3778
 8832SOL    HW137958   0.398   3.403  13.797  2.2303 -1.8314  1.8410
 8832SOL    HW237959   0.368   3.370  13.948  1.4945 -0.7885 -0.1284
 8833SOL     OW37960   3.785   1.024  12.682 -0.3499 -1.1321  0.0503
 8833SOL    HW137961   3.772   0.948  12.739 -1.2859 -1.2250 -0.2865
 8833SOL    HW237962   3.703   1.018  12.633 -0.1706 -3.4772  0.0243
 8834SOL     OW37963   1.051   3.184   7.316  0.1707  0.6420  0.3840
 8834SOL    HW137964   1.013   3.105   7.278 -0.2626 -0.3925  3.0011
 8834SOL    HW237965   1.142   3.162   7.293 -0.3363 -1.8834  0.8076
 8835SOL     OW37966   4.369   1.070   6.775 -0.2125  0.5793  0.5725
 8835SOL    HW137967   4.370   1.145   6.714 -0.9141  0.2299  0.1347
 8835SOL    HW237968   4.276   1.050   6.763 -0.2095  2.6160 -3.1591
 8836SOL     OW37969   4.580   0.739   8.908  0.3239  0.1601 -0.4048
 8836SOL    HW137970   4.577   0.806   8.976  1.3922  1.2328 -1.3929
 8836SOL    HW237971   4.595   0.662   8.962 -1.3731 -1.1532 -1.8080
 8837SOL     OW37972   0.578   1.072  11.653 -0.5268  0.2421 -0.3706
 8837SOL    HW137973   0.579   1.084  11.558  1.8803 -2.8540 -0.7547
 8837SOL    HW237974   0.596   0.978  11.654 -2.4619 -0.1142  0.6962
 8838SOL     OW37975   4.424   3.733  17.613 -0.0640  0.3868 -0.3197
 8838SOL    HW137976   4.465   3.664  17.665 -0.6006 -0.1144 -0.5744
 8838SOL    HW237977   4.441   3.693  17.528  2.3465  1.3437 -0.3219
 8839SOL     OW37978   2.213   2.087  11.129  0.2544  0.0101  0.5500
 8839SOL    HW137979   2.303   2.061  11.109 -0.1825  0.5546 -2.0985
 8839SOL    HW237980   2.166   2.015  11.086  1.4060 -0.6418  0.4001
 8840SOL     OW37981   4.273   3.754   0.984  0.4015  0.2533 -0.1022
 8840SOL    HW137982   4.257   3.823   1.049  0.3841  0.0224  0.1394
 8840SOL    HW237983   4.188   3.740   0.943  0.1040 -0.1802  0.6515
 8841SOL     OW37984   4.283   1.180   2.659 -0.6916  0.2971 -0.0641
 8841SOL    HW137985   4.300   1.122   2.585 -0.2712  0.3530 -0.0134
 8841SOL    HW237986   4.258   1.252   2.601  0.2534  1.3549  0.8279
 8842SOL     OW37987   1.914   2.210   4.149  0.0112  0.1013  0.0565
 8842SOL    HW137988   1.869   2.231   4.231  0.0496  0.3775  0.0065
 8842SOL    HW237989   1.989   2.265   4.170 -1.1464  1.5603  0.3483
 8843SOL     OW37990   0.789   2.533   7.915 -0.3674  0.6920 -0.3011
 8843SOL    HW137991   0.849   2.539   7.990  1.3906 -0.3528 -1.6281
 8843SOL    HW237992   0.761   2.624   7.916  0.7293  1.0295 -0.8677
 8844SOL     OW37993   1.215   2.963   3.705  0.2271 -0.4181 -0.8007
 8844SOL    HW137994   1.309   2.955   3.717  0.2692 -0.1094 -0.9242
 8844SOL    HW237995   1.200   2.871   3.684 -2.6742 -0.4904  1.5172
 8845SOL     OW37996   1.702   3.866  14.114 -0.6643  0.2708 -0.3989
 8845SOL    HW137997   1.693   3.926  14.188  1.6460 -2.4150  2.0940
 8845SOL    HW237998   1.796   3.844  14.113 -0.8486 -0.7408  3.7178
 8846SOL     OW37999   0.143   0.644   2.843 -0.4663  0.2583 -0.1266
 8846SOL    HW138000   0.212   0.650   2.776  0.7911  0.5743  1.1999
 8846SOL    HW238001   0.080   0.701   2.798  2.1256  1.6011 -2.0605
 8847SOL     OW38002   0.653   0.200   6.863  0.0039  0.0951  0.1674
 8847SOL    HW138003   0.661   0.148   6.943  0.6671 -0.2928 -0.1510
 8847SOL    HW238004   0.581   0.259   6.886  0.7430  1.2154 -0.3662
 8848SOL     OW38005   3.305   1.939   0.109  0.0486 -0.6626 -0.0807
 8848SOL    HW138006   3.304   1.974   0.198  0.5064 -0.2260 -0.2472
 8848SOL    HW238007   3.367   1.867   0.119  0.6190  0.0427  1.4816
 8849SOL     OW38008   3.677   4.230  12.621 -0.0799  0.0765  0.0187
 8849SOL    HW138009   3.656   4.276  12.540  0.4907 -1.1709 -0.8338
 8849SOL    HW238010   3.674   4.140  12.589 -0.6129  1.4856 -3.9163
 8850SOL     OW38011   0.662   2.318  12.505 -0.0105 -0.0702 -0.2119
 8850SOL    HW138012   0.718   2.248  12.538  0.6288 -0.2505 -1.6731
 8850SOL    HW238013   0.574   2.296  12.536 -2.0307  4.3580 -2.6361
 8851SOL     OW38014   2.844   0.210  15.677  0.1405 -0.8646  0.0279
 8851SOL    HW138015   2.939   0.227  15.676 -0.5118  2.8858 -0.7872
 8851SOL    HW238016   2.821   0.179  15.590 -2.1233  2.2296 -0.4744
 8852SOL     OW38017   3.064   0.350  14.061 -0.2242 -0.0681 -0.0907
 8852SOL    HW138018   2.981   0.368  14.105  1.6429  2.1478  2.4879
 8852SOL    HW238019   3.082   0.273  14.114  0.4174  0.7010  0.8160
 8853SOL     OW38020   0.248   0.393   8.501 -0.1073  0.3058 -0.0300
 8853SOL    HW138021   0.261   0.421   8.592 -0.2573  1.3018 -0.3253
 8853SOL    HW238022   0.186   0.322   8.519 -0.0280  0.5105  1.0781
 8854SOL     OW38023   4.202   1.230   8.894 -0.5951  0.2338 -0.0073
 8854SOL    HW138024   4.226   1.317   8.863  0.6400 -0.1771 -0.2248
 8854SOL    HW238025   4.270   1.183   8.845 -0.0402 -0.0736  1.0648
 8855SOL     OW38026   0.133   1.510   4.581  0.2543  0.7589  0.1949
 8855SOL    HW138027   0.202   1.481   4.641 -0.3514 -0.6868  0.2144
 8855SOL    HW238028   0.115   1.436   4.522 -0.0619  1.3951 -0.5029
 8856SOL     OW38029   0.006   2.810   9.260 -0.3002 -0.0298  0.2684
 8856SOL    HW138030   0.092   2.773   9.277 -0.9640 -2.2684 -1.1104
 8856SOL    HW238031   0.030   2.902   9.266  0.0182 -0.1872  1.3140
 8857SOL     OW38032   0.538   3.606   6.213  0.6238 -0.0833 -0.2946
 8857SOL    HW138033   0.508   3.695   6.197  1.4602  0.1224 -0.7243
 8857SOL    HW238034   0.480   3.584   6.286  0.7380  0.8980  0.0890
 8858SOL     OW38035   2.387   0.863   9.568 -0.7598 -0.2972 -0.4792
 8858SOL    HW138036   2.442   0.871   9.645  0.5415  0.6077 -1.4959
 8858SOL    HW238037   2.455   0.828   9.510  0.5336  0.2193  0.7414
 8859SOL     OW38038   3.013   2.349   8.100  0.6911 -0.0902  0.1585
 8859SOL    HW138039   3.095   2.377   8.139  0.3899  0.2088  0.5700
 8859SOL    HW238040   3.046   2.326   8.012 -1.1811 -1.5933 -0.1598
 8860SOL     OW38041   3.470   2.069   2.151 -0.1407  0.0100 -0.2755
 8860SOL    HW138042   3.468   2.061   2.055 -1.0771  0.9480 -0.3369
 8860SOL    HW238043   3.421   2.150   2.166  0.8989  0.7621 -0.8342
 8861SOL     OW38044   2.352   2.372   3.171  0.0295 -0.0167 -0.4852
 8861SOL    HW138045   2.267   2.352   3.132 -0.1456 -0.3096  0.0496
 8861SOL    HW238046   2.361   2.461   3.138 -0.0079 -0.4018 -1.5214
 8862SOL     OW38047   1.728   3.950   8.667  0.1474  0.3485 -0.2336
 8862SOL    HW138048   1.665   3.886   8.634 -1.2424  1.6388 -0.0806
 8862SOL    HW238049   1.813   3.910   8.650 -0.3611 -0.7968 -0.0870
 8863SOL     OW38050   3.086   2.644  12.690 -0.0571 -0.1890 -0.1105
 8863SOL    HW138051   3.043   2.671  12.770  2.1599 -1.3017  1.4627
 8863SOL    HW238052   3.007   2.614  12.645 -1.2311  2.5366  0.1674
 8864SOL     OW38053   1.050   3.367   6.914 -0.2923  0.1284 -0.2217
 8864SOL    HW138054   1.036   3.280   6.951  0.2232 -0.2801 -0.9749
 8864SOL    HW238055   0.964   3.370   6.872  0.0995  2.0202 -0.8879
 8865SOL     OW38056   3.134   1.741  13.540 -0.2889  0.2378 -1.2569
 8865SOL    HW138057   3.179   1.765  13.459  1.4010  3.1653  0.5309
 8865SOL    HW238058   3.205   1.731  13.603 -2.1475  0.2820  0.8447
 8866SOL     OW38059   2.572   1.742  15.559  0.3222  0.2985  0.2531
 8866SOL    HW138060   2.546   1.833  15.575  0.8727 -0.2080  3.9258
 8866SOL    HW238061   2.512   1.727  15.485  0.7097 -1.3673  0.2658
 8867SOL     OW38062   2.867   2.488  10.481  0.2452  0.0866 -0.6777
 8867SOL    HW138063   2.792   2.446  10.439  0.0335  0.8960 -1.1035
 8867SOL    HW238064   2.936   2.481  10.414  1.1735 -2.4696  0.5338
 8868SOL     OW38065   1.342   0.212   6.617  0.1721  0.5202 -0.4273
 8868SOL    HW138066   1.318   0.250   6.533 -0.5315  0.8408 -0.0874
 8868SOL    HW238067   1.384   0.132   6.587 -0.5736 -0.1364  0.2677
 8869SOL     OW38068   0.212   4.069   2.648  0.6891  0.3847 -0.7296
 8869SOL    HW138069   0.278   4.105   2.589  0.0869 -2.0621 -2.8924
 8869SOL    HW238070   0.164   4.145   2.680 -1.3946 -0.9798 -0.6482
 8870SOL     OW38071   1.437   0.671   9.162  0.2141  0.1318  0.5212
 8870SOL    HW138072   1.482   0.733   9.105 -1.4077  0.0181 -0.9042
 8870SOL    HW238073   1.427   0.586   9.117  0.6823 -0.9310  2.4250
 8871SOL     OW38074   0.054   1.155   9.088 -0.5675 -0.3400 -0.0356
 8871SOL    HW138075   0.010   1.240   9.082  0.6055  0.2390 -0.3697
 8871SOL    HW238076   0.132   1.180   9.137  0.4292 -0.6272 -1.4803
 8872SOL     OW38077   0.141   4.337  10.097  0.1104  0.2816 -0.2662
 8872SOL    HW138078   0.109   4.328  10.186  0.4858  0.2313 -0.1374
 8872SOL    HW238079   0.060   4.356  10.049  0.0712 -1.1031 -0.7478
 8873SOL     OW38080   3.258   2.415   7.104 -0.6065 -0.3433  0.3211
 8873SOL    HW138081   3.257   2.411   7.199  0.0984 -1.8950  0.2575
 8873SOL    HW238082   3.221   2.334   7.070  0.7189 -1.2248  1.0110
 8874SOL     OW38083   1.170   4.468   0.818 -0.2711 -0.6672 -0.3953
 8874SOL    HW138084   1.097   4.406   0.815 -0.3227 -0.6850  1.1885
 8874SOL    HW238085   1.197   4.464   0.910  1.0966  0.5175 -0.7462
 8875SOL     OW38086   4.640   1.561   5.762  0.1311 -0.1250 -0.0111
 8875SOL    HW138087   4.668   1.527   5.847 -0.0637  2.6980  1.1990
 8875SOL    HW238088   4.613   1.648   5.791  1.8546  0.1534  0.7553
 8876SOL     OW38089   3.281   0.564  12.437  0.0553  0.2978  0.1392
 8876SOL    HW138090   3.279   0.515  12.520 -2.7607 -0.9079 -0.6257
 8876SOL    HW238091   3.373   0.590  12.434 -0.3749  2.0475  1.6942
 8877SOL     OW38092   2.067   1.885  11.043  0.4362  1.0969 -0.0579
 8877SOL    HW138093   2.021   1.931  10.973  2.6949  1.1294 -1.5460
 8877SOL    HW238094   2.062   1.796  11.008  0.2908  0.4284  1.6780
 8878SOL     OW38095   2.022   2.180  12.095  0.3690 -0.9140  0.4800
 8878SOL    HW138096   1.985   2.258  12.137  0.7375 -0.0335 -0.8436
 8878SOL    HW238097   2.039   2.202  12.004 -0.0778 -0.1362  0.5848
 8879SOL     OW38098   4.534   1.905   9.179  0.0296  0.5666  0.2159
 8879SOL    HW138099   4.545   1.882   9.087 -0.1410 -0.8239  0.5411
 8879SOL    HW238100   4.495   1.825   9.215 -2.0197  1.6669  0.4804
 8880SOL     OW38101   0.708   0.496   6.046 -0.2720 -0.1194  0.2953
 8880SOL    HW138102   0.753   0.577   6.021 -0.1694  0.5464  2.6244
 8880SOL    HW238103   0.780   0.433   6.040  0.4510  0.4904  2.5328
 8881SOL     OW38104   0.025   2.985   6.994 -0.3894 -0.4584  0.8144
 8881SOL    HW138105   0.101   2.944   6.953 -0.8813 -0.1707 -0.3900
 8881SOL    HW238106   4.676   2.925   6.972  1.1891 -1.4012 -1.7091
 8882SOL     OW38107   1.945   3.047   4.389  0.5654  0.3192  0.0783
 8882SOL    HW138108   2.000   3.123   4.408  1.5808 -0.3854 -0.0643
 8882SOL    HW238109   1.920   3.068   4.299  4.2066  1.3919 -0.6685
 8883SOL     OW38110   1.241   3.361   3.584  0.5623 -0.8469 -0.5118
 8883SOL    HW138111   1.212   3.307   3.657  0.3332 -1.7700 -1.2813
 8883SOL    HW238112   1.285   3.289   3.539  1.5834 -1.3675  1.3252
 8884SOL     OW38113   2.419   1.842  13.001 -0.7509  0.0557 -0.4887
 8884SOL    HW138114   2.454   1.923  13.037 -0.7409 -0.6205  1.0273
 8884SOL    HW238115   2.496   1.786  12.986  0.6354  2.2100 -1.4486
 8885SOL     OW38116   4.412   1.786   5.470 -0.0256 -0.2166  0.3405
 8885SOL    HW138117   4.380   1.730   5.400 -2.0768 -0.1130  1.2087
 8885SOL    HW238118   4.482   1.828   5.419 -0.5559 -0.2756 -0.4342
 8886SOL     OW38119   1.212   2.352   3.577 -0.6005 -0.3921  0.1503
 8886SOL    HW138120   1.210   2.257   3.574  1.5227 -0.3692 -1.6005
 8886SOL    HW238121   1.157   2.382   3.504  0.8260  0.1794 -0.7008
 8887SOL     OW38122   3.672   3.637   6.902 -0.3719 -0.5044 -0.3166
 8887SOL    HW138123   3.654   3.726   6.870  0.4063 -0.1106  0.3480
 8887SOL    HW238124   3.763   3.657   6.925  0.3478 -3.7802 -0.2874
 8888SOL     OW38125   3.629   4.702   4.039  0.4704  0.1893 -0.1664
 8888SOL    HW138126   3.621   0.041   3.966 -0.0758 -1.5663 -1.5860
 8888SOL    HW238127   3.673   0.026   4.111 -0.4916  0.0665  0.5136
 8889SOL     OW38128   0.786   3.538   6.188  0.3296  0.0464  0.6573
 8889SOL    HW138129   0.766   3.510   6.099  0.0281 -1.3904  1.1757
 8889SOL    HW238130   0.697   3.544   6.224 -0.4836 -1.7263 -1.0449
 8890SOL     OW38131   2.573   0.727   4.924 -0.9539  0.0478  0.4977
 8890SOL    HW138132   2.648   0.723   4.983 -0.5019  0.8133 -0.0429
 8890SOL    HW238133   2.517   0.777   4.982  1.5595  4.1080 -0.6169
 8891SOL     OW38134   3.255   2.107   7.887  0.2209 -0.3215  0.0284
 8891SOL    HW138135   3.214   2.193   7.873  1.4935 -0.2636 -3.4763
 8891SOL    HW238136   3.272   2.077   7.798 -1.2210 -1.1080  0.0233
 8892SOL     OW38137   4.341   1.671  10.896 -0.0299  0.2831  0.1821
 8892SOL    HW138138   4.434   1.654  10.912 -0.1497 -1.1011 -0.6164
 8892SOL    HW238139   4.305   1.584  10.880 -2.8491  1.2131  1.4670
 8893SOL     OW38140   3.348   1.892   8.490 -0.0176 -0.7578  0.1263
 8893SOL    HW138141   3.406   1.835   8.438  2.7323  1.7347  0.4985
 8893SOL    HW238142   3.367   1.862   8.579 -2.0061  0.6570  1.0178
 8894SOL     OW38143   1.061   2.798   8.235  0.2246  0.3632 -0.0800
 8894SOL    HW138144   1.086   2.785   8.326  0.0563 -0.5598 -0.1659
 8894SOL    HW238145   1.030   2.888   8.229 -2.8271 -0.6546  0.4344
 8895SOL     OW38146   3.832   2.544   4.258 -0.3378 -0.2816  0.0999
 8895SOL    HW138147   3.843   2.450   4.242 -2.3911 -0.4936 -0.0892
 8895SOL    HW238148   3.840   2.573   4.167  0.7225 -1.1798 -0.0837
 8896SOL     OW38149   1.122   4.627   8.211  0.4026  0.1358 -0.1588
 8896SOL    HW138150   1.183   4.700   8.201  0.1772  0.2992 -0.3444
 8896SOL    HW238151   1.190   4.568   8.241  0.5113  0.2302 -0.2215
 8897SOL     OW38152   0.889   3.741   6.317 -0.8934  0.0716 -0.3304
 8897SOL    HW138153   0.862   3.654   6.288 -0.7019  0.0389 -0.4105
 8897SOL    HW238154   0.831   3.759   6.391  0.9948  0.6404  1.0295
 8898SOL     OW38155   1.008   4.676   0.668 -0.3070 -0.1809  0.2880
 8898SOL    HW138156   1.042   0.037   0.701  1.1999 -1.6480  2.4427
 8898SOL    HW238157   1.047   4.616   0.732  1.8793  1.3627  0.4084
 8899SOL     OW38158   2.043   2.248  16.795 -0.1948 -0.0990 -0.2767
 8899SOL    HW138159   2.137   2.241  16.774  0.0363  0.0827  0.7034
 8899SOL    HW238160   2.027   2.340  16.774  0.2670  0.1000  0.2403
 8900SOL     OW38161   0.970   3.654   7.380 -0.0172 -0.1112  0.1906
 8900SOL    HW138162   0.879   3.680   7.397 -0.4635 -0.7806 -1.2216
 8900SOL    HW238163   0.988   3.694   7.295  2.9176  0.6571  1.1716
 8901SOL     OW38164   0.513   0.429   9.171  0.6271 -0.1548 -0.0736
 8901SOL    HW138165   0.573   0.439   9.246 -0.1462 -3.1785  0.9455
 8901SOL    HW238166   0.451   0.369   9.212  0.4548  1.2258  1.6679
 8902SOL     OW38167   2.751   0.272   5.679  0.6066  0.2951  0.0709
 8902SOL    HW138168   2.737   0.361   5.645 -0.2935 -0.0131 -0.3535
 8902SOL    HW238169   2.736   0.231   5.594 -2.4367  1.1244  0.2033
 8903SOL     OW38170   2.939   4.201   5.800 -0.3327  0.2583  0.2849
 8903SOL    HW138171   3.015   4.210   5.857 -0.1031  1.6752 -0.2609
 8903SOL    HW238172   2.974   4.208   5.712  1.3411 -1.4312  0.8107
 8904SOL     OW38173   3.679   3.569  13.819  0.2626 -0.3226 -0.0507
 8904SOL    HW138174   3.717   3.524  13.894  1.9945  0.7379 -0.3007
 8904SOL    HW238175   3.589   3.574  13.851 -0.3659 -0.6180 -1.7755
 8905SOL     OW38176   3.420   3.421  14.324 -0.5402  0.0194 -0.4950
 8905SOL    HW138177   3.397   3.498  14.271 -1.9026 -0.4590 -0.6088
 8905SOL    HW238178   3.343   3.411  14.380  0.7163  2.9719  1.7242
 8906SOL     OW38179   0.823   3.800   0.220 -0.2200  0.7595 -0.1300
 8906SOL    HW138180   0.737   3.764   0.241  0.0520  0.5028  0.5263
 8906SOL    HW238181   0.841   3.878   0.272 -0.0783  0.3296  0.4669
 8907SOL     OW38182   2.775   4.301   1.744  0.5615  0.4545 -0.1956
 8907SOL    HW138183   2.721   4.228   1.712 -1.2193  1.9138 -0.5543
 8907SOL    HW238184   2.845   4.251   1.785  1.1345  1.0487 -0.4455
 8908SOL     OW38185   2.250   0.332   8.341 -0.0215 -0.6694 -0.7002
 8908SOL    HW138186   2.308   0.395   8.384 -0.6667 -0.9134  0.5351
 8908SOL    HW238187   2.310   0.263   8.313  0.4555 -0.9879  1.0530
 8909SOL     OW38188   3.318   2.911   4.604  0.0198  0.4575  0.2999
 8909SOL    HW138189   3.262   2.861   4.662 -0.7082  1.4334  0.4357
 8909SOL    HW238190   3.402   2.908   4.651  1.1476 -2.4397 -1.9016
 8910SOL     OW38191   1.015   2.291   5.968 -0.1839 -0.1256 -0.6048
 8910SOL    HW138192   0.946   2.236   5.930 -1.0070  1.6976 -1.7566
 8910SOL    HW238193   1.076   2.324   5.903 -0.4900  0.1746 -0.7382
 8911SOL     OW38194   1.372   2.673   2.368 -0.3083 -0.1618  0.2301
 8911SOL    HW138195   1.420   2.620   2.431 -1.0071 -1.0348  0.0147
 8911SOL    HW238196   1.316   2.607   2.327  1.1444 -0.0063 -2.0673
 8912SOL     OW38197   3.235   2.485  11.228 -0.3928 -0.1353  0.1844
 8912SOL    HW138198   3.261   2.539  11.153  0.9391 -0.6918  0.2365
 8912SOL    HW238199   3.194   2.547  11.287 -3.2397 -0.1892 -1.7410
 8913SOL     OW38200   3.885   0.880   7.064 -0.0994 -0.5905  0.2808
 8913SOL    HW138201   3.836   0.881   7.146 -0.8177 -1.7935 -0.1212
 8913SOL    HW238202   3.940   0.957   7.073  1.7972 -2.0169  0.7934
 8914SOL     OW38203   0.286   4.655   5.333  0.2771 -0.7418 -0.3991
 8914SOL    HW138204   0.252   4.679   5.247 -0.5044  0.4313  0.2353
 8914SOL    HW238205   0.327   4.569   5.321  0.0408 -0.7833 -0.8639
 8915SOL     OW38206   2.320   3.370   5.974 -0.0814 -0.1543  0.1335
 8915SOL    HW138207   2.403   3.413   5.997 -1.2014  1.8633  0.4235
 8915SOL    HW238208   2.331   3.386   5.881 -0.9108  1.6399  0.3413
 8916SOL     OW38209   2.431   3.215   8.435 -0.0503 -0.5881 -0.1449
 8916SOL    HW138210   2.434   3.195   8.528  1.9565  0.1531 -0.0307
 8916SOL    HW238211   2.337   3.205   8.421 -0.1746  1.2912 -0.7415
 8917SOL     OW38212   3.127   0.755   5.017  0.6250  0.1816  0.0469
 8917SOL    HW138213   3.051   0.741   5.074  0.9070  0.9592  0.6226
 8917SOL    HW238214   3.129   0.671   4.972 -0.2621 -0.7124  1.6743
 8918SOL     OW38215   2.669   2.575   7.655 -0.1349  0.6465 -0.7303
 8918SOL    HW138216   2.721   2.545   7.729  0.1686 -0.6564 -1.4735
 8918SOL    HW238217   2.733   2.579   7.585  1.3409 -1.5829  0.5071
 8919SOL     OW38218   3.463   3.652   5.296 -0.5334 -0.0110  0.0675
 8919SOL    HW138219   3.383   3.606   5.318 -0.8547  0.4619 -0.0952
 8919SOL    HW238220   3.447   3.679   5.205  0.4434 -0.2837 -0.1791
 8920SOL     OW38221   3.655   1.329   9.347  0.3271  0.2815 -0.0927
 8920SOL    HW138222   3.711   1.329   9.270  0.3049 -0.6861 -0.1080
 8920SOL    HW238223   3.713   1.286   9.411  1.6537  0.7958 -0.9530
 8921SOL     OW38224   1.477   1.041  13.670 -0.1713  0.0583 -0.4610
 8921SOL    HW138225   1.450   1.103  13.737 -2.6879 -1.5362 -0.0068
 8921SOL    HW238226   1.556   1.081  13.632 -1.2748  2.1174 -0.6110
 8922SOL     OW38227   3.472   0.461  13.156  0.0823  0.2949  0.2133
 8922SOL    HW138228   3.484   0.511  13.237 -1.5983  0.0036  0.6348
 8922SOL    HW238229   3.567   0.452  13.148 -0.2139 -3.6083  1.2250
 8923SOL     OW38230   0.923   1.672  17.587  0.1545  0.9041 -0.1260
 8923SOL    HW138231   1.001   1.632  17.625 -0.0514  0.1492 -0.5171
 8923SOL    HW238232   0.910   1.614  17.512 -0.1459 -0.3798  0.9132
 8924SOL     OW38233   0.400   2.325   1.827  0.1606 -0.3298  0.5742
 8924SOL    HW138234   0.331   2.347   1.889  0.4335  1.2122  0.3193
 8924SOL    HW238235   0.399   2.396   1.763 -0.9984  1.0428  2.1446
 8925SOL     OW38236   2.380   0.408  16.137  0.1732 -0.3104 -0.0775
 8925SOL    HW138237   2.433   0.336  16.106  2.2063  0.7180  0.9889
 8925SOL    HW238238   2.376   0.466  16.061 -0.7703 -1.4181 -0.8542
 8926SOL     OW38239   3.304   4.585   7.789  0.7979  0.1614 -0.0143
 8926SOL    HW138240   3.330   4.677   7.789  0.1332  0.3519 -0.3812
 8926SOL    HW238241   3.383   4.534   7.804 -0.0104 -1.1382 -0.1422
 8927SOL     OW38242   0.152   2.153   6.533  0.6926  0.1036  0.1379
 8927SOL    HW138243   0.187   2.240   6.549 -1.0515  1.0680 -1.2217
 8927SOL    HW238244   0.060   2.177   6.517  1.1569  2.8746  1.7106
 8928SOL     OW38245   2.309   2.309   3.665  0.0825 -0.7032 -0.4186
 8928SOL    HW138246   2.329   2.335   3.575  0.2115  1.9753  0.3886
 8928SOL    HW238247   2.217   2.295   3.640  0.1696 -0.6632 -0.7660
 8929SOL     OW38248   0.314   1.751   4.088  0.5657 -0.3031 -0.1311
 8929SOL    HW138249   0.364   1.672   4.110  1.1964 -0.7867 -3.3280
 8929SOL    HW238250   0.222   1.727   4.095  0.8451 -1.3984 -0.1843
 8930SOL     OW38251   4.579   3.185   0.700  0.0649 -0.0370 -0.7965
 8930SOL    HW138252   4.601   3.135   0.778 -0.7698  0.2786 -0.3580
 8930SOL    HW238253   4.650   3.249   0.705 -0.3062  0.3906 -1.0144
 8931SOL     OW38254   1.916   2.639   8.486  0.0981  0.7100  0.2101
 8931SOL    HW138255   1.978   2.673   8.422 -0.7139 -0.4105 -1.1497
 8931SOL    HW238256   1.957   2.675   8.566  2.4804 -0.1640 -0.6131
 8932SOL     OW38257   1.078   0.278   7.292 -0.2510 -0.4533  0.5724
 8932SOL    HW138258   1.159   0.246   7.251 -0.5922  2.1783 -2.1635
 8932SOL    HW238259   1.053   0.202   7.345  1.2727 -1.5420 -0.2613
 8933SOL     OW38260   2.747   3.992  15.069 -0.1475 -0.5118  0.0077
 8933SOL    HW138261   2.737   4.087  15.073  2.5045 -0.2514  0.6489
 8933SOL    HW238262   2.818   3.990  15.134 -0.3865  0.9878  0.3187
 8934SOL     OW38263   0.764   1.364   2.063 -0.4912  0.6775 -0.2238
 8934SOL    HW138264   0.841   1.323   2.100 -0.4917  1.7732  0.9950
 8934SOL    HW238265   0.803   1.387   1.979  0.0370  0.7654  0.0476
 8935SOL     OW38266   4.599   3.125  15.886 -0.6239 -0.2228 -0.1305
 8935SOL    HW138267   4.559   3.101  15.969 -1.0911  2.1864  0.3455
 8935SOL    HW238268   4.590   3.219  15.901 -1.0397 -0.0745 -1.2874
 8936SOL     OW38269   4.697   4.303  14.602 -0.2638 -0.1375 -0.9910
 8936SOL    HW138270   4.620   4.352  14.629  0.7915  0.7348  0.4401
 8936SOL    HW238271   4.659   4.251  14.531  2.4842 -2.2946 -0.8821
 8937SOL     OW38272   2.705   1.973   5.099  0.1697 -0.6874 -0.2084
 8937SOL    HW138273   2.799   1.958   5.088  0.1657  1.1657 -2.7442
 8937SOL    HW238274   2.694   1.949   5.191  2.3636 -1.3404 -0.1263
 8938SOL     OW38275   3.175   2.949   5.390  0.3884 -0.5475 -0.0041
 8938SOL    HW138276   3.261   2.990   5.380  0.6293 -0.8663  0.7261
 8938SOL    HW238277   3.191   2.890   5.463  2.2320  0.1005  0.1200
 8939SOL     OW38278   2.547   2.977   6.030 -0.0956 -0.4923 -0.1345
 8939SOL    HW138279   2.588   3.064   6.030  0.6987 -0.8834  1.2248
 8939SOL    HW238280   2.504   2.972   6.115  1.0574 -1.4378  0.3766
 8940SOL     OW38281   4.469   4.386   6.942 -0.1387 -0.7129 -0.0169
 8940SOL    HW138282   4.463   4.345   7.028  3.4940 -1.6915 -0.2443
 8940SOL    HW238283   4.511   4.466   6.974 -1.0952 -0.3934  0.4630
 8941SOL     OW38284   2.108   3.387   2.736 -0.1764  0.1062  0.0451
 8941SOL    HW138285   2.152   3.311   2.775 -0.3784  0.7432  1.5121
 8941SOL    HW238286   2.016   3.365   2.744  0.4025 -2.2629  0.3999
 8942SOL     OW38287   0.647   2.640   4.239  0.1400 -0.3728  0.0213
 8942SOL    HW138288   0.625   2.710   4.178  0.6721 -0.0286  0.2270
 8942SOL    HW238289   0.589   2.652   4.314  1.5043  0.4746  0.9412
 8943SOL     OW38290   3.133   1.395  16.036  0.2944 -0.1573  0.7407
 8943SOL    HW138291   3.075   1.325  16.006 -1.4795  1.5961  0.0651
 8943SOL    HW238292   3.086   1.474  16.008  2.1531  1.0636  1.0799
 8944SOL     OW38293   1.471   1.671   5.485  0.6115  1.0379 -0.2216
 8944SOL    HW138294   1.419   1.709   5.414  0.0027 -2.6360 -1.6934
 8944SOL    HW238295   1.486   1.762   5.513 -0.7907  1.5704 -1.1831
 8945SOL     OW38296   3.461   1.446   7.470 -0.0220 -0.8126  0.1006
 8945SOL    HW138297   3.433   1.378   7.532 -1.5977 -0.7774 -0.5570
 8945SOL    HW238298   3.551   1.420   7.453  0.3100 -0.6528  1.6935
 8946SOL     OW38299   1.095   0.196   8.421 -0.4424 -0.9994 -0.4668
 8946SOL    HW138300   1.153   0.200   8.345 -1.3984 -1.6109 -1.2407
 8946SOL    HW238301   1.013   0.189   8.373 -0.3516  0.9465 -0.9015
 8947SOL     OW38302   4.583   1.651   7.737  0.0663  0.0826 -0.1836
 8947SOL    HW138303   4.604   1.583   7.802  0.8524 -0.9980 -1.5845
 8947SOL    HW238304   4.565   1.717   7.805 -0.9909 -1.9123  1.4826
 8948SOL     OW38305   0.583   3.927   0.360 -0.2287 -0.1295 -0.1115
 8948SOL    HW138306   0.567   3.836   0.332  2.7455 -0.4330 -0.8519
 8948SOL    HW238307   0.510   3.942   0.420  0.3069  0.3039  0.4286
 8949SOL     OW38308   1.813   3.117   6.693  0.8470  0.3016 -0.6410
 8949SOL    HW138309   1.740   3.074   6.648 -0.7646  2.8147 -0.4149
 8949SOL    HW238310   1.887   3.073   6.651  0.6225 -3.6565  3.1426
 8950SOL     OW38311   1.223   4.036  11.387  0.2929  0.5479  0.3069
 8950SOL    HW138312   1.136   4.076  11.384  0.1272  0.2902  1.6579
 8950SOL    HW238313   1.202   3.951  11.425 -1.8249  0.4284 -1.1430
 8951SOL     OW38314   1.230   0.583   1.592  0.2411 -0.4315  0.6579
 8951SOL    HW138315   1.309   0.530   1.585 -0.5900 -1.5940  0.0569
 8951SOL    HW238316   1.277   0.663   1.615  3.1382 -1.9839  0.0671
 8952SOL     OW38317   0.453   3.074   5.337 -0.9319 -0.1423  0.4768
 8952SOL    HW138318   0.395   3.121   5.276 -0.4932  1.3872  1.2436
 8952SOL    HW238319   0.436   3.126   5.415 -2.1962 -1.7662  1.2712
 8953SOL     OW38320   2.542   0.899   6.204 -0.2995  0.0888 -0.0042
 8953SOL    HW138321   2.544   0.942   6.289  2.2678  0.3190 -0.1561
 8953SOL    HW238322   2.514   0.811   6.230 -0.8056 -0.0807 -1.1262
 8954SOL     OW38323   2.565   0.266   9.088  0.5524  0.6934 -0.0638
 8954SOL    HW138324   2.552   0.172   9.086 -1.2484  0.9457 -0.3467
 8954SOL    HW238325   2.521   0.304   9.011  1.2334 -0.0445 -0.8119
 8955SOL     OW38326   4.284   3.396   5.603  0.2257 -0.3272 -0.1705
 8955SOL    HW138327   4.214   3.350   5.650  1.7569 -2.4082  0.0265
 8955SOL    HW238328   4.265   3.484   5.635  0.5591 -1.0446  1.9533
 8956SOL     OW38329   2.127   0.847   8.437 -0.0957  0.6716  0.7013
 8956SOL    HW138330   2.201   0.903   8.459 -0.0759  0.6800  0.6120
 8956SOL    HW238331   2.116   0.797   8.518 -2.5134 -2.0265 -1.2799
 8957SOL     OW38332   1.566   3.648  15.369  0.7186 -0.1676  1.1680
 8957SOL    HW138333   1.515   3.621  15.445 -1.3035 -0.1820 -0.2011
 8957SOL    HW238334   1.502   3.627  15.302  1.5580  0.7544  0.0826
 8958SOL     OW38335   3.991   1.499   5.276  0.0240 -0.4156 -0.0543
 8958SOL    HW138336   4.002   1.421   5.221 -0.0446 -2.6611  3.1222
 8958SOL    HW238337   3.910   1.489   5.327 -1.2895  3.3113 -1.3908
 8959SOL     OW38338   3.256   1.958   2.697  0.3588  0.3047  0.4894
 8959SOL    HW138339   3.192   2.023   2.727 -0.1623  0.1394 -0.2634
 8959SOL    HW238340   3.246   1.979   2.604 -2.3073 -0.1408  0.6688
 8960SOL     OW38341   1.224   0.952   6.144 -0.0203 -0.2136 -0.1396
 8960SOL    HW138342   1.200   0.889   6.076 -0.6013 -2.8766  2.4798
 8960SOL    HW238343   1.268   1.016   6.089  0.1980 -1.9263 -1.9547
 8961SOL     OW38344   3.679   1.188   6.674 -0.1783  0.4800  0.1861
 8961SOL    HW138345   3.698   1.101   6.639 -1.7131 -0.2582  1.1707
 8961SOL    HW238346   3.768   1.203   6.706  0.1399 -1.8386  0.3786
 8962SOL     OW38347   0.020   2.459   3.716  0.0364  0.0957  0.1937
 8962SOL    HW138348   0.042   2.550   3.733  0.6693 -0.1653  0.7940
 8962SOL    HW238349   4.689   2.419   3.786  0.1355 -1.5986 -0.7020
 8963SOL     OW38350   3.776   0.619   6.176 -0.6129 -0.6439  0.2087
 8963SOL    HW138351   3.804   0.636   6.265  2.7770  1.1572 -1.2135
 8963SOL    HW238352   3.696   0.668   6.157  0.2993  0.1445 -1.6211
 8964SOL     OW38353   2.125   1.040   9.233  0.3859 -0.8441  1.0493
 8964SOL    HW138354   2.101   1.034   9.325 -1.3206 -2.3272  0.5166
 8964SOL    HW238355   2.039   1.034   9.191  0.8624  0.6966 -0.1466
 8965SOL     OW38356   0.283   2.344   8.642 -0.0003 -0.0763  0.4642
 8965SOL    HW138357   0.296   2.437   8.628 -0.3306  0.0007  0.6526
 8965SOL    HW238358   0.217   2.339   8.712 -1.6523  2.4019 -0.8992
 8966SOL     OW38359   1.345   2.659   7.767 -0.5112 -0.6426  0.9828
 8966SOL    HW138360   1.388   2.660   7.852  2.1535  1.5635 -0.3891
 8966SOL    HW238361   1.389   2.584   7.728 -1.8979 -0.4885 -0.9254
 8967SOL     OW38362   0.142   0.924  16.755  0.4041  0.7190  0.1373
 8967SOL    HW138363   0.103   0.877  16.682  0.6254  0.6054  0.0937
 8967SOL    HW238364   0.162   0.857  16.820  0.9519 -1.1290 -1.9448
 8968SOL     OW38365   1.165   3.289  14.733  0.6958  0.3247 -0.2975
 8968SOL    HW138366   1.079   3.326  14.749  0.6974 -0.8307  2.3915
 8968SOL    HW238367   1.166   3.213  14.791  1.0622  0.1098 -0.5871
 8969SOL     OW38368   2.585   0.321   4.568 -0.7642 -0.0645  0.0655
 8969SOL    HW138369   2.554   0.398   4.520 -1.7111 -1.0159 -0.8392
 8969SOL    HW238370   2.675   0.347   4.590 -0.8080 -0.9104  1.1934
 8970SOL     OW38371   4.457   2.728   4.672 -0.3464 -0.3056  0.1126
 8970SOL    HW138372   4.468   2.635   4.691  2.4652 -0.2784 -1.4391
 8970SOL    HW238373   4.364   2.739   4.694 -0.0955  0.8277  0.6144
 8971SOL     OW38374   2.640   4.007   4.441 -0.6819 -0.0191  0.0650
 8971SOL    HW138375   2.544   4.010   4.448 -0.4623  2.4028  1.9203
 8971SOL    HW238376   2.643   3.935   4.378  0.1847 -1.2895  1.5592
 8972SOL     OW38377   2.156   1.405   2.714 -0.4367 -0.5083  0.0410
 8972SOL    HW138378   2.105   1.470   2.665 -0.2996 -1.0046 -0.7628
 8972SOL    HW238379   2.115   1.327   2.676  0.9332 -1.8201  1.3199
 8973SOL     OW38380   4.219   2.043   2.379 -0.1099 -0.8389  0.0589
 8973SOL    HW138381   4.304   2.007   2.402  0.1134  0.0438  0.6457
 8973SOL    HW238382   4.176   2.035   2.465 -2.2153  0.0036 -0.9168
 8974SOL     OW38383   3.225   3.916   4.497 -0.0733 -0.2002  0.2915
 8974SOL    HW138384   3.246   4.004   4.529  1.7701 -0.5488  0.0772
 8974SOL    HW238385   3.160   3.880   4.556 -0.1201 -0.9079 -0.1952
 8975SOL     OW38386   1.741   2.929   5.386 -0.2929  0.2627  0.8915
 8975SOL    HW138387   1.812   2.865   5.392 -1.7797 -1.6903 -2.3089
 8975SOL    HW238388   1.696   2.895   5.309  0.6077  2.1263 -0.4799
 8976SOL     OW38389   2.799   3.635   3.271 -0.0845  0.3370  0.1624
 8976SOL    HW138390   2.776   3.553   3.228 -0.7434 -0.1561  1.4567
 8976SOL    HW238391   2.866   3.598   3.330 -0.3527  0.1384  0.3402
 8977SOL     OW38392   0.244   2.954   2.864 -0.0355  0.4355 -0.0367
 8977SOL    HW138393   0.201   2.991   2.941 -0.1325 -0.0157  0.1229
 8977SOL    HW238394   0.337   2.954   2.884 -0.1933  2.2114  0.6998
 8978SOL     OW38395   1.365   3.919  13.863 -0.3339 -0.7400  0.3330
 8978SOL    HW138396   1.271   3.903  13.878 -0.0924 -1.9153  0.5677
 8978SOL    HW238397   1.361   3.978  13.788  2.0035 -1.1625 -0.1205
 8979SOL     OW38398   2.354   0.201  13.372  0.3792 -0.1469 -0.2963
 8979SOL    HW138399   2.287   0.136  13.390  0.8284 -0.2428  0.9859
 8979SOL    HW238400   2.310   0.235  13.294  0.7249 -1.9565 -1.2698
 8980SOL     OW38401   1.838   2.091  11.527  1.1324  0.3697  0.1228
 8980SOL    HW138402   1.872   2.004  11.546 -0.8384 -0.3973  0.2086
 8980SOL    HW238403   1.867   2.096  11.436  1.3162  0.6328  0.1950
 8981SOL     OW38404   0.130   2.546   2.693  0.5432 -0.7143 -0.1529
 8981SOL    HW138405   0.188   2.472   2.710  1.7874  0.5570  0.9938
 8981SOL    HW238406   0.165   2.575   2.609  2.5025 -2.8238 -0.0535
 8982SOL     OW38407   2.778   2.199  11.790  0.3619 -0.5686 -0.6129
 8982SOL    HW138408   2.855   2.236  11.833  0.4763 -0.5521 -0.8322
 8982SOL    HW238409   2.739   2.169  11.872 -0.0865  0.7309 -0.3530
 8983SOL     OW38410   1.296   1.898   8.589 -0.3674  0.2648 -0.1078
 8983SOL    HW138411   1.256   1.889   8.676  2.0331 -1.7977  0.7637
 8983SOL    HW238412   1.293   1.807   8.560  0.9228  0.6533 -1.4599
 8984SOL     OW38413   2.761   3.902  15.388  0.1274 -0.3739  0.6041
 8984SOL    HW138414   2.832   3.940  15.337 -0.2472  2.6002  2.2722
 8984SOL    HW238415   2.690   3.882  15.327 -0.1008  0.3945  0.6133
 8985SOL     OW38416   4.256   1.278   9.317 -0.2609  0.6600 -0.3815
 8985SOL    HW138417   4.191   1.298   9.250  1.8508  1.1600 -2.3005
 8985SOL    HW238418   4.188   1.277   9.384  0.2381  0.0173  0.1157
 8986SOL     OW38419   3.607   4.350   2.783  0.7305 -0.4788  0.0380
 8986SOL    HW138420   3.637   4.396   2.705  0.5226 -0.2324  0.1068
 8986SOL    HW238421   3.669   4.392   2.842 -1.0654  0.0129  1.5677
 8987SOL     OW38422   0.217   3.655   2.355 -0.2007  0.3238 -0.2563
 8987SOL    HW138423   0.223   3.563   2.328 -0.4223  0.4339 -0.6852
 8987SOL    HW238424   0.307   3.683   2.340  0.4348 -1.5464 -0.0169
 8988SOL     OW38425   2.095   3.559   8.059 -0.1682 -0.5572 -0.5506
 8988SOL    HW138426   2.135   3.505   7.991  0.5632  1.2420 -1.5557
 8988SOL    HW238427   2.073   3.638   8.009 -0.4697  1.7873  3.2959
 8989SOL     OW38428   4.540   0.185   7.839 -0.3598 -0.6445  0.1752
 8989SOL    HW138429   4.532   0.204   7.932 -1.3695  0.2426 -0.0959
 8989SOL    HW238430   4.509   0.267   7.800 -0.6985 -0.3539  1.0608
 8990SOL     OW38431   0.518   1.050   8.062  0.0519 -0.1398 -0.2756
 8990SOL    HW138432   0.487   1.090   8.143 -0.4014  0.5131 -0.7793
 8990SOL    HW238433   0.589   0.991   8.089 -0.0391  0.8151  2.0864
 8991SOL     OW38434   0.467   3.926   9.689  0.4730  0.2972 -0.0263
 8991SOL    HW138435   0.409   3.856   9.715  1.3426 -0.5945 -0.4894
 8991SOL    HW238436   0.516   3.937   9.771  1.6592  0.4715 -0.7538
 8992SOL     OW38437   3.882   4.131   8.172 -0.0541 -0.8213 -0.2453
 8992SOL    HW138438   3.903   4.085   8.091  0.6244 -0.3458 -0.3460
 8992SOL    HW238439   3.842   4.057   8.218 -0.3680 -0.5885 -0.1444
 8993SOL     OW38440   4.284   2.974   4.453 -0.9335  0.2522 -0.0160
 8993SOL    HW138441   4.370   3.015   4.448 -1.3595  1.2229  0.6586
 8993SOL    HW238442   4.290   2.911   4.381  0.6481  0.5937 -0.1935
 8994SOL     OW38443   1.965   4.145  10.249 -0.1608 -0.0393 -0.2703
 8994SOL    HW138444   1.901   4.217  10.247 -0.9954 -0.7571  0.2367
 8994SOL    HW238445   2.021   4.180  10.318  0.4141  0.5187 -1.0135
 8995SOL     OW38446   4.052   2.796   7.849 -0.1097  0.3385  0.1734
 8995SOL    HW138447   4.034   2.752   7.932 -2.0731 -0.5145 -0.7015
 8995SOL    HW238448   4.118   2.739   7.810 -0.4020 -1.3980  2.2356
 8996SOL     OW38449   2.339   4.091   5.466 -0.5296 -0.2406  0.0747
 8996SOL    HW138450   2.332   4.037   5.545  0.8951  0.6326  0.8008
 8996SOL    HW238451   2.394   4.163   5.496 -1.2016  0.6117 -0.7367
 8997SOL     OW38452   1.131   0.229   3.193  0.4145 -0.1429  0.0642
 8997SOL    HW138453   1.042   0.227   3.228  0.2368  0.3434 -0.3528
 8997SOL    HW238454   1.106   0.211   3.102 -1.4677  0.5579  0.4615
 8998SOL     OW38455   1.870   3.555   9.916 -0.5030 -0.7091 -0.1845
 8998SOL    HW138456   1.780   3.542   9.885 -0.4968 -0.9222 -0.1145
 8998SOL    HW238457   1.851   3.506   9.996  1.1369  0.2143  0.7628
 8999SOL     OW38458   3.941   0.751  16.131 -0.8306  0.0068 -0.1053
 8999SOL    HW138459   3.940   0.814  16.203  0.8900  0.0959 -0.1606
 8999SOL    HW238460   3.856   0.762  16.089 -0.1340 -0.6857 -1.6953
 9000SOL     OW38461   2.861   4.105  10.730 -0.1192 -0.6903  0.3436
 9000SOL    HW138462   2.894   4.139  10.813  0.5890 -0.1983 -0.1333
 9000SOL    HW238463   2.850   4.011  10.739 -0.0612 -0.5952  1.4764
 9001SOL     OW38464   3.626   1.057   8.505  0.4005  0.3437  0.0033
 9001SOL    HW138465   3.551   0.999   8.520  0.1353  0.5794 -0.4079
 9001SOL    HW238466   3.653   1.022   8.421  1.9928  0.5717  0.4142
 9002SOL     OW38467   0.330   0.671  11.523 -0.1276  0.3270  0.2827
 9002SOL    HW138468   0.280   0.730  11.580  1.1261 -2.3010  4.1060
 9002SOL    HW238469   0.406   0.659  11.580  0.8578 -1.1616 -1.3683
 9003SOL     OW38470   3.711   3.915  11.017  0.2881 -0.2055  0.0254
 9003SOL    HW138471   3.756   3.830  11.015  0.2839 -0.1613 -1.3669
 9003SOL    HW238472   3.631   3.898  11.067  0.6205  1.4965  1.1343
 9004SOL     OW38473   1.064   2.403  11.553  0.6097 -0.2644 -0.0028
 9004SOL    HW138474   1.126   2.394  11.626  1.2576  2.3852 -0.2201
 9004SOL    HW238475   1.109   2.351  11.486 -1.6358 -0.3032 -1.4742
 9005SOL     OW38476   1.495   1.041   7.381  0.3087  0.0380  0.2395
 9005SOL    HW138477   1.430   1.031   7.450 -0.1889  0.3312 -0.1796
 9005SOL    HW238478   1.485   1.130   7.346 -1.5030  0.2351  1.2673
 9006SOL     OW38479   1.733   4.713   2.611 -0.3380  0.0315  0.0965
 9006SOL    HW138480   1.811   4.712   2.666  0.5389 -0.1853 -1.1566
 9006SOL    HW238481   1.727   4.623   2.581 -0.3973  0.5297 -1.3959
 9007SOL     OW38482   0.998   1.273   5.692 -0.0846  0.4205 -0.4699
 9007SOL    HW138483   0.915   1.320   5.681 -0.8583 -0.0184  3.7341
 9007SOL    HW238484   0.962   1.196   5.738  0.0430 -0.9755 -2.6963
 9008SOL     OW38485   3.323   0.053   0.307  0.7040  0.3336  0.5707
 9008SOL    HW138486   3.339   0.146   0.324  0.5131  0.4728 -0.0277
 9008SOL    HW238487   3.228   0.052   0.319  0.6047  1.5533 -0.0964
 9009SOL     OW38488   2.053   0.924   5.265 -0.7268 -0.4101  0.1211
 9009SOL    HW138489   2.017   0.929   5.177  0.7847  0.8810 -0.4355
 9009SOL    HW238490   1.991   0.864   5.306 -1.7105 -0.6757 -1.7465
 9010SOL     OW38491   1.189   1.075   1.996  0.2378 -0.4127 -0.3567
 9010SOL    HW138492   1.276   1.101   1.966 -0.9242  1.1011 -2.3747
 9010SOL    HW238493   1.188   0.980   1.989 -2.3335 -0.4521  0.6032
 9011SOL     OW38494   2.148   4.289   4.708  0.9881 -0.7654 -0.1375
 9011SOL    HW138495   2.121   4.249   4.790  2.2583  1.7417  1.5065
 9011SOL    HW238496   2.104   4.373   4.708  1.4772 -0.5122 -1.5863
 9012SOL     OW38497   4.500   2.597   5.835 -0.1313  0.2796 -0.4084
 9012SOL    HW138498   4.433   2.662   5.812 -1.8465 -0.8161  1.5001
 9012SOL    HW238499   4.563   2.618   5.766 -1.3269  2.6177 -0.8039
 9013SOL     OW38500   3.517   2.399   5.402 -0.7754 -0.2574 -0.1307
 9013SOL    HW138501   3.474   2.481   5.379 -2.2677 -0.8813  0.4167
 9013SOL    HW238502   3.598   2.434   5.439 -0.1851 -0.9620 -0.7691
 9014SOL     OW38503   2.595   4.025   3.866  0.2046 -0.4647  0.5834
 9014SOL    HW138504   2.588   4.121   3.864  1.6358 -0.3605  0.7106
 9014SOL    HW238505   2.515   3.995   3.910 -0.9455 -2.1986 -2.7261
 9015SOL     OW38506   0.660   2.000   4.271  0.9841 -0.2038  0.4758
 9015SOL    HW138507   0.599   1.999   4.197  0.5346 -0.5957  0.8492
 9015SOL    HW238508   0.597   1.975   4.339  0.3693  0.1962  0.0555
 9016SOL     OW38509   0.893   3.195   4.043  0.3510  0.1756  0.1382
 9016SOL    HW138510   0.957   3.133   4.077  0.1420  0.5063  1.1456
 9016SOL    HW238511   0.900   3.184   3.948 -1.4534  1.0569 -0.0887
 9017SOL     OW38512   1.587   0.190  12.044 -0.1049 -0.2167  0.2382
 9017SOL    HW138513   1.665   0.166  11.995 -1.2316 -0.7507 -1.2920
 9017SOL    HW238514   1.594   0.119  12.107 -0.6566 -1.0194 -0.6083
 9018SOL     OW38515   0.488   4.550  17.400 -0.0150  0.1050  0.2694
 9018SOL    HW138516   0.556   4.618  17.396  0.4159 -0.2585  1.3724
 9018SOL    HW238517   0.480   4.519  17.490  0.9269  0.3846  0.4512
 9019SOL     OW38518   0.473   0.683   6.132 -0.0060 -0.7310 -0.2709
 9019SOL    HW138519   0.421   0.619   6.181 -2.5946  1.0397 -0.6946
 9019SOL    HW238520   0.535   0.620   6.097  1.2925  0.1593  0.4444
 9020SOL     OW38521   1.173   3.074  14.917 -0.2034 -0.2595 -0.2850
 9020SOL    HW138522   1.126   3.026  14.849 -0.8910 -0.6013  0.4433
 9020SOL    HW238523   1.198   3.006  14.979 -1.7773 -1.5366 -1.0460
 9021SOL     OW38524   0.534   1.090   5.097  0.4256  0.4338  0.2815
 9021SOL    HW138525   0.598   1.030   5.135  0.8960  0.9629  0.3228
 9021SOL    HW238526   0.514   1.148   5.170  1.0065 -1.8918  2.2922
 9022SOL     OW38527   0.894   4.534   1.055  0.8541  0.2137  0.4680
 9022SOL    HW138528   0.834   4.588   1.107  1.1466 -0.4625  1.5019
 9022SOL    HW238529   0.965   4.596   1.039  0.2028  1.1165  1.0647
 9023SOL     OW38530   2.198   4.259  14.451  0.3757  0.2721 -0.1749
 9023SOL    HW138531   2.132   4.196  14.422 -1.0139  1.8449 -0.4197
 9023SOL    HW238532   2.267   4.201  14.484 -1.1310 -1.5406 -0.1855
 9024SOL     OW38533   4.659   2.911   4.048 -0.4800 -0.0667  0.1324
 9024SOL    HW138534   0.002   2.906   4.118  2.8348  1.0240 -2.8945
 9024SOL    HW238535   4.700   2.978   3.994 -0.7501  1.3763  1.7114
 9025SOL     OW38536   2.530   4.433   6.314 -0.2824  0.0662 -0.2900
 9025SOL    HW138537   2.447   4.470   6.345  0.3990  0.0523  1.6021
 9025SOL    HW238538   2.558   4.512   6.269  0.8795 -0.8053 -1.0761
 9026SOL     OW38539   4.304   3.608  16.666  0.3542 -0.5430  0.8794
 9026SOL    HW138540   4.210   3.617  16.685 -0.0817 -0.8140 -1.1329
 9026SOL    HW238541   4.340   3.659  16.738 -1.5332  0.7598  0.9028
 9027SOL     OW38542   1.126   3.258   2.485  0.0694  0.0809 -0.7097
 9027SOL    HW138543   1.071   3.226   2.557  1.5610 -1.8927 -0.4411
 9027SOL    HW238544   1.214   3.228   2.510 -0.0621  0.5665  0.3322
 9028SOL     OW38545   0.791   2.879   6.350 -0.3269  0.3740 -0.5923
 9028SOL    HW138546   0.867   2.938   6.353 -1.2831  1.4982  1.1666
 9028SOL    HW238547   0.797   2.862   6.256 -1.2482 -1.5000 -0.3017
 9029SOL     OW38548   3.094   2.490   5.066  0.3018 -0.1297 -0.0617
 9029SOL    HW138549   3.013   2.508   5.115  0.0026  2.6823 -1.5758
 9029SOL    HW238550   3.070   2.486   4.974 -1.1276  2.3145  0.1911
 9030SOL     OW38551   0.682   2.958   5.223  0.0913  0.0158  0.1614
 9030SOL    HW138552   0.668   3.051   5.204  2.4209  1.2980  4.6525
 9030SOL    HW238553   0.594   2.938   5.255 -0.1043 -1.7063 -1.5360
 9031SOL     OW38554   0.489   2.662  13.787  0.0982 -0.2778  0.4350
 9031SOL    HW138555   0.429   2.715  13.840 -0.8246 -0.1286 -0.7667
 9031SOL    HW238556   0.571   2.679  13.833  1.2504 -0.9918 -1.3661
 9032SOL     OW38557   2.182   0.254   0.558 -0.3265 -0.3291  0.1056
 9032SOL    HW138558   2.206   0.162   0.546 -0.2050 -0.4738  1.5043
 9032SOL    HW238559   2.124   0.250   0.633  1.0228 -1.1372  1.0930
 9033SOL     OW38560   4.061   1.859   3.479  0.4973 -0.6062  0.1791
 9033SOL    HW138561   4.085   1.880   3.389  0.7032 -1.3655  0.0576
 9033SOL    HW238562   4.144   1.849   3.526  0.3871  0.1339  0.5325
 9034SOL     OW38563   0.817   0.011   4.420 -0.0943 -0.1227 -0.0405
 9034SOL    HW138564   0.841   0.090   4.372 -1.9397 -1.0100 -2.3842
 9034SOL    HW238565   0.725   4.716   4.398  0.1605 -1.1040 -0.3087
 9035SOL     OW38566   1.997   1.782  10.688  0.0747 -0.1047  0.2250
 9035SOL    HW138567   1.960   1.729  10.618 -0.2140 -0.4363  0.6244
 9035SOL    HW238568   2.011   1.865  10.643 -1.5555 -0.1579 -0.3877
 9036SOL     OW38569   3.268   2.880   4.177 -0.3372 -0.4158 -0.3508
 9036SOL    HW138570   3.277   2.820   4.103 -0.8861 -0.9768  0.0413
 9036SOL    HW238571   3.280   2.966   4.136 -1.8456 -0.2571 -0.4612
 9037SOL     OW38572   2.703   1.760   6.273  0.1151 -0.2622 -1.0848
 9037SOL    HW138573   2.651   1.836   6.250 -0.0194  0.1981  0.6990
 9037SOL    HW238574   2.751   1.736   6.194 -0.0990 -2.1650 -0.6378
 9038SOL     OW38575   2.498   3.809   1.846  0.0866 -0.3606  0.1013
 9038SOL    HW138576   2.477   3.803   1.753 -2.2374 -0.8689  0.6573
 9038SOL    HW238577   2.560   3.882   1.846 -1.0535  0.5952  0.3563
 9039SOL     OW38578   4.493   0.027   5.650  0.2921  0.5319  0.4181
 9039SOL    HW138579   4.434   0.100   5.633 -0.4131 -0.4872 -1.5557
 9039SOL    HW238580   4.565   0.062   5.598  1.7599 -2.5636  0.3733
 9040SOL     OW38581   0.433   3.115   0.879 -0.8526  0.0520 -0.3797
 9040SOL    HW138582   0.528   3.107   0.866 -1.0615  0.3449 -2.0502
 9040SOL    HW238583   0.405   3.177   0.812 -0.2832 -0.1928 -0.8422
 9041SOL     OW38584   2.816   0.495  13.996 -0.0518 -0.0015  0.1240
 9041SOL    HW138585   2.832   0.487  14.090  0.2060  2.5450  0.2886
 9041SOL    HW238586   2.749   0.428  13.986 -1.1579  0.9190  1.4661
 9042SOL     OW38587   2.717   4.493   6.864 -0.4623  0.3665 -0.2743
 9042SOL    HW138588   2.635   4.450   6.838 -0.5057  0.4990 -0.3575
 9042SOL    HW238589   2.714   4.459   6.954 -0.2810  0.5466 -0.1995
 9043SOL     OW38590   3.984   4.470   3.817 -0.1574 -0.3717  0.7777
 9043SOL    HW138591   3.999   4.486   3.724  1.0547 -1.5940  0.7666
 9043SOL    HW238592   3.889   4.482   3.813 -0.1910 -0.4293  1.3396
 9044SOL     OW38593   1.927   4.545   4.307  0.0733  0.0372 -0.0364
 9044SOL    HW138594   2.000   4.485   4.291  0.5701  1.2697 -2.3923
 9044SOL    HW238595   1.872   4.504   4.374 -1.7474  2.2041 -0.2083
 9045SOL     OW38596   2.512   4.005   2.245 -0.3961  0.3497  0.8002
 9045SOL    HW138597   2.532   4.075   2.183 -0.7089  0.5012  0.8724
 9045SOL    HW238598   2.446   3.966   2.187 -0.4397  2.4216 -0.5313
 9046SOL     OW38599   0.720   0.834  11.888  0.5424  0.6333 -0.3225
 9046SOL    HW138600   0.661   0.760  11.874 -1.3187  1.9809  0.3532
 9046SOL    HW238601   0.734   0.833  11.982  0.4079 -1.6628 -0.3191
 9047SOL     OW38602   1.954   1.323   3.447 -0.2350 -0.9690  0.3328
 9047SOL    HW138603   1.868   1.302   3.411  0.8053 -2.5162 -1.2276
 9047SOL    HW238604   2.017   1.269   3.399 -0.3373  0.7841 -1.7463
 9048SOL     OW38605   2.530   2.695   5.886 -0.1723  0.2763 -0.3312
 9048SOL    HW138606   2.512   2.635   5.959 -0.1276  1.5853  0.7612
 9048SOL    HW238607   2.538   2.777   5.935 -0.6983 -0.1964  0.5658
 9049SOL     OW38608   0.039   3.795  15.512  0.2631  0.2615  0.4327
 9049SOL    HW138609   0.036   3.883  15.549 -1.9770  1.4633 -2.6283
 9049SOL    HW238610   0.001   3.798  15.424  0.1393  1.4783  0.5286
 9050SOL     OW38611   2.454   1.894  10.890  0.3786 -0.3206  0.2167
 9050SOL    HW138612   2.449   1.951  10.967 -0.1411 -0.2514  0.1303
 9050SOL    HW238613   2.403   1.936  10.820  1.3113  1.1959  0.4487
 9051SOL     OW38614   0.565   1.179   8.617 -0.1336  0.3317 -0.2765
 9051SOL    HW138615   0.627   1.242   8.652  0.1482  0.0422 -0.2475
 9051SOL    HW238616   0.541   1.115   8.684  3.9083 -2.1164 -1.1273
 9052SOL     OW38617   0.849   1.511   3.322 -0.6964 -0.2405  0.5091
 9052SOL    HW138618   0.880   1.597   3.294  2.9985 -1.3421  1.2653
 9052SOL    HW238619   0.929   1.460   3.316 -1.7571 -1.5987 -1.8528
 9053SOL     OW38620   1.092   4.093   5.171  0.1802  0.2734 -0.1158
 9053SOL    HW138621   1.068   4.097   5.264  1.8785  0.4496  0.3275
 9053SOL    HW238622   1.006   4.075   5.134 -1.0690  0.3745  2.7489
 9054SOL     OW38623   3.115   0.618  11.097 -0.1828 -0.3830 -0.8029
 9054SOL    HW138624   3.125   0.526  11.073  1.2877 -0.4615  0.1174
 9054SOL    HW238625   3.022   0.637  11.084 -0.1045  2.2112  2.7206
 9055SOL     OW38626   4.124   0.298   5.864  0.0524 -0.2659  0.0046
 9055SOL    HW138627   4.151   0.369   5.922  2.2031 -1.6100  0.6281
 9055SOL    HW238628   4.174   0.308   5.783  0.2196  2.2141  0.4035
 9056SOL     OW38629   2.042   0.409   2.569 -0.9384  0.0494 -0.2124
 9056SOL    HW138630   2.020   0.418   2.476 -1.1600  0.6740 -0.1049
 9056SOL    HW238631   2.086   0.325   2.566 -0.3835  0.2396  2.6545
 9057SOL     OW38632   2.342   3.267  10.108 -0.0269  0.1545 -0.1508
 9057SOL    HW138633   2.257   3.245  10.147 -0.6124 -1.3795 -2.2834
 9057SOL    HW238634   2.312   3.293  10.021 -0.4492  1.2822  0.3236
 9058SOL     OW38635   1.760   1.199   0.393 -0.0250  0.2656  0.2266
 9058SOL    HW138636   1.796   1.274   0.441  0.4437 -1.1192  2.0632
 9058SOL    HW238637   1.753   1.238   0.306 -0.4268  1.8817  0.9828
 9059SOL     OW38638   1.018   1.448   3.594 -0.1938 -0.1872 -0.5783
 9059SOL    HW138639   1.033   1.365   3.549 -0.6890 -1.2446  1.1892
 9059SOL    HW238640   1.089   1.497   3.553  1.5428 -0.7167  1.7668
 9060SOL     OW38641   1.254   2.518   8.340  0.3291 -0.4645  0.0583
 9060SOL    HW138642   1.288   2.465   8.412 -0.8182  1.1412  1.8029
 9060SOL    HW238643   1.223   2.597   8.383 -1.0131 -2.0801  2.0386
 9061SOL     OW38644   3.142   2.729   9.824  0.0055  0.2612 -0.3051
 9061SOL    HW138645   3.048   2.747   9.829 -0.2429 -1.3381  0.8565
 9061SOL    HW238646   3.176   2.803   9.874 -3.1976  1.7768 -0.3865
 9062SOL     OW38647   2.722   3.284   2.923  0.0584  0.1640 -0.0173
 9062SOL    HW138648   2.726   3.216   2.856 -1.5442 -1.6666  1.7547
 9062SOL    HW238649   2.662   3.344   2.879 -1.8102 -0.3755  1.8270
 9063SOL     OW38650   0.886   0.268   4.318 -0.1289  0.2642  0.0773
 9063SOL    HW138651   0.934   0.338   4.363  1.6467 -0.4104 -0.7790
 9063SOL    HW238652   0.920   0.272   4.229  0.5040  1.7370  0.3912
 9064SOL     OW38653   2.628   0.282  13.109  0.0994 -0.4844 -0.4089
 9064SOL    HW138654   2.702   0.343  13.101 -0.6289  0.6156  1.2789
 9064SOL    HW238655   2.552   0.339  13.097  0.0476 -0.4537  0.0669
 9065SOL     OW38656   3.033   2.556   1.272 -0.4563  0.0192 -0.4842
 9065SOL    HW138657   2.999   2.578   1.359 -1.4245  0.5463 -0.9992
 9065SOL    HW238658   2.983   2.478   1.245  1.1757 -1.5195  0.9226
 9066SOL     OW38659   4.518   1.178  15.288 -0.5478  0.1755  0.3060
 9066SOL    HW138660   4.544   1.199  15.378  2.1748  0.2423 -0.4980
 9066SOL    HW238661   4.422   1.184  15.289 -0.5339  0.4639 -0.2825
 9067SOL     OW38662   3.670   4.143  16.918  0.3202 -0.3017  0.1095
 9067SOL    HW138663   3.694   4.234  16.936  1.1583 -0.2625 -1.2497
 9067SOL    HW238664   3.607   4.141  16.990  0.3407 -0.1758  0.1303
 9068SOL     OW38665   4.165   0.287   7.086 -0.5403  0.2230  0.1703
 9068SOL    HW138666   4.125   0.373   7.072  1.0523  0.9175 -0.1967
 9068SOL    HW238667   4.258   0.311   7.075 -0.4831 -0.0394  0.0909
 9069SOL     OW38668   4.424   3.540  12.233 -0.0966 -0.1537 -0.2081
 9069SOL    HW138669   4.406   3.581  12.318 -1.8442  0.6438 -0.9718
 9069SOL    HW238670   4.350   3.573  12.182 -0.6881 -1.7606 -0.3813
 9070SOL     OW38671   1.794   3.604   7.904 -0.1514 -0.1349 -0.3436
 9070SOL    HW138672   1.735   3.564   7.967 -0.3156 -2.4482 -1.9318
 9070SOL    HW238673   1.743   3.573   7.828  1.7510 -1.0289 -1.2528
 9071SOL     OW38674   1.206   3.504   2.395  0.1833  0.0390  0.1568
 9071SOL    HW138675   1.125   3.548   2.420  0.1735  0.9403 -1.4062
 9071SOL    HW238676   1.192   3.414   2.422 -0.2905  0.3572  0.9651
 9072SOL     OW38677   4.493   1.155  11.375  0.2512 -0.2101  0.0927
 9072SOL    HW138678   4.545   1.220  11.423  0.6606 -0.4658 -0.0057
 9072SOL    HW238679   4.561   1.105  11.330 -1.6516 -3.2868  0.6695
 9073SOL     OW38680   4.457   3.495   7.594  0.4599 -0.3079 -0.3916
 9073SOL    HW138681   4.397   3.468   7.524  1.8603 -0.3249 -1.5979
 9073SOL    HW238682   4.504   3.562   7.544  0.7109  0.7403  1.2688
 9074SOL     OW38683   2.897   1.399   6.887 -0.0707  0.3895  0.1981
 9074SOL    HW138684   2.976   1.392   6.941 -0.5457 -1.9304  0.5952
 9074SOL    HW238685   2.930   1.474   6.837 -0.9421 -0.3439 -1.4761
 9075SOL     OW38686   1.165   0.922  17.222 -0.4461 -0.4794  0.4132
 9075SOL    HW138687   1.203   0.925  17.310  0.0870  0.3033  0.1527
 9075SOL    HW238688   1.194   0.834  17.197  0.7007  0.1661 -0.4913
 9076SOL     OW38689   4.068   4.343   3.463 -0.4513  0.6000  0.3234
 9076SOL    HW138690   3.995   4.333   3.401  0.0915  1.0562 -0.3952
 9076SOL    HW238691   4.045   4.272   3.523  2.6160 -2.0078 -1.6055
 9077SOL     OW38692   0.444   3.025   8.875  0.0567 -0.3885  0.2515
 9077SOL    HW138693   0.486   3.063   8.952 -1.7231  5.1139 -1.5258
 9077SOL    HW238694   0.494   2.943   8.874  0.2895 -0.2604  1.7713
 9078SOL     OW38695   4.083   4.333  12.946 -0.3825  0.1039 -0.3623
 9078SOL    HW138696   4.176   4.311  12.946 -0.4940 -0.3706 -0.9981
 9078SOL    HW238697   4.069   4.382  12.864 -1.2591 -1.1062 -0.9268
 9079SOL     OW38698   3.772   1.756   6.938  0.4134  0.0208  0.6476
 9079SOL    HW138699   3.725   1.688   6.986 -0.1596 -0.3857 -0.5006
 9079SOL    HW238700   3.855   1.718   6.909  0.4326 -1.2003  2.3075
 9080SOL     OW38701   3.956   1.856   1.596 -0.2404  0.2685  0.2907
 9080SOL    HW138702   3.982   1.944   1.568  2.3449 -0.6277 -0.1636
 9080SOL    HW238703   3.888   1.826   1.535  0.1316 -0.9941  0.4786
 9081SOL     OW38704   1.645   0.458   5.060 -0.2936 -0.0095 -0.6947
 9081SOL    HW138705   1.673   0.380   5.013  0.7839 -0.8722  1.3356
 9081SOL    HW238706   1.555   0.477   5.035 -0.2627 -0.0078 -0.8021
 9082SOL     OW38707   4.468   1.140   0.690  0.5256  0.1961 -0.0452
 9082SOL    HW138708   4.556   1.142   0.728  0.1296 -2.5576  0.9902
 9082SOL    HW238709   4.480   1.128   0.596 -1.0226  0.7196 -0.3089
 9083SOL     OW38710   3.862   0.212  13.531  1.1137  0.1339  0.4481
 9083SOL    HW138711   3.823   0.294  13.501 -0.8167 -0.5193  1.1267
 9083SOL    HW238712   3.786   0.165  13.567 -0.6994  1.0757 -2.1057
 9084SOL     OW38713   1.836   3.571  17.000 -0.4726 -0.0533  0.6055
 9084SOL    HW138714   1.811   3.500  17.060 -1.7923 -0.5398 -0.5321
 9084SOL    HW238715   1.859   3.515  16.926  0.5833 -0.7262  1.4344
 9085SOL     OW38716   3.445   1.987   6.786  0.3562 -0.2046 -0.6376
 9085SOL    HW138717   3.406   1.937   6.858 -1.5984  0.8560 -0.9619
 9085SOL    HW238718   3.386   1.964   6.715  1.0213 -1.3034 -0.8300
 9086SOL     OW38719   4.538   1.859   8.599 -0.3147 -0.2026  0.1747
 9086SOL    HW138720   4.598   1.855   8.524  0.6383  0.6694  0.9008
 9086SOL    HW238721   4.457   1.819   8.567 -0.3395  0.8798 -1.1085
 9087SOL     OW38722   0.176   2.364   1.985 -0.5469 -0.8558  0.1427
 9087SOL    HW138723   0.122   2.310   2.042  0.9896 -2.5868 -0.0316
 9087SOL    HW238724   0.112   2.372   1.914 -0.3753 -0.3674  0.0452
 9088SOL     OW38725   0.182   3.316   3.952 -0.4434  0.2427 -0.2048
 9088SOL    HW138726   0.254   3.316   3.889  0.1691 -0.5810  0.4999
 9088SOL    HW238727   0.161   3.410   3.955  0.3415  0.4538 -1.3202
 9089SOL     OW38728   2.551   1.633   6.454 -0.3785 -0.0401  0.0496
 9089SOL    HW138729   2.568   1.660   6.544 -0.2318 -0.2946  0.0983
 9089SOL    HW238730   2.615   1.686   6.406 -0.6728 -1.9927 -2.5207
 9090SOL     OW38731   0.779   2.930   1.981 -0.1822  0.0909 -0.1401
 9090SOL    HW138732   0.859   2.982   1.981 -0.0726 -0.0772  0.3453
 9090SOL    HW238733   0.770   2.912   2.074 -0.7466  3.0080  0.3612
 9091SOL     OW38734   4.062   0.565   4.627  0.1478 -0.4273 -0.0601
 9091SOL    HW138735   3.967   0.552   4.631  0.0423  0.3791  0.1112
 9091SOL    HW238736   4.091   0.569   4.718 -0.9768 -0.3493  0.2902
 9092SOL     OW38737   1.654   1.038   6.186 -0.5945  0.4297  0.4825
 9092SOL    HW138738   1.693   0.992   6.260  3.9179 -2.4649 -3.6428
 9092SOL    HW238739   1.736   1.043   6.135 -2.3227 -0.5655 -2.3846
 9093SOL     OW38740   0.441   1.847  16.473  0.3236  0.5075  0.7868
 9093SOL    HW138741   0.500   1.895  16.416 -0.4593  2.8951  1.9848
 9093SOL    HW238742   0.468   1.888  16.555  0.1187  1.4340  0.3846
 9094SOL     OW38743   0.625   1.998   6.410 -0.1486  0.2955  0.6404
 9094SOL    HW138744   0.681   2.025   6.337 -0.0565 -0.4914  0.4261
 9094SOL    HW238745   0.684   1.999   6.486  1.7674  1.0329 -0.8419
 9095SOL     OW38746   1.369   1.982   5.141  0.2432 -0.3855 -0.2515
 9095SOL    HW138747   1.361   1.918   5.071 -0.6057  1.5310 -1.8824
 9095SOL    HW238748   1.463   1.974   5.156  0.0180  1.2825  2.1545
 9096SOL     OW38749   3.790   2.219   6.487 -0.3179 -0.2614  0.8564
 9096SOL    HW138750   3.808   2.153   6.554  0.5275  0.3815  1.2557
 9096SOL    HW238751   3.716   2.181   6.440  0.1774 -0.4588  0.2289
 9097SOL     OW38752   1.689   2.182   9.470 -0.6224  0.7206  0.0409
 9097SOL    HW138753   1.612   2.131   9.447 -0.0040 -0.8343  1.4578
 9097SOL    HW238754   1.651   2.254   9.520 -0.6552 -0.0818  1.1539
 9098SOL     OW38755   1.655   4.629  16.016 -0.2283  0.3905 -0.3481
 9098SOL    HW138756   1.747   4.609  16.033 -0.6168  0.4170  1.8305
 9098SOL    HW238757   1.605   4.570  16.074 -1.4968 -0.6833 -2.5171
 9099SOL     OW38758   2.660   0.103  12.637 -0.2393  0.3064  0.0864
 9099SOL    HW138759   2.604   0.030  12.611  1.0906 -1.0368  0.9923
 9099SOL    HW238760   2.644   0.114  12.731  0.1912 -0.2835  0.2274
 9100SOL     OW38761   4.673   1.134   1.646  0.4216 -0.0415 -0.1162
 9100SOL    HW138762   4.677   1.122   1.741 -1.4547  1.1761  0.1174
 9100SOL    HW238763   4.585   1.169   1.635 -0.0885 -1.8918 -1.9044
 9101SOL     OW38764   3.455   4.077   4.953  0.3000 -0.0614 -0.1138
 9101SOL    HW138765   3.528   4.021   4.929 -1.5370 -1.7476 -1.7627
 9101SOL    HW238766   3.383   4.025   4.918 -0.2398  0.0959  0.7642
 9102SOL     OW38767   2.643   0.755  15.804  0.6368  0.0524  0.0406
 9102SOL    HW138768   2.633   0.793  15.717  1.5836 -0.5391 -0.3317
 9102SOL    HW238769   2.594   0.673  15.794 -2.6722  2.1863 -1.1992
 9103SOL     OW38770   0.247   3.745   3.121 -0.1250  0.1257  0.4426
 9103SOL    HW138771   0.161   3.709   3.143  0.0526  1.6407  3.5482
 9103SOL    HW238772   0.304   3.671   3.143  0.3608  0.6232  0.8349
 9104SOL     OW38773   4.457   2.442   3.948 -0.0005  0.2664  0.2945
 9104SOL    HW138774   4.369   2.466   3.976 -0.4391 -2.3508  1.0913
 9104SOL    HW238775   4.443   2.469   3.857  1.9481 -2.2106 -0.7299
 9105SOL     OW38776   2.557   0.474  11.654  0.3484 -0.1462 -0.2892
 9105SOL    HW138777   2.628   0.414  11.678  1.9711  1.4749 -1.0206
 9105SOL    HW238778   2.485   0.436  11.704  0.9933  0.5762  1.1888
 9106SOL     OW38779   1.789   4.055   4.841  0.0479  0.4252  0.8248
 9106SOL    HW138780   1.797   4.147   4.866 -1.3896  0.9964 -0.8422
 9106SOL    HW238781   1.710   4.049   4.787 -0.9466 -0.9322  2.4364
 9107SOL     OW38782   0.288   4.589  17.618  0.1391  0.3039  0.6144
 9107SOL    HW138783   0.232   4.653  17.663 -0.1520 -0.1581  0.9108
 9107SOL    HW238784   0.301   4.633  17.534 -1.5317 -0.4157 -0.0194
 9108SOL     OW38785   4.409   2.965   8.238 -0.3059  0.1813 -0.5286
 9108SOL    HW138786   4.321   2.937   8.262  0.0106  1.3546  2.0456
 9108SOL    HW238787   4.434   3.009   8.320 -1.0430  0.7471 -0.5993
 9109SOL     OW38788   3.817   0.618   7.432 -0.0209 -0.3562 -0.3449
 9109SOL    HW138789   3.789   0.559   7.362  0.6086 -2.7155  1.3639
 9109SOL    HW238790   3.751   0.577   7.489  1.2381 -0.4369  1.0461
 9110SOL     OW38791   3.137   0.167   0.529 -0.0863 -0.0216  0.0597
 9110SOL    HW138792   3.120   0.144   0.620 -0.7263  0.1156 -0.0284
 9110SOL    HW238793   3.099   0.088   0.491 -0.5351  0.0488  0.3591
 9111SOL     OW38794   1.898   0.536   6.269  0.5856  0.2405  0.1771
 9111SOL    HW138795   1.819   0.536   6.324  0.7058 -0.3333  0.3427
 9111SOL    HW238796   1.967   0.540   6.336 -1.8522  0.3215  2.6853
 9112SOL     OW38797   1.843   4.348   2.048 -1.1925 -0.2175  0.1609
 9112SOL    HW138798   1.827   4.371   1.957  2.5095  0.4329 -0.3119
 9112SOL    HW238799   1.790   4.411   2.098  0.3212  0.9981  0.2259
 9113SOL     OW38800   1.034   4.640   3.215 -0.3611  0.7378  0.3622
 9113SOL    HW138801   1.057   4.697   3.140  1.2217  1.7359  1.5985
 9113SOL    HW238802   1.111   4.652   3.271  0.8011  2.3522 -1.5445
 9114SOL     OW38803   2.146   3.416   4.147 -0.3126 -0.3476  0.1474
 9114SOL    HW138804   2.139   3.507   4.176  1.5592  0.1356 -0.9663
 9114SOL    HW238805   2.230   3.384   4.179 -0.7522 -3.9263 -2.2628
 9115SOL     OW38806   3.329   1.677   2.115  0.1010  0.6074 -0.3063
 9115SOL    HW138807   3.256   1.619   2.090  1.4705 -0.7373 -1.2235
 9115SOL    HW238808   3.356   1.714   2.031  1.1604  1.2827  0.3475
 9116SOL     OW38809   4.402   0.276   8.470  0.0238 -0.1692  0.7383
 9116SOL    HW138810   4.493   0.298   8.490 -0.1681  1.2894 -0.0298
 9116SOL    HW238811   4.351   0.332   8.528  0.6284 -0.1868  1.2874
 9117SOL     OW38812   1.461   1.517  11.661 -0.1806  0.0375 -0.5320
 9117SOL    HW138813   1.512   1.544  11.738 -1.6925 -0.5122  0.6615
 9117SOL    HW238814   1.409   1.593  11.637  1.3182  1.4304  0.6820
 9118SOL     OW38815   2.413   4.327   2.752  0.0429 -0.4447  0.1092
 9118SOL    HW138816   2.433   4.241   2.713 -0.8559  1.2492 -4.0724
 9118SOL    HW238817   2.494   4.373   2.732  0.5525 -0.5657  1.8693
 9119SOL     OW38818   4.263   4.478   3.045 -0.2331 -0.3126 -0.0421
 9119SOL    HW138819   4.253   4.540   2.972 -0.5055  0.4180  0.6116
 9119SOL    HW238820   4.273   4.391   3.007 -0.0449 -0.5675  0.5949
 9120SOL     OW38821   0.565   0.002   5.797  0.0274  0.1202 -0.5189
 9120SOL    HW138822   0.551   4.637   5.759  3.1011 -0.9300  0.7293
 9120SOL    HW238823   0.621   4.714   5.874  0.2169  1.7054 -0.4430
 9121SOL     OW38824   0.379   3.846   6.537  0.1365  0.2322  0.0388
 9121SOL    HW138825   0.403   3.754   6.531  0.0188  0.1804  0.3891
 9121SOL    HW238826   0.411   3.869   6.624 -0.0695  1.1685 -0.1257
 9122SOL     OW38827   0.276   0.946   4.553 -0.5665  0.2604  0.5293
 9122SOL    HW138828   0.266   1.023   4.609  1.6951  1.1109 -0.2347
 9122SOL    HW238829   0.343   0.986   4.497 -0.1518 -0.3900  0.5622
 9123SOL     OW38830   4.121   3.440   4.642 -0.2782  0.2233  0.1798
 9123SOL    HW138831   4.068   3.518   4.658  1.6256  2.0475 -2.3166
 9123SOL    HW238832   4.171   3.465   4.564 -0.3625  1.0657  0.3908
 9124SOL     OW38833   4.557   2.539   9.805  0.3789 -0.3135  0.1494
 9124SOL    HW138834   4.500   2.580   9.740  0.1190 -1.4351 -0.3258
 9124SOL    HW238835   4.544   2.445   9.797  0.6421 -0.2577 -0.9191
 9125SOL     OW38836   4.370   3.821   2.196 -0.0444  0.5267 -0.0975
 9125SOL    HW138837   4.425   3.747   2.221 -0.1844  0.5100  0.1613
 9125SOL    HW238838   4.351   3.846   2.286  1.1171  1.9758 -0.2653
 9126SOL     OW38839   4.694   3.036   7.513  0.0930  0.0777 -0.4103
 9126SOL    HW138840   4.678   3.100   7.444 -0.2203  1.2625  0.7476
 9126SOL    HW238841   0.036   2.974   7.478  0.2849  0.5469 -0.8830
 9127SOL     OW38842   3.050   2.662   7.102 -0.3730  0.3679 -0.0654
 9127SOL    HW138843   3.124   2.616   7.064 -0.6260  0.6741 -0.9179
 9127SOL    HW238844   2.985   2.591   7.106  0.6186 -0.6325 -2.2151
 9128SOL     OW38845   2.848   0.190   8.623 -0.0531 -0.0451 -0.1663
 9128SOL    HW138846   2.885   0.236   8.698 -1.0671  0.4153  0.0365
 9128SOL    HW238847   2.839   0.103   8.663 -1.7409  0.1838 -0.0954
 9129SOL     OW38848   2.277   4.641  10.149 -0.0302 -0.0396  0.1220
 9129SOL    HW138849   2.247   4.550  10.148 -0.9928  0.3053 -1.1826
 9129SOL    HW238850   2.366   4.641  10.185  0.8875  2.7608 -2.1796
 9130SOL     OW38851   1.856   1.230   7.101 -0.0963  0.2468  0.3562
 9130SOL    HW138852   1.935   1.175   7.105 -0.0383  0.3198  0.2130
 9130SOL    HW238853   1.857   1.257   7.009 -1.5093 -0.0545  0.2493
 9131SOL     OW38854   3.682   0.121  14.936 -0.2507 -0.0202  0.0978
 9131SOL    HW138855   3.743   0.123  14.862  0.0109 -0.4629  0.2997
 9131SOL    HW238856   3.638   0.202  14.912  1.8581  1.2341  0.4694
 9132SOL     OW38857   1.981   4.517   6.681  0.2638  0.3672 -0.5067
 9132SOL    HW138858   1.934   4.500   6.600  1.2558 -0.2478 -0.9552
 9132SOL    HW238859   1.963   4.428   6.714 -1.6878  1.2995  0.9819
 9133SOL     OW38860   4.024   3.580   5.451  0.0311  0.1563 -0.1494
 9133SOL    HW138861   3.933   3.573   5.482  0.0468  0.4199 -0.0408
 9133SOL    HW238862   4.073   3.602   5.530  1.2939 -3.6065  0.1326
 9134SOL     OW38863   0.988   4.042  14.321  0.2394 -0.1193 -0.0671
 9134SOL    HW138864   0.895   4.055  14.339  0.0230  0.5537 -1.6519
 9134SOL    HW238865   1.029   4.126  14.341  0.1088  0.0193 -0.3798
 9135SOL     OW38866   1.154   4.574   6.301 -0.4544 -0.3804  0.2099
 9135SOL    HW138867   1.122   4.532   6.221 -0.3315  0.4035 -0.2496
 9135SOL    HW238868   1.085   4.555   6.365 -0.3403 -1.1648  0.0903
 9136SOL     OW38869   4.613   0.486   4.211 -1.1165  0.7238 -0.5361
 9136SOL    HW138870   4.630   0.411   4.155 -0.4181 -0.3087  1.0660
 9136SOL    HW238871   4.675   0.550   4.176  1.5626 -2.9269 -2.4300
 9137SOL     OW38872   3.971   2.087   4.187  0.8573 -0.0590 -0.0985
 9137SOL    HW138873   3.932   2.101   4.273 -1.4411 -1.9945 -0.8102
 9137SOL    HW238874   4.048   2.143   4.179  0.6393  0.2778  0.1615
 9138SOL     OW38875   0.831   3.371   8.323  0.0808 -0.7021 -0.4571
 9138SOL    HW138876   0.833   3.345   8.415 -0.5823 -0.4472 -0.3738
 9138SOL    HW238877   0.747   3.417   8.321  0.5035  0.0611 -1.0973
 9139SOL     OW38878   0.518   1.056  14.981 -0.5316 -0.5692 -0.5142
 9139SOL    HW138879   0.577   1.087  15.049 -2.1439  2.8834 -0.6894
 9139SOL    HW238880   0.589   1.026  14.925 -0.2908  0.4496 -0.7509
 9140SOL     OW38881   3.872   0.043  10.247  0.5038 -0.3194 -0.3443
 9140SOL    HW138882   3.851   4.718  10.166 -1.0630  2.2313 -1.4299
 9140SOL    HW238883   3.847   4.697  10.310 -0.6131  0.9067  0.5264
 9141SOL     OW38884   4.694   3.654   8.413  0.4876  0.0661 -0.7977
 9141SOL    HW138885   4.715   3.580   8.355 -0.8295 -1.4357  0.6562
 9141SOL    HW238886   0.041   3.716   8.390 -1.0146  1.2223 -2.2280
 9142SOL     OW38887   2.487   4.435   2.449  0.3961 -0.5475  0.3037
 9142SOL    HW138888   2.527   4.489   2.381 -1.0748  1.8162  1.2898
 9142SOL    HW238889   2.532   4.477   2.522 -0.4741  0.3626  0.3250
 9143SOL     OW38890   1.268   0.214   4.258 -0.3388  0.4064 -0.2978
 9143SOL    HW138891   1.187   0.232   4.212 -0.8173 -0.3549  0.2615
 9143SOL    HW238892   1.254   0.203   4.352  2.1468  0.5390  0.0945
 9144SOL     OW38893   3.826   0.619   5.402 -0.1790 -0.0286 -0.6505
 9144SOL    HW138894   3.825   0.600   5.308  1.0341 -2.2827 -0.2070
 9144SOL    HW238895   3.817   0.529   5.435 -1.0972 -0.3593 -1.7916
 9145SOL     OW38896   3.989   0.065   2.528 -0.2739 -0.4250 -0.0449
 9145SOL    HW138897   4.015   0.077   2.619  1.6397 -2.2699 -0.3428
 9145SOL    HW238898   3.988   4.692   2.518  2.0509 -0.5205  0.6864
 9146SOL     OW38899   1.277   0.638   0.374 -0.0008 -0.0117  0.3291
 9146SOL    HW138900   1.261   0.553   0.333  0.6118 -0.2882  0.6555
 9146SOL    HW238901   1.340   0.613   0.442 -0.4349 -0.9181  0.4078
 9147SOL     OW38902   1.105   3.285  17.654  0.0394  0.2617  0.4162
 9147SOL    HW138903   1.021   3.240  17.662  0.8660 -0.9814  2.4158
 9147SOL    HW238904   1.115   3.293  17.559  1.4959  0.2157  0.5543
 9148SOL     OW38905   3.163   4.711  12.927 -0.0299  0.5509 -0.1918
 9148SOL    HW138906   3.258   4.719  12.926  0.0848 -0.5414  1.0236
 9148SOL    HW238907   3.134   0.062  12.981 -2.7799 -3.4129  3.7840
 9149SOL     OW38908   2.912   2.265   7.278 -0.4827  0.9040  0.6395
 9149SOL    HW138909   2.844   2.267   7.346 -1.9129  1.4737 -0.7996
 9149SOL    HW238910   2.961   2.186   7.301 -1.3572  0.0422 -0.4544
 9150SOL     OW38911   3.309   0.687   2.965  0.2943  0.2821  0.3140
 9150SOL    HW138912   3.286   0.774   2.931 -2.0920 -0.5953 -0.3596
 9150SOL    HW238913   3.222   0.647   2.974  0.4099  0.5028  2.2554
 9151SOL     OW38914   3.751   1.197  11.186 -0.0107 -0.0357  0.1180
 9151SOL    HW138915   3.658   1.207  11.163 -0.0949 -0.0186  0.4552
 9151SOL    HW238916   3.743   1.202  11.281 -1.2705 -2.6378  0.1490
 9152SOL     OW38917   2.284   0.348  11.530 -0.7247  0.2395 -0.1514
 9152SOL    HW138918   2.353   0.357  11.595  2.5634  0.3782 -3.6315
 9152SOL    HW238919   2.241   0.265  11.552 -1.4541  0.1903 -1.7429
 9153SOL     OW38920   2.275   0.917  16.436  0.1861  0.3166  0.6932
 9153SOL    HW138921   2.347   0.880  16.385  0.0897  2.7394 -1.1828
 9153SOL    HW238922   2.199   0.874  16.398  3.9508 -3.3065 -2.6936
 9154SOL     OW38923   4.103   0.285  13.172 -0.2980 -0.5439  0.2252
 9154SOL    HW138924   4.187   0.259  13.210 -0.8917  0.5030  2.2409
 9154SOL    HW238925   4.125   0.362  13.120 -1.2717 -0.1477  0.3920
 9155SOL     OW38926   3.296   4.311  16.067  0.2130 -0.3242 -0.1912
 9155SOL    HW138927   3.269   4.267  15.986 -0.1922  1.8204 -1.2116
 9155SOL    HW238928   3.262   4.399  16.052  0.7709 -0.2354 -1.0033
 9156SOL     OW38929   0.063   4.486   1.219 -0.6927 -0.5830 -0.5283
 9156SOL    HW138930   0.069   4.529   1.134 -1.3589  2.3740  0.9341
 9156SOL    HW238931   0.006   4.553   1.256 -2.7347 -1.8139 -1.4419
 9157SOL     OW38932   2.243   0.779  14.505  0.0316  0.3622 -0.1259
 9157SOL    HW138933   2.289   0.729  14.437  1.2829 -0.2697  1.2102
 9157SOL    HW238934   2.213   0.857  14.457 -1.1103  1.3823  2.2523
 9158SOL     OW38935   0.659   0.874   7.119  1.0162  0.6694  0.0398
 9158SOL    HW138936   0.570   0.892   7.149  0.4233  0.7468 -1.7519
 9158SOL    HW238937   0.719   0.879   7.194 -0.9001 -0.0958  1.6111
 9159SOL     OW38938   2.415   0.603   3.480  0.5944  0.1311 -0.1813
 9159SOL    HW138939   2.433   0.671   3.546 -2.4095 -0.3692  1.1467
 9159SOL    HW238940   2.409   0.652   3.398 -3.0373  0.7033  0.4266
 9160SOL     OW38941   0.282   3.297   9.135  0.4619 -0.2644 -0.4710
 9160SOL    HW138942   0.323   3.318   9.051 -2.0168  0.3999 -1.4875
 9160SOL    HW238943   0.309   3.205   9.131  0.4491 -0.2459 -0.9611
 9161SOL     OW38944   1.723   0.419  16.585 -0.6548  0.5393 -0.5928
 9161SOL    HW138945   1.710   0.338  16.536 -2.5786  0.1515  0.5775
 9161SOL    HW238946   1.818   0.406  16.587 -0.7253 -0.3969 -2.5570
 9162SOL     OW38947   1.630   4.423   3.204  0.1432  0.1603 -0.6121
 9162SOL    HW138948   1.694   4.366   3.246  0.6031  2.6500  2.1069
 9162SOL    HW238949   1.682   4.500   3.185 -0.0762  0.5138  0.1891
 9163SOL     OW38950   2.462   0.719   8.562 -0.4803  0.4999  0.2193
 9163SOL    HW138951   2.461   0.729   8.657  2.6002  0.7256  0.2536
 9163SOL    HW238952   2.437   0.806   8.531  1.1282  0.3107 -1.6380
 9164SOL     OW38953   3.575   2.045   1.560 -0.3460  0.0592  0.2220
 9164SOL    HW138954   3.574   2.094   1.478  1.4022  3.0016  1.9872
 9164SOL    HW238955   3.517   2.087   1.623 -2.1898  1.3709 -2.3568
 9165SOL     OW38956   3.217   3.115   3.137  0.1417  0.0231 -0.2832
 9165SOL    HW138957   3.263   3.158   3.064 -0.3379 -0.4942 -0.8883
 9165SOL    HW238958   3.288   3.111   3.201  0.4170 -1.9700 -0.7275
 9166SOL     OW38959   2.026   0.946  13.344 -0.1930 -0.1143 -0.0886
 9166SOL    HW138960   2.093   0.989  13.396 -0.9120  1.0965 -0.1468
 9166SOL    HW238961   1.945   0.992  13.366  0.3843 -0.1383  2.0734
 9167SOL     OW38962   0.636   2.900  10.457  0.3170 -0.3079 -0.3530
 9167SOL    HW138963   0.641   2.806  10.472  0.2140 -0.1520  0.6809
 9167SOL    HW238964   0.598   2.943  10.534 -3.5553  0.4497 -2.7044
 9168SOL     OW38965   2.334   3.830   5.352 -0.0563  0.1535  0.0690
 9168SOL    HW138966   2.268   3.772   5.314 -0.6510  0.8457  0.0422
 9168SOL    HW238967   2.286   3.909   5.376 -1.2333 -0.3602 -0.6105
 9169SOL     OW38968   2.809   0.383   5.030  0.2123  0.4891 -0.1316
 9169SOL    HW138969   2.845   0.315   5.087  1.7102 -0.5604 -2.2940
 9169SOL    HW238970   2.767   0.333   4.960 -2.6787  2.1192  0.4546
 9170SOL     OW38971   1.803   3.168   8.756 -0.2044  0.6331 -0.6896
 9170SOL    HW138972   1.772   3.196   8.843  0.7233 -1.3494  0.2829
 9170SOL    HW238973   1.832   3.078   8.775 -0.7578  0.3671 -1.1141
 9171SOL     OW38974   3.623   3.797   5.487 -0.2653 -0.0455  0.4724
 9171SOL    HW138975   3.572   3.738   5.431 -1.5456  1.4807  0.0571
 9171SOL    HW238976   3.687   3.836   5.427 -0.6599  0.0485  0.1179
 9172SOL     OW38977   0.753   0.456   1.123 -0.0514 -0.1416 -0.2855
 9172SOL    HW138978   0.815   0.487   1.057 -0.5220 -0.8454 -1.0543
 9172SOL    HW238979   0.775   0.513   1.197 -0.0726  1.5184 -1.5511
 9173SOL     OW38980   3.089   3.427   2.604  0.2084 -0.0488  0.2141
 9173SOL    HW138981   3.109   3.345   2.649 -0.3084 -0.3992 -0.1974
 9173SOL    HW238982   3.060   3.391   2.520  2.7474 -0.5812 -0.4191
 9174SOL     OW38983   0.619   2.313   5.208 -0.2131  0.1442 -0.6692
 9174SOL    HW138984   0.609   2.408   5.206  1.0822  0.2776 -0.6026
 9174SOL    HW238985   0.552   2.295   5.274  1.1228  0.7179  0.8471
 9175SOL     OW38986   4.163   0.898   5.467  0.5184 -0.1888  0.1166
 9175SOL    HW138987   4.073   0.864   5.470  0.3145  0.4348  0.9667
 9175SOL    HW238988   4.216   0.818   5.463  2.1595  0.8594  0.9919
 9176SOL     OW38989   1.335   4.183   0.199  0.1859  0.1293 -0.2138
 9176SOL    HW138990   1.243   4.209   0.198  0.0607 -0.3568 -1.3846
 9176SOL    HW238991   1.322   4.089   0.195  0.0529  0.0068  3.1508
 9177SOL     OW38992   0.759   4.498   9.855 -0.3124 -0.3741  0.1767
 9177SOL    HW138993   0.676   4.498   9.902 -0.8721 -0.2624 -0.8076
 9177SOL    HW238994   0.750   4.570   9.792  1.6411  0.7999  1.2368
 9178SOL     OW38995   2.770   0.458  17.258 -0.0369  0.2386  0.6291
 9178SOL    HW138996   2.821   0.390  17.213 -1.4661  0.4813 -1.3433
 9178SOL    HW238997   2.827   0.471  17.334  0.1335  0.7290  0.4156
 9179SOL     OW38998   2.934   1.431   5.765  0.0288  0.2418  0.5119
 9179SOL    HW138999   2.889   1.367   5.820 -3.4850  1.9906 -0.3943
 9179SOL    HW239000   2.988   1.476   5.830  1.8432 -1.6132  0.3195
 9180SOL     OW39001   2.440   3.373   3.742 -0.6108 -0.0645 -0.4092
 9180SOL    HW139002   2.466   3.431   3.813 -0.8160  1.6970 -1.7742
 9180SOL    HW239003   2.509   3.402   3.682  0.4896  1.0550  1.3998
 9181SOL     OW39004   4.145   4.381   4.773 -0.8706  0.1593 -0.4156
 9181SOL    HW139005   4.186   4.388   4.687 -1.6293 -2.2583 -0.9821
 9181SOL    HW239006   4.071   4.440   4.759 -0.0603  1.1660 -0.4459
 9182SOL     OW39007   0.878   2.447   7.631 -0.4937  0.2777  0.3386
 9182SOL    HW139008   0.843   2.458   7.720  1.4771 -1.1279  1.3058
 9182SOL    HW239009   0.963   2.407   7.649 -0.8747 -1.9846 -2.8696
 9183SOL     OW39010   1.371   3.861  14.538  0.1889 -0.0847  0.0937
 9183SOL    HW139011   1.290   3.811  14.538  1.8763 -2.8301  0.8234
 9183SOL    HW239012   1.372   3.902  14.451  3.2241  1.2887  0.7727
 9184SOL     OW39013   2.093   0.264   4.758 -0.4820 -0.3142 -0.0195
 9184SOL    HW139014   2.096   0.343   4.704  0.3493 -0.5684 -0.3336
 9184SOL    HW239015   2.154   0.207   4.711 -1.2907 -1.8994  0.8453
 9185SOL     OW39016   1.602   4.186  17.206 -0.0002  0.1711 -0.0265
 9185SOL    HW139017   1.615   4.094  17.181 -0.0533  0.6242 -1.6721
 9185SOL    HW239018   1.517   4.199  17.164  0.9416 -0.0915 -1.9927
 9186SOL     OW39019   0.349   0.921   4.117 -0.5762  0.3705  0.3418
 9186SOL    HW139020   0.331   0.988   4.051 -0.8233 -0.6924 -0.6660
 9186SOL    HW239021   0.265   0.878   4.130  0.2410 -0.6271  2.2528
 9187SOL     OW39022   1.376   4.051   3.243  0.0664  0.0862 -0.1818
 9187SOL    HW139023   1.325   3.973   3.223 -3.0289  1.6652  1.3583
 9187SOL    HW239024   1.455   4.014   3.283 -0.3573 -1.9671 -1.2496
 9188SOL     OW39025   3.088   3.686   0.569  0.0213  0.4367  0.2737
 9188SOL    HW139026   3.108   3.762   0.623  1.6392 -1.1040  1.8053
 9188SOL    HW239027   3.036   3.637   0.632 -0.6276 -1.6860 -1.9085
 9189SOL     OW39028   0.820   0.432   6.826  0.1025  0.2665  0.3870
 9189SOL    HW139029   0.753   0.365   6.815 -0.1674  0.3787  1.3065
 9189SOL    HW239030   0.862   0.396   6.904 -1.6930 -0.1919  1.1591
 9190SOL     OW39031   1.347   0.484   9.002  0.0289 -0.0822  0.7332
 9190SOL    HW139032   1.384   0.410   8.953  0.0788 -0.9426  2.0967
 9190SOL    HW239033   1.260   0.446   9.011  0.2707 -0.2668  2.2363
 9191SOL     OW39034   2.392   2.585  16.649  0.3657 -0.3759 -0.8340
 9191SOL    HW139035   2.432   2.670  16.667  1.7571 -1.2707  0.3136
 9191SOL    HW239036   2.303   2.617  16.634  0.6927  0.9449 -0.0140
 9192SOL     OW39037   1.991   2.126  15.340  0.0158  0.0794 -0.3294
 9192SOL    HW139038   2.044   2.084  15.408 -1.1165 -1.8440 -0.6269
 9192SOL    HW239039   2.036   2.117  15.256  1.5973 -0.8174  0.6127
 9193SOL     OW39040   4.626   4.549   8.169  0.6340  0.0102  0.4818
 9193SOL    HW139041   4.582   4.479   8.218  1.9880 -0.9051  0.4110
 9193SOL    HW239042   4.604   4.626   8.221  1.0887  1.0784 -0.9154
 9194SOL     OW39043   3.667   0.230   0.515 -0.0563  0.2519  0.2542
 9194SOL    HW139044   3.583   0.186   0.528  0.7064 -1.1488  0.3751
 9194SOL    HW239045   3.681   0.267   0.602  1.2401 -0.5069  0.3624
 9195SOL     OW39046   3.246   0.496  16.530 -0.2544  0.6325 -0.1585
 9195SOL    HW139047   3.260   0.533  16.442 -2.1045 -0.6725 -0.9861
 9195SOL    HW239048   3.224   0.571  16.585  0.1234  1.7685 -1.5310
 9196SOL     OW39049   1.865   4.077   5.821  0.2787  0.1001 -0.2091
 9196SOL    HW139050   1.915   4.004   5.784  2.5079  1.1978  0.7105
 9196SOL    HW239051   1.800   4.080   5.751  1.5792 -2.1664 -1.5090
 9197SOL     OW39052   0.935   4.665  11.478 -0.6877 -0.3192 -0.7687
 9197SOL    HW139053   0.859   4.624  11.436  1.4418 -2.0067 -2.9884
 9197SOL    HW239054   1.012   4.611  11.457  1.5081  2.2401  0.7525
 9198SOL     OW39055   0.388   0.531   4.595  0.2723 -0.1393 -0.3962
 9198SOL    HW139056   0.419   0.442   4.577 -0.3684 -0.6536  1.0852
 9198SOL    HW239057   0.476   0.566   4.608 -0.2940  1.6978 -1.5357
 9199SOL     OW39058   0.462   3.635  12.769 -0.3033 -0.3267  0.6863
 9199SOL    HW139059   0.521   3.578  12.721 -0.1332  2.2893 -2.1725
 9199SOL    HW239060   0.438   3.565  12.830 -0.1188  0.1562  1.3232
 9200SOL     OW39061   0.726   0.384   5.089  0.1188  0.1201 -0.2638
 9200SOL    HW139062   0.734   0.479   5.082  0.1377  0.1063 -0.4562
 9200SOL    HW239063   0.758   0.361   5.001 -0.2115  0.5486 -0.4960
 9201SOL     OW39064   2.729   0.585   8.617 -0.1299 -0.3244 -0.4180
 9201SOL    HW139065   2.693   0.526   8.682  0.4247 -1.0096 -0.7253
 9201SOL    HW239066   2.663   0.586   8.547  0.5783  3.6310 -1.0594
 9202SOL     OW39067   2.282   3.751   2.436  0.3352  0.0169  0.0029
 9202SOL    HW139068   2.273   3.681   2.372 -1.1700  2.6978 -2.7369
 9202SOL    HW239069   2.194   3.788   2.435 -0.1302 -1.0488  2.9502
 9203SOL     OW39070   1.752   4.532   3.644  0.9832  0.0803  0.1572
 9203SOL    HW139071   1.774   4.557   3.554 -1.4587 -0.1960 -0.5273
 9203SOL    HW239072   1.724   4.611   3.691 -0.4679  0.8948 -2.0668
 9204SOL     OW39073   1.620   1.834   2.112  0.0953 -0.6349  0.2055
 9204SOL    HW139074   1.545   1.804   2.061  0.9296  0.2468 -1.5578
 9204SOL    HW239075   1.675   1.756   2.097  1.1763  0.5897 -2.2351
 9205SOL     OW39076   2.843   2.168   6.770  0.3909 -0.0608  0.7493
 9205SOL    HW139077   2.816   2.116   6.846 -0.2450  1.1502  1.3569
 9205SOL    HW239078   2.891   2.235   6.819 -0.3219  0.9357  0.0805
 9206SOL     OW39079   2.765   0.093   6.071  0.0221  0.3939 -0.3164
 9206SOL    HW139080   2.855   0.073   6.044  0.2086 -1.3558  1.5578
 9206SOL    HW239081   2.710   0.065   5.998 -0.2611  1.0906 -0.3609
 9207SOL     OW39082   1.939   2.750   7.317 -0.6915 -0.2489  0.2153
 9207SOL    HW139083   1.947   2.754   7.222 -1.6607  0.2066  0.1506
 9207SOL    HW239084   2.010   2.689   7.335  0.2757  0.7405 -0.2208
 9208SOL     OW39085   2.012   4.329   1.731 -0.8359 -0.3743  0.4082
 9208SOL    HW139086   1.917   4.336   1.744 -0.9319 -0.7206 -0.0984
 9208SOL    HW239087   2.005   4.236   1.709  1.3400 -0.1028 -1.4671
 9209SOL     OW39088   3.633   4.112  16.330  0.0450 -0.6306  0.1166
 9209SOL    HW139089   3.613   4.073  16.415  0.0282 -3.1073 -1.0080
 9209SOL    HW239090   3.712   4.158  16.355  0.2945  0.9815 -3.5648
 9210SOL     OW39091   3.026   1.923   7.946  0.7624 -0.1932  0.2834
 9210SOL    HW139092   3.042   1.830   7.964 -1.7684 -0.5060  0.9429
 9210SOL    HW239093   3.069   1.968   8.019  0.8623  1.2462 -0.6717
 9211SOL     OW39094   1.950   3.410   0.032 -0.0705  0.1053  0.1160
 9211SOL    HW139095   2.023   3.470   0.043 -0.3136  0.1021  1.8114
 9211SOL    HW239096   1.882   3.477   0.034 -2.2520 -2.1283  1.6577
 9212SOL     OW39097   1.147   2.433   5.782  0.2143 -0.2131 -0.0828
 9212SOL    HW139098   1.100   2.513   5.760 -0.2864 -0.1271  1.3002
 9212SOL    HW239099   1.201   2.430   5.704 -0.4053 -4.6104 -0.3359
 9213SOL     OW39100   3.275   3.528   1.106 -0.1262  0.4267  0.4722
 9213SOL    HW139101   3.346   3.590   1.124  1.7374 -0.4958 -3.7165
 9213SOL    HW239102   3.283   3.515   1.012  2.5756  1.5336  0.5382
 9214SOL     OW39103   0.075   3.575   4.221  0.7253 -0.2084 -0.2326
 9214SOL    HW139104   4.703   3.582   4.204  0.5833 -1.1070  0.1971
 9214SOL    HW239105   0.101   3.666   4.231 -0.0389 -0.1696  1.3609
 9215SOL     OW39106   1.603   3.572   2.128  0.3441 -0.4295 -0.1429
 9215SOL    HW139107   1.675   3.611   2.079 -0.4894  1.7662  0.3612
 9215SOL    HW239108   1.537   3.584   2.059  0.2945 -2.8652 -0.5214
 9216SOL     OW39109   0.781   4.318  17.619  0.1947 -0.2161  0.3584
 9216SOL    HW139110   0.725   4.249  17.582  1.6067 -1.2715  0.1678
 9216SOL    HW239111   0.759   4.305   0.020  3.4420 -2.4526  0.8290
 9217SOL     OW39112   1.514   4.354  12.997 -0.6463 -0.6115  0.1319
 9217SOL    HW139113   1.496   4.272  13.041  1.8714 -1.2714 -0.0487
 9217SOL    HW239114   1.597   4.386  13.032  0.3157 -0.1498 -2.5004
 9218SOL     OW39115   1.566   4.418  12.440  0.3523  0.1042 -0.7249
 9218SOL    HW139116   1.581   4.337  12.391  1.3705  0.6143 -1.2420
 9218SOL    HW239117   1.602   4.398  12.526  0.5229  0.1249 -0.7920
 9219SOL     OW39118   2.426   2.620   9.292 -0.0233  0.7232 -0.1452
 9219SOL    HW139119   2.391   2.649   9.208 -1.5502  1.1577  0.6413
 9219SOL    HW239120   2.409   2.526   9.286  0.0748  0.6522  0.6671
 9220SOL     OW39121   3.330   3.144   8.138 -0.0969 -0.0338 -0.0141
 9220SOL    HW139122   3.277   3.143   8.058  0.4249  2.1040 -0.3749
 9220SOL    HW239123   3.289   3.071   8.184 -2.1310 -0.0226 -1.8022
 9221SOL     OW39124   4.558   4.468   6.400 -0.0970 -0.6565  0.1120
 9221SOL    HW139125   4.573   4.389   6.347 -0.3957  0.0821 -1.0853
 9221SOL    HW239126   4.637   4.457   6.453  0.8204  1.3206 -0.8604
 9222SOL     OW39127   4.643   4.241   8.705  0.1576  0.2895 -0.3302
 9222SOL    HW139128   4.716   4.253   8.766  1.0642 -0.7692 -1.2197
 9222SOL    HW239129   4.573   4.202   8.758  0.7927 -0.5049 -0.0710
 9223SOL     OW39130   4.128   3.067  11.350 -0.1817  0.0289  0.2883
 9223SOL    HW139131   4.041   3.095  11.380 -0.0541  0.8152 -0.0875
 9223SOL    HW239132   4.127   3.109  11.264 -0.0142 -0.5665 -0.0085
 9224SOL     OW39133   0.425   2.651   2.895 -0.1631  0.3792 -0.0082
 9224SOL    HW139134   0.480   2.632   2.820 -0.8038  0.2688 -0.4552
 9224SOL    HW239135   0.461   2.732   2.932  2.9933 -0.8624 -0.3703
 9225SOL     OW39136   1.980   2.340  10.425  0.0091  0.6291  0.4112
 9225SOL    HW139137   1.975   2.383  10.511  1.8648  1.4978  0.0891
 9225SOL    HW239138   2.037   2.403  10.382  3.0236 -1.1348  1.7827
 9226SOL     OW39139   2.283   1.018  13.174  0.9737  0.1647  0.3537
 9226SOL    HW139140   2.207   0.960  13.176  0.8727  0.3384  1.7584
 9226SOL    HW239141   2.251   1.073  13.246 -0.4637 -0.2699  0.0502
 9227SOL     OW39142   0.700   1.475   8.766 -0.9516 -0.1414  0.3653
 9227SOL    HW139143   0.720   1.478   8.672  0.1021 -0.0055  0.6043
 9227SOL    HW239144   0.783   1.496   8.808 -0.6888  1.7993 -1.0856
 9228SOL     OW39145   1.957   2.266   8.471  0.1570  0.2937  0.1417
 9228SOL    HW139146   1.983   2.355   8.447 -0.9640  0.1993 -1.4520
 9228SOL    HW239147   1.863   2.270   8.454  0.3240 -1.5143 -1.2400
 9229SOL     OW39148   0.451   3.780  16.776 -0.0454  0.0636  0.2220
 9229SOL    HW139149   0.503   3.745  16.704  1.0422 -0.4853  1.2632
 9229SOL    HW239150   0.511   3.808  16.845 -0.5597  1.4848  0.0843
 9230SOL     OW39151   2.301   3.664  14.787 -0.3530  0.2075 -0.5289
 9230SOL    HW139152   2.366   3.593  14.787  0.5874  1.0426  1.9417
 9230SOL    HW239153   2.331   3.732  14.726  0.4619  0.0835 -0.2782
 9231SOL     OW39154   2.610   0.929   6.468 -0.1702 -0.1971  0.2178
 9231SOL    HW139155   2.597   0.905   6.560  1.1244 -2.9042 -0.3215
 9231SOL    HW239156   2.695   0.888   6.454 -0.5380 -1.2420  1.0312
 9232SOL     OW39157   3.994   0.166   7.737 -0.3231 -0.0136  0.4034
 9232SOL    HW139158   3.956   0.120   7.812 -0.1119 -0.1642  0.4191
 9232SOL    HW239159   4.005   0.112   7.659  1.2382  2.1833 -0.9083
 9233SOL     OW39160   3.412   3.015   7.516 -0.0934 -0.6180  0.0524
 9233SOL    HW139161   3.325   2.989   7.545 -0.1786 -0.9116 -0.4574
 9233SOL    HW239162   3.389   2.988   7.427 -1.0145  1.0632 -0.2111
 9234SOL     OW39163   1.075   1.271   4.453  0.1217  0.1785 -0.1878
 9234SOL    HW139164   1.032   1.207   4.397 -1.0755  0.5374  0.3280
 9234SOL    HW239165   1.007   1.337   4.468  0.5817  0.2663  1.5815
 9235SOL     OW39166   3.409   0.689   2.671 -0.3851  0.4616  0.1588
 9235SOL    HW139167   3.351   0.670   2.746 -0.9202  0.1288 -0.3405
 9235SOL    HW239168   3.407   0.785   2.673 -1.5832  0.4649 -1.2566
 9236SOL     OW39169   0.359   2.585   8.965  0.1388 -0.1659  0.3704
 9236SOL    HW139170   0.441   2.551   9.001  0.2344 -0.3387 -0.0087
 9236SOL    HW239171   0.291   2.519   8.977 -0.5160  0.7607  1.7011
 9237SOL     OW39172   2.639   1.039   3.353 -0.3351  0.0638  0.3927
 9237SOL    HW139173   2.666   1.083   3.272 -0.6389 -2.6941 -1.2405
 9237SOL    HW239174   2.562   0.989   3.326  0.8202 -0.7694 -1.4324
 9238SOL     OW39175   3.837   1.472   2.075  0.0953  0.2153 -0.3362
 9238SOL    HW139176   3.874   1.550   2.117  2.7026 -0.9910 -0.4222
 9238SOL    HW239177   3.797   1.432   2.152  2.2282 -0.2624  0.5262
 9239SOL     OW39178   3.539   2.302   1.928 -0.2261  0.6623  0.0329
 9239SOL    HW139179   3.507   2.219   1.891 -0.9331  1.5424 -1.3237
 9239SOL    HW239180   3.502   2.364   1.865  1.3674 -0.2123 -1.7653
 9240SOL     OW39181   2.063   2.199  11.822 -0.0680  0.0424 -0.2435
 9240SOL    HW139182   2.125   2.205  11.749  0.7204 -1.9460  0.2397
 9240SOL    HW239183   2.070   2.105  11.841 -0.0187 -0.1083 -1.0134
 9241SOL     OW39184   2.070   0.977  11.774  0.2465  0.0363 -0.6191
 9241SOL    HW139185   2.159   0.948  11.754 -0.8507 -1.3622 -3.4716
 9241SOL    HW239186   2.026   0.892  11.776  1.1667 -0.5057 -2.8788
 9242SOL     OW39187   3.312   4.147   1.285  0.1982  0.5189  0.1621
 9242SOL    HW139188   3.332   4.180   1.197  0.6697  1.1575  0.5072
 9242SOL    HW239189   3.253   4.214   1.319 -0.3213  1.0801 -1.8715
 9243SOL     OW39190   3.689   2.519  15.258 -0.6485  0.2238 -0.3012
 9243SOL    HW139191   3.766   2.559  15.218 -1.2527  1.8879  0.1810
 9243SOL    HW239192   3.623   2.580  15.224 -2.3118 -0.5637  1.4892
 9244SOL     OW39193   0.201   3.640  13.840  0.6756  0.7265 -0.0836
 9244SOL    HW139194   0.281   3.608  13.882  1.7502  1.9703 -1.2210
 9244SOL    HW239195   0.149   3.581  13.897  1.8381  0.5916  0.8378
 9245SOL     OW39196   0.080   1.460   7.864 -0.1957  0.3347 -0.0056
 9245SOL    HW139197   0.126   1.543   7.853  1.4100 -0.6130 -0.4754
 9245SOL    HW239198   0.091   1.451   7.958 -0.8597 -1.1266 -0.0765
 9246SOL     OW39199   1.773   0.606   8.904 -0.2561  0.2255  0.3945
 9246SOL    HW139200   1.700   0.550   8.930 -0.8299  2.2718  3.2657
 9246SOL    HW239201   1.822   0.532   8.869 -0.2357  0.0931  0.7022
 9247SOL     OW39202   2.873   0.094  15.165 -0.5918  0.2729 -0.1017
 9247SOL    HW139203   2.958   0.108  15.122 -0.5230 -0.3619 -0.1741
 9247SOL    HW239204   2.868   4.721  15.151 -0.1913  0.3494 -0.7536
 9248SOL     OW39205   0.658   2.976  11.146  0.1227 -0.3292  0.5210
 9248SOL    HW139206   0.569   2.978  11.181  0.2442 -2.2511  0.9916
 9248SOL    HW239207   0.691   3.065  11.153 -0.3324 -0.0479 -0.9591
 9249SOL     OW39208   2.985   1.622   7.943  0.2952 -0.2176 -0.3460
 9249SOL    HW139209   3.071   1.578   7.942  1.1794  1.5511 -0.8489
 9249SOL    HW239210   2.933   1.568   8.003  0.2997 -0.2660 -0.3850
 9250SOL     OW39211   2.775   0.275   6.268  0.2878  0.2609 -0.7252
 9250SOL    HW139212   2.682   0.280   6.289  0.0908 -2.5689 -0.9198
 9250SOL    HW239213   2.767   0.208   6.201 -2.4059  0.3286 -0.4450
 9251SOL     OW39214   0.631   3.588   0.689  0.2272  0.1954  0.4257
 9251SOL    HW139215   0.594   3.675   0.697 -0.2658 -0.2974  3.5325
 9251SOL    HW239216   0.649   3.563   0.780 -0.4605 -2.4048 -0.1382
 9252SOL     OW39217   0.117   3.084   9.818 -0.3061  0.6337 -0.5527
 9252SOL    HW139218   0.158   3.031   9.749 -1.3195 -2.1088  0.9329
 9252SOL    HW239219   0.199   3.112   9.859 -0.3931 -1.4726  1.0679
 9253SOL     OW39220   1.773   0.203   4.539  0.6270  0.3247  0.0123
 9253SOL    HW139221   1.834   0.175   4.471 -0.1112 -0.0224 -0.5137
 9253SOL    HW239222   1.693   0.207   4.487 -0.1237  1.1888  1.2458
 9254SOL     OW39223   1.394   2.393   9.365  0.2897 -0.2879  0.4102
 9254SOL    HW139224   1.400   2.298   9.372 -2.8853 -0.5165  0.3008
 9254SOL    HW239225   1.440   2.431   9.440 -1.7820  1.0670  0.9962
 9255SOL     OW39226   1.347   0.230  12.207  0.2373  0.2870 -0.2157
 9255SOL    HW139227   1.427   0.205  12.160  0.5440 -1.9944  1.5469
 9255SOL    HW239228   1.285   0.186  12.149 -1.0904  0.3015  1.2138
 9256SOL     OW39229   3.403   0.327  13.781 -0.3584  0.3380  0.4438
 9256SOL    HW139230   3.361   0.242  13.785  1.7972 -0.7969 -1.3893
 9256SOL    HW239231   3.493   0.310  13.811 -1.1832 -3.2481  0.7601
 9257SOL     OW39232   2.388   2.524   5.497 -0.5735 -0.5575 -0.6535
 9257SOL    HW139233   2.436   2.607   5.498  1.9850 -2.0245 -0.7969
 9257SOL    HW239234   2.299   2.557   5.500 -0.9097 -1.6119  1.2538
 9258SOL     OW39235   1.883   2.334  12.868 -0.6356 -0.1991 -0.4988
 9258SOL    HW139236   1.978   2.330  12.885 -0.5037 -0.8965 -1.4368
 9258SOL    HW239237   1.887   2.345  12.773  2.1191  0.1024 -0.3704
 9259SOL     OW39238   2.915   1.686   5.666 -0.4669  0.4936 -0.0711
 9259SOL    HW139239   2.902   1.596   5.697 -2.3800  1.4334  1.7744
 9259SOL    HW239240   2.993   1.682   5.609 -0.1614 -0.0962  0.3905
 9260SOL     OW39241   0.804   3.902   9.845 -0.0836  0.3894  0.1270
 9260SOL    HW139242   0.769   3.965   9.782 -2.0679 -0.7638  0.0795
 9260SOL    HW239243   0.774   3.949   9.922 -1.7733 -0.2540 -0.1251
 9261SOL     OW39244   1.710   3.183  11.028 -0.1130  0.6163 -0.0657
 9261SOL    HW139245   1.802   3.156  11.032 -0.5125 -0.7823 -0.6081
 9261SOL    HW239246   1.718   3.248  11.099 -2.2375  0.7119  0.0804
 9262SOL     OW39247   2.961   4.639   3.261 -0.1210 -0.5462 -0.4480
 9262SOL    HW139248   3.022   4.624   3.334 -2.1561  2.4252  1.8805
 9262SOL    HW239249   3.027   4.655   3.194  1.0529 -0.4513  0.7278
 9263SOL     OW39250   2.209   2.386  10.145 -0.1255 -0.0046  0.2572
 9263SOL    HW139251   2.182   2.313  10.090  3.6496 -0.7330 -0.6756
 9263SOL    HW239252   2.132   2.443  10.145  0.4594  0.7849 -1.9754
 9264SOL     OW39253   1.743   0.650   2.315  0.3612  0.1776  0.0126
 9264SOL    HW139254   1.652   0.677   2.325  0.4641  0.3022  0.6329
 9264SOL    HW239255   1.766   0.628   2.406 -0.6917  0.6285  0.3837
 9265SOL     OW39256   4.321   3.169   2.454 -0.7411  0.0149 -0.1765
 9265SOL    HW139257   4.402   3.123   2.437 -0.7215  0.3609 -1.0423
 9265SOL    HW239258   4.351   3.227   2.523 -1.7048  2.6377 -1.9470
 9266SOL     OW39259   4.313   4.481   4.197  0.5555 -0.4977  0.3360
 9266SOL    HW139260   4.301   4.494   4.103  1.1596 -1.7188  0.1030
 9266SOL    HW239261   4.372   4.554   4.216  0.7002 -0.4100 -0.4436
 9267SOL     OW39262   2.857   2.496   8.865 -0.2430  0.1248  0.5349
 9267SOL    HW139263   2.812   2.438   8.927  1.7363 -0.5704  1.3321
 9267SOL    HW239264   2.786   2.556   8.842  0.3951  0.8915  0.5576
 9268SOL     OW39265   2.292   0.678   6.859 -0.2363  0.3408 -0.4787
 9268SOL    HW139266   2.196   0.672   6.864 -0.2880 -0.2053 -2.1184
 9268SOL    HW239267   2.298   0.773   6.863  1.7413  0.3260 -3.0427
 9269SOL     OW39268   2.546   4.299   6.961  0.3503 -0.0849  0.3956
 9269SOL    HW139269   2.610   4.237   6.926  0.3911  0.8004 -1.1172
 9269SOL    HW239270   2.486   4.240   7.006 -0.6011  0.1939 -0.5024
 9270SOL     OW39271   4.640   0.314   0.229  0.3029  0.4931  0.3172
 9270SOL    HW139272   4.589   0.323   0.310 -2.0851  2.1241 -1.3987
 9270SOL    HW239273   4.658   0.404   0.200 -1.4891  0.1117 -1.9683
 9271SOL     OW39274   2.838   2.757   4.035  0.0473  0.1180  0.4681
 9271SOL    HW139275   2.771   2.689   4.051  2.0697 -1.9172  0.3110
 9271SOL    HW239276   2.811   2.795   3.951  1.6985 -0.0555 -0.1364
 9272SOL     OW39277   0.793   0.154  16.317  0.3823  0.5041 -0.1034
 9272SOL    HW139278   0.807   0.226  16.378 -1.4049 -0.1061  1.0515
 9272SOL    HW239279   0.843   0.079  16.350 -1.0936 -0.1644  0.6247
 9273SOL     OW39280   3.057   4.396  17.053 -0.5860  0.2819  0.2346
 9273SOL    HW139281   3.067   4.306  17.022 -1.8574  0.2487 -0.0874
 9273SOL    HW239282   3.022   4.441  16.977 -0.0474 -0.0160 -0.1856
 9274SOL     OW39283   1.086   3.836   5.552 -0.2156  0.1573  0.3376
 9274SOL    HW139284   1.001   3.880   5.559  0.2369  1.1399 -0.2981
 9274SOL    HW239285   1.130   3.888   5.484 -0.6948  0.2915  0.1232
 9275SOL     OW39286   0.556   0.530  12.108  0.3047  0.0518  0.2136
 9275SOL    HW139287   0.610   0.561  12.181 -0.4540  0.7042  0.4977
 9275SOL    HW239288   0.486   0.596  12.116  2.8387  2.7049  0.4648
 9276SOL     OW39289   0.219   1.422   4.100  0.4246 -0.1631  0.2462
 9276SOL    HW139290   0.134   1.460   4.075 -0.5218 -1.5788  1.3059
 9276SOL    HW239291   0.268   1.470   4.033  1.6767 -0.5011  0.9236
 9277SOL     OW39292   1.318   4.574   6.927 -0.3866  0.0548 -0.0892
 9277SOL    HW139293   1.347   4.534   7.009 -1.1264 -0.8871 -0.2892
 9277SOL    HW239294   1.260   4.510   6.887 -0.3724  0.2414 -0.4050
 9278SOL     OW39295   3.150   3.084   6.449  0.4055  0.1027 -0.3514
 9278SOL    HW139296   3.155   3.179   6.439  0.6826  0.1411  0.1736
 9278SOL    HW239297   3.055   3.074   6.458  0.6906 -0.4317  1.9064
 9279SOL     OW39298   1.581   3.080  12.753  0.1307 -0.7571 -0.1244
 9279SOL    HW139299   1.516   3.150  12.749  0.6486 -0.2414  0.4906
 9279SOL    HW239300   1.618   3.086  12.665  0.2496 -4.0979 -0.2770
 9280SOL     OW39301   0.276   2.920   6.925  0.0410 -0.1646  0.0272
 9280SOL    HW139302   0.357   2.959   6.893  0.3325 -0.0199  0.9649
 9280SOL    HW239303   0.266   2.860   6.850  0.6270 -1.2764  0.8411
 9281SOL     OW39304   0.234   1.672   7.863  0.8191  0.0676  0.2541
 9281SOL    HW139305   0.290   1.658   7.787 -0.6783  0.8677 -1.0240
 9281SOL    HW239306   0.301   1.714   7.916  1.3818 -0.2420 -0.2186
 9282SOL     OW39307   4.143   2.801   1.621  0.2927 -0.3079 -0.0077
 9282SOL    HW139308   4.188   2.737   1.677 -0.1399 -0.4369  0.1939
 9282SOL    HW239309   4.122   2.745   1.547 -1.1055  0.1917  0.0112
 9283SOL     OW39310   1.573   0.427   5.708  0.3388 -0.3290  0.3479
 9283SOL    HW139311   1.646   0.379   5.746 -0.8565 -1.2952  1.4220
 9283SOL    HW239312   1.626   0.489   5.657  0.7145 -0.0177  1.1182
 9284SOL     OW39313   2.397   3.763   1.570 -0.2438 -0.6709  0.3136
 9284SOL    HW139314   2.346   3.698   1.521 -1.5404 -1.2080  2.3922
 9284SOL    HW239315   2.472   3.787   1.516  0.1430  0.1660  1.2178
 9285SOL     OW39316   1.461   0.778   4.102 -0.1220  0.1090  0.4420
 9285SOL    HW139317   1.536   0.812   4.152  0.0901  0.2930 -0.0018
 9285SOL    HW239318   1.462   0.684   4.118  0.0246  0.3716  2.0264
 9286SOL     OW39319   3.912   3.342   4.018 -0.2582  0.1625 -0.0056
 9286SOL    HW139320   3.908   3.438   4.018 -2.4383  0.0516 -1.8870
 9286SOL    HW239321   3.821   3.327   3.995 -0.2513  0.5261 -0.2718
 9287SOL     OW39322   3.335   4.418   3.749  0.0666 -0.1267 -0.0683
 9287SOL    HW139323   3.276   4.411   3.824 -2.1390  1.1695 -1.6824
 9287SOL    HW239324   3.279   4.369   3.688  0.3013  2.7244 -2.6272
 9288SOL     OW39325   2.078   3.337  15.204  0.0642 -0.1123  0.0321
 9288SOL    HW139326   2.078   3.275  15.277  1.2267  0.6200  0.6523
 9288SOL    HW239327   2.001   3.323  15.149  0.3285  0.9491 -0.6052
 9289SOL     OW39328   4.127   0.452  14.428  0.5130  0.4484  0.4758
 9289SOL    HW139329   4.169   0.529  14.466  0.4864  0.9726 -0.5636
 9289SOL    HW239330   4.178   0.440  14.347 -1.4152 -0.7261 -0.5543
 9290SOL     OW39331   0.686   0.344   3.146  0.0165 -0.6324 -0.4435
 9290SOL    HW139332   0.650   0.379   3.065 -1.5319  0.0766  0.5502
 9290SOL    HW239333   0.612   0.349   3.206  1.0259  4.1702  0.3669
 9291SOL     OW39334   4.703   3.828  12.753  0.3942  0.1869  0.0645
 9291SOL    HW139335   4.657   3.765  12.808 -0.5400  0.1600 -0.7456
 9291SOL    HW239336   0.068   3.813  12.790  1.6021  0.6666 -2.5428
 9292SOL     OW39337   2.811   4.027   1.078 -0.8128  0.2317 -0.0422
 9292SOL    HW139338   2.767   4.011   0.995 -1.2469 -0.1403  0.2627
 9292SOL    HW239339   2.783   3.953   1.131  0.3882 -0.3035 -0.1439
 9293SOL     OW39340   2.206   4.621  15.265  0.1246  0.6999  0.0070
 9293SOL    HW139341   2.154   4.597  15.188  0.4218 -2.0825  0.6448
 9293SOL    HW239342   2.148   4.577  15.328 -0.7497 -0.3138 -1.5072
 9294SOL     OW39343   4.563   0.812   4.125  0.1581 -0.5876 -0.4190
 9294SOL    HW139344   4.508   0.844   4.196  0.2149 -0.3598 -0.4772
 9294SOL    HW239345   4.497   0.786   4.061 -0.4749  1.9568 -0.7797
 9295SOL     OW39346   3.105   1.478   2.118  0.3335 -0.4557 -0.2038
 9295SOL    HW139347   3.011   1.491   2.123  0.3178 -0.6545 -0.0389
 9295SOL    HW239348   3.128   1.426   2.194 -2.3434  0.5998  1.3139
 9296SOL     OW39349   1.708   2.685   1.250  0.0391 -0.5337  0.2404
 9296SOL    HW139350   1.737   2.743   1.320 -0.1102  0.1463 -0.2591
 9296SOL    HW239351   1.789   2.647   1.216  0.2608  0.8352 -0.7697
 9297SOL     OW39352   2.967   3.939   9.026 -0.0306 -0.5715 -0.0637
 9297SOL    HW139353   2.893   3.927   8.967  0.8346  0.0512 -1.2951
 9297SOL    HW239354   2.965   3.864   9.085 -0.7916  0.2189  0.8985
 9298SOL     OW39355   1.553   1.876  16.730  0.1782  0.0650 -0.0332
 9298SOL    HW139356   1.555   1.933  16.653 -0.5542  1.2390  0.8249
 9298SOL    HW239357   1.558   1.793  16.682 -0.5540  0.4473 -0.7559
 9299SOL     OW39358   4.628   2.683  17.214 -0.2274  0.4485  0.2494
 9299SOL    HW139359   4.555   2.726  17.259  0.4133  2.8814 -1.0297
 9299SOL    HW239360   4.604   2.591  17.219  2.8883 -0.4516 -1.1493
 9300SOL     OW39361   4.325   3.442   0.667  0.1985  0.2159  0.3903
 9300SOL    HW139362   4.353   3.438   0.576  0.3438 -0.3492  0.4578
 9300SOL    HW239363   4.242   3.485   0.649  0.4813  0.9319  0.7897
 9301SOL     OW39364   3.981   2.294  16.858  0.2088  0.2106 -0.3986
 9301SOL    HW139365   3.997   2.353  16.932  0.3389  0.1510 -0.3776
 9301SOL    HW239366   3.890   2.306  16.834 -0.7568 -3.4242  1.3667
 9302SOL     OW39367   3.709   1.073  16.697  0.0780  0.0788  0.2589
 9302SOL    HW139368   3.727   1.159  16.659  0.7808  0.1603  0.7750
 9302SOL    HW239369   3.713   1.003  16.633  0.5788  1.1752 -0.9135
 9303SOL     OW39370   1.766   4.178   0.316 -0.9521 -0.3309  0.2238
 9303SOL    HW139371   1.741   4.126   0.239 -2.0502 -0.9992  1.0140
 9303SOL    HW239372   1.684   4.205   0.358 -0.3361  2.2195 -0.2326
 9304SOL     OW39373   1.031   3.018   1.975  0.0413 -0.0856  0.4485
 9304SOL    HW139374   1.110   3.011   2.028  0.2754 -0.6255  0.0326
 9304SOL    HW239375   1.052   2.965   1.897  3.5231  4.2685 -1.5356
 9305SOL     OW39376   1.649   0.801   1.481 -0.1632  0.1229 -0.1010
 9305SOL    HW139377   1.585   0.737   1.451  0.7572 -0.3754 -1.0149
 9305SOL    HW239378   1.665   0.772   1.571 -1.5401 -2.5610 -0.7317
 9306SOL     OW39379   1.245   2.709   6.946  0.4768 -0.1795  0.5043
 9306SOL    HW139380   1.298   2.787   6.936 -0.6188  0.7675  2.0039
 9306SOL    HW239381   1.284   2.673   7.026 -3.0840 -2.3026  1.3187
 9307SOL     OW39382   3.676   1.707   0.402 -0.2403 -0.0116 -0.1177
 9307SOL    HW139383   3.617   1.657   0.346  0.3615  0.1224 -0.8745
 9307SOL    HW239384   3.658   1.662   0.484  0.2418  0.0712  0.0356
 9308SOL     OW39385   1.315   4.569   5.763 -0.2501 -0.3575  0.0073
 9308SOL    HW139386   1.276   4.561   5.850 -1.6547  0.3685 -0.5422
 9308SOL    HW239387   1.397   4.608   5.794 -0.7179  1.5710 -1.1302
 9309SOL     OW39388   1.305   3.429   4.023  0.0490  0.5047 -0.4010
 9309SOL    HW139389   1.277   3.374   4.097 -1.7006  2.0940  0.1234
 9309SOL    HW239390   1.394   3.456   4.043 -0.1307  0.8208 -0.0086
 9310SOL     OW39391   0.830   0.265   1.904 -0.0318 -0.3434 -0.0104
 9310SOL    HW139392   0.857   0.284   1.994  0.6551 -0.5825 -0.1627
 9310SOL    HW239393   0.914   0.287   1.863 -0.4726  1.1771 -0.1003
 9311SOL     OW39394   1.789   4.673   2.143 -0.4803  0.3821 -0.2763
 9311SOL    HW139395   1.742   4.617   2.204 -0.3866 -1.7208 -2.1600
 9311SOL    HW239396   1.791   0.034   2.191 -2.4873 -0.3624  1.0894
 9312SOL     OW39397   3.104   3.343  13.647  0.1437  0.4855 -0.0726
 9312SOL    HW139398   3.197   3.348  13.629 -0.0363  1.7168 -0.6370
 9312SOL    HW239399   3.094   3.263  13.699 -1.9353  0.8906  0.1818
 9313SOL     OW39400   2.848   3.952   8.405 -0.5053  0.0099 -0.4061
 9313SOL    HW139401   2.819   3.883   8.345 -0.2123  0.1468 -0.7059
 9313SOL    HW239402   2.826   4.035   8.365  1.8062  1.1811  0.7565
 9314SOL     OW39403   3.042   1.225  10.611 -0.2486 -0.2531  0.0246
 9314SOL    HW139404   3.063   1.318  10.606 -3.3745  0.3027 -3.1857
 9314SOL    HW239405   3.119   1.189  10.569 -1.6771  0.2760 -3.0323
 9315SOL     OW39406   3.589   1.783   8.149 -0.5113  0.4275 -0.2430
 9315SOL    HW139407   3.614   1.857   8.094  0.7772  1.2175  1.3893
 9315SOL    HW239408   3.539   1.732   8.086 -0.2864  2.6839 -2.2579
 9316SOL     OW39409   3.996   3.017   4.022 -0.2743 -0.2077  0.3142
 9316SOL    HW139410   3.910   3.000   4.061  0.1896 -0.4224  1.2411
 9316SOL    HW239411   3.951   3.074   3.960 -1.0990 -0.5660  0.5799
 9317SOL     OW39412   3.537   0.385  11.676 -0.3745  0.6570 -0.5051
 9317SOL    HW139413   3.514   0.346  11.760  0.0331  1.1430 -0.1720
 9317SOL    HW239414   3.511   0.477  11.677  3.1029  1.6327  1.0928
 9318SOL     OW39415   2.947   2.135   7.018 -0.0410  0.6837  0.2600
 9318SOL    HW139416   2.965   2.104   7.106  1.8188  0.5376 -0.1874
 9318SOL    HW239417   2.899   2.211   7.051  0.7201  0.7831  1.1346
 9319SOL     OW39418   0.871   4.640  10.798 -0.4310  0.1840 -0.4156
 9319SOL    HW139419   0.852   4.694  10.875  2.1652 -1.2029  1.2169
 9319SOL    HW239420   0.901   4.564  10.847  1.6148  0.4689 -1.2246
 9320SOL     OW39421   2.806   0.404   1.196  0.3695 -0.2684 -0.7702
 9320SOL    HW139422   2.874   0.471   1.206 -1.1495  1.2365 -0.6202
 9320SOL    HW239423   2.785   0.405   1.102  1.2214  0.4857 -0.9561
 9321SOL     OW39424   1.192   2.847  12.201  0.1438 -0.5287 -0.1240
 9321SOL    HW139425   1.175   2.830  12.294 -2.4194 -1.2753 -0.7409
 9321SOL    HW239426   1.131   2.917  12.179  0.1111 -0.2893  0.7216
 9322SOL     OW39427   2.776   3.949   2.582 -0.0740  0.6968  0.3701
 9322SOL    HW139428   2.857   3.978   2.539  0.2256 -0.4404  0.1443
 9322SOL    HW239429   2.731   4.032   2.594 -0.4137  0.5694  0.0018
 9323SOL     OW39430   1.372   3.640   4.415 -0.5784  0.2066 -0.4427
 9323SOL    HW139431   1.432   3.688   4.357  0.0508 -1.4108 -1.1244
 9323SOL    HW239432   1.301   3.704   4.418 -1.0312 -0.3489  0.7258
 9324SOL     OW39433   1.735   1.079   8.594 -0.3899  0.1006  0.1229
 9324SOL    HW139434   1.747   1.009   8.657  0.9664  1.3298  1.2289
 9324SOL    HW239435   1.808   1.077   8.531  1.2679  0.1928  2.0536
 9325SOL     OW39436   2.759   4.423   3.558 -0.7897 -0.0698  0.4489
 9325SOL    HW139437   2.671   4.387   3.553 -0.2781 -1.1876 -0.7451
 9325SOL    HW239438   2.758   4.510   3.599  1.2038 -0.1606  0.7028
 9326SOL     OW39439   1.993   4.306   3.028  0.1155 -0.5062 -0.0925
 9326SOL    HW139440   2.089   4.305   3.038  0.0465  0.3688  0.5715
 9326SOL    HW239441   1.965   4.239   2.965  0.6396 -2.0900  1.3618
 9327SOL     OW39442   1.484   3.532  10.068  0.2654 -0.0831 -0.7857
 9327SOL    HW139443   1.395   3.502  10.087 -0.6811  2.9501 -0.3348
 9327SOL    HW239444   1.485   3.618  10.112  2.0300  0.1285 -1.2452
 9328SOL     OW39445   4.688   2.365   0.405 -0.1747  0.5945  0.0430
 9328SOL    HW139446   4.605   2.402   0.435 -0.3787 -0.2106  0.4783
 9328SOL    HW239447   0.021   2.440   0.381 -0.7478  1.2918  0.8768
 9329SOL     OW39448   2.448   1.432   2.743  0.6664  0.1822  0.2820
 9329SOL    HW139449   2.356   1.408   2.748 -0.4011  4.2778  0.0068
 9329SOL    HW239450   2.453   1.500   2.677  2.4961  0.1238  0.3451
 9330SOL     OW39451   0.322   3.191  10.982 -0.3298  0.8016 -0.2025
 9330SOL    HW139452   0.327   3.106  11.025 -1.3542  1.4403  1.1581
 9330SOL    HW239453   0.231   3.189  10.954 -1.0257 -0.7994  2.1698
 9331SOL     OW39454   2.039   4.462  15.379  0.1032 -0.2463 -0.2790
 9331SOL    HW139455   1.984   4.437  15.305 -0.5003  0.0850  0.0506
 9331SOL    HW239456   1.980   4.451  15.453  0.2559  1.3904  0.1016
 9332SOL     OW39457   2.493   1.767  11.197 -0.3576 -0.3859  0.4056
 9332SOL    HW139458   2.534   1.774  11.283  2.0796 -0.2951 -0.7629
 9332SOL    HW239459   2.442   1.687  11.208  0.1430 -0.9507 -1.4033
 9333SOL     OW39460   0.176   3.429   7.976 -0.3678  0.3374  0.7290
 9333SOL    HW139461   0.191   3.516   8.013  1.2667  0.2897  0.2174
 9333SOL    HW239462   0.084   3.419   7.997 -0.3629 -3.2970 -0.9724
 9334SOL     OW39463   1.702   3.645  15.101  0.5566  0.5328 -0.2945
 9334SOL    HW139464   1.707   3.687  15.187  2.0800 -1.0438  0.3909
 9334SOL    HW239465   1.640   3.703  15.058  0.0757  1.5218  1.7405
 9335SOL     OW39466   1.914   1.477  11.738  0.2265 -0.4870 -0.7878
 9335SOL    HW139467   1.880   1.441  11.656  1.2384 -1.0108 -0.9837
 9335SOL    HW239468   1.946   1.393  11.772  2.4751 -0.4929 -2.8870
 9336SOL     OW39469   2.069   1.232  16.747 -0.0352 -0.7399  0.4942
 9336SOL    HW139470   2.095   1.321  16.769  0.8113 -1.5360  2.7141
 9336SOL    HW239471   1.976   1.238  16.727  0.5012  0.1768 -1.6899
 9337SOL     OW39472   3.657   3.895   4.927  0.2092  0.0915 -0.1962
 9337SOL    HW139473   3.727   3.861   4.982 -0.7909 -0.5115  0.7146
 9337SOL    HW239474   3.711   3.912   4.850 -1.1092  0.5545 -1.0355
 9338SOL     OW39475   3.452   2.501   1.067  0.0012  0.5716  0.1104
 9338SOL    HW139476   3.493   2.415   1.061  0.4582  0.9947 -2.8047
 9338SOL    HW239477   3.490   2.556   0.999  0.0368  0.3864 -0.0198
 9339SOL     OW39478   0.030   4.541   8.651  0.2071  0.2883 -0.4804
 9339SOL    HW139479   0.016   4.496   8.567  1.5861  2.4223 -1.8582
 9339SOL    HW239480   4.707   4.479   8.708  0.1388  0.3459 -0.4722
 9340SOL     OW39481   3.237   1.236   8.700 -0.3811  0.0762 -0.9795
 9340SOL    HW139482   3.306   1.256   8.638 -1.8379  2.9160 -1.6523
 9340SOL    HW239483   3.182   1.187   8.638  0.1097 -2.2112  0.3541
 9341SOL     OW39484   2.744   1.564   7.533  0.1910  0.1061  0.0616
 9341SOL    HW139485   2.792   1.598   7.608  0.9032  1.1303 -0.8587
 9341SOL    HW239486   2.727   1.474   7.562 -0.4848  1.3432  3.5197
 9342SOL     OW39487   1.901   1.223  13.168  0.5374 -0.4867 -0.3246
 9342SOL    HW139488   1.883   1.179  13.252  0.6060  0.6097  0.2642
 9342SOL    HW239489   1.922   1.152  13.108 -0.4329 -2.1367  1.2942
 9343SOL     OW39490   0.375   3.496   3.450  0.3027  0.0655  0.2117
 9343SOL    HW139491   0.295   3.444   3.442 -0.1026  0.7178  0.0105
 9343SOL    HW239492   0.348   3.564   3.511 -0.9819  0.6413 -1.0167
 9344SOL     OW39493   4.562   0.879  13.959 -0.0281  0.0148 -0.2402
 9344SOL    HW139494   4.529   0.937  14.027  5.1125  1.4640  1.0127
 9344SOL    HW239495   4.556   0.792  13.997 -0.7876 -0.0441 -0.5030
 9345SOL     OW39496   2.479   0.979  13.829 -0.4965 -0.0809  0.0139
 9345SOL    HW139497   2.513   1.025  13.906 -0.6333 -0.9432  0.5879
 9345SOL    HW239498   2.556   0.935  13.792  0.9468  2.4169  0.0331
 9346SOL     OW39499   3.742   0.989   5.208  0.2502  0.0473 -0.5897
 9346SOL    HW139500   3.739   1.071   5.257 -1.8993  0.4194 -1.3477
 9346SOL    HW239501   3.817   0.953   5.254 -0.6532  0.0097  0.8595
 9347SOL     OW39502   4.569   0.937   4.936 -0.5664  0.1099 -0.2941
 9347SOL    HW139503   4.615   0.882   4.873 -3.0846 -1.4384 -0.7980
 9347SOL    HW239504   4.597   0.904   5.022 -1.3808  1.3718  0.4500
 9348SOL     OW39505   2.612   2.833   8.244 -0.4181 -0.7482 -0.1289
 9348SOL    HW139506   2.664   2.905   8.208 -0.4539  0.6235  2.6149
 9348SOL    HW239507   2.623   2.845   8.338 -0.0366  3.7617 -0.7802
 9349SOL     OW39508   0.794   0.389   6.417 -0.1408 -0.6002 -0.4403
 9349SOL    HW139509   0.728   0.408   6.350  1.4264 -2.2657 -2.4244
 9349SOL    HW239510   0.752   0.321   6.469 -1.6238 -0.0257 -0.8736
 9350SOL     OW39511   1.710   4.360   6.964 -0.3873 -0.1248 -0.1852
 9350SOL    HW139512   1.725   4.420   7.037 -2.9256  0.4151 -0.1183
 9350SOL    HW239513   1.708   4.274   7.005 -1.5036  0.0966  0.2249
 9351SOL     OW39514   0.470   2.211   4.990 -0.1054 -0.0567  0.6943
 9351SOL    HW139515   0.495   2.260   4.912 -1.5500  0.7198  0.7078
 9351SOL    HW239516   0.511   2.260   5.062 -0.4673 -0.4539  1.1740
 9352SOL     OW39517   0.303   0.216   5.240 -0.4483  0.4826 -0.4163
 9352SOL    HW139518   0.236   0.153   5.214  0.1009 -0.2321 -0.1025
 9352SOL    HW239519   0.331   0.250   5.155 -0.0995 -0.9385 -0.8577
 9353SOL     OW39520   1.275   4.326   2.360 -0.1851  0.2252  0.2952
 9353SOL    HW139521   1.283   4.291   2.271 -2.4121 -0.2625  0.2678
 9353SOL    HW239522   1.233   4.408   2.335 -0.3052 -0.1466 -0.7288
 9354SOL     OW39523   0.787   3.767   3.556 -0.5472 -0.1816  0.4604
 9354SOL    HW139524   0.741   3.683   3.556  1.0361 -1.0562  1.1952
 9354SOL    HW239525   0.743   3.817   3.487 -0.7151 -1.0675 -0.0746
 9355SOL     OW39526   3.471   1.154   1.094  0.2512 -0.4150  0.0712
 9355SOL    HW139527   3.483   1.091   1.023 -1.8214  0.8076 -1.3713
 9355SOL    HW239528   3.481   1.106   1.176  1.5573 -0.6539 -0.2242
 9356SOL     OW39529   4.173   2.481   2.271 -0.2319  0.5014  0.6846
 9356SOL    HW139530   4.259   2.500   2.307 -0.9980  2.8053  1.3149
 9356SOL    HW239531   4.181   2.525   2.186  2.6019 -0.4149  0.4878
 9357SOL     OW39532   1.310   3.277  15.594 -0.4624  0.0263 -0.4816
 9357SOL    HW139533   1.259   3.347  15.553  0.1309  0.5762 -0.2829
 9357SOL    HW239534   1.399   3.298  15.562  0.4786 -1.2490  1.3227
 9358SOL     OW39535   4.343   4.429   7.683  0.3129 -0.1059  0.1347
 9358SOL    HW139536   4.433   4.460   7.671  0.1987  0.3417  0.4482
 9358SOL    HW239537   4.285   4.505   7.678  0.8678  0.3466  0.6153
 9359SOL     OW39538   2.811   1.033   4.958 -0.0438  0.1298 -0.1155
 9359SOL    HW139539   2.877   1.099   4.935 -0.3365  0.2238 -0.6902
 9359SOL    HW239540   2.860   0.968   5.009 -0.8215  0.1064  0.5966
 9360SOL     OW39541   3.581   0.373   4.134  0.2653 -0.3240  0.0026
 9360SOL    HW139542   3.572   0.305   4.201  2.3117 -0.9858 -0.4110
 9360SOL    HW239543   3.500   0.360   4.084 -0.3503 -4.1757  2.0113
 9361SOL     OW39544   2.845   4.437   7.156 -0.1358 -0.5717  0.8221
 9361SOL    HW139545   2.899   4.509   7.123  1.2772 -0.8905  2.4762
 9361SOL    HW239546   2.896   4.356   7.155 -1.2103 -1.2535  1.5915
 9362SOL     OW39547   0.557   1.946  11.072 -0.0616 -0.3697  0.3839
 9362SOL    HW139548   0.594   1.973  10.988 -0.4127  2.4664  1.1381
 9362SOL    HW239549   0.637   1.938  11.124 -0.2298 -0.2750  0.6578
 9363SOL     OW39550   0.679   3.125   4.224  0.2392 -0.0978  0.4680
 9363SOL    HW139551   0.744   3.164   4.166  0.4230  0.3882  0.9953
 9363SOL    HW239552   0.714   3.147   4.311  1.2496  1.1753 -0.2682
 9364SOL     OW39553   2.516   3.562   8.707 -0.3784  0.0698 -0.0570
 9364SOL    HW139554   2.488   3.624   8.640  1.7487 -0.1180 -1.1107
 9364SOL    HW239555   2.436   3.546   8.756 -1.3406  1.4910 -1.1578
 9365SOL     OW39556   0.734   1.685   7.441  0.2560  0.2769 -0.1663
 9365SOL    HW139557   0.819   1.705   7.402  0.5960 -1.2330 -0.2118
 9365SOL    HW239558   0.769   1.628   7.510 -1.0497  0.5150  0.7002
 9366SOL     OW39559   2.698   1.675   4.941  0.8068  0.7242  0.0138
 9366SOL    HW139560   2.681   1.767   4.959 -0.9109 -0.0739  2.5543
 9366SOL    HW239561   2.689   1.666   4.847  0.2591 -1.2628  0.2546
 9367SOL     OW39562   4.337   1.148   8.150  0.0901  0.0880 -0.1232
 9367SOL    HW139563   4.394   1.092   8.097  0.0639  0.4526 -0.5294
 9367SOL    HW239564   4.256   1.126   8.104  1.3953  0.3420 -2.5439
 9368SOL     OW39565   3.783   0.556   4.643 -0.1158 -0.5841  0.3621
 9368SOL    HW139566   3.711   0.506   4.681 -1.1205  1.0996  0.6784
 9368SOL    HW239567   3.758   0.534   4.554  1.2314  0.8908 -0.3914
 9369SOL     OW39568   2.499   2.811   3.326 -0.2053  0.1120  0.1827
 9369SOL    HW139569   2.560   2.771   3.265 -1.3612  0.8140 -1.4273
 9369SOL    HW239570   2.444   2.860   3.265  0.0304  0.8916  0.6047
 9370SOL     OW39571   2.184   0.654   4.958 -0.3577  0.1706 -0.1409
 9370SOL    HW139572   2.156   0.738   4.922  0.0594  0.3090 -0.1413
 9370SOL    HW239573   2.268   0.642   4.913 -0.6808  1.4165 -1.0633
 9371SOL     OW39574   3.907   0.112   9.198 -0.1962  0.1865 -0.3865
 9371SOL    HW139575   3.813   0.115   9.183 -0.3900  2.4142  1.3091
 9371SOL    HW239576   3.908   0.084   9.290 -1.0062 -1.3462 -0.8482
 9372SOL     OW39577   4.324   0.747  12.357 -0.2101 -0.1820  0.2480
 9372SOL    HW139578   4.336   0.830  12.311  0.2123  0.0766  0.8232
 9372SOL    HW239579   4.349   0.681  12.292  0.9873  0.7359 -0.2184
 9373SOL     OW39580   2.271   0.395   2.384  0.0575  0.3006  0.8273
 9373SOL    HW139581   2.321   0.322   2.348 -2.4793 -1.7390  1.5074
 9373SOL    HW239582   2.183   0.367   2.359  0.0031  0.1763  1.1714
 9374SOL     OW39583   0.449   4.013   8.192  0.0273  0.5715 -0.0905
 9374SOL    HW139584   0.462   3.936   8.248 -1.2281  0.9620  0.7570
 9374SOL    HW239585   0.540   4.041   8.183  0.0028  0.8939  0.5891
 9375SOL     OW39586   1.514   1.279   7.303 -0.0820 -0.1540  0.4050
 9375SOL    HW139587   1.512   1.372   7.324 -2.1799  0.3814 -2.0871
 9375SOL    HW239588   1.517   1.280   7.207 -0.6187  1.1908  0.4062
 9376SOL     OW39589   0.092   4.347   7.102  0.4100  0.5847 -0.3018
 9376SOL    HW139590   0.186   4.360   7.086  0.0727  0.8420 -2.0835
 9376SOL    HW239591   0.065   4.429   7.062  0.9356  1.4055  1.0048
 9377SOL     OW39592   0.854   2.898   3.197 -0.1283 -0.4964  0.0484
 9377SOL    HW139593   0.807   2.943   3.267 -0.5462 -0.4693 -0.2512
 9377SOL    HW239594   0.938   2.897   3.242 -0.5250 -0.2510  0.7961
 9378SOL     OW39595   1.040   2.865   9.857  0.2098  0.4303  0.1141
 9378SOL    HW139596   1.038   2.858   9.762 -3.1157  0.6742  0.1668
 9378SOL    HW239597   1.035   2.959   9.873  0.0181  0.3770  0.3624
 9379SOL     OW39598   0.686   1.904   4.909  0.2140 -0.4692 -0.4674
 9379SOL    HW139599   0.733   1.972   4.860 -1.8707  0.3761 -1.3035
 9379SOL    HW239600   0.609   1.878   4.860 -0.4915 -1.6884  1.2993
 9380SOL     OW39601   0.043   2.936   6.275  0.3569  0.1038 -0.2840
 9380SOL    HW139602   4.682   2.899   6.305  0.2124  0.4738 -0.2291
 9380SOL    HW239603   0.049   3.025   6.307  0.7823  0.6522 -1.8782
 9381SOL     OW39604   1.180   0.807   9.217  0.1904  0.2576  0.0156
 9381SOL    HW139605   1.119   0.796   9.144  0.0827 -1.3976  0.3579
 9381SOL    HW239606   1.261   0.776   9.177 -1.0479 -1.2289 -1.3315
 9382SOL     OW39607   0.804   0.184  15.777 -0.3942  0.2459  0.0730
 9382SOL    HW139608   0.798   0.182  15.873  0.8308 -0.1681  0.1405
 9382SOL    HW239609   0.745   0.258  15.760 -1.8658 -0.8516  0.3709
 9383SOL     OW39610   3.312   1.008   9.541  0.1199  0.8046 -0.2514
 9383SOL    HW139611   3.336   1.078   9.479 -0.1549  0.8404 -0.3205
 9383SOL    HW239612   3.311   1.061   9.621  0.6191  2.9147 -1.6172
 9384SOL     OW39613   3.599   1.768   5.401  0.2358  0.3676 -0.0880
 9384SOL    HW139614   3.555   1.834   5.454 -1.3274 -2.1267  1.7363
 9384SOL    HW239615   3.651   1.825   5.344 -0.1736  1.0879  0.2579
 9385SOL     OW39616   1.254   3.031   4.622  0.6291  0.3777  0.3028
 9385SOL    HW139617   1.218   3.005   4.537  2.6596 -0.7578 -0.1943
 9385SOL    HW239618   1.240   3.125   4.634 -1.4868 -0.2645  2.8176
 9386SOL     OW39619   3.811   3.956  15.112  0.1546 -0.5931 -1.1616
 9386SOL    HW139620   3.756   4.032  15.094 -1.6427 -1.5672  0.2054
 9386SOL    HW239621   3.803   3.904  15.032  0.3600 -2.5682  0.1196
 9387SOL     OW39622   1.735   0.914   5.860 -0.6672  0.0840  0.0064
 9387SOL    HW139623   1.640   0.913   5.868 -0.6915  3.2460  0.3642
 9387SOL    HW239624   1.758   1.006   5.873  0.3410  0.1952 -2.5637
 9388SOL     OW39625   0.834   3.439   0.530  0.3552 -0.3270  0.1768
 9388SOL    HW139626   0.788   3.397   0.458  0.7084 -1.1788  0.4469
 9388SOL    HW239627   0.762   3.488   0.570  1.7335  1.7384  0.1219
 9389SOL     OW39628   1.057   0.929  16.866 -0.6623 -0.9168  0.4941
 9389SOL    HW139629   1.032   0.913  16.957 -1.7799 -3.0430 -0.1835
 9389SOL    HW239630   1.141   0.974  16.870 -0.3455 -1.6515  2.3773
 9390SOL     OW39631   0.017   3.974   5.089 -0.1896 -0.2524 -0.5928
 9390SOL    HW139632   0.077   4.042   5.059  0.7427 -0.8939 -0.1843
 9390SOL    HW239633   4.655   4.004   5.055 -1.5834 -3.1786  0.2447
 9391SOL     OW39634   2.071   0.317   6.390 -0.0295  0.3412  0.3006
 9391SOL    HW139635   2.099   0.278   6.472  1.4271  1.8815  0.5415
 9391SOL    HW239636   2.092   0.406   6.418 -0.8364  0.9008 -0.8922
 9392SOL     OW39637   2.585   4.135   1.595 -0.3441  0.2427  0.4271
 9392SOL    HW139638   2.628   4.060   1.554  0.4675  0.1275  1.5037
 9392SOL    HW239639   2.556   4.189   1.521 -0.0970  0.9391  0.8462
 9393SOL     OW39640   2.813   3.732   8.249  0.3476  0.3545  0.0201
 9393SOL    HW139641   2.822   3.640   8.275 -2.6673  1.2685  4.3012
 9393SOL    HW239642   2.731   3.728   8.201  0.1325  0.8673  0.3465
 9394SOL     OW39643   4.034   3.063   2.240  0.2940  0.0606  0.4763
 9394SOL    HW139644   3.952   3.057   2.192  2.1584  0.1540 -2.7076
 9394SOL    HW239645   4.042   3.158   2.255 -0.8103  0.1895  0.2571
 9395SOL     OW39646   4.281   2.646   5.405 -0.4230  0.4348 -0.1299
 9395SOL    HW139647   4.243   2.628   5.319  0.1858  1.3783 -0.5965
 9395SOL    HW239648   4.222   2.715   5.436  1.5066  2.3379 -0.6729
 9396SOL     OW39649   3.581   1.284   8.048 -0.1811 -0.3113 -0.4347
 9396SOL    HW139650   3.510   1.227   8.016 -1.0254  1.0247 -0.9253
 9396SOL    HW239651   3.652   1.223   8.070 -1.1678 -1.3224 -0.0158
 9397SOL     OW39652   2.434   2.178   7.578 -0.0439  0.6834 -0.0070
 9397SOL    HW139653   2.452   2.177   7.672 -0.2461  4.0300  0.0632
 9397SOL    HW239654   2.398   2.266   7.572  5.2653  2.8120 -0.9840
 9398SOL     OW39655   0.092   0.730   3.610 -0.9246 -0.4566 -0.1003
 9398SOL    HW139656   0.019   0.723   3.671 -1.4100 -0.3584 -0.6729
 9398SOL    HW239657   0.097   0.639   3.578  1.1738 -1.2367  2.4506
 9399SOL     OW39658   2.083   4.105   2.666 -0.6790  0.5642 -0.3187
 9399SOL    HW139659   2.097   4.194   2.633 -1.8000  0.3900 -1.2958
 9399SOL    HW239660   2.054   4.131   2.753 -1.7328  0.7383 -0.7135
 9400SOL     OW39661   3.734   1.034   2.667 -0.0272  0.0667  0.0299
 9400SOL    HW139662   3.770   1.067   2.750 -0.9826 -0.7938  0.7745
 9400SOL    HW239663   3.804   0.977   2.635  1.8884  1.2918  1.9945
 9401SOL     OW39664   2.879   1.733   8.848  0.3935 -0.1168 -0.2237
 9401SOL    HW139665   2.972   1.755   8.838  1.4366 -3.9239  1.2062
 9401SOL    HW239666   2.844   1.793   8.914  1.5768 -1.2462  1.4397
 9402SOL     OW39667   2.387   3.397   5.123  0.0074 -0.6704  0.0892
 9402SOL    HW139668   2.475   3.421   5.096 -0.6532 -1.2635 -2.5525
 9402SOL    HW239669   2.415   3.331   5.187  0.5521 -0.0117  0.5318
 9403SOL     OW39670   3.347   4.195  13.752  0.1904 -0.0658 -0.2526
 9403SOL    HW139671   3.285   4.168  13.820  0.3121 -0.7102 -0.3973
 9403SOL    HW239672   3.424   4.154  13.789 -0.3863 -1.5800 -0.7128
 9404SOL     OW39673   0.745   2.298   2.910 -0.4855  0.3008  0.2695
 9404SOL    HW139674   0.829   2.308   2.865  0.7772 -0.1993  2.5292
 9404SOL    HW239675   0.764   2.353   2.985 -2.0911  1.6514 -0.3154
 9405SOL     OW39676   1.717   4.704  15.395 -0.6967 -0.7894 -0.5199
 9405SOL    HW139677   1.644   0.042  15.381 -0.4408 -0.1993  0.7580
 9405SOL    HW239678   1.682   4.654  15.469  0.7634 -2.0623 -0.6953
 9406SOL     OW39679   2.899   1.185  14.040  1.1379 -0.2172 -0.7622
 9406SOL    HW139680   2.961   1.258  14.044  2.0071 -0.8717 -2.3779
 9406SOL    HW239681   2.848   1.201  14.119  1.5664 -1.1779 -0.2816
 9407SOL     OW39682   2.730   4.349   5.458 -0.1311  0.4624 -0.5511
 9407SOL    HW139683   2.636   4.352   5.473  0.4144  1.0272  2.7774
 9407SOL    HW239684   2.737   4.408   5.383  0.2608  0.7666 -0.2793
 9408SOL     OW39685   2.967   2.278   8.684 -0.0535 -0.2961  0.1310
 9408SOL    HW139686   3.010   2.349   8.636 -2.7438  1.3455  0.1355
 9408SOL    HW239687   2.912   2.328   8.745 -0.0211 -1.5306  1.1710
 9409SOL     OW39688   1.188   1.631   3.490  0.2495 -0.4756  0.0762
 9409SOL    HW139689   1.237   1.690   3.548 -0.6344 -0.9770  1.3236
 9409SOL    HW239690   1.259   1.624   3.426  1.0836  0.0016  0.9463
 9410SOL     OW39691   0.729   2.056  16.116 -0.2301  0.3646 -0.2924
 9410SOL    HW139692   0.817   2.046  16.079  0.2195 -0.1554  0.9282
 9410SOL    HW239693   0.685   2.112  16.052  0.8705  1.0355 -0.4544
 9411SOL     OW39694   4.122   2.396   7.005  0.3419  0.6582  0.3063
 9411SOL    HW139695   4.197   2.398   7.064  1.5209  1.1347 -1.2153
 9411SOL    HW239696   4.124   2.313   6.958  0.7496  0.9507 -0.1834
 9412SOL     OW39697   1.526   3.036   2.220  0.0464 -0.1256 -0.2251
 9412SOL    HW139698   1.558   2.949   2.244 -3.0115 -1.4601 -0.9323
 9412SOL    HW239699   1.605   3.070   2.178  0.0075  0.2504 -0.0027
 9413SOL     OW39700   2.694   4.165   3.421 -0.5172 -1.1454 -0.4937
 9413SOL    HW139701   2.757   4.191   3.354  1.7692 -0.7864  1.7702
 9413SOL    HW239702   2.755   4.167   3.495  1.5089 -1.5843 -2.1461
 9414SOL     OW39703   3.418   2.523   3.287  0.8315  0.1541 -0.7126
 9414SOL    HW139704   3.323   2.534   3.279  0.6767 -0.8997 -0.3463
 9414SOL    HW239705   3.447   2.512   3.196 -0.2622 -0.7266 -0.9632
 9415SOL     OW39706   4.333   3.385   9.742 -0.3239 -0.1875 -0.2235
 9415SOL    HW139707   4.341   3.342   9.657  3.6819  0.0483  0.0190
 9415SOL    HW239708   4.254   3.353   9.786  0.2072  1.2320  1.7569
 9416SOL     OW39709   0.168   1.031   2.820 -0.6409  0.4494  0.0810
 9416SOL    HW139710   0.185   1.116   2.780  2.3016  0.3411  1.1528
 9416SOL    HW239711   0.218   0.979   2.758 -1.8552  0.4357 -0.8965
 9417SOL     OW39712   3.698   3.884  16.138 -0.4059 -0.1949  0.9547
 9417SOL    HW139713   3.650   3.965  16.154 -0.5882 -0.3704  1.2963
 9417SOL    HW239714   3.646   3.847  16.066  1.0482  0.5398 -0.4780
 9418SOL     OW39715   2.842   0.794   6.386 -0.4819 -0.1653  0.3582
 9418SOL    HW139716   2.880   0.716   6.425  0.7900  0.7187  0.9076
 9418SOL    HW239717   2.845   0.767   6.295 -0.6133  1.3903 -0.1187
 9419SOL     OW39718   4.587   0.667   1.203 -0.1969 -0.1609  0.3687
 9419SOL    HW139719   4.552   0.691   1.117 -3.2368 -1.2569  1.2734
 9419SOL    HW239720   4.516   0.677   1.267 -1.5912  0.7331 -1.3119
 9420SOL     OW39721   1.249   2.213   2.016  0.2539 -0.1655  0.2376
 9420SOL    HW139722   1.277   2.221   2.107  0.2566 -0.0017  0.2216
 9420SOL    HW239723   1.161   2.181   2.036 -0.3635  0.5734 -1.2849
 9421SOL     OW39724   2.326   0.455   8.089  0.0929 -0.1052 -0.0145
 9421SOL    HW139725   2.311   0.425   8.179 -0.6751  1.1342  0.2712
 9421SOL    HW239726   2.350   0.547   8.105 -2.8363  0.2907  2.2203
 9422SOL     OW39727   2.939   1.027   3.165  0.0668 -0.3173 -0.1918
 9422SOL    HW139728   3.030   1.042   3.191 -0.5819 -0.2949  2.0334
 9422SOL    HW239729   2.900   1.114   3.176 -0.6052 -0.9666  2.4112
 9423SOL     OW39730   2.818   1.050  13.155 -0.3404 -0.4045 -0.1809
 9423SOL    HW139731   2.895   1.100  13.180 -1.3296  1.1782 -0.2709
 9423SOL    HW239732   2.842   0.961  13.181  1.4392 -0.3995 -1.8100
 9424SOL     OW39733   2.121   0.161   3.445 -0.0443 -0.3622  0.2549
 9424SOL    HW139734   2.170   0.235   3.481  0.4810 -0.3873 -0.3984
 9424SOL    HW239735   2.170   0.084   3.473  0.9538  0.7538  1.6112
 9425SOL     OW39736   1.036   4.516   5.767  0.4007 -0.3292  0.4342
 9425SOL    HW139737   1.010   4.601   5.802  1.6148  0.2204 -0.0056
 9425SOL    HW239738   1.131   4.515   5.773  0.2999 -0.1474  1.9844
 9426SOL     OW39739   1.048   0.371  17.621  0.4080  0.4371 -0.8227
 9426SOL    HW139740   1.076   0.458  17.594 -2.2553  1.4177 -0.5084
 9426SOL    HW239741   1.113   0.312  17.583 -0.1926 -1.9612  1.8323
 9427SOL     OW39742   0.253   3.860   5.238  0.2499  0.4700 -0.6612
 9427SOL    HW139743   0.186   3.887   5.175  0.5225  0.2806 -1.0288
 9427SOL    HW239744   0.201   3.841   5.316  2.0963 -0.9382  0.2286
 9428SOL     OW39745   4.287   3.912   5.638 -0.7330  0.2493  0.0400
 9428SOL    HW139746   4.297   3.982   5.703 -0.6959 -1.7503  2.1874
 9428SOL    HW239747   4.337   3.844   5.683 -1.5308 -0.2597  0.1630
 9429SOL     OW39748   3.030   4.619  15.797 -0.6395 -0.0283  0.0913
 9429SOL    HW139749   3.052   4.644  15.707  1.1170 -0.6613  0.3398
 9429SOL    HW239750   2.956   4.677  15.812 -1.3413 -1.0955  0.8155
 9430SOL     OW39751   4.446   2.573   2.245  0.1329 -0.1878  0.1273
 9430SOL    HW139752   4.421   2.554   2.155  3.0819 -2.3215 -0.2370
 9430SOL    HW239753   4.542   2.571   2.247  0.0797 -2.2996 -0.1396
 9431SOL     OW39754   2.438   3.126   8.091  0.2220  0.2601 -0.0286
 9431SOL    HW139755   2.527   3.121   8.127  0.1092 -1.2188  0.0547
 9431SOL    HW239756   2.461   3.195   8.029  0.9205  1.9267  2.1018
 9432SOL     OW39757   1.862   4.222   6.803 -0.4926 -0.3410 -0.6035
 9432SOL    HW139758   1.818   4.283   6.863  0.6893 -2.0624  1.9825
 9432SOL    HW239759   1.783   4.199   6.755 -0.9427  1.3079 -0.6684
 9433SOL     OW39760   1.650   4.324   6.456  0.2797 -0.0460 -0.2749
 9433SOL    HW139761   1.569   4.373   6.442 -1.2506 -2.4692  0.0847
 9433SOL    HW239762   1.720   4.387   6.439  0.6349  0.1702  2.0985
 9434SOL     OW39763   0.569   0.544   2.984  0.5642  0.3245  0.5718
 9434SOL    HW139764   0.514   0.608   2.940  0.6579 -0.0306 -0.0592
 9434SOL    HW239765   0.524   0.549   3.069 -0.0233  0.0658  0.2753
 9435SOL     OW39766   0.157   2.280   0.815  0.2926  0.0400 -0.3598
 9435SOL    HW139767   0.162   2.188   0.788 -0.3738  0.1389 -0.8212
 9435SOL    HW239768   0.226   2.322   0.763 -1.2890  2.3214 -0.6229
 9436SOL     OW39769   2.113   1.153  10.888 -0.2124  0.0606 -0.2693
 9436SOL    HW139770   2.188   1.210  10.908 -0.1901  0.4243 -1.4057
 9436SOL    HW239771   2.041   1.215  10.898  1.2069  1.8304 -0.9719
 9437SOL     OW39772   2.700   0.797   5.733 -0.1530 -0.0759  0.0878
 9437SOL    HW139773   2.725   0.820   5.823  0.5803 -0.1739 -0.0912
 9437SOL    HW239774   2.604   0.797   5.735 -0.1103  1.1733  3.1237
 9438SOL     OW39775   2.104   0.106  11.290  0.1384 -0.2499  0.1555
 9438SOL    HW139776   2.083   0.015  11.269  1.1111 -0.2357 -0.9168
 9438SOL    HW239777   2.133   0.092  11.380 -0.5391 -0.7990  0.2861
 9439SOL     OW39778   4.039   1.405   2.896 -0.2610  0.9455 -0.4426
 9439SOL    HW139779   4.052   1.491   2.935 -3.6959  0.5849  1.5291
 9439SOL    HW239780   4.051   1.432   2.805 -1.1662  2.0490 -0.2263
 9440SOL     OW39781   3.134   0.413   6.626  0.3675  0.4772 -0.0411
 9440SOL    HW139782   3.061   0.357   6.653 -1.4769  3.0135  0.2658
 9440SOL    HW239783   3.207   0.354   6.607  0.4652  1.0979 -1.6353
 9441SOL     OW39784   4.106   1.070   2.856 -0.3635 -0.1616 -0.1167
 9441SOL    HW139785   4.175   1.111   2.804 -0.1220 -0.4373 -0.0120
 9441SOL    HW239786   4.046   1.059   2.782 -0.0167 -2.6389 -0.0304
 9442SOL     OW39787   2.319   4.533   9.171  0.2447  0.4516  0.3811
 9442SOL    HW139788   2.379   4.504   9.102  1.3894 -0.9746  1.9580
 9442SOL    HW239789   2.329   4.471   9.244  2.6721  0.4019  0.0308
 9443SOL     OW39790   0.009   1.491   6.011 -0.0602  0.2108  0.3350
 9443SOL    HW139791   4.670   1.539   6.067 -0.2443 -0.1492  0.4420
 9443SOL    HW239792   0.031   1.417   6.067 -0.6804  1.2897  1.9937
 9444SOL     OW39793   1.901   1.421   6.608 -0.2321  0.3021 -0.6276
 9444SOL    HW139794   1.982   1.472   6.602 -0.7653  1.1856 -0.3393
 9444SOL    HW239795   1.857   1.497   6.646  0.3050  0.5915 -0.5746
 9445SOL     OW39796   0.192   3.356   0.345  0.4404  0.2599  0.1421
 9445SOL    HW139797   0.174   3.264   0.364  0.6493 -0.6554 -4.1711
 9445SOL    HW239798   0.109   3.404   0.342  0.5290  0.6387  3.4211
 9446SOL     OW39799   1.267   3.988   5.745 -0.1157  0.0111 -0.0725
 9446SOL    HW139800   1.340   4.009   5.687 -0.3045 -0.3283 -0.4380
 9446SOL    HW239801   1.213   3.935   5.686 -0.0989 -1.8785  1.5981
 9447SOL     OW39802   3.592   2.583   4.641  0.0589 -0.9582  0.8333
 9447SOL    HW139803   3.660   2.635   4.683 -0.7872  1.6652 -1.0753
 9447SOL    HW239804   3.550   2.530   4.708  2.2579 -2.0350  1.3555
 9448SOL     OW39805   4.612   2.935   3.208  0.0683 -0.2846 -0.0878
 9448SOL    HW139806   4.694   2.890   3.187 -0.0373 -0.1674 -0.7423
 9448SOL    HW239807   4.628   2.961   3.299 -1.8032 -0.0444  0.1669
 9449SOL     OW39808   3.810   3.365   7.114  0.1051  0.2072 -0.2275
 9449SOL    HW139809   3.858   3.283   7.113  0.7221  0.5792 -0.9133
 9449SOL    HW239810   3.767   3.354   7.199  0.1021  2.2473  0.0377
 9450SOL     OW39811   3.369   0.878  15.017  0.3599 -0.3874 -0.0918
 9450SOL    HW139812   3.340   0.793  14.984 -0.8618 -0.1580  0.4233
 9450SOL    HW239813   3.359   0.931  14.937  0.0888 -0.1012  0.1324
 9451SOL     OW39814   0.384   2.733   0.393 -0.4167 -0.4034  0.0200
 9451SOL    HW139815   0.405   2.779   0.474  2.7362 -0.4812 -0.7755
 9451SOL    HW239816   0.323   2.797   0.356 -0.3237 -0.1432  0.3193
 9452SOL     OW39817   4.053   1.256   9.122 -0.0392  0.1906  0.2409
 9452SOL    HW139818   4.116   1.256   9.050  2.0114 -0.5416  2.0271
 9452SOL    HW239819   4.012   1.170   9.118 -0.8713  0.6029 -0.0501
 9453SOL     OW39820   2.133   3.710   1.994  0.0901  0.0398  0.0474
 9453SOL    HW139821   2.121   3.803   2.011  2.4671  0.1336  1.2529
 9453SOL    HW239822   2.153   3.716   1.901  1.2688 -3.2798  0.0604
 9454SOL     OW39823   1.235   3.603   9.710  0.1750  0.0452  0.0367
 9454SOL    HW139824   1.161   3.645   9.753 -0.5149 -0.1494 -0.9811
 9454SOL    HW239825   1.217   3.514   9.742 -0.7721 -0.0114 -0.6611
 9455SOL     OW39826   4.457   1.939   2.467  0.1932 -0.4096 -0.3050
 9455SOL    HW139827   4.523   1.979   2.410 -0.6774  0.4483 -0.7092
 9455SOL    HW239828   4.505   1.872   2.514  0.7503  1.7804  2.2627
 9456SOL     OW39829   1.498   3.781  10.180 -1.1218 -0.3350 -0.1335
 9456SOL    HW139830   1.524   3.862  10.223 -1.7661 -2.4237  4.1952
 9456SOL    HW239831   1.413   3.812  10.148 -2.1103 -1.1803  1.6383
 9457SOL     OW39832   2.976   0.186   4.653  0.1339  0.5622 -0.6218
 9457SOL    HW139833   2.932   0.202   4.570  0.3713  1.0599 -0.6527
 9457SOL    HW239834   3.023   0.269   4.664  0.0285  0.2459  2.3726
 9458SOL     OW39835   0.162   0.814   4.932 -0.7043  0.3496  0.2063
 9458SOL    HW139836   0.091   0.839   4.992  0.3952 -0.4427  1.8398
 9458SOL    HW239837   0.106   0.810   4.855 -0.4890 -0.0284  0.0725
 9459SOL     OW39838   4.251   0.235   3.660 -0.2663 -0.0810 -0.2174
 9459SOL    HW139839   4.280   0.323   3.638 -2.7726  1.6601  3.2782
 9459SOL    HW239840   4.156   0.240   3.650 -0.0128  0.2775 -2.3061
 9460SOL     OW39841   2.609   0.759  10.183  0.5164  0.5849  0.2889
 9460SOL    HW139842   2.539   0.767  10.248 -0.5380  0.7170 -0.8718
 9460SOL    HW239843   2.614   0.853  10.169 -1.6169  0.4533 -1.2875
 9461SOL     OW39844   2.185   3.630   3.695  0.3241 -0.3850  0.2698
 9461SOL    HW139845   2.251   3.687   3.655 -0.6209 -0.8785 -2.0158
 9461SOL    HW239846   2.185   3.565   3.624  0.4662 -1.2955  1.1080
 9462SOL     OW39847   1.855   2.836   8.701 -0.6670  0.4304  0.2668
 9462SOL    HW139848   1.868   2.871   8.613  2.0367  0.6286  0.7464
 9462SOL    HW239849   1.776   2.783   8.698  0.7437 -1.6451  0.0486
 9463SOL     OW39850   3.097   0.497   2.717 -0.6544 -0.5276  1.0091
 9463SOL    HW139851   3.016   0.521   2.763  0.4604  0.1629  2.6094
 9463SOL    HW239852   3.088   0.403   2.730 -2.9738 -0.3687  0.6647
 9464SOL     OW39853   1.202   3.376   9.051  0.2980 -0.0615 -0.2305
 9464SOL    HW139854   1.209   3.363   9.145  0.3398  1.7365  0.0051
 9464SOL    HW239855   1.289   3.392   9.014  1.4012  1.9174  3.2523
 9465SOL     OW39856   3.010   2.017  13.410 -0.1185 -0.1285 -0.3452
 9465SOL    HW139857   2.959   1.943  13.442  0.6019 -1.2258 -1.7545
 9465SOL    HW239858   3.076   1.973  13.357 -0.9918 -1.9157  0.0457
 9466SOL     OW39859   2.075   2.195   6.656 -0.5782  0.0772  0.1112
 9466SOL    HW139860   2.043   2.115   6.698 -1.0512  1.6974  2.8733
 9466SOL    HW239861   1.998   2.252   6.654 -2.7582 -2.8312  1.4439
 9467SOL     OW39862   2.118   1.516   7.324 -0.1616  0.2627  0.3564
 9467SOL    HW139863   2.023   1.508   7.323 -0.2420  1.4428 -2.0970
 9467SOL    HW239864   2.129   1.548   7.413  1.4545  0.3641  0.1309
 9468SOL     OW39865   3.084   1.742   2.634 -0.0257  0.6965 -0.3297
 9468SOL    HW139866   3.148   1.805   2.668  0.2154 -0.6839  1.7416
 9468SOL    HW239867   3.130   1.730   2.550  1.5704 -1.8570  0.8899
 9469SOL     OW39868   2.371   1.620   9.391 -0.4716  0.0492  0.3248
 9469SOL    HW139869   2.393   1.537   9.348 -1.7213 -0.0740 -0.0624
 9469SOL    HW239870   2.301   1.644   9.331  1.7831 -0.2955 -2.4725
 9470SOL     OW39871   3.843   3.235   4.607 -0.4461 -0.0378  0.1925
 9470SOL    HW139872   3.828   3.279   4.523  0.6264 -2.0577 -1.0628
 9470SOL    HW239873   3.938   3.237   4.597 -0.5066  0.2265 -0.3320
 9471SOL     OW39874   2.826   3.941   9.455  0.2074 -0.0820  0.9028
 9471SOL    HW139875   2.866   4.013   9.405  0.1866  1.0769  2.5697
 9471SOL    HW239876   2.906   3.890   9.467 -0.2041 -0.9772 -0.1580
 9472SOL     OW39877   3.220   2.980   6.103  0.4189  0.3199  0.5495
 9472SOL    HW139878   3.241   3.050   6.165  1.3287  2.8920 -2.6933
 9472SOL    HW239879   3.229   2.909   6.167 -1.0375 -0.7189 -0.4126
 9473SOL     OW39880   0.438   1.437   2.799 -0.5223  0.7162 -0.2466
 9473SOL    HW139881   0.382   1.489   2.856 -1.4726  0.7205 -1.1823
 9473SOL    HW239882   0.462   1.496   2.727 -2.9171  1.0442 -0.7695
 9474SOL     OW39883   0.149   0.255   0.577  0.3368  0.1213  0.0008
 9474SOL    HW139884   0.210   0.238   0.649 -0.6524 -0.0576  0.7939
 9474SOL    HW239885   0.197   0.224   0.501  1.0117  1.0422  0.0465
 9475SOL     OW39886   0.114   0.474   5.052  0.7371  0.1627 -0.7210
 9475SOL    HW139887   0.138   0.495   4.962 -1.7364  0.6183 -1.2936
 9475SOL    HW239888   0.197   0.485   5.098  0.1543 -0.7165  0.5626
 9476SOL     OW39889   0.668   1.155   8.939 -0.0049  0.1911 -0.5475
 9476SOL    HW139890   0.576   1.128   8.940 -0.1919  0.7944 -1.3716
 9476SOL    HW239891   0.657   1.249   8.953  1.2962  0.3768 -0.7509
 9477SOL     OW39892   0.527   2.899   1.138  0.2996  0.0905 -0.1957
 9477SOL    HW139893   0.583   2.976   1.124  0.3356  0.0082 -0.5084
 9477SOL    HW239894   0.496   2.870   1.053  0.7585  3.1457 -1.3980
 9478SOL     OW39895   1.091   1.662   8.801  0.0416 -0.1724  0.4913
 9478SOL    HW139896   1.112   1.740   8.853 -1.2513  0.1852  0.4665
 9478SOL    HW239897   1.177   1.632   8.771  0.9554  1.5978  1.3238
 9479SOL     OW39898   2.512   0.161   5.811  0.4467  0.5468  0.3579
 9479SOL    HW139899   2.448   0.232   5.816 -1.3807 -1.0210 -0.4814
 9479SOL    HW239900   2.589   0.206   5.775  1.2007 -0.3563  0.8425
 9480SOL     OW39901   0.948   2.808   8.508 -0.0064  0.1263 -0.5460
 9480SOL    HW139902   0.975   2.898   8.526  2.1131 -0.4912 -0.6687
 9480SOL    HW239903   0.969   2.778   8.596  0.9785 -0.3070 -0.9255
 9481SOL     OW39904   1.539   3.431   3.826  0.1814 -0.4293 -0.4782
 9481SOL    HW139905   1.572   3.478   3.903 -2.0972  0.2183  0.0912
 9481SOL    HW239906   1.529   3.340   3.853  0.9347 -0.1633  0.7044
 9482SOL     OW39907   1.855   2.638  13.041 -0.3491 -0.3517  0.3109
 9482SOL    HW139908   1.901   2.682  12.970  0.9858 -0.5311  1.0797
 9482SOL    HW239909   1.829   2.550  13.011  0.2563 -1.7134  3.7339
 9483SOL     OW39910   0.057   2.868   8.205 -0.1814 -0.3811 -0.3329
 9483SOL    HW139911   4.694   2.910   8.213 -1.1931 -2.3022 -1.0259
 9483SOL    HW239912   0.028   2.814   8.131 -1.7543 -0.4712  0.3507
 9484SOL     OW39913   1.733   0.150   8.658  0.9960  0.1106 -0.1804
 9484SOL    HW139914   1.802   0.100   8.615 -0.5379  0.1930 -2.7341
 9484SOL    HW239915   1.678   0.083   8.698  0.1606 -0.7278 -2.7201
 9485SOL     OW39916   3.580   3.143  16.434  0.6328 -0.0897 -0.0948
 9485SOL    HW139917   3.629   3.102  16.363  0.7464  0.1905 -0.1748
 9485SOL    HW239918   3.640   3.133  16.507  0.5818  0.0319 -0.0371
 9486SOL     OW39919   0.219   2.050   8.463  0.0564  0.0605  0.2332
 9486SOL    HW139920   0.228   2.067   8.369 -1.4271  0.8577  0.2443
 9486SOL    HW239921   0.298   2.095   8.490  0.7793 -1.1997  0.2474
 9487SOL     OW39922   2.597   3.476   7.691  0.4595  0.2016 -0.0482
 9487SOL    HW139923   2.510   3.503   7.719  0.6883  1.1920 -0.2866
 9487SOL    HW239924   2.624   3.518   7.610 -0.7594  1.8971  0.4395
 9488SOL     OW39925   1.360   2.506   9.114  0.1822 -0.5807 -0.0569
 9488SOL    HW139926   1.366   2.481   9.206  0.3005  0.3733  0.1975
 9488SOL    HW239927   1.284   2.456   9.085  0.7591 -0.3033 -2.0374
 9489SOL     OW39928   0.670   4.203   1.182 -0.2768  0.0142  0.3777
 9489SOL    HW139929   0.652   4.166   1.268 -1.8220  0.1588  0.1106
 9489SOL    HW239930   0.647   4.294   1.200  2.4783  0.8396 -0.2402
 9490SOL     OW39931   0.268   3.707   7.705 -0.4383  0.2014 -0.4388
 9490SOL    HW139932   0.288   3.699   7.798  0.0607 -0.5511 -0.6167
 9490SOL    HW239933   0.272   3.615   7.680 -0.8866  0.3114 -0.9216
 9491SOL     OW39934   3.353   1.532   6.526  0.4772 -0.5299 -0.2587
 9491SOL    HW139935   3.314   1.579   6.452  0.3736  0.3676  0.3613
 9491SOL    HW239936   3.425   1.486   6.483 -0.1046  0.1645 -1.9531
 9492SOL     OW39937   3.605   0.015   8.504  0.2315 -0.1521 -0.4451
 9492SOL    HW139938   3.555   4.667   8.546  1.6843 -1.0644 -0.2616
 9492SOL    HW239939   3.690   0.010   8.546 -0.2948 -0.1753  0.6213
 9493SOL     OW39940   2.020   3.251   6.394  0.2920 -0.2868 -0.2188
 9493SOL    HW139941   1.930   3.221   6.398 -0.6227  2.6197  1.0680
 9493SOL    HW239942   2.010   3.337   6.435 -1.1623  0.0118 -1.1982
 9494SOL     OW39943   2.860   2.896  10.927  0.3209  0.5901  0.0565
 9494SOL    HW139944   2.820   2.853  10.852 -0.2980  1.2978 -0.0196
 9494SOL    HW239945   2.828   2.846  11.002  2.2917  0.3092  0.7215
 9495SOL     OW39946   1.412   0.894   6.617  0.3290  0.3068 -0.1653
 9495SOL    HW139947   1.426   0.832   6.546  2.8005  1.0547 -0.3240
 9495SOL    HW239948   1.364   0.844   6.683  1.5175  0.4562  0.7982
 9496SOL     OW39949   0.626   3.204   1.421  0.2013  0.1989 -0.1674
 9496SOL    HW139950   0.538   3.170   1.405  0.2862 -0.9191  1.7963
 9496SOL    HW239951   0.671   3.120   1.415 -1.8543 -0.9648  0.6546
 9497SOL     OW39952   0.250   2.247  13.069  0.2119 -0.8612 -0.0505
 9497SOL    HW139953   0.305   2.226  13.144 -0.4113  2.3246  1.2913
 9497SOL    HW239954   0.309   2.287  13.005 -0.2664  0.4803  0.3600
 9498SOL     OW39955   0.029   3.852   2.436  0.2922  0.1720  0.1303
 9498SOL    HW139956   0.042   3.904   2.356 -2.3831 -0.6737 -0.8448
 9498SOL    HW239957   0.092   3.786   2.408 -0.6381 -1.7276  2.5273
 9499SOL     OW39958   2.230   3.079   2.080 -0.9475 -0.7929 -0.3099
 9499SOL    HW139959   2.160   3.064   2.016 -2.2372 -1.3524  1.2544
 9499SOL    HW239960   2.253   2.992   2.112  0.5495 -1.0206 -1.9357
 9500SOL     OW39961   4.374   1.414   0.741 -0.0651  0.2557 -0.0264
 9500SOL    HW139962   4.281   1.407   0.717 -0.1290  0.5160  0.1465
 9500SOL    HW239963   4.403   1.324   0.732 -3.1220 -0.5359 -2.0402
 9501SOL     OW39964   3.129   0.159   1.358  0.5423 -0.8414  0.1862
 9501SOL    HW139965   3.036   0.170   1.377  0.2589  0.4031 -1.8575
 9501SOL    HW239966   3.135   0.205   1.274  1.2742  0.8246  1.1520
 9502SOL     OW39967   2.041   1.682   6.041 -0.0873  0.2993 -0.2116
 9502SOL    HW139968   2.100   1.606   6.047  0.3538  0.6836  0.2753
 9502SOL    HW239969   2.073   1.719   5.958  1.7276 -2.5322 -0.7892
 9503SOL     OW39970   3.988   3.949   8.640  0.2927 -0.7837  0.2412
 9503SOL    HW139971   4.038   3.980   8.716 -1.5556  1.3766  0.5615
 9503SOL    HW239972   4.043   3.981   8.569  0.3598 -2.4969 -0.4719
 9504SOL     OW39973   3.258   2.897   8.135  0.0365  0.4896 -0.1128
 9504SOL    HW139974   3.280   2.811   8.172  0.1241  0.4673 -0.2168
 9504SOL    HW239975   3.303   2.895   8.050  0.5166  2.5222  0.1096
 9505SOL     OW39976   0.275   4.045   4.077  0.4231  0.0427  0.3746
 9505SOL    HW139977   0.273   3.951   4.060 -0.8540  0.4254 -1.5589
 9505SOL    HW239978   0.310   4.048   4.166 -2.9813 -0.6847  1.7356
 9506SOL     OW39979   2.118   2.528   6.344 -0.2401  0.0546  0.1064
 9506SOL    HW139980   2.156   2.510   6.258  2.1922 -0.3925  1.2740
 9506SOL    HW239981   2.106   2.436   6.370 -1.9079  0.5398  1.1018
 9507SOL     OW39982   0.851   1.027  11.746 -0.4461 -0.0330 -0.0491
 9507SOL    HW139983   0.764   1.063  11.766  0.4838  1.5682  1.1829
 9507SOL    HW239984   0.845   0.947  11.799  0.5280  0.7986  1.3274
 9508SOL     OW39985   3.576   0.295   2.644  0.0307  0.3202  0.2962
 9508SOL    HW139986   3.652   0.315   2.589 -1.1853 -1.5381 -2.0681
 9508SOL    HW239987   3.512   0.333   2.583 -0.4987 -1.1112 -0.0284
 9509SOL     OW39988   3.204   4.298   5.411 -0.0316  0.0012  0.0143
 9509SOL    HW139989   3.229   4.234   5.344 -0.5885  0.3362 -0.5272
 9509SOL    HW239990   3.284   4.324   5.455  0.4215  0.5831 -1.1548
 9510SOL     OW39991   2.385   3.566   0.539 -0.1838 -0.0920  0.2657
 9510SOL    HW139992   2.419   3.491   0.491 -1.0957  0.2993 -0.9937
 9510SOL    HW239993   2.333   3.513   0.600 -0.6328  1.4738  1.2244
 9511SOL     OW39994   1.278   3.402  10.854  1.1412 -0.0373 -0.2081
 9511SOL    HW139995   1.238   3.455  10.785 -0.2968 -1.9772 -0.8434
 9511SOL    HW239996   1.315   3.331  10.802  2.4906 -0.2645  1.0529
 9512SOL     OW39997   4.718   3.673  15.265 -0.1510 -0.4904  0.5975
 9512SOL    HW139998   4.690   3.648  15.178  0.8179 -1.1248  0.4651
 9512SOL    HW239999   4.719   3.585  15.303  0.1955 -0.4535  0.6773
 9513SOL     OW40000   1.608   3.867   6.147  0.1994 -0.5159 -0.0946
 9513SOL    HW140001   1.532   3.878   6.089 -0.1105 -1.9834  0.0340
 9513SOL    HW240002   1.685   3.883   6.092  1.1750  1.9947  2.0642
 9514SOL     OW40003   0.822   0.916   8.922  0.3901 -0.1372 -0.2373
 9514SOL    HW140004   0.760   0.988   8.914  0.3101 -0.1849 -0.0379
 9514SOL    HW240005   0.750   0.854   8.939  0.2972  0.6055  2.0363
 9515SOL     OW40006   0.620   4.028   2.032  0.8924  0.0993 -0.4235
 9515SOL    HW140007   0.612   4.118   2.001  0.3231  0.0062 -0.5589
 9515SOL    HW240008   0.582   3.977   1.960 -2.3533  1.6343  0.1701
 9516SOL     OW40009   4.143   1.755   5.608 -0.1868  0.3923 -0.2605
 9516SOL    HW140010   4.222   1.710   5.577 -1.2271  1.2922 -4.2276
 9516SOL    HW240011   4.176   1.784   5.693 -0.7694 -1.0937  0.4780
 9517SOL     OW40012   1.806   0.262  13.030 -0.1975 -0.5919  0.1970
 9517SOL    HW140013   1.786   0.352  13.054  0.7524  0.0419 -1.4641
 9517SOL    HW240014   1.876   0.242  13.092 -1.7455  0.2505  2.2312
 9518SOL     OW40015   2.452   3.011   9.264  0.0464 -0.2096 -0.6682
 9518SOL    HW140016   2.538   3.028   9.301 -0.8415 -0.8217  1.6876
 9518SOL    HW240017   2.413   2.946   9.323 -0.8470  2.2733  1.4743
 9519SOL     OW40018   1.572   0.969  16.500  0.2425  0.3632 -0.1089
 9519SOL    HW140019   1.639   0.972  16.569  1.1028  0.0019 -0.9337
 9519SOL    HW240020   1.533   0.891  16.540 -0.6403  0.0468 -1.6150
 9520SOL     OW40021   3.533   0.161   4.323 -0.7546 -0.0452  0.5115
 9520SOL    HW140022   3.468   0.116   4.378  0.2470  0.0581  1.7743
 9520SOL    HW240023   3.605   0.110   4.360 -0.1500  0.4064 -0.0563
 9521SOL     OW40024   0.381   1.348   7.032 -0.3522 -0.0085 -0.5314
 9521SOL    HW140025   0.380   1.275   6.970 -0.7068 -0.1000 -0.4168
 9521SOL    HW240026   0.291   1.380   7.036  0.5572  2.8178 -2.8068
 9522SOL     OW40027   0.940   3.075   1.248  0.4230 -0.2424 -0.0538
 9522SOL    HW140028   0.863   3.088   1.192 -0.7229 -0.4464  1.4616
 9522SOL    HW240029   0.983   3.016   1.186 -1.9521 -0.8352 -1.1491
 9523SOL     OW40030   3.669   0.818  11.559  0.7808  0.0137  0.5918
 9523SOL    HW140031   3.714   0.773  11.487  0.9119  0.1987  0.5567
 9523SOL    HW240032   3.605   0.878  11.521  1.0813 -0.3250 -0.4579
 9524SOL     OW40033   3.785   0.625   1.706  0.2481  0.0249 -0.4590
 9524SOL    HW140034   3.739   0.617   1.789  1.2680  1.1954  0.2215
 9524SOL    HW240035   3.826   0.711   1.714 -1.3497  0.7552 -0.1378
 9525SOL     OW40036   1.855   2.324  15.462  0.1147 -0.2261 -0.2710
 9525SOL    HW140037   1.914   2.261  15.419  0.7109  1.1159 -1.4031
 9525SOL    HW240038   1.807   2.353  15.385 -0.0818 -1.0961 -0.4817
 9526SOL     OW40039   0.450   3.815  15.695 -0.1699  0.2438 -0.0381
 9526SOL    HW140040   0.516   3.881  15.716 -0.4546  0.1230  1.2491
 9526SOL    HW240041   0.378   3.845  15.751 -0.7425  1.1175 -1.2620
 9527SOL     OW40042   0.515   2.092  10.060  0.6618  0.5536  0.2039
 9527SOL    HW140043   0.540   2.131  10.144 -1.9215 -0.3674  1.3998
 9527SOL    HW240044   0.419   2.094  10.066  0.9272 -0.4079  4.2024
 9528SOL     OW40045   2.079   4.537   1.058  0.5932 -0.1804 -0.2630
 9528SOL    HW140046   2.154   4.528   1.000 -0.5705 -0.6724 -1.6797
 9528SOL    HW240047   2.022   4.468   1.024  0.0419 -0.1035  0.5040
 9529SOL     OW40048   4.498   1.396  10.346  0.7675 -0.1242  0.2939
 9529SOL    HW140049   4.540   1.454  10.283  1.1573 -0.5630  0.1536
 9529SOL    HW240050   4.573   1.369  10.399  3.4683  0.0203 -3.4367
 9530SOL     OW40051   1.033   1.544   2.972  0.6717  0.2564 -0.3490
 9530SOL    HW140052   1.110   1.583   3.014 -0.6918  0.5294  1.9066
 9530SOL    HW240053   1.048   1.449   2.976 -0.4734  0.1528  1.6253
 9531SOL     OW40054   2.035   2.306  10.839  1.1599 -0.0190 -0.3705
 9531SOL    HW140055   2.105   2.307  10.774  1.1285  0.7288 -0.3932
 9531SOL    HW240056   2.016   2.213  10.825  1.4854 -0.1124 -0.1892
 9532SOL     OW40057   2.343   3.319   4.722  0.6490  0.1740  0.3708
 9532SOL    HW140058   2.322   3.409   4.746 -0.5490  0.3493 -1.3169
 9532SOL    HW240059   2.400   3.325   4.645 -1.8883  0.2220 -1.5262
 9533SOL     OW40060   2.469   2.071   6.664 -0.1047 -0.2924  0.1105
 9533SOL    HW140061   2.562   2.049   6.668  0.6354  2.6362 -0.9075
 9533SOL    HW240062   2.419   1.992   6.685  0.5958 -1.0742 -1.1091
 9534SOL     OW40063   4.476   0.610   4.420  0.5843  0.3416  0.2492
 9534SOL    HW140064   4.518   0.574   4.342  3.1968 -1.8218  2.6653
 9534SOL    HW240065   4.529   0.565   4.486  0.6371  0.0300 -0.0093
 9535SOL     OW40066   4.290   2.467   6.688 -0.0519 -0.6429 -0.4876
 9535SOL    HW140067   4.245   2.524   6.750 -0.1303 -0.7322 -0.4637
 9535SOL    HW240068   4.332   2.410   6.752 -0.4989  0.2756  0.6289
 9536SOL     OW40069   0.789   3.044   8.779 -0.1037  0.3443 -0.0538
 9536SOL    HW140070   0.781   2.999   8.695 -0.1495  0.7308 -0.2577
 9536SOL    HW240071   0.701   3.042   8.817 -0.1923 -1.4793 -0.3972
 9537SOL     OW40072   4.503   4.481  10.128 -0.2334 -0.3561 -0.4218
 9537SOL    HW140073   4.444   4.541  10.082  1.5686  0.2355 -2.0004
 9537SOL    HW240074   4.540   4.549  10.185 -0.7945 -0.2622 -0.1731
 9538SOL     OW40075   1.809   3.201   5.793 -0.0698 -0.4113  0.1532
 9538SOL    HW140076   1.857   3.146   5.730  0.9035  1.4778 -0.7698
 9538SOL    HW240077   1.866   3.278   5.787 -1.0373  0.3443  0.7131
 9539SOL     OW40078   3.705   1.854   5.071  0.2309  0.2715  0.0258
 9539SOL    HW140079   3.610   1.858   5.059  0.0743 -0.8587  0.8525
 9539SOL    HW240080   3.724   1.945   5.091 -0.2164  0.0827  1.2942
 9540SOL     OW40081   4.653   2.811   8.774 -0.3582  0.6794 -0.4673
 9540SOL    HW140082   4.714   2.773   8.838 -0.9631 -2.3645 -1.6872
 9540SOL    HW240083   4.680   2.767   8.693 -1.3602 -1.4031  0.3281
 9541SOL     OW40084   1.933   1.795  16.199  0.3835  0.3536  0.1042
 9541SOL    HW140085   1.947   1.856  16.126 -0.9520 -1.0273 -1.2991
 9541SOL    HW240086   1.855   1.752  16.165  0.6620 -0.4713  0.5200
 9542SOL     OW40087   3.032   2.396   2.965  0.0441  0.3216  0.0691
 9542SOL    HW140088   2.954   2.434   3.006  0.9953 -0.4026  2.4984
 9542SOL    HW240089   2.996   2.393   2.876  0.2421 -0.6192  0.0186
 9543SOL     OW40090   3.320   2.372   8.178  0.3730 -0.3965 -0.0529
 9543SOL    HW140091   3.358   2.372   8.265 -2.6201 -0.4062  1.2516
 9543SOL    HW240092   3.316   2.277   8.171 -3.0056 -0.2584 -0.2781
 9544SOL     OW40093   3.260   2.529   2.982  0.0707  0.1727 -0.1332
 9544SOL    HW140094   3.225   2.572   3.060 -0.2383 -1.3828  0.5849
 9544SOL    HW240095   3.194   2.462   2.962  0.4476 -0.8155  1.9223
 9545SOL     OW40096   1.927   2.391  11.267 -0.3025 -0.0982 -0.1042
 9545SOL    HW140097   1.879   2.325  11.216 -0.9214  1.5049 -1.5992
 9545SOL    HW240098   2.014   2.373  11.231 -0.2571 -1.5784  0.7420
 9546SOL     OW40099   0.690   3.228   5.183  0.4717 -0.4141  0.3699
 9546SOL    HW140100   0.775   3.262   5.152  0.6890  0.3648  1.8175
 9546SOL    HW240101   0.642   3.280   5.247  2.2601  0.2409  1.1818
 9547SOL     OW40102   3.403   1.237   6.737  0.2540  0.1650  0.2003
 9547SOL    HW140103   3.490   1.267   6.711  0.3556 -1.9038 -1.9184
 9547SOL    HW240104   3.384   1.166   6.675  0.4170  2.1334 -2.0959
 9548SOL     OW40105   1.822   3.634   5.882 -0.2426 -0.0018  0.0005
 9548SOL    HW140106   1.816   3.671   5.794 -3.6040  0.3248  0.3398
 9548SOL    HW240107   1.841   3.708   5.940  0.0446 -0.2763  0.2545
 9549SOL     OW40108   1.636   4.404   8.846 -0.4694 -0.6814 -0.6745
 9549SOL    HW140109   1.711   4.369   8.894  0.0641 -0.3339 -1.2551
 9549SOL    HW240110   1.613   4.330   8.790  0.1845 -1.1407 -0.3266
 9550SOL     OW40111   2.535   1.463   6.845  0.0329 -0.1521 -0.2226
 9550SOL    HW140112   2.565   1.497   6.929  0.0341  1.1558 -0.7584
 9550SOL    HW240113   2.444   1.491   6.835  0.4154  1.4718  0.9345
 9551SOL     OW40114   3.064   0.110  10.824  0.5848  0.4650  0.1715
 9551SOL    HW140115   3.109   0.073  10.900  0.5574  1.6574  0.7591
 9551SOL    HW240116   3.119   0.084  10.750 -2.0888  1.4249 -2.1364
 9552SOL     OW40117   0.931   4.303   4.438 -0.2214 -0.5713 -0.6204
 9552SOL    HW140118   0.961   4.388   4.403 -0.1898 -0.3421 -0.0260
 9552SOL    HW240119   0.880   4.257   4.371  0.4867 -0.3442 -1.3232
 9553SOL     OW40120   4.437   3.681   4.752 -0.3168  0.0791  0.2463
 9553SOL    HW140121   4.401   3.691   4.664  2.3805  1.9840 -0.6150
 9553SOL    HW240122   4.373   3.626   4.797 -1.4115  1.2674  0.1327
 9554SOL     OW40123   1.347   1.101  12.335  0.2321  0.3725  0.0725
 9554SOL    HW140124   1.438   1.076  12.349  0.0384  0.6114  1.8161
 9554SOL    HW240125   1.320   1.111  12.426  0.8332  1.2937  0.1485
 9555SOL     OW40126   2.654   2.890   9.703 -0.1060  0.1317  0.3948
 9555SOL    HW140127   2.578   2.943   9.678  0.7147  0.9404 -0.4039
 9555SOL    HW240128   2.616   2.806   9.678  1.8794 -0.1099 -1.7086
 9556SOL     OW40129   4.162   3.343   5.316  0.4608 -0.3147  0.1069
 9556SOL    HW140130   4.165   3.430   5.356 -0.0856 -0.3739  0.2759
 9556SOL    HW240131   4.109   3.293   5.379 -0.8214 -0.3601 -1.0181
 9557SOL     OW40132   0.359   3.110  17.437  0.3393 -0.2944  0.2586
 9557SOL    HW140133   0.440   3.152  17.466  1.2472  0.2413 -3.0774
 9557SOL    HW240134   0.357   3.151  17.351  1.4842 -1.4615 -0.3221
 9558SOL     OW40135   3.373   4.570   6.292 -0.3565  1.5332 -0.0300
 9558SOL    HW140136   3.409   4.481   6.285 -0.2452  1.5845 -0.1251
 9558SOL    HW240137   3.285   4.563   6.328  0.3654 -1.3691  1.1872
 9559SOL     OW40138   0.433   2.588   7.704  0.7775 -0.0410  0.3832
 9559SOL    HW140139   0.408   2.593   7.796  2.5798 -2.9246  1.0059
 9559SOL    HW240140   0.423   2.679   7.676  3.2493  0.7105  1.9730
 9560SOL     OW40141   1.260   0.691   8.026  0.6094  0.5855 -0.0429
 9560SOL    HW140142   1.345   0.651   8.008  0.6958  0.1556  1.3153
 9560SOL    HW240143   1.285   0.782   8.011 -0.1108  0.9636  1.0616
 9561SOL     OW40144   3.846   4.326  11.475 -0.1351  0.0132 -0.3818
 9561SOL    HW140145   3.866   4.251  11.530 -1.6925  0.1933  0.4142
 9561SOL    HW240146   3.915   4.335  11.409  1.2721 -1.1989  0.9107
 9562SOL     OW40147   0.285   3.782   3.987 -0.1614  0.0999 -0.6002
 9562SOL    HW140148   0.357   3.722   4.003 -1.1344 -0.0914  3.0938
 9562SOL    HW240149   0.233   3.722   3.934 -1.2766  1.5141 -1.1217
 9563SOL     OW40150   2.236   3.064   4.257  0.1727 -0.2621 -0.2280
 9563SOL    HW140151   2.307   3.066   4.193 -0.1095  1.9131 -0.4670
 9563SOL    HW240152   2.231   2.972   4.282 -0.6355  0.0728  0.8295
 9564SOL     OW40153   2.706   3.365   4.322 -0.1707 -0.2983 -0.4740
 9564SOL    HW140154   2.711   3.297   4.255 -0.9575 -1.2401  0.4141
 9564SOL    HW240155   2.798   3.380   4.343 -0.3960  0.7070 -0.2017
 9565SOL     OW40156   3.450   1.980  13.503 -0.1467  0.3312 -0.1906
 9565SOL    HW140157   3.378   2.025  13.547  1.4503  1.0190  1.6947
 9565SOL    HW240158   3.401   1.930  13.438 -0.6818  1.1941 -0.4537
 9566SOL     OW40159   0.463   0.480   3.771 -0.3605  0.0779  0.9253
 9566SOL    HW140160   0.435   0.560   3.815 -1.5059 -0.1148  0.5326
 9566SOL    HW240161   0.382   0.429   3.778 -0.2567 -0.2500 -0.2711
 9567SOL     OW40162   3.727   3.688   6.418 -0.5851  0.1691  0.2634
 9567SOL    HW140163   3.800   3.659   6.363 -1.6283 -0.8136 -0.6115
 9567SOL    HW240164   3.723   3.614   6.479 -1.7498 -0.1227 -0.1746
 9568SOL     OW40165   1.287   1.969  13.203 -0.2234 -0.4112 -0.1485
 9568SOL    HW140166   1.363   1.916  13.179 -1.8623 -2.6276 -0.4336
 9568SOL    HW240167   1.222   1.899  13.214 -0.8287 -0.0110 -1.2844
   4.72220   4.72220  17.69091
